Generated by trjconv : CNT in water t= 171.00000
33518
    1C        C    1   2.837   2.764   4.743
    1C        C    2   2.892   2.716   4.863
    1C        C    3   2.835   2.766   4.981
    1C        C    4   2.849   2.772   4.255
    1C        C    5   2.899   2.723   4.378
    1C        C    6   2.845   2.768   4.501
    1C        C    7   3.007   2.633   4.621
    1C        C    8   2.889   2.711   4.622
    1C        C    9   3.072   2.599   4.742
    1C        C   10   3.007   2.634   4.863
    1C        C   11   3.178   2.489   4.972
    1C        C   12   3.057   2.558   4.970
    1C        C   13   2.852   2.771   3.766
    1C        C   14   2.899   2.721   3.890
    1C        C   15   2.842   2.767   4.011
    1C        C   16   3.010   2.637   4.132
    1C        C   17   2.897   2.721   4.133
    1C        C   18   3.074   2.606   4.255
    1C        C   19   3.014   2.640   4.378
    1C        C   20   3.203   2.547   4.498
    1C        C   21   3.073   2.602   4.500
    1C        C   22   3.273   2.527   4.619
    1C        C   23   3.202   2.543   4.740
    1C        C   24   3.407   2.477   4.856
    1C        C   25   3.265   2.494   4.858
    1C        C   26   3.481   2.475   4.975
    1C        C   27   2.846   2.763   3.280
    1C        C   28   2.901   2.719   3.403
    1C        C   29   2.849   2.768   3.524
    1C        C   30   3.018   2.637   3.642
    1C        C   31   2.903   2.719   3.645
    1C        C   32   3.075   2.601   3.766
    1C        C   33   3.012   2.636   3.888
    1C        C   34   3.203   2.547   4.011
    1C        C   35   3.072   2.599   4.011
    1C        C   36   3.271   2.532   4.134
    1C        C   37   3.205   2.556   4.256
    1C        C   38   3.414   2.507   4.377
    1C        C   39   3.274   2.530   4.377
    1C        C   40   3.484   2.498   4.499
    1C        C   41   3.410   2.494   4.620
    1C        C   42   3.627   2.480   4.742
    1C        C   43   3.485   2.473   4.737
    1C        C   44   3.699   2.485   4.864
    1C        C   45   3.620   2.477   4.979
    1C        C   46   2.831   2.746   2.789
    1C        C   47   2.889   2.710   2.913
    1C        C   48   2.841   2.760   3.036
    1C        C   49   3.015   2.637   3.157
    1C        C   50   2.898   2.717   3.157
    1C        C   51   3.078   2.600   3.278
    1C        C   52   3.016   2.637   3.400
    1C        C   53   3.207   2.541   3.523
    1C        C   54   3.076   2.594   3.521
    1C        C   55   3.273   2.523   3.646
    1C        C   56   3.203   2.542   3.767
    1C        C   57   3.410   2.507   3.889
    1C        C   58   3.270   2.519   3.889
    1C        C   59   3.481   2.502   4.011
    1C        C   60   3.410   2.507   4.134
    1C        C   61   3.624   2.501   4.253
    1C        C   62   3.483   2.498   4.254
    1C        C   63   3.695   2.505   4.375
    1C        C   64   3.625   2.496   4.498
    1C        C   65   3.832   2.532   4.618
    1C        C   66   3.696   2.493   4.619
    1C        C   67   3.899   2.557   4.740
    1C        C   68   3.834   2.524   4.861
    1C        C   69   4.046   2.580   4.975
    1C        C   70   3.919   2.523   4.973
    1C        C   71   2.817   2.729   2.304
    1C        C   72   2.876   2.689   2.425
    1C        C   73   2.824   2.740   2.546
    1C        C   74   3.000   2.619   2.667
    1C        C   75   2.882   2.697   2.667
    1C        C   76   3.066   2.591   2.789
    1C        C   77   3.007   2.632   2.911
    1C        C   78   3.200   2.543   3.030
    1C        C   79   3.069   2.597   3.033
    1C        C   80   3.268   2.520   3.152
    1C        C   81   3.206   2.540   3.277
    1C        C   82   3.411   2.492   3.396
    1C        C   83   3.272   2.518   3.400
    1C        C   84   3.479   2.486   3.520
    1C        C   85   3.412   2.495   3.644
    1C        C   86   3.622   2.495   3.765
    1C        C   87   3.481   2.498   3.767
    1C        C   88   3.692   2.508   3.887
    1C        C   89   3.622   2.501   4.010
    1C        C   90   3.834   2.533   4.132
    1C        C   91   3.695   2.509   4.131
    1C        C   92   3.900   2.561   4.254
    1C        C   93   3.832   2.540   4.376
    1C        C   94   4.023   2.631   4.496
    1C        C   95   3.899   2.563   4.498
    1C        C   96   4.084   2.668   4.618
    1C        C   97   4.026   2.619   4.738
    1C        C   98   4.184   2.760   4.861
    1C        C   99   4.095   2.648   4.859
    1C        C  100   4.204   2.841   4.974
    1C        C  101   2.822   2.732   2.068
    1C        C  102   2.985   2.587   2.187
    1C        C  103   2.869   2.671   2.185
    1C        C  104   3.059   2.574   2.308
    1C        C  105   2.995   2.612   2.428
    1C        C  106   3.196   2.533   2.549
    1C        C  107   3.064   2.583   2.547
    1C        C  108   3.268   2.516   2.669
    1C        C  109   3.197   2.540   2.789
    1C        C  110   3.407   2.492   2.909
    1C        C  111   3.269   2.521   2.909
    1C        C  112   3.480   2.490   3.030
    1C        C  113   3.407   2.496   3.151
    1C        C  114   3.621   2.497   3.275
    1C        C  115   3.480   2.490   3.272
    1C        C  116   3.691   2.503   3.398
    1C        C  117   3.620   2.496   3.520
    1C        C  118   3.827   2.544   3.640
    1C        C  119   3.691   2.506   3.642
    1C        C  120   3.893   2.566   3.763
    1C        C  121   3.829   2.540   3.886
    1C        C  122   4.020   2.631   4.009
    1C        C  123   3.896   2.563   4.009
    1C        C  124   4.083   2.667   4.130
    1C        C  125   4.023   2.629   4.253
    1C        C  126   4.189   2.764   4.374
    1C        C  127   4.080   2.675   4.375
    1C        C  128   4.239   2.816   4.495
    1C        C  129   4.189   2.763   4.616
    1C        C  130   4.317   2.930   4.740
    1C        C  131   4.235   2.813   4.740
    1C        C  132   4.345   3.003   4.857
    1C        C  133   4.277   2.959   4.971
    1C        C  134   3.171   2.468   2.077
    1C        C  135   3.035   2.503   2.082
    1C        C  136   3.255   2.479   2.188
    1C        C  137   3.191   2.523   2.306
    1C        C  138   3.401   2.476   2.424
    1C        C  139   3.262   2.505   2.427
    1C        C  140   3.475   2.472   2.543
    1C        C  141   3.407   2.488   2.666
    1C        C  142   3.619   2.490   2.784
    1C        C  143   3.478   2.484   2.788
    1C        C  144   3.689   2.503   2.906
    1C        C  145   3.621   2.496   3.030
    1C        C  146   3.828   2.536   3.152
    1C        C  147   3.691   2.501   3.153
    1C        C  148   3.894   2.561   3.275
    1C        C  149   3.828   2.538   3.397
    1C        C  150   4.026   2.617   3.522
    1C        C  151   3.897   2.560   3.519
    1C        C  152   4.084   2.659   3.644
    1C        C  153   4.021   2.626   3.766
    1C        C  154   4.187   2.760   3.884
    1C        C  155   4.083   2.665   3.887
    1C        C  156   4.240   2.807   4.007
    1C        C  157   4.193   2.755   4.129
    1C        C  158   4.333   2.917   4.250
    1C        C  159   4.241   2.809   4.250
    1C        C  160   4.369   2.979   4.372
    1C        C  161   4.320   2.931   4.495
    1C        C  162   4.427   3.113   4.612
    1C        C  163   4.358   2.989   4.618
    1C        C  164   4.456   3.183   4.731
    1C        C  165   4.425   3.120   4.853
    1C        C  166   4.512   3.318   4.969
    1C        C  167   4.470   3.185   4.969
    1C        C  168   3.472   2.430   2.068
    1C        C  169   3.395   2.456   2.182
    1C        C  170   3.612   2.466   2.302
    1C        C  171   3.470   2.460   2.302
    1C        C  172   3.689   2.485   2.419
    1C        C  173   3.616   2.480   2.540
    1C        C  174   3.825   2.532   2.661
    1C        C  175   3.688   2.496   2.661
    1C        C  176   3.888   2.562   2.784
    1C        C  177   3.826   2.539   2.908
    1C        C  178   4.022   2.621   3.028
    1C        C  179   3.895   2.559   3.030
    1C        C  180   4.082   2.656   3.151
    1C        C  181   4.023   2.619   3.274
    1C        C  182   4.189   2.747   3.393
    1C        C  183   4.083   2.653   3.398
    1C        C  184   4.236   2.801   3.515
    1C        C  185   4.191   2.751   3.639
    1C        C  186   4.334   2.909   3.759
    1C        C  187   4.240   2.804   3.761
    1C        C  188   4.370   2.971   3.880
    1C        C  189   4.328   2.918   4.004
    1C        C  190   4.439   3.098   4.125
    1C        C  191   4.370   2.975   4.127
    1C        C  192   4.470   3.166   4.246
    1C        C  193   4.437   3.103   4.368
    1C        C  194   4.501   3.307   4.488
    1C        C  195   4.455   3.174   4.488
    1C        C  196   4.522   3.381   4.607
    1C        C  197   4.506   3.316   4.731
    1C        C  198   4.550   3.531   4.847
    1C        C  199   4.534   3.388   4.850
    1C        C  200   4.572   3.614   4.962
    1C        C  201   3.612   2.420   2.070
    1C        C  202   3.824   2.511   2.175
    1C        C  203   3.689   2.462   2.183
    1C        C  204   3.892   2.540   2.297
    1C        C  205   3.827   2.515   2.419
    1C        C  206   4.020   2.613   2.541
    1C        C  207   3.892   2.552   2.539
    1C        C  208   4.076   2.659   2.662
    1C        C  209   4.012   2.630   2.785
    1C        C  210   4.189   2.750   2.904
    1C        C  211   4.077   2.664   2.906
    1C        C  212   4.242   2.794   3.027
    1C        C  213   4.193   2.743   3.150
    1C        C  214   4.328   2.907   3.267
    1C        C  215   4.243   2.795   3.272
    1C        C  216   4.364   2.968   3.390
    1C        C  217   4.324   2.911   3.513
    1C        C  218   4.427   3.096   3.635
    1C        C  219   4.370   2.967   3.635
    1C        C  220   4.452   3.164   3.757
    1C        C  221   4.432   3.098   3.880
    1C        C  222   4.496   3.301   4.003
    1C        C  223   4.460   3.164   4.002
    1C        C  224   4.509   3.374   4.123
    1C        C  225   4.502   3.303   4.245
    1C        C  226   4.509   3.518   4.364
    1C        C  227   4.507   3.377   4.365
    1C        C  228   4.507   3.592   4.484
    1C        C  229   4.521   3.523   4.606
    1C        C  230   4.496   3.737   4.725
    1C        C  231   4.528   3.599   4.725
    1C        C  232   4.498   3.818   4.841
    1C        C  233   4.545   3.751   4.956
    1C        C  234   4.020   2.598   2.058
    1C        C  235   3.897   2.532   2.058
    1C        C  236   4.082   2.644   2.175
    1C        C  237   4.016   2.610   2.295
    1C        C  238   4.192   2.731   2.419
    1C        C  239   4.078   2.647   2.417
    1C        C  240   4.249   2.784   2.537
    1C        C  241   4.190   2.742   2.659
    1C        C  242   4.332   2.901   2.778
    1C        C  243   4.245   2.789   2.780
    1C        C  244   4.371   2.958   2.901
    1C        C  245   4.334   2.900   3.025
    1C        C  246   4.431   3.094   3.144
    1C        C  247   4.369   2.967   3.145
    1C        C  248   4.454   3.158   3.268
    1C        C  249   4.425   3.095   3.391
    1C        C  250   4.493   3.296   3.511
    1C        C  251   4.457   3.160   3.513
    1C        C  252   4.502   3.367   3.633
    1C        C  253   4.487   3.301   3.757
    1C        C  254   4.517   3.510   3.877
    1C        C  255   4.506   3.369   3.879
    1C        C  256   4.514   3.584   3.997
    1C        C  257   4.508   3.515   4.120
    1C        C  258   4.482   3.728   4.236
    1C        C  259   4.504   3.588   4.241
    1C        C  260   4.470   3.799   4.357
    1C        C  261   4.482   3.731   4.480
    1C        C  262   4.418   3.933   4.600
    1C        C  263   4.466   3.801   4.602
    1C        C  264   4.393   4.004   4.720
    1C        C  265   4.437   3.945   4.840
    1C        C  266   4.317   4.127   4.953
    1C        C  267   4.391   4.009   4.956
    1C        C  268   4.250   2.777   2.057
    1C        C  269   4.192   2.732   2.176
    1C        C  270   4.339   2.886   2.293
    1C        C  271   4.249   2.777   2.298
    1C        C  272   4.379   2.949   2.413
    1C        C  273   4.343   2.889   2.535
    1C        C  274   4.445   3.078   2.657
    1C        C  275   4.380   2.953   2.656
    1C        C  276   4.466   3.147   2.779
    1C        C  277   4.436   3.083   2.901
    1C        C  278   4.502   3.290   3.023
    1C        C  279   4.461   3.155   3.021
    1C        C  280   4.509   3.361   3.145
    1C        C  281   4.492   3.294   3.268
    1C        C  282   4.504   3.507   3.390
    1C        C  283   4.504   3.366   3.389
    1C        C  284   4.503   3.579   3.511
    1C        C  285   4.510   3.508   3.633
    1C        C  286   4.489   3.720   3.750
    1C        C  287   4.507   3.580   3.755
    1C        C  288   4.468   3.789   3.871
    1C        C  289   4.485   3.722   3.994
    1C        C  290   4.423   3.930   4.113
    1C        C  291   4.469   3.797   4.114
    1C        C  292   4.391   3.997   4.234
    1C        C  293   4.423   3.932   4.356
    1C        C  294   4.318   4.119   4.474
    1C        C  295   4.390   3.997   4.477
    1C        C  296   4.278   4.182   4.593
    1C        C  297   4.320   4.126   4.716
    1C        C  298   4.196   4.309   4.833
    1C        C  299   4.278   4.192   4.835
    1C        C  300   4.167   4.399   4.940
    1C        C  301   4.341   2.882   2.055
    1C        C  302   4.463   3.066   2.169
    1C        C  303   4.386   2.945   2.172
    1C        C  304   4.475   3.138   2.291
    1C        C  305   4.447   3.073   2.413
    1C        C  306   4.506   3.278   2.533
    1C        C  307   4.476   3.140   2.534
    1C        C  308   4.509   3.351   2.654
    1C        C  309   4.497   3.285   2.778
    1C        C  310   4.524   3.497   2.897
    1C        C  311   4.515   3.356   2.899
    1C        C  312   4.509   3.570   3.017
    1C        C  313   4.507   3.503   3.141
    1C        C  314   4.482   3.712   3.261
    1C        C  315   4.503   3.572   3.264
    1C        C  316   4.464   3.784   3.381
    1C        C  317   4.484   3.719   3.504
    1C        C  318   4.418   3.919   3.623
    1C        C  319   4.471   3.788   3.627
    1C        C  320   4.388   3.984   3.745
    1C        C  321   4.419   3.922   3.868
    1C        C  322   4.317   4.110   3.985
    1C        C  323   4.391   3.989   3.989
    1C        C  324   4.277   4.172   4.106
    1C        C  325   4.320   4.119   4.229
    1C        C  326   4.183   4.281   4.348
    1C        C  327   4.279   4.177   4.351
    1C        C  328   4.135   4.337   4.468
    1C        C  329   4.188   4.291   4.591
    1C        C  330   4.023   4.431   4.707
    1C        C  331   4.138   4.348   4.709
    1C        C  332   3.968   4.490   4.824
    1C        C  333   4.051   4.478   4.936
    1C        C  334   4.554   3.264   2.061
    1C        C  335   4.530   3.126   2.058
    1C        C  336   4.534   3.349   2.171
    1C        C  337   4.510   3.276   2.290
    1C        C  338   4.521   3.489   2.411
    1C        C  339   4.516   3.348   2.411
    1C        C  340   4.517   3.563   2.531
    1C        C  341   4.519   3.492   2.654
    1C        C  342   4.492   3.706   2.771
    1C        C  343   4.517   3.567   2.774
    1C        C  344   4.471   3.777   2.891
    1C        C  345   4.481   3.708   3.014
    1C        C  346   4.421   3.911   3.134
    1C        C  347   4.468   3.777   3.137
    1C        C  348   4.390   3.978   3.255
    1C        C  349   4.419   3.918   3.379
    1C        C  350   4.313   4.102   3.499
    1C        C  351   4.390   3.984   3.501
    1C        C  352   4.269   4.162   3.620
    1C        C  353   4.318   4.107   3.740
    1C        C  354   4.181   4.269   3.862
    1C        C  355   4.279   4.167   3.862
    1C        C  356   4.122   4.315   3.982
    1C        C  357   4.174   4.268   4.105
    1C        C  358   4.010   4.403   4.225
    1C        C  359   4.127   4.324   4.226
    1C        C  360   3.950   4.443   4.347
    1C        C  361   4.016   4.413   4.468
    1C        C  362   3.825   4.516   4.588
    1C        C  363   3.955   4.460   4.586
    1C        C  364   3.759   4.545   4.709
    1C        C  365   3.835   4.537   4.828
    1C        C  366   3.629   4.587   4.946
    1C        C  367   3.767   4.569   4.946
    1C        C  368   4.510   3.562   2.049
    1C        C  369   4.526   3.490   2.168
    1C        C  370   4.498   3.701   2.285
    1C        C  371   4.518   3.562   2.290
    1C        C  372   4.475   3.771   2.406
    1C        C  373   4.494   3.702   2.527
    1C        C  374   4.423   3.904   2.645
    1C        C  375   4.475   3.773   2.648
    1C        C  376   4.389   3.969   2.766
    1C        C  377   4.419   3.909   2.890
    1C        C  378   4.315   4.094   3.005
    1C        C  379   4.388   3.973   3.012
    1C        C  380   4.273   4.151   3.127
    1C        C  381   4.310   4.095   3.251
    1C        C  382   4.174   4.255   3.370
    1C        C  383   4.271   4.153   3.374
    1C        C  384   4.121   4.307   3.491
    1C        C  385   4.170   4.263   3.616
    1C        C  386   4.009   4.394   3.740
    1C        C  387   4.127   4.315   3.740
    1C        C  388   3.946   4.431   3.860
    1C        C  389   4.008   4.398   3.983
    1C        C  390   3.818   4.494   4.105
    1C        C  391   3.947   4.439   4.104
    1C        C  392   3.748   4.515   4.226
    1C        C  393   3.820   4.500   4.346
    1C        C  394   3.614   4.549   4.471
    1C        C  395   3.754   4.532   4.467
    1C        C  396   3.544   4.557   4.593
    1C        C  397   3.618   4.559   4.713
    1C        C  398   3.409   4.541   4.836
    1C        C  399   3.547   4.574   4.833
    1C        C  400   3.340   4.507   4.953
    1C        C  401   4.492   3.700   2.047
    1C        C  402   4.448   3.911   2.165
    1C        C  403   4.489   3.775   2.165
    1C        C  404   4.411   3.975   2.285
    1C        C  405   4.432   3.906   2.406
    1C        C  406   4.321   4.093   2.520
    1C        C  407   4.395   3.972   2.525
    1C        C  408   4.269   4.145   2.641
    1C        C  409   4.315   4.089   2.762
    1C        C  410   4.170   4.248   2.885
    1C        C  411   4.270   4.148   2.882
    1C        C  412   4.117   4.296   3.007
    1C        C  413   4.175   4.253   3.128
    1C        C  414   4.001   4.379   3.248
    1C        C  415   4.117   4.299   3.248
    1C        C  416   3.942   4.415   3.371
    1C        C  417   4.005   4.386   3.495
    1C        C  418   3.812   4.471   3.614
    1C        C  419   3.943   4.418   3.618
    1C        C  420   3.748   4.502   3.736
    1C        C  421   3.815   4.484   3.859
    1C        C  422   3.608   4.525   3.983
    1C        C  423   3.748   4.506   3.982
    1C        C  424   3.539   4.534   4.105
    1C        C  425   3.607   4.531   4.229
    1C        C  426   3.398   4.538   4.353
    1C        C  427   3.539   4.547   4.351
    1C        C  428   3.329   4.537   4.476
    1C        C  429   3.403   4.548   4.596
    1C        C  430   3.192   4.509   4.720
    1C        C  431   3.332   4.536   4.718
    1C        C  432   3.122   4.488   4.841
    1C        C  433   3.203   4.486   4.956
    1C        C  434   4.376   4.117   2.045
    1C        C  435   4.440   3.992   2.051
    1C        C  436   4.301   4.160   2.159
    1C        C  437   4.336   4.096   2.281
    1C        C  438   4.181   4.251   2.398
    1C        C  439   4.281   4.152   2.398
    1C        C  440   4.124   4.299   2.518
    1C        C  441   4.177   4.252   2.640
    1C        C  442   4.003   4.374   2.760
    1C        C  443   4.121   4.296   2.762
    1C        C  444   3.943   4.413   2.881
    1C        C  445   4.001   4.375   3.005
    1C        C  446   3.811   4.471   3.125
    1C        C  447   3.943   4.419   3.126
    1C        C  448   3.746   4.488   3.249
    1C        C  449   3.813   4.473   3.373
    1C        C  450   3.606   4.527   3.492
    1C        C  451   3.744   4.497   3.494
    1C        C  452   3.537   4.535   3.616
    1C        C  453   3.609   4.529   3.737
    1C        C  454   3.397   4.523   3.861
    1C        C  455   3.538   4.528   3.860
    1C        C  456   3.328   4.518   3.984
    1C        C  457   3.398   4.524   4.106
    1C        C  458   3.192   4.491   4.232
    1C        C  459   3.331   4.517   4.230
    1C        C  460   3.125   4.478   4.356
    1C        C  461   3.191   4.507   4.477
    1C        C  462   2.993   4.431   4.601
    1C        C  463   3.122   4.487   4.599
    1C        C  464   2.926   4.395   4.720
    1C        C  465   2.989   4.436   4.841
    1C        C  466   2.800   4.335   4.956
    1C        C  467   2.906   4.426   4.958
    1C        C  468   4.121   4.287   2.037
    1C        C  469   4.185   4.243   2.154
    1C        C  470   4.004   4.364   2.272
    1C        C  471   4.127   4.293   2.274
    1C        C  472   3.935   4.393   2.392
    1C        C  473   4.000   4.367   2.515
    1C        C  474   3.810   4.460   2.639
    1C        C  475   3.938   4.402   2.637
    1C        C  476   3.741   4.486   2.760
    1C        C  477   3.812   4.466   2.881
    1C        C  478   3.604   4.511   3.005
    1C        C  479   3.743   4.490   3.002
    1C        C  480   3.534   4.519   3.128
    1C        C  481   3.607   4.509   3.249
    1C        C  482   3.394   4.522   3.373
    1C        C  483   3.535   4.523   3.370
    1C        C  484   3.326   4.518   3.497
    1C        C  485   3.396   4.533   3.619
    1C        C  486   3.186   4.491   3.741
    1C        C  487   3.324   4.523   3.740
    1C        C  488   3.121   4.474   3.865
    1C        C  489   3.189   4.493   3.988
    1C        C  490   2.999   4.404   4.112
    1C        C  491   3.123   4.473   4.111
    1C        C  492   2.941   4.373   4.237
    1C        C  493   3.000   4.412   4.359
    1C        C  494   2.821   4.300   4.477
    1C        C  495   2.935   4.384   4.481
    1C        C  496   2.764   4.255   4.599
    1C        C  497   2.812   4.309   4.720
    1C        C  498   2.660   4.165   4.846
    1C        C  499   2.747   4.276   4.840
    1C        C  500   2.594   4.114   4.959
    1C        C  501   3.997   4.348   2.036
    1C        C  502   3.812   4.463   2.151
    1C        C  503   3.936   4.395   2.153
    1C        C  504   3.740   4.472   2.272
    1C        C  505   3.805   4.447   2.395
    1C        C  506   3.600   4.499   2.514
    1C        C  507   3.739   4.473   2.517
    1C        C  508   3.532   4.510   2.638
    1C        C  509   3.602   4.509   2.760
    1C        C  510   3.392   4.513   2.882
    1C        C  511   3.533   4.515   2.883
    1C        C  512   3.324   4.512   3.006
    1C        C  513   3.393   4.523   3.129
    1C        C  514   3.185   4.483   3.253
    1C        C  515   3.323   4.515   3.251
    1C        C  516   3.118   4.465   3.376
    1C        C  517   3.188   4.488   3.497
    1C        C  518   2.994   4.401   3.621
    1C        C  519   3.121   4.464   3.619
    1C        C  520   2.939   4.362   3.745
    1C        C  521   2.998   4.405   3.865
    1C        C  522   2.828   4.282   3.992
    1C        C  523   2.941   4.367   3.989
    1C        C  524   2.775   4.236   4.114
    1C        C  525   2.828   4.288   4.235
    1C        C  526   2.685   4.134   4.361
    1C        C  527   2.770   4.246   4.357
    1C        C  528   2.643   4.078   4.484
    1C        C  529   2.677   4.144   4.604
    1C        C  530   2.582   3.960   4.730
    1C        C  531   2.633   4.093   4.727
    1C        C  532   2.540   3.900   4.852
    1C        C  533   2.525   3.992   4.961
    1C        C  534   3.610   4.547   2.034
    1C        C  535   3.744   4.506   2.036
    1C        C  536   3.531   4.521   2.150
    1C        C  537   3.600   4.497   2.272
    1C        C  538   3.388   4.517   2.395
    1C        C  539   3.529   4.511   2.393
    1C        C  540   3.317   4.506   2.516
    1C        C  541   3.391   4.507   2.637
    1C        C  542   3.182   4.479   2.761
    1C        C  543   3.321   4.506   2.759
    1C        C  544   3.118   4.459   2.885
    1C        C  545   3.187   4.480   3.006
    1C        C  546   2.995   4.395   3.130
    1C        C  547   3.121   4.459   3.130
    1C        C  548   2.935   4.357   3.252
    1C        C  549   2.994   4.397   3.374
    1C        C  550   2.828   4.270   3.503
    1C        C  551   2.936   4.362   3.498
    1C        C  552   2.772   4.229   3.625
    1C        C  553   2.825   4.278   3.747
    1C        C  554   2.685   4.123   3.873
    1C        C  555   2.778   4.229   3.871
    1C        C  556   2.643   4.064   3.995
    1C        C  557   2.687   4.126   4.115
    1C        C  558   2.592   3.942   4.244
    1C        C  559   2.651   4.070   4.239
    1C        C  560   2.562   3.879   4.367
    1C        C  561   2.586   3.949   4.487
    1C        C  562   2.530   3.749   4.615
    1C        C  563   2.562   3.886   4.612
    1C        C  564   2.514   3.679   4.737
    1C        C  565   2.518   3.759   4.855
    1C        C  566   2.524   3.544   4.975
    1C        C  567   2.514   3.683   4.973
    1C        C  568   3.321   4.470   2.033
    1C        C  569   3.390   4.502   2.151
    1C        C  570   3.180   4.472   2.277
    1C        C  571   3.317   4.507   2.273
    1C        C  572   3.107   4.455   2.397
    1C        C  573   3.180   4.473   2.517
    1C        C  574   2.985   4.398   2.643
    1C        C  575   3.112   4.460   2.640
    1C        C  576   2.929   4.357   2.766
    1C        C  577   2.992   4.393   2.887
    1C        C  578   2.822   4.268   3.011
    1C        C  579   2.933   4.355   3.009
    1C        C  580   2.775   4.217   3.134
    1C        C  581   2.826   4.268   3.256
    1C        C  582   2.690   4.110   3.383
    1C        C  583   2.779   4.220   3.380
    1C        C  584   2.645   4.058   3.507
    1C        C  585   2.685   4.118   3.628
    1C        C  586   2.591   3.932   3.755
    1C        C  587   2.646   4.062   3.752
    1C        C  588   2.563   3.868   3.877
    1C        C  589   2.586   3.935   3.999
    1C        C  590   2.530   3.737   4.126
    1C        C  591   2.562   3.874   4.124
    1C        C  592   2.520   3.670   4.250
    1C        C  593   2.528   3.742   4.372
    1C        C  594   2.510   3.534   4.495
    1C        C  595   2.516   3.675   4.496
    1C        C  596   2.513   3.462   4.617
    1C        C  597   2.513   3.537   4.736
    1C        C  598   2.535   3.326   4.858
    1C        C  599   2.524   3.467   4.859
    1C        C  600   2.530   3.246   4.972
    1C        C  601   3.188   4.434   2.038
    1C        C  602   2.977   4.393   2.155
    1C        C  603   3.112   4.440   2.156
    1C        C  604   2.921   4.351   2.279
    1C        C  605   2.982   4.391   2.400
    1C        C  606   2.808   4.273   2.525
    1C        C  607   2.924   4.354   2.524
    1C        C  608   2.762   4.220   2.648
    1C        C  609   2.819   4.269   2.767
    1C        C  610   2.683   4.107   2.891
    1C        C  611   2.768   4.220   2.890
    1C        C  612   2.649   4.049   3.015
    1C        C  613   2.687   4.106   3.139
    1C        C  614   2.579   3.927   3.262
    1C        C  615   2.646   4.052   3.263
    1C        C  616   2.559   3.864   3.386
    1C        C  617   2.585   3.930   3.508
    1C        C  618   2.526   3.730   3.634
    1C        C  619   2.565   3.866   3.632
    1C        C  620   2.516   3.661   3.757
    1C        C  621   2.526   3.732   3.879
    1C        C  622   2.504   3.527   4.007
    1C        C  623   2.515   3.667   4.004
    1C        C  624   2.511   3.457   4.130
    1C        C  625   2.511   3.529   4.252
    1C        C  626   2.539   3.321   4.376
    1C        C  627   2.514   3.460   4.375
    1C        C  628   2.550   3.250   4.498
    1C        C  629   2.535   3.323   4.618
    1C        C  630   2.590   3.115   4.738
    1C        C  631   2.549   3.251   4.739
    1C        C  632   2.614   3.045   4.859
    1C        C  633   2.558   3.109   4.975
    1C        C  634   2.782   4.296   2.046
    1C        C  635   2.889   4.386   2.042
    1C        C  636   2.742   4.228   2.162
    1C        C  637   2.805   4.269   2.282
    1C        C  638   2.665   4.112   2.407
    1C        C  639   2.753   4.223   2.404
    1C        C  640   2.629   4.051   2.529
    1C        C  641   2.674   4.109   2.649
    1C        C  642   2.576   3.921   2.773
    1C        C  643   2.639   4.047   2.771
    1C        C  644   2.555   3.854   2.896
    1C        C  645   2.582   3.925   3.016
    1C        C  646   2.522   3.724   3.144
    1C        C  647   2.555   3.862   3.139
    1C        C  648   2.513   3.653   3.265
    1C        C  649   2.526   3.726   3.386
    1C        C  650   2.511   3.520   3.517
    1C        C  651   2.516   3.661   3.511
    1C        C  652   2.515   3.451   3.639
    1C        C  653   2.512   3.520   3.762
    1C        C  654   2.534   3.314   3.885
    1C        C  655   2.510   3.453   3.886
    1C        C  656   2.552   3.247   4.009
    1C        C  657   2.539   3.319   4.130
    1C        C  658   2.606   3.120   4.253
    1C        C  659   2.559   3.253   4.253
    1C        C  660   2.637   3.056   4.375
    1C        C  661   2.604   3.120   4.496
    1C        C  662   2.703   2.932   4.620
    1C        C  663   2.626   3.051   4.617
    1C        C  664   2.746   2.873   4.741
    1C        C  665   2.695   2.927   4.862
    1C        C  666   2.736   2.863   4.980
    1C        C  667   2.679   4.021   2.053
    1C        C  668   2.676   4.104   2.166
    1C        C  669   2.583   3.911   2.289
    1C        C  670   2.634   4.044   2.287
    1C        C  671   2.553   3.847   2.411
    1C        C  672   2.575   3.920   2.530
    1C        C  673   2.514   3.717   2.654
    1C        C  674   2.554   3.852   2.652
    1C        C  675   2.502   3.649   2.778
    1C        C  676   2.519   3.718   2.900
    1C        C  677   2.503   3.510   3.027
    1C        C  678   2.504   3.651   3.024
    1C        C  679   2.509   3.442   3.150
    1C        C  680   2.505   3.513   3.272
    1C        C  681   2.535   3.307   3.397
    1C        C  682   2.509   3.446   3.397
    1C        C  683   2.555   3.240   3.520
    1C        C  684   2.540   3.312   3.641
    1C        C  685   2.602   3.111   3.768
    1C        C  686   2.555   3.244   3.764
    1C        C  687   2.637   3.050   3.891
    1C        C  688   2.603   3.115   4.012
    1C        C  689   2.709   2.931   4.136
    1C        C  690   2.636   3.052   4.133
    1C        C  691   2.754   2.877   4.259
    1C        C  692   2.712   2.936   4.380
    1C        C  693   2.754   2.875   4.500
    1C        C  694   2.625   3.891   2.055
    1C        C  695   2.527   3.700   2.173
    1C        C  696   2.570   3.835   2.171
    1C        C  697   2.503   3.634   2.295
    1C        C  698   2.514   3.711   2.412
    1C        C  699   2.488   3.502   2.539
    1C        C  700   2.500   3.642   2.535
    1C        C  701   2.500   3.433   2.662
    1C        C  702   2.501   3.508   2.782
    1C        C  703   2.523   3.299   2.911
    1C        C  704   2.507   3.439   2.905
    1C        C  705   2.539   3.230   3.033
    1C        C  706   2.529   3.302   3.155
    1C        C  707   2.596   3.100   3.275
    1C        C  708   2.548   3.234   3.277
    1C        C  709   2.630   3.042   3.399
    1C        C  710   2.604   3.108   3.522
    1C        C  711   2.709   2.928   3.645
    1C        C  712   2.632   3.047   3.646
    1C        C  713   2.758   2.877   3.767
    1C        C  714   2.715   2.933   3.889
    1C        C  715   2.751   2.875   4.013
    1C        C  716   2.437   3.498   2.064
    1C        C  717   2.481   3.631   2.060
    1C        C  718   2.463   3.418   2.179
    1C        C  719   2.478   3.494   2.298
    1C        C  720   2.512   3.286   2.422
    1C        C  721   2.487   3.425   2.421
    1C        C  722   2.538   3.222   2.545
    1C        C  723   2.527   3.294   2.667
    1C        C  724   2.593   3.096   2.786
    1C        C  725   2.545   3.228   2.790
    1C        C  726   2.620   3.032   2.910
    1C        C  727   2.593   3.100   3.031
    1C        C  728   2.708   2.922   3.156
    1C        C  729   2.625   3.036   3.153
    1C        C  730   2.752   2.868   3.279
    1C        C  731   2.712   2.927   3.401
    1C        C  732   2.752   2.870   3.524
    1C        C  733   2.494   3.196   2.067
    1C        C  734   2.486   3.277   2.181
    1C        C  735   2.563   3.075   2.303
    1C        C  736   2.520   3.211   2.302
    1C        C  737   2.603   3.015   2.424
    1C        C  738   2.583   3.089   2.543
    1C        C  739   2.689   2.905   2.668
    1C        C  740   2.619   3.027   2.665
    1C        C  741   2.735   2.850   2.790
    1C        C  742   2.697   2.914   2.910
    1C        C  743   2.744   2.863   3.032
    1C        C  744   2.544   3.066   2.067
    1C        C  745   2.682   2.896   2.181
    1C        C  746   2.596   3.007   2.184
    1C        C  747   2.728   2.840   2.302
    1C        C  748   2.684   2.899   2.423
    1C        C  749   2.733   2.849   2.546
    1C        C  750   2.728   2.834   2.064
    1C        C  751   3.662   2.327   1.967
    1C        O  752   3.682   2.203   1.984
    1C        O  753   3.685   2.363   1.833
    1C        C  754   4.621   3.054   1.966
    1C        O  755   4.629   3.071   1.841
    1C        O  756   4.709   2.957   2.014
    1C        C  757   4.462   4.213   1.973
    1C        O  758   4.567   4.262   2.023
    1C        O  759   4.438   4.255   1.842
    1C        C  760   3.590   4.669   1.952
    1C        O  761   3.575   4.785   1.997
    1C        O  762   3.564   4.674   1.814
    1C        C  763   2.870   4.504   1.955
    1C        O  764   2.899   4.508   1.833
    1C        O  765   2.876   4.635   2.006
    1C        C  766   2.343   3.455   1.957
    1C        O  767   2.377   3.401   1.849
    1C        O  768   2.206   3.480   1.960
    1C        C  769   4.684   3.586   5.054
    1C        O  770   4.664   3.542   5.170
    1C        O  771   4.814   3.575   5.003
    1C        C  772   4.278   4.452   5.024
    1C        O  773   4.294   4.423   5.145
    1C        O  774   4.320   4.586   5.017
    1C        C  775   4.150   2.525   5.065
    1C        O  776   4.193   2.410   5.037
    1C        O  777   4.129   2.536   5.204
    1C        C  778   2.885   4.529   5.062
    1C        O  779   2.832   4.640   5.033
    1C        O  780   2.925   4.512   5.195
    1C        C  781   2.460   3.031   5.054
    1C        O  782   2.376   2.950   5.007
    1C        O  783   2.428   3.058   5.187
    1C        C  784   2.393   3.992   5.029
    1C        O  785   2.289   3.985   4.958
    1C        O  786   2.400   3.954   5.163
    1C        C  787   2.945   2.408   2.013
    1C        O  788   2.898   2.427   1.898
    1C        O  789   2.910   2.283   2.063
    1C        C  790   3.185   2.383   5.076
    1C        O  791   3.107   2.285   5.075
    1C        O  792   3.223   2.423   5.205
    1C        H  793   4.292   3.003   5.067
    1C        H  794   4.131   2.835   5.053
    1C        H  795   4.532   3.127   5.034
    1C        H  796   4.488   3.374   5.057
    1C        H  797   4.540   3.805   5.048
    1C        H  798   4.441   3.986   5.048
    1C        H  799   4.264   4.156   5.041
    1C        H  800   4.032   4.537   5.023
    1C        H  801   3.821   4.583   5.037
    1C        H  802   3.588   4.646   5.026
    1C        H  803   3.394   4.485   5.043
    1C        H  804   3.160   4.453   5.048
    1C        H  805   3.881   2.478   5.063
    1C        H  806   3.660   2.444   5.073
    1C        H  807   3.008   2.571   5.065
    1C        H  808   3.431   2.480   5.069
    1C        H  809   2.840   2.702   5.067
    1C        H  810   2.721   2.913   5.073
    1C        H  811   2.492   3.288   5.063
    1C        H  812   2.502   3.495   5.068
    1C        H  813   2.476   3.726   5.063
    1C        H  814   2.599   4.170   5.050
    1C        H  815   2.775   4.285   5.047
    1C        H  816   2.673   2.844   1.972
    1C        H  817   2.869   2.713   1.973
    1C        H  818   3.210   2.424   1.988
    1C        H  819   3.424   2.406   1.975
    1C        H  820   3.856   2.514   1.961
    1C        H  821   4.068   2.610   1.963
    1C        H  822   4.192   2.776   1.967
    1C        H  823   4.398   2.896   1.966
    1C        H  824   4.542   3.302   1.962
    1C        H  825   4.499   3.505   1.960
    1C        H  826   4.507   3.750   1.953
    1C        H  827   3.791   4.491   1.941
    1C        H  828   3.937   4.336   1.947
    1C        H  829   4.172   4.270   1.945
    1C        H  830   4.498   3.967   1.965
    1C        H  831   2.673   3.822   1.990
    1C        H  832   2.716   4.060   1.961
    1C        H  833   2.713   4.299   1.964
    1C        H  834   3.345   4.526   1.945
    1C        H  835   3.149   4.371   1.961
    1C        H  836   2.498   2.996   2.001
    1C        H  837   2.473   3.236   1.969
    1C        H  838   2.430   3.691   1.987
    2V3OU   H29  839   2.806   3.542   1.755
    2V3OU   C27  840   2.774   3.499   1.853
    2V3OU   H27  841   2.712   3.570   1.913
    2V3OU   H28  842   2.723   3.399   1.847
    2V3OU   O11  843   2.899   3.472   1.919
    2V3OU   C15  844   2.916   3.397   2.033
    2V3OU   C13  845   3.046   3.375   2.083
    2V3OU   C14  846   3.075   3.266   2.166
    2V3OU   C16  847   2.973   3.186   2.216
    2V3OU    H6  848   2.988   3.096   2.277
    2V3OU   C12  849   3.211   3.221   2.204
    2V3OU    O2  850   3.234   3.120   2.274
    2V3OU   C10  851   3.321   3.305   2.154
    2V3OU    C8  852   3.451   3.270   2.189
    2V3OU   O10  853   3.480   3.147   2.239
    2V3OU   H26  854   3.390   3.113   2.255
    2V3OU    C6  855   3.560   3.351   2.145
    2V3OU    C5  856   3.532   3.468   2.074
    2V3OU    C4  857   3.696   3.294   2.159
    2V3OU    H4  858   3.721   3.226   2.246
    2V3OU    H5  859   3.705   3.223   2.071
    2V3OU    C2  860   3.809   3.396   2.147
    2V3OU    O6  861   3.799   3.469   2.270
    2V3OU   H21  862   3.766   3.557   2.244
    2V3OU    C3  863   3.780   3.490   2.030
    2V3OU    H2  864   3.864   3.564   2.023
    2V3OU    H3  865   3.783   3.431   1.935
    2V3OU   C25  866   3.944   3.326   2.130
    2V3OU    O7  867   3.992   3.290   2.023
    2V3OU   C26  868   4.029   3.282   2.249
    2V3OU   H22  869   4.057   3.383   2.289
    2V3OU   H23  870   4.119   3.228   2.211
    2V3OU    O8  871   3.954   3.200   2.336
    2V3OU   H24  872   3.925   3.263   2.404
    2V3OU    C1  873   3.647   3.561   2.052
    2V3OU    H1  874   3.625   3.617   1.956
    2V3OU    O3  875   3.653   3.650   2.164
    2V3OU   C19  876   3.613   3.786   2.148
    2V3OU    H9  877   3.522   3.790   2.082
    2V3OU    O4  878   3.714   3.843   2.067
    2V3OU   C20  879   3.844   3.867   2.122
    2V3OU   H10  880   3.889   3.767   2.148
    2V3OU   C24  881   3.605   3.852   2.286
    2V3OU   H16  882   3.543   3.787   2.352
    2V3OU   H17  883   3.553   3.950   2.266
    2V3OU   C23  884   3.743   3.873   2.349
    2V3OU   H15  885   3.782   3.770   2.377
    2V3OU    N1  886   3.727   3.951   2.471
    2V3OU   H19  887   3.797   3.924   2.537
    2V3OU   H20  888   3.634   3.931   2.500
    2V3OU   C21  889   3.845   3.944   2.255
    2V3OU   H11  890   3.951   3.925   2.289
    2V3OU    O5  891   3.825   4.084   2.263
    2V3OU   H18  892   3.773   4.093   2.345
    2V3OU   C22  893   3.918   3.945   2.015
    2V3OU   H12  894   3.863   4.040   1.991
    2V3OU   H13  895   3.909   3.893   1.917
    2V3OU   H14  896   4.025   3.956   2.046
    2V3OU   C11  897   3.155   3.470   2.054
    2V3OU    O1  898   3.137   3.589   2.023
    2V3OU    C9  899   3.292   3.419   2.075
    2V3OU    C7  900   3.398   3.502   2.038
    2V3OU    O9  901   3.383   3.615   1.960
    2V3OU   H25  902   3.288   3.632   1.969
    2V3OU   C17  903   2.815   3.312   2.083
    2V3OU    H7  904   2.711   3.342   2.068
    2V3OU   C18  905   2.843   3.216   2.180
    2V3OU    H8  906   2.763   3.152   2.220
    3SOL     OW  907   2.677   4.544   1.069
    3SOL    HW1  908   2.689   4.491   1.152
    3SOL    HW2  909   2.579   4.550   1.046
    4SOL     OW  910   6.280   5.534   1.770
    4SOL    HW1  911   6.268   5.440   1.737
    4SOL    HW2  912   6.208   5.592   1.731
    5SOL     OW  913   3.432   1.431   3.233
    5SOL    HW1  914   3.449   1.336   3.207
    5SOL    HW2  915   3.462   1.446   3.327
    6SOL     OW  916   4.748   1.566   1.877
    6SOL    HW1  917   4.667   1.616   1.845
    6SOL    HW2  918   4.825   1.629   1.887
    7SOL     OW  919   6.200   3.220   2.346
    7SOL    HW1  920   6.254   3.137   2.343
    7SOL    HW2  921   6.218   3.275   2.265
    8SOL     OW  922   2.801   6.666   5.679
    8SOL    HW1  923   2.701   6.676   5.673
    8SOL    HW2  924   2.825   6.624   5.767
    9SOL     OW  925   0.177   5.033   5.886
    9SOL    HW1  926   0.129   4.946   5.891
    9SOL    HW2  927   0.182   5.063   5.791
   10SOL     OW  928   1.116   4.738   5.512
   10SOL    HW1  929   1.036   4.686   5.481
   10SOL    HW2  930   1.132   4.719   5.609
   11SOL     OW  931   2.924   0.282   0.131
   11SOL    HW1  932   2.981   0.233   0.065
   11SOL    HW2  933   2.971   0.366   0.159
   12SOL     OW  934   4.216   6.318   3.917
   12SOL    HW1  935   4.285   6.250   3.940
   12SOL    HW2  936   4.254   6.385   3.854
   13SOL     OW  937   3.164   5.664   4.049
   13SOL    HW1  938   3.257   5.655   4.013
   13SOL    HW2  939   3.163   5.637   4.145
   14SOL     OW  940   4.960   5.409   6.527
   14SOL    HW1  941   4.995   5.494   6.489
   14SOL    HW2  942   4.862   5.402   6.509
   15SOL     OW  943   1.055   5.062   0.588
   15SOL    HW1  944   1.041   4.972   0.549
   15SOL    HW2  945   0.976   5.121   0.566
   16SOL     OW  946   5.666   3.082   5.476
   16SOL    HW1  947   5.754   3.077   5.524
   16SOL    HW2  948   5.634   2.990   5.456
   17SOL     OW  949   5.224   5.949   5.100
   17SOL    HW1  950   5.291   5.918   5.168
   17SOL    HW2  951   5.225   5.887   5.022
   18SOL     OW  952   3.053   1.088   6.618
   18SOL    HW1  953   3.014   1.023   6.553
   18SOL    HW2  954   3.061   1.045   6.707
   19SOL     OW  955   7.014   6.912   2.932
   19SOL    HW1  956   0.032   6.861   3.012
   19SOL    HW2  957   0.072   6.916   2.863
   20SOL     OW  958   4.464   1.786   4.296
   20SOL    HW1  959   4.460   1.686   4.297
   20SOL    HW2  960   4.560   1.815   4.298
   21SOL     OW  961   3.284   2.072   2.097
   21SOL    HW1  962   3.277   2.118   2.009
   21SOL    HW2  963   3.381   2.052   2.117
   22SOL     OW  964   2.553   0.111   0.527
   22SOL    HW1  965   2.620   0.037   0.521
   22SOL    HW2  966   2.475   0.080   0.583
   23SOL     OW  967   4.321   6.677   3.362
   23SOL    HW1  968   4.330   6.772   3.391
   23SOL    HW2  969   4.411   6.634   3.360
   24SOL     OW  970   5.018   1.141   3.180
   24SOL    HW1  971   4.999   1.059   3.127
   24SOL    HW2  972   4.933   1.179   3.215
   25SOL     OW  973   3.415   6.735   5.691
   25SOL    HW1  974   3.345   6.674   5.653
   25SOL    HW2  975   3.381   6.829   5.692
   26SOL     OW  976   6.348   0.797   0.291
   26SOL    HW1  977   6.342   0.880   0.235
   26SOL    HW2  978   6.442   0.787   0.326
   27SOL     OW  979   0.348   1.388   1.731
   27SOL    HW1  980   0.352   1.337   1.817
   27SOL    HW2  981   0.390   1.334   1.658
   28SOL     OW  982   3.950   1.156   0.309
   28SOL    HW1  983   4.025   1.222   0.314
   28SOL    HW2  984   3.863   1.203   0.320
   29SOL     OW  985   6.066   2.770   1.862
   29SOL    HW1  986   6.103   2.718   1.939
   29SOL    HW2  987   6.133   2.837   1.831
   30SOL     OW  988   4.240   0.704   5.063
   30SOL    HW1  989   4.272   0.682   4.971
   30SOL    HW2  990   4.210   0.800   5.066
   31SOL     OW  991   0.389   1.860   5.860
   31SOL    HW1  992   0.436   1.944   5.834
   31SOL    HW2  993   0.439   1.781   5.825
   32SOL     OW  994   6.765   1.152   2.879
   32SOL    HW1  995   6.667   1.151   2.862
   32SOL    HW2  996   6.803   1.061   2.865
   33SOL     OW  997   2.530   3.409   0.189
   33SOL    HW1  998   2.479   3.433   0.107
   33SOL    HW2  999   2.566   3.316   0.181
   34SOL     OW 1000   2.006   1.527   3.994
   34SOL    HW1 1001   1.948   1.607   4.013
   34SOL    HW2 1002   1.950   1.454   3.954
   35SOL     OW 1003   3.587   1.890   6.966
   35SOL    HW1 1004   3.629   1.845   6.887
   35SOL    HW2 1005   3.530   1.966   6.935
   36SOL     OW 1006   0.003   0.990   6.382
   36SOL    HW1 1007   0.068   1.058   6.349
   36SOL    HW2 1008   6.926   1.012   6.349
   37SOL     OW 1009   1.567   0.532   0.419
   37SOL    HW1 1010   1.527   0.624   0.430
   37SOL    HW2 1011   1.666   0.537   0.430
   38SOL     OW 1012   0.350   4.493   2.175
   38SOL    HW1 1013   0.268   4.549   2.179
   38SOL    HW2 1014   0.415   4.534   2.111
   39SOL     OW 1015   6.781   4.971   6.614
   39SOL    HW1 1016   6.783   4.887   6.559
   39SOL    HW2 1017   6.718   4.959   6.691
   40SOL     OW 1018   6.030   2.476   1.155
   40SOL    HW1 1019   5.931   2.463   1.162
   40SOL    HW2 1020   6.077   2.419   1.222
   41SOL     OW 1021   0.562   6.338   4.279
   41SOL    HW1 1022   0.502   6.263   4.252
   41SOL    HW2 1023   0.557   6.412   4.211
   42SOL     OW 1024   2.536   5.601   6.115
   42SOL    HW1 1025   2.622   5.561   6.084
   42SOL    HW2 1026   2.460   5.561   6.064
   43SOL     OW 1027   5.586   6.266   5.550
   43SOL    HW1 1028   5.571   6.339   5.617
   43SOL    HW2 1029   5.498   6.236   5.514
   44SOL     OW 1030   5.688   2.614   6.217
   44SOL    HW1 1031   5.599   2.654   6.196
   44SOL    HW2 1032   5.716   2.553   6.142
   45SOL     OW 1033   3.368   6.976   3.492
   45SOL    HW1 1034   3.381   6.930   3.580
   45SOL    HW2 1035   3.346   6.908   3.423
   46SOL     OW 1036   1.258   3.239   4.213
   46SOL    HW1 1037   1.225   3.156   4.256
   46SOL    HW2 1038   1.238   3.237   4.115
   47SOL     OW 1039   5.115   4.500   2.400
   47SOL    HW1 1040   5.070   4.412   2.386
   47SOL    HW2 1041   5.080   4.543   2.483
   48SOL     OW 1042   0.154   2.939   5.630
   48SOL    HW1 1043   0.219   2.892   5.691
   48SOL    HW2 1044   0.115   3.017   5.679
   49SOL     OW 1045   4.511   4.040   1.672
   49SOL    HW1 1046   4.494   4.058   1.575
   49SOL    HW2 1047   4.482   4.120   1.726
   50SOL     OW 1048   6.334   2.686   5.984
   50SOL    HW1 1049   6.424   2.726   5.964
   50SOL    HW2 1050   6.272   2.706   5.908
   51SOL     OW 1051   2.948   6.231   2.578
   51SOL    HW1 1052   2.960   6.280   2.491
   51SOL    HW2 1053   2.893   6.287   2.640
   52SOL     OW 1054   5.031   2.775   3.350
   52SOL    HW1 1055   4.941   2.782   3.392
   52SOL    HW2 1056   5.074   2.865   3.346
   53SOL     OW 1057   4.361   0.435   4.613
   53SOL    HW1 1058   4.356   0.522   4.563
   53SOL    HW2 1059   4.269   0.409   4.642
   54SOL     OW 1060   3.873   5.001   0.667
   54SOL    HW1 1061   3.882   4.903   0.651
   54SOL    HW2 1062   3.852   5.017   0.763
   55SOL     OW 1063   3.692   1.329   6.327
   55SOL    HW1 1064   3.704   1.417   6.373
   55SOL    HW2 1065   3.680   1.344   6.229
   56SOL     OW 1066   0.490   0.503   1.198
   56SOL    HW1 1067   0.547   0.466   1.272
   56SOL    HW2 1068   0.467   0.598   1.219
   57SOL     OW 1069   5.649   0.619   0.700
   57SOL    HW1 1070   5.569   0.666   0.738
   57SOL    HW2 1071   5.709   0.685   0.656
   58SOL     OW 1072   6.496   6.705   5.341
   58SOL    HW1 1073   6.521   6.696   5.245
   58SOL    HW2 1074   6.468   6.799   5.359
   59SOL     OW 1075   1.962   1.260   6.363
   59SOL    HW1 1076   2.034   1.328   6.375
   59SOL    HW2 1077   1.956   1.203   6.445
   60SOL     OW 1078   5.897   1.306   6.256
   60SOL    HW1 1079   5.833   1.380   6.233
   60SOL    HW2 1080   5.855   1.218   6.236
   61SOL     OW 1081   5.155   2.027   4.824
   61SOL    HW1 1082   5.137   2.118   4.862
   61SOL    HW2 1083   5.190   1.967   4.896
   62SOL     OW 1084   0.155   0.532   3.380
   62SOL    HW1 1085   0.220   0.463   3.411
   62SOL    HW2 1086   0.147   0.528   3.280
   63SOL     OW 1087   6.513   1.523   3.787
   63SOL    HW1 1088   6.489   1.433   3.822
   63SOL    HW2 1089   6.442   1.589   3.813
   64SOL     OW 1090   0.165   3.629   6.594
   64SOL    HW1 1091   0.253   3.675   6.584
   64SOL    HW2 1092   0.175   3.533   6.569
   65SOL     OW 1093   6.858   4.539   5.482
   65SOL    HW1 1094   6.884   4.449   5.517
   65SOL    HW2 1095   6.938   4.583   5.441
   66SOL     OW 1096   3.643   0.750   6.661
   66SOL    HW1 1097   3.621   0.847   6.650
   66SOL    HW2 1098   3.637   0.704   6.572
   67SOL     OW 1099   5.282   4.618   5.458
   67SOL    HW1 1100   5.213   4.683   5.425
   67SOL    HW2 1101   5.304   4.553   5.386
   68SOL     OW 1102   5.762   0.907   6.617
   68SOL    HW1 1103   5.860   0.886   6.617
   68SOL    HW2 1104   5.744   0.984   6.679
   69SOL     OW 1105   0.654   3.364   6.681
   69SOL    HW1 1106   0.732   3.418   6.651
   69SOL    HW2 1107   0.686   3.283   6.730
   70SOL     OW 1108   6.076   4.702   3.467
   70SOL    HW1 1109   6.003   4.679   3.531
   70SOL    HW2 1110   6.157   4.732   3.518
   71SOL     OW 1111   4.379   1.797   2.604
   71SOL    HW1 1112   4.442   1.810   2.680
   71SOL    HW2 1113   4.338   1.706   2.609
   72SOL     OW 1114   3.043   5.928   4.965
   72SOL    HW1 1115   2.994   6.005   5.006
   72SOL    HW2 1116   3.120   5.903   5.023
   73SOL     OW 1117   3.674   1.377   0.821
   73SOL    HW1 1118   3.616   1.324   0.882
   73SOL    HW2 1119   3.756   1.406   0.869
   74SOL     OW 1120   4.757   6.155   5.893
   74SOL    HW1 1121   4.849   6.161   5.932
   74SOL    HW2 1122   4.701   6.092   5.946
   75SOL     OW 1123   4.012   0.326   6.690
   75SOL    HW1 1124   3.933   0.351   6.746
   75SOL    HW2 1125   4.050   0.239   6.722
   76SOL     OW 1126   2.404   2.476   1.695
   76SOL    HW1 1127   2.436   2.480   1.600
   76SOL    HW2 1128   2.432   2.559   1.743
   77SOL     OW 1129   5.697   6.058   4.140
   77SOL    HW1 1130   5.739   5.987   4.196
   77SOL    HW2 1131   5.597   6.053   4.149
   78SOL     OW 1132   5.912   1.036   5.715
   78SOL    HW1 1133   5.987   1.100   5.699
   78SOL    HW2 1134   5.940   0.945   5.686
   79SOL     OW 1135   3.396   6.809   0.710
   79SOL    HW1 1136   3.405   6.789   0.612
   79SOL    HW2 1137   3.344   6.893   0.722
   80SOL     OW 1138   5.556   1.896   4.340
   80SOL    HW1 1139   5.564   1.878   4.438
   80SOL    HW2 1140   5.465   1.868   4.309
   81SOL     OW 1141   1.987   0.367   2.840
   81SOL    HW1 1142   1.970   0.341   2.744
   81SOL    HW2 1143   2.077   0.410   2.848
   82SOL     OW 1144   6.464   5.526   0.507
   82SOL    HW1 1145   6.401   5.453   0.533
   82SOL    HW2 1146   6.412   5.606   0.477
   83SOL     OW 1147   6.869   0.378   0.673
   83SOL    HW1 1148   6.954   0.385   0.725
   83SOL    HW2 1149   6.863   0.286   0.632
   84SOL     OW 1150   5.192   3.477   3.681
   84SOL    HW1 1151   5.207   3.553   3.745
   84SOL    HW2 1152   5.183   3.513   3.588
   85SOL     OW 1153   1.951   1.911   5.133
   85SOL    HW1 1154   1.948   1.859   5.047
   85SOL    HW2 1155   1.894   1.993   5.124
   86SOL     OW 1156   0.207   0.674   5.818
   86SOL    HW1 1157   0.256   0.750   5.860
   86SOL    HW2 1158   0.257   0.589   5.834
   87SOL     OW 1159   4.932   3.570   0.770
   87SOL    HW1 1160   4.908   3.631   0.846
   87SOL    HW2 1161   4.965   3.625   0.693
   88SOL     OW 1162   3.904   1.646   6.138
   88SOL    HW1 1163   3.970   1.696   6.081
   88SOL    HW2 1164   3.813   1.651   6.096
   89SOL     OW 1165   1.003   2.596   5.846
   89SOL    HW1 1166   1.082   2.647   5.811
   89SOL    HW2 1167   0.960   2.647   5.920
   90SOL     OW 1168   4.277   6.395   3.261
   90SOL    HW1 1169   4.275   6.492   3.284
   90SOL    HW2 1170   4.201   6.348   3.305
   91SOL     OW 1171   4.783   4.014   4.656
   91SOL    HW1 1172   4.734   3.933   4.626
   91SOL    HW2 1173   4.835   4.053   4.580
   92SOL     OW 1174   2.890   3.767   0.669
   92SOL    HW1 1175   2.923   3.760   0.763
   92SOL    HW2 1176   2.885   3.864   0.643
   93SOL     OW 1177   2.234   3.498   6.461
   93SOL    HW1 1178   2.220   3.460   6.369
   93SOL    HW2 1179   2.295   3.577   6.455
   94SOL     OW 1180   2.726   6.097   6.046
   94SOL    HW1 1181   2.640   6.115   6.095
   94SOL    HW2 1182   2.718   6.011   5.996
   95SOL     OW 1183   0.858   0.801   3.125
   95SOL    HW1 1184   0.868   0.899   3.113
   95SOL    HW2 1185   0.939   0.754   3.089
   96SOL     OW 1186   3.831   0.154   5.199
   96SOL    HW1 1187   3.815   0.216   5.122
   96SOL    HW2 1188   3.824   0.205   5.284
   97SOL     OW 1189   1.334   3.482   6.209
   97SOL    HW1 1190   1.385   3.565   6.185
   97SOL    HW2 1191   1.339   3.417   6.134
   98SOL     OW 1192   6.411   3.876   0.505
   98SOL    HW1 1193   6.314   3.854   0.517
   98SOL    HW2 1194   6.431   3.882   0.407
   99SOL     OW 1195   4.615   3.737   1.227
   99SOL    HW1 1196   4.654   3.681   1.301
   99SOL    HW2 1197   4.612   3.832   1.256
  100SOL     OW 1198   0.232   0.320   5.531
  100SOL    HW1 1199   0.213   0.264   5.612
  100SOL    HW2 1200   0.225   0.417   5.556
  101SOL     OW 1201   1.532   5.689   2.470
  101SOL    HW1 1202   1.628   5.703   2.493
  101SOL    HW2 1203   1.501   5.759   2.406
  102SOL     OW 1204   4.030   0.648   2.349
  102SOL    HW1 1205   4.105   0.632   2.414
  102SOL    HW2 1206   3.966   0.571   2.352
  103SOL     OW 1207   3.141   1.077   2.426
  103SOL    HW1 1208   3.173   1.135   2.501
  103SOL    HW2 1209   3.215   1.067   2.359
  104SOL     OW 1210   0.162   5.573   2.550
  104SOL    HW1 1211   0.186   5.476   2.549
  104SOL    HW2 1212   0.114   5.597   2.466
  105SOL     OW 1213   6.684   2.531   6.481
  105SOL    HW1 1214   6.704   2.513   6.384
  105SOL    HW2 1215   6.656   2.447   6.525
  106SOL     OW 1216   3.769   6.155   4.548
  106SOL    HW1 1217   3.770   6.116   4.640
  106SOL    HW2 1218   3.738   6.085   4.483
  107SOL     OW 1219   1.753   1.253   2.016
  107SOL    HW1 1220   1.709   1.172   2.054
  107SOL    HW2 1221   1.683   1.312   1.976
  108SOL     OW 1222   3.912   5.244   5.460
  108SOL    HW1 1223   3.962   5.319   5.504
  108SOL    HW2 1224   3.946   5.157   5.494
  109SOL     OW 1225   0.765   1.101   1.392
  109SOL    HW1 1226   0.724   1.191   1.405
  109SOL    HW2 1227   0.701   1.030   1.423
  110SOL     OW 1228   4.050   6.150   5.346
  110SOL    HW1 1229   4.118   6.197   5.290
  110SOL    HW2 1230   4.074   6.160   5.443
  111SOL     OW 1231   3.334   0.715   5.078
  111SOL    HW1 1232   3.325   0.690   4.981
  111SOL    HW2 1233   3.430   0.709   5.105
  112SOL     OW 1234   5.721   6.568   6.606
  112SOL    HW1 1235   5.820   6.570   6.622
  112SOL    HW2 1236   5.696   6.642   6.543
  113SOL     OW 1237   5.993   4.930   3.338
  113SOL    HW1 1238   5.996   4.848   3.395
  113SOL    HW2 1239   6.079   4.938   3.287
  114SOL     OW 1240   1.088   0.176   1.331
  114SOL    HW1 1241   1.076   0.088   1.377
  114SOL    HW2 1242   1.003   0.228   1.336
  115SOL     OW 1243   3.753   1.731   3.209
  115SOL    HW1 1244   3.838   1.782   3.215
  115SOL    HW2 1245   3.763   1.641   3.252
  116SOL     OW 1246   6.184   5.077   1.781
  116SOL    HW1 1247   6.161   5.144   1.851
  116SOL    HW2 1248   6.194   4.987   1.822
  117SOL     OW 1249   1.269   1.326   6.907
  117SOL    HW1 1250   1.280   1.383   6.826
  117SOL    HW2 1251   1.335   1.251   6.904
  118SOL     OW 1252   1.363   1.592   3.187
  118SOL    HW1 1253   1.358   1.493   3.200
  118SOL    HW2 1254   1.370   1.637   3.276
  119SOL     OW 1255   0.980   1.697   6.259
  119SOL    HW1 1256   1.020   1.711   6.349
  119SOL    HW2 1257   0.991   1.601   6.233
  120SOL     OW 1258   6.250   6.617   0.403
  120SOL    HW1 1259   6.187   6.654   0.471
  120SOL    HW2 1260   6.204   6.609   0.315
  121SOL     OW 1261   2.279   3.461   6.173
  121SOL    HW1 1262   2.374   3.448   6.200
  121SOL    HW2 1263   2.274   3.533   6.103
  122SOL     OW 1264   1.724   4.534   6.914
  122SOL    HW1 1265   1.788   4.523   6.990
  122SOL    HW2 1266   1.771   4.577   6.837
  123SOL     OW 1267   0.099   1.485   1.779
  123SOL    HW1 1268   0.124   1.555   1.845
  123SOL    HW2 1269   0.182   1.437   1.748
  124SOL     OW 1270   5.197   3.081   0.692
  124SOL    HW1 1271   5.100   3.094   0.674
  124SOL    HW2 1272   5.209   3.025   0.774
  125SOL     OW 1273   2.639   1.626   2.299
  125SOL    HW1 1274   2.662   1.544   2.248
  125SOL    HW2 1275   2.723   1.679   2.316
  126SOL     OW 1276   2.494   3.738   1.285
  126SOL    HW1 1277   2.525   3.653   1.327
  126SOL    HW2 1278   2.571   3.802   1.280
  127SOL     OW 1279   0.059   5.441   5.999
  127SOL    HW1 1280   0.099   5.394   6.077
  127SOL    HW2 1281   6.982   5.472   6.024
  128SOL     OW 1282   4.774   2.317   1.446
  128SOL    HW1 1283   4.763   2.382   1.371
  128SOL    HW2 1284   4.789   2.226   1.408
  129SOL     OW 1285   3.585   3.068   5.877
  129SOL    HW1 1286   3.524   3.140   5.843
  129SOL    HW2 1287   3.587   3.071   5.977
  130SOL     OW 1288   0.673   1.126   3.994
  130SOL    HW1 1289   0.662   1.058   4.066
  130SOL    HW2 1290   0.585   1.172   3.978
  131SOL     OW 1291   5.070   2.204   3.325
  131SOL    HW1 1292   5.059   2.132   3.393
  131SOL    HW2 1293   4.981   2.246   3.307
  132SOL     OW 1294   2.460   2.757   0.801
  132SOL    HW1 1295   2.391   2.829   0.797
  132SOL    HW2 1296   2.448   2.703   0.884
  133SOL     OW 1297   4.879   6.784   4.197
  133SOL    HW1 1298   4.892   6.873   4.240
  133SOL    HW2 1299   4.963   6.758   4.150
  134SOL     OW 1300   6.115   1.767   2.379
  134SOL    HW1 1301   6.078   1.806   2.295
  134SOL    HW2 1302   6.156   1.678   2.359
  135SOL     OW 1303   5.857   3.688   2.738
  135SOL    HW1 1304   5.906   3.775   2.742
  135SOL    HW2 1305   5.759   3.706   2.725
  136SOL     OW 1306   3.059   3.887   6.502
  136SOL    HW1 1307   3.069   3.864   6.405
  136SOL    HW2 1308   3.150   3.906   6.541
  137SOL     OW 1309   5.322   1.487   4.837
  137SOL    HW1 1310   5.251   1.475   4.767
  137SOL    HW2 1311   5.325   1.405   4.894
  138SOL     OW 1312   0.647   4.569   3.182
  138SOL    HW1 1313   0.607   4.485   3.220
  138SOL    HW2 1314   0.636   4.569   3.083
  139SOL     OW 1315   2.579   6.759   4.862
  139SOL    HW1 1316   2.672   6.767   4.897
  139SOL    HW2 1317   2.513   6.770   4.937
  140SOL     OW 1318   0.479   5.306   3.654
  140SOL    HW1 1319   0.517   5.372   3.718
  140SOL    HW2 1320   0.521   5.320   3.564
  141SOL     OW 1321   6.124   3.246   4.825
  141SOL    HW1 1322   6.070   3.209   4.901
  141SOL    HW2 1323   6.143   3.343   4.843
  142SOL     OW 1324   1.935   4.127   0.487
  142SOL    HW1 1325   1.917   4.104   0.582
  142SOL    HW2 1326   1.886   4.063   0.427
  143SOL     OW 1327   5.503   4.466   1.735
  143SOL    HW1 1328   5.449   4.447   1.817
  143SOL    HW2 1329   5.441   4.476   1.657
  144SOL     OW 1330   1.540   6.208   6.811
  144SOL    HW1 1331   1.488   6.293   6.800
  144SOL    HW2 1332   1.543   6.159   6.724
  145SOL     OW 1333   0.362   5.104   0.217
  145SOL    HW1 1334   0.267   5.077   0.230
  145SOL    HW2 1335   0.366   5.194   0.175
  146SOL     OW 1336   4.977   0.623   6.486
  146SOL    HW1 1337   5.043   0.587   6.551
  146SOL    HW2 1338   5.015   0.619   6.393
  147SOL     OW 1339   5.901   3.696   6.529
  147SOL    HW1 1340   5.971   3.726   6.465
  147SOL    HW2 1341   5.837   3.771   6.546
  148SOL     OW 1342   0.043   5.442   6.360
  148SOL    HW1 1343   0.123   5.420   6.416
  148SOL    HW2 1344   6.996   5.500   6.412
  149SOL     OW 1345   2.996   1.904   4.702
  149SOL    HW1 1346   2.944   1.917   4.618
  149SOL    HW2 1347   3.001   1.991   4.752
  150SOL     OW 1348   5.953   5.561   6.639
  150SOL    HW1 1349   5.938   5.600   6.548
  150SOL    HW2 1350   5.883   5.595   6.702
  151SOL     OW 1351   3.655   2.469   1.092
  151SOL    HW1 1352   3.637   2.485   1.189
  151SOL    HW2 1353   3.603   2.390   1.060
  152SOL     OW 1354   1.363   1.292   3.287
  152SOL    HW1 1355   1.264   1.279   3.298
  152SOL    HW2 1356   1.408   1.289   3.376
  153SOL     OW 1357   2.887   0.422   1.783
  153SOL    HW1 1358   2.824   0.412   1.859
  153SOL    HW2 1359   2.836   0.435   1.698
  154SOL     OW 1360   0.411   1.822   2.881
  154SOL    HW1 1361   0.318   1.823   2.844
  154SOL    HW2 1362   0.412   1.866   2.971
  155SOL     OW 1363   6.530   1.719   3.561
  155SOL    HW1 1364   6.448   1.750   3.514
  155SOL    HW2 1365   6.542   1.621   3.549
  156SOL     OW 1366   6.891   1.966   0.413
  156SOL    HW1 1367   6.932   2.050   0.379
  156SOL    HW2 1368   6.954   1.921   0.476
  157SOL     OW 1369   6.327   3.270   1.801
  157SOL    HW1 1370   6.379   3.189   1.773
  157SOL    HW2 1371   6.388   3.348   1.807
  158SOL     OW 1372   2.496   6.038   2.053
  158SOL    HW1 1373   2.477   6.114   2.115
  158SOL    HW2 1374   2.487   5.952   2.101
  159SOL     OW 1375   4.542   4.559   1.968
  159SOL    HW1 1376   4.454   4.549   1.920
  159SOL    HW2 1377   4.591   4.472   1.967
  160SOL     OW 1378   6.425   5.711   0.188
  160SOL    HW1 1379   6.506   5.767   0.204
  160SOL    HW2 1380   6.452   5.618   0.163
  161SOL     OW 1381   1.993   5.593   4.808
  161SOL    HW1 1382   2.030   5.572   4.717
  161SOL    HW2 1383   1.894   5.608   4.801
  162SOL     OW 1384   4.166   6.764   6.787
  162SOL    HW1 1385   4.231   6.809   6.725
  162SOL    HW2 1386   4.111   6.833   6.834
  163SOL     OW 1387   5.287   5.968   0.720
  163SOL    HW1 1388   5.233   6.042   0.761
  163SOL    HW2 1389   5.229   5.914   0.659
  164SOL     OW 1390   6.436   4.899   0.401
  164SOL    HW1 1391   6.430   4.974   0.335
  164SOL    HW2 1392   6.481   4.820   0.359
  165SOL     OW 1393   5.272   2.626   1.632
  165SOL    HW1 1394   5.306   2.712   1.594
  165SOL    HW2 1395   5.263   2.635   1.731
  166SOL     OW 1396   6.877   5.258   3.836
  166SOL    HW1 1397   6.933   5.337   3.811
  166SOL    HW2 1398   6.912   5.176   3.789
  167SOL     OW 1399   5.508   2.600   6.870
  167SOL    HW1 1400   5.539   2.505   6.870
  167SOL    HW2 1401   5.517   2.638   6.962
  168SOL     OW 1402   2.094   3.366   1.461
  168SOL    HW1 1403   2.115   3.423   1.381
  168SOL    HW2 1404   2.129   3.411   1.543
  169SOL     OW 1405   4.256   0.609   1.828
  169SOL    HW1 1406   4.220   0.617   1.921
  169SOL    HW2 1407   4.321   0.683   1.811
  170SOL     OW 1408   0.730   0.671   3.319
  170SOL    HW1 1409   0.781   0.679   3.233
  170SOL    HW2 1410   0.653   0.735   3.318
  171SOL     OW 1411   3.963   4.741   0.642
  171SOL    HW1 1412   3.986   4.659   0.694
  171SOL    HW2 1413   4.017   4.743   0.558
  172SOL     OW 1414   6.129   1.786   4.303
  172SOL    HW1 1415   6.042   1.778   4.255
  172SOL    HW2 1416   6.203   1.754   4.244
  173SOL     OW 1417   6.780   2.270   4.490
  173SOL    HW1 1418   6.765   2.171   4.490
  173SOL    HW2 1419   6.694   2.316   4.511
  174SOL     OW 1420   3.426   5.695   4.410
  174SOL    HW1 1421   3.517   5.715   4.372
  174SOL    HW2 1422   3.436   5.639   4.492
  175SOL     OW 1423   2.489   6.845   2.198
  175SOL    HW1 1424   2.489   6.944   2.214
  175SOL    HW2 1425   2.576   6.806   2.229
  176SOL     OW 1426   1.103   4.327   1.377
  176SOL    HW1 1427   1.169   4.401   1.367
  176SOL    HW2 1428   1.019   4.363   1.420
  177SOL     OW 1429   5.641   3.080   2.766
  177SOL    HW1 1430   5.675   2.999   2.720
  177SOL    HW2 1431   5.632   3.155   2.700
  178SOL     OW 1432   2.996   2.676   6.332
  178SOL    HW1 1433   2.991   2.634   6.423
  178SOL    HW2 1434   2.949   2.617   6.266
  179SOL     OW 1435   2.671   1.588   6.164
  179SOL    HW1 1436   2.658   1.589   6.065
  179SOL    HW2 1437   2.690   1.495   6.195
  180SOL     OW 1438   1.745   7.001   6.689
  180SOL    HW1 1439   1.814   6.963   6.750
  180SOL    HW2 1440   1.696   6.926   6.644
  181SOL     OW 1441   3.427   2.159   6.010
  181SOL    HW1 1442   3.364   2.082   6.007
  181SOL    HW2 1443   3.397   2.229   5.945
  182SOL     OW 1444   3.408   1.549   3.874
  182SOL    HW1 1445   3.356   1.537   3.959
  182SOL    HW2 1446   3.503   1.521   3.889
  183SOL     OW 1447   3.536   2.067   3.303
  183SOL    HW1 1448   3.463   2.120   3.347
  183SOL    HW2 1449   3.509   1.971   3.299
  184SOL     OW 1450   1.762   5.940   4.142
  184SOL    HW1 1451   1.663   5.926   4.148
  184SOL    HW2 1452   1.784   6.031   4.177
  185SOL     OW 1453   0.565   1.793   6.484
  185SOL    HW1 1454   0.558   1.696   6.505
  185SOL    HW2 1455   0.631   1.835   6.547
  186SOL     OW 1456   5.800   1.125   4.061
  186SOL    HW1 1457   5.802   1.055   3.989
  186SOL    HW2 1458   5.893   1.141   4.095
  187SOL     OW 1459   4.510   0.677   2.983
  187SOL    HW1 1460   4.508   0.581   2.957
  187SOL    HW2 1461   4.432   0.724   2.942
  188SOL     OW 1462   0.004   1.937   2.321
  188SOL    HW1 1463   6.921   1.926   2.306
  188SOL    HW2 1464   0.031   1.888   2.404
  189SOL     OW 1465   2.264   4.958   1.684
  189SOL    HW1 1466   2.342   4.905   1.717
  189SOL    HW2 1467   2.183   4.933   1.737
  190SOL     OW 1468   4.392   1.348   4.223
  190SOL    HW1 1469   4.443   1.403   4.156
  190SOL    HW2 1470   4.386   1.397   4.309
  191SOL     OW 1471   5.500   5.745   6.876
  191SOL    HW1 1472   5.561   5.773   6.802
  191SOL    HW2 1473   5.525   5.654   6.908
  192SOL     OW 1474   0.290   5.627   1.755
  192SOL    HW1 1475   0.370   5.628   1.695
  192SOL    HW2 1476   0.319   5.632   1.850
  193SOL     OW 1477   4.471   2.795   5.818
  193SOL    HW1 1478   4.400   2.728   5.837
  193SOL    HW2 1479   4.546   2.752   5.767
  194SOL     OW 1480   3.652   0.758   2.401
  194SOL    HW1 1481   3.560   0.796   2.406
  194SOL    HW2 1482   3.656   0.671   2.450
  195SOL     OW 1483   1.706   6.976   4.945
  195SOL    HW1 1484   1.722   6.993   4.848
  195SOL    HW2 1485   1.794   6.965   4.992
  196SOL     OW 1486   2.644   1.495   6.564
  196SOL    HW1 1487   2.684   1.544   6.642
  196SOL    HW2 1488   2.697   1.516   6.482
  197SOL     OW 1489   2.372   0.290   0.740
  197SOL    HW1 1490   2.272   0.292   0.732
  197SOL    HW2 1491   2.412   0.358   0.680
  198SOL     OW 1492   4.756   0.735   3.067
  198SOL    HW1 1493   4.666   0.728   3.025
  198SOL    HW2 1494   4.824   0.754   2.996
  199SOL     OW 1495   1.172   2.098   4.169
  199SOL    HW1 1496   1.259   2.106   4.217
  199SOL    HW2 1497   1.175   2.020   4.107
  200SOL     OW 1498   1.193   3.480   0.553
  200SOL    HW1 1499   1.213   3.433   0.639
  200SOL    HW2 1500   1.250   3.562   0.546
  201SOL     OW 1501   0.494   6.373   5.722
  201SOL    HW1 1502   0.539   6.445   5.775
  201SOL    HW2 1503   0.493   6.398   5.626
  202SOL     OW 1504   3.469   1.688   6.387
  202SOL    HW1 1505   3.535   1.753   6.427
  202SOL    HW2 1506   3.384   1.737   6.365
  203SOL     OW 1507   6.178   2.040   5.296
  203SOL    HW1 1508   6.223   1.953   5.317
  203SOL    HW2 1509   6.146   2.082   5.380
  204SOL     OW 1510   0.742   0.140   4.461
  204SOL    HW1 1511   0.818   0.197   4.428
  204SOL    HW2 1512   0.673   0.133   4.389
  205SOL     OW 1513   1.036   2.444   2.857
  205SOL    HW1 1514   1.023   2.432   2.956
  205SOL    HW2 1515   0.957   2.491   2.819
  206SOL     OW 1516   0.616   3.829   1.119
  206SOL    HW1 1517   0.668   3.909   1.149
  206SOL    HW2 1518   0.649   3.748   1.167
  207SOL     OW 1519   5.411   1.260   4.158
  207SOL    HW1 1520   5.460   1.244   4.073
  207SOL    HW2 1521   5.476   1.278   4.232
  208SOL     OW 1522   0.176   4.381   5.822
  208SOL    HW1 1523   0.202   4.295   5.865
  208SOL    HW2 1524   0.257   4.438   5.807
  209SOL     OW 1525   6.877   5.035   3.357
  209SOL    HW1 1526   6.947   4.976   3.317
  209SOL    HW2 1527   6.919   5.120   3.387
  210SOL     OW 1528   4.316   2.116   0.422
  210SOL    HW1 1529   4.341   2.210   0.399
  210SOL    HW2 1530   4.399   2.066   0.448
  211SOL     OW 1531   1.351   6.279   1.878
  211SOL    HW1 1532   1.326   6.285   1.781
  211SOL    HW2 1533   1.268   6.286   1.934
  212SOL     OW 1534   1.426   3.431   2.658
  212SOL    HW1 1535   1.417   3.335   2.633
  212SOL    HW2 1536   1.466   3.439   2.749
  213SOL     OW 1537   2.478   6.494   0.745
  213SOL    HW1 1538   2.404   6.447   0.793
  213SOL    HW2 1539   2.507   6.439   0.667
  214SOL     OW 1540   3.192   5.667   3.135
  214SOL    HW1 1541   3.247   5.671   3.218
  214SOL    HW2 1542   3.248   5.632   3.060
  215SOL     OW 1543   3.108   3.751   0.918
  215SOL    HW1 1544   3.166   3.826   0.887
  215SOL    HW2 1545   3.079   3.768   1.012
  216SOL     OW 1546   0.604   6.045   3.305
  216SOL    HW1 1547   0.625   6.088   3.218
  216SOL    HW2 1548   0.506   6.022   3.308
  217SOL     OW 1549   1.510   2.471   4.859
  217SOL    HW1 1550   1.456   2.422   4.791
  217SOL    HW2 1551   1.471   2.562   4.874
  218SOL     OW 1552   0.868   2.451   4.657
  218SOL    HW1 1553   0.917   2.450   4.569
  218SOL    HW2 1554   0.877   2.542   4.699
  219SOL     OW 1555   3.935   6.779   0.281
  219SOL    HW1 1556   3.847   6.822   0.301
  219SOL    HW2 1557   4.005   6.816   0.342
  220SOL     OW 1558   2.831   0.044   1.622
  220SOL    HW1 1559   2.757   0.006   1.567
  220SOL    HW2 1560   2.794   0.078   1.709
  221SOL     OW 1561   5.615   4.145   0.925
  221SOL    HW1 1562   5.696   4.169   0.871
  221SOL    HW2 1563   5.592   4.221   0.985
  222SOL     OW 1564   1.393   5.083   5.655
  222SOL    HW1 1565   1.325   5.058   5.586
  222SOL    HW2 1566   1.474   5.121   5.610
  223SOL     OW 1567   6.967   3.233   5.959
  223SOL    HW1 1568   6.971   3.166   6.033
  223SOL    HW2 1569   6.874   3.270   5.954
  224SOL     OW 1570   3.092   1.601   6.169
  224SOL    HW1 1571   3.063   1.569   6.259
  224SOL    HW2 1572   3.015   1.646   6.123
  225SOL     OW 1573   4.223   4.277   6.385
  225SOL    HW1 1574   4.171   4.196   6.411
  225SOL    HW2 1575   4.316   4.269   6.420
  226SOL     OW 1576   0.354   1.557   6.071
  226SOL    HW1 1577   0.454   1.553   6.074
  226SOL    HW2 1578   0.326   1.615   5.994
  227SOL     OW 1579   0.982   3.958   2.104
  227SOL    HW1 1580   1.076   3.948   2.138
  227SOL    HW2 1581   0.977   3.924   2.010
  228SOL     OW 1582   1.973   0.285   2.579
  228SOL    HW1 1583   1.921   0.336   2.510
  228SOL    HW2 1584   2.071   0.295   2.561
  229SOL     OW 1585   5.890   5.690   6.395
  229SOL    HW1 1586   5.802   5.652   6.423
  229SOL    HW2 1587   5.876   5.781   6.356
  230SOL     OW 1588   4.244   5.802   4.228
  230SOL    HW1 1589   4.181   5.740   4.182
  230SOL    HW2 1590   4.271   5.875   4.165
  231SOL     OW 1591   6.124   1.077   6.740
  231SOL    HW1 1592   6.221   1.082   6.766
  231SOL    HW2 1593   6.109   0.994   6.686
  232SOL     OW 1594   6.877   3.482   7.003
  232SOL    HW1 1595   6.826   3.453   6.921
  232SOL    HW2 1596   6.965   3.521   6.975
  233SOL     OW 1597   3.831   1.235   2.898
  233SOL    HW1 1598   3.804   1.303   2.828
  233SOL    HW2 1599   3.748   1.196   2.938
  234SOL     OW 1600   5.124   0.922   6.573
  234SOL    HW1 1601   5.212   0.967   6.563
  234SOL    HW2 1602   5.137   0.823   6.573
  235SOL     OW 1603   4.803   2.892   2.236
  235SOL    HW1 1604   4.769   2.807   2.275
  235SOL    HW2 1605   4.755   2.911   2.150
  236SOL     OW 1606   5.213   3.235   6.777
  236SOL    HW1 1607   5.149   3.159   6.771
  236SOL    HW2 1608   5.238   3.251   6.873
  237SOL     OW 1609   0.031   4.346   2.282
  237SOL    HW1 1610   6.977   4.279   2.257
  237SOL    HW2 1611   7.011   4.438   2.266
  238SOL     OW 1612   5.975   1.628   0.537
  238SOL    HW1 1613   6.017   1.709   0.496
  238SOL    HW2 1614   6.022   1.546   0.505
  239SOL     OW 1615   0.863   4.267   6.743
  239SOL    HW1 1616   0.851   4.228   6.652
  239SOL    HW2 1617   0.809   4.216   6.809
  240SOL     OW 1618   0.883   2.770   3.320
  240SOL    HW1 1619   0.862   2.746   3.415
  240SOL    HW2 1620   0.970   2.729   3.294
  241SOL     OW 1621   3.001   2.139   4.847
  241SOL    HW1 1622   2.940   2.197   4.792
  241SOL    HW2 1623   3.028   2.189   4.930
  242SOL     OW 1624   3.268   3.692   3.967
  242SOL    HW1 1625   3.194   3.669   3.904
  242SOL    HW2 1626   3.230   3.734   4.049
  243SOL     OW 1627   4.817   0.999   0.203
  243SOL    HW1 1628   4.762   0.927   0.246
  243SOL    HW2 1629   4.914   0.982   0.220
  244SOL     OW 1630   6.180   3.938   5.760
  244SOL    HW1 1631   6.199   3.844   5.785
  244SOL    HW2 1632   6.249   3.970   5.694
  245SOL     OW 1633   4.728   1.877   4.259
  245SOL    HW1 1634   4.724   1.952   4.193
  245SOL    HW2 1635   4.738   1.914   4.352
  246SOL     OW 1636   4.493   2.133   3.164
  246SOL    HW1 1637   4.421   2.081   3.119
  246SOL    HW2 1638   4.458   2.176   3.247
  247SOL     OW 1639   2.564   2.005   0.781
  247SOL    HW1 1640   2.654   2.041   0.758
  247SOL    HW2 1641   2.573   1.909   0.809
  248SOL     OW 1642   3.476   1.538   2.988
  248SOL    HW1 1643   3.456   1.502   3.079
  248SOL    HW2 1644   3.397   1.588   2.954
  249SOL     OW 1645   5.422   6.949   5.138
  249SOL    HW1 1646   5.402   7.004   5.219
  249SOL    HW2 1647   5.507   6.980   5.096
  250SOL     OW 1648   4.699   3.315   0.351
  250SOL    HW1 1649   4.600   3.302   0.341
  250SOL    HW2 1650   4.747   3.238   0.309
  251SOL     OW 1651   4.478   3.440   5.321
  251SOL    HW1 1652   4.406   3.508   5.307
  251SOL    HW2 1653   4.559   3.465   5.267
  252SOL     OW 1654   6.895   6.355   5.004
  252SOL    HW1 1655   6.971   6.323   4.947
  252SOL    HW2 1656   6.922   6.439   5.051
  253SOL     OW 1657   3.359   5.456   6.357
  253SOL    HW1 1658   3.372   5.553   6.338
  253SOL    HW2 1659   3.268   5.428   6.326
  254SOL     OW 1660   6.411   2.388   4.054
  254SOL    HW1 1661   6.502   2.404   4.015
  254SOL    HW2 1662   6.415   2.311   4.117
  255SOL     OW 1663   2.286   5.139   5.366
  255SOL    HW1 1664   2.266   5.042   5.375
  255SOL    HW2 1665   2.353   5.153   5.292
  256SOL     OW 1666   5.776   4.370   6.092
  256SOL    HW1 1667   5.826   4.381   6.007
  256SOL    HW2 1668   5.713   4.447   6.104
  257SOL     OW 1669   4.963   0.630   3.537
  257SOL    HW1 1670   4.965   0.685   3.453
  257SOL    HW2 1671   4.945   0.690   3.615
  258SOL     OW 1672   2.157   4.905   5.079
  258SOL    HW1 1673   2.240   4.859   5.113
  258SOL    HW2 1674   2.076   4.857   5.114
  259SOL     OW 1675   6.376   1.216   2.942
  259SOL    HW1 1676   6.276   1.216   2.939
  259SOL    HW2 1677   6.411   1.124   2.926
  260SOL     OW 1678   4.185   6.383   2.934
  260SOL    HW1 1679   4.095   6.381   2.977
  260SOL    HW2 1680   4.188   6.317   2.859
  261SOL     OW 1681   5.960   3.515   0.636
  261SOL    HW1 1682   5.875   3.564   0.615
  261SOL    HW2 1683   5.938   3.423   0.669
  262SOL     OW 1684   1.151   3.845   6.969
  262SOL    HW1 1685   1.083   3.913   6.942
  262SOL    HW2 1686   1.132   3.814   0.047
  263SOL     OW 1687   2.215   0.449   4.892
  263SOL    HW1 1688   2.192   0.358   4.927
  263SOL    HW2 1689   2.150   0.516   4.927
  264SOL     OW 1690   6.005   3.100   6.574
  264SOL    HW1 1691   6.023   3.043   6.495
  264SOL    HW2 1692   6.006   3.197   6.547
  265SOL     OW 1693   5.579   6.574   2.758
  265SOL    HW1 1694   5.643   6.645   2.788
  265SOL    HW2 1695   5.554   6.592   2.662
  266SOL     OW 1696   3.785   2.922   5.795
  266SOL    HW1 1697   3.857   2.981   5.759
  266SOL    HW2 1698   3.702   2.976   5.811
  267SOL     OW 1699   0.619   1.550   6.019
  267SOL    HW1 1700   0.673   1.591   5.945
  267SOL    HW2 1701   0.639   1.596   6.105
  268SOL     OW 1702   3.414   1.119   6.263
  268SOL    HW1 1703   3.374   1.027   6.260
  268SOL    HW2 1704   3.368   1.177   6.196
  269SOL     OW 1705   1.635   4.046   1.161
  269SOL    HW1 1706   1.588   3.965   1.195
  269SOL    HW2 1707   1.733   4.038   1.178
  270SOL     OW 1708   1.415   6.010   0.557
  270SOL    HW1 1709   1.509   5.978   0.556
  270SOL    HW2 1710   1.388   6.034   0.650
  271SOL     OW 1711   6.896   1.340   6.298
  271SOL    HW1 1712   6.942   1.428   6.302
  271SOL    HW2 1713   6.950   1.276   6.243
  272SOL     OW 1714   3.793   5.795   4.144
  272SOL    HW1 1715   3.793   5.884   4.099
  272SOL    HW2 1716   3.745   5.802   4.232
  273SOL     OW 1717   2.663   4.632   4.455
  273SOL    HW1 1718   2.600   4.571   4.503
  273SOL    HW2 1719   2.693   4.704   4.518
  274SOL     OW 1720   4.000   1.652   2.904
  274SOL    HW1 1721   4.027   1.600   2.822
  274SOL    HW2 1722   3.924   1.606   2.949
  275SOL     OW 1723   6.617   5.256   3.699
  275SOL    HW1 1724   6.565   5.179   3.735
  275SOL    HW2 1725   6.694   5.277   3.759
  276SOL     OW 1726   6.951   6.604   2.476
  276SOL    HW1 1727   6.989   6.523   2.432
  276SOL    HW2 1728   6.872   6.578   2.531
  277SOL     OW 1729   0.971   3.848   0.455
  277SOL    HW1 1730   0.928   3.774   0.507
  277SOL    HW2 1731   1.035   3.897   0.515
  278SOL     OW 1732   0.287   4.360   1.766
  278SOL    HW1 1733   0.381   4.328   1.781
  278SOL    HW2 1734   0.282   4.458   1.781
  279SOL     OW 1735   5.755   3.038   4.432
  279SOL    HW1 1736   5.774   3.135   4.448
  279SOL    HW2 1737   5.672   3.029   4.378
  280SOL     OW 1738   2.583   5.794   2.977
  280SOL    HW1 1739   2.515   5.865   2.964
  280SOL    HW2 1740   2.631   5.809   3.064
  281SOL     OW 1741   2.432   4.531   1.781
  281SOL    HW1 1742   2.427   4.555   1.684
  281SOL    HW2 1743   2.466   4.437   1.790
  282SOL     OW 1744   3.492   1.523   5.618
  282SOL    HW1 1745   3.446   1.552   5.535
  282SOL    HW2 1746   3.589   1.549   5.613
  283SOL     OW 1747   5.813   2.706   6.444
  283SOL    HW1 1748   5.768   2.693   6.356
  283SOL    HW2 1749   5.890   2.642   6.452
  284SOL     OW 1750   1.265   4.014   3.594
  284SOL    HW1 1751   1.230   3.958   3.518
  284SOL    HW2 1752   1.362   3.996   3.606
  285SOL     OW 1753   5.916   5.011   4.212
  285SOL    HW1 1754   5.954   5.035   4.301
  285SOL    HW2 1755   5.903   4.912   4.206
  286SOL     OW 1756   3.248   4.696   6.675
  286SOL    HW1 1757   3.260   4.749   6.591
  286SOL    HW2 1758   3.323   4.715   6.738
  287SOL     OW 1759   1.097   3.337   1.234
  287SOL    HW1 1760   1.055   3.291   1.157
  287SOL    HW2 1761   1.032   3.341   1.310
  288SOL     OW 1762   3.118   1.389   6.922
  288SOL    HW1 1763   3.135   1.458   6.993
  288SOL    HW2 1764   3.204   1.346   6.896
  289SOL     OW 1765   2.159   4.095   5.971
  289SOL    HW1 1766   2.250   4.063   5.943
  289SOL    HW2 1767   2.156   4.195   5.969
  290SOL     OW 1768   6.577   2.100   4.705
  290SOL    HW1 1769   6.484   2.129   4.682
  290SOL    HW2 1770   6.583   2.079   4.803
  291SOL     OW 1771   1.220   2.168   4.784
  291SOL    HW1 1772   1.278   2.237   4.741
  291SOL    HW2 1773   1.143   2.147   4.723
  292SOL     OW 1774   1.843   2.058   3.087
  292SOL    HW1 1775   1.763   2.057   3.148
  292SOL    HW2 1776   1.812   2.070   2.993
  293SOL     OW 1777   4.179   5.933   3.151
  293SOL    HW1 1778   4.110   5.981   3.204
  293SOL    HW2 1779   4.152   5.838   3.139
  294SOL     OW 1780   0.391   6.138   6.554
  294SOL    HW1 1781   0.444   6.056   6.530
  294SOL    HW2 1782   0.302   6.110   6.590
  295SOL     OW 1783   3.525   0.937   3.712
  295SOL    HW1 1784   3.475   0.963   3.630
  295SOL    HW2 1785   3.498   0.996   3.788
  296SOL     OW 1786   3.869   1.914   2.929
  296SOL    HW1 1787   3.804   1.897   2.856
  296SOL    HW2 1788   3.947   1.852   2.919
  297SOL     OW 1789   2.541   4.696   4.165
  297SOL    HW1 1790   2.491   4.619   4.203
  297SOL    HW2 1791   2.621   4.715   4.222
  298SOL     OW 1792   3.703   5.846   2.261
  298SOL    HW1 1793   3.635   5.813   2.196
  298SOL    HW2 1794   3.778   5.780   2.267
  299SOL     OW 1795   5.430   3.516   6.336
  299SOL    HW1 1796   5.461   3.443   6.396
  299SOL    HW2 1797   5.396   3.477   6.251
  300SOL     OW 1798   6.091   1.203   2.625
  300SOL    HW1 1799   6.051   1.247   2.545
  300SOL    HW2 1800   6.026   1.137   2.663
  301SOL     OW 1801   4.741   3.560   1.377
  301SOL    HW1 1802   4.733   3.466   1.408
  301SOL    HW2 1803   4.787   3.615   1.448
  302SOL     OW 1804   1.302   0.438   3.013
  302SOL    HW1 1805   1.337   0.483   2.931
  302SOL    HW2 1806   1.209   0.470   3.032
  303SOL     OW 1807   6.144   0.878   2.271
  303SOL    HW1 1808   6.204   0.922   2.337
  303SOL    HW2 1809   6.051   0.914   2.282
  304SOL     OW 1810   1.963   0.405   3.297
  304SOL    HW1 1811   2.037   0.395   3.231
  304SOL    HW2 1812   1.999   0.393   3.390
  305SOL     OW 1813   0.299   3.521   0.116
  305SOL    HW1 1814   0.364   3.499   0.189
  305SOL    HW2 1815   0.349   3.539   0.032
  306SOL     OW 1816   1.693   0.557   3.587
  306SOL    HW1 1817   1.697   0.478   3.526
  306SOL    HW2 1818   1.626   0.623   3.552
  307SOL     OW 1819   4.829   6.617   0.832
  307SOL    HW1 1820   4.747   6.649   0.879
  307SOL    HW2 1821   4.893   6.579   0.899
  308SOL     OW 1822   6.686   3.377   4.832
  308SOL    HW1 1823   6.646   3.466   4.853
  308SOL    HW2 1824   6.646   3.307   4.892
  309SOL     OW 1825   4.019   4.071   5.877
  309SOL    HW1 1826   4.098   4.011   5.875
  309SOL    HW2 1827   3.946   4.029   5.930
  310SOL     OW 1828   6.460   6.466   5.830
  310SOL    HW1 1829   6.560   6.474   5.824
  310SOL    HW2 1830   6.435   6.421   5.916
  311SOL     OW 1831   6.618   4.976   1.512
  311SOL    HW1 1832   6.523   4.947   1.498
  311SOL    HW2 1833   6.664   4.984   1.424
  312SOL     OW 1834   4.795   2.350   5.838
  312SOL    HW1 1835   4.733   2.334   5.761
  312SOL    HW2 1836   4.757   2.309   5.921
  313SOL     OW 1837   2.824   4.314   1.684
  313SOL    HW1 1838   2.844   4.392   1.742
  313SOL    HW2 1839   2.899   4.248   1.689
  314SOL     OW 1840   3.464   5.768   0.540
  314SOL    HW1 1841   3.477   5.686   0.484
  314SOL    HW2 1842   3.456   5.848   0.481
  315SOL     OW 1843   1.198   2.395   3.411
  315SOL    HW1 1844   1.123   2.364   3.470
  315SOL    HW2 1845   1.214   2.492   3.425
  316SOL     OW 1846   2.172   2.003   4.467
  316SOL    HW1 1847   2.141   2.002   4.563
  316SOL    HW2 1848   2.217   1.916   4.446
  317SOL     OW 1849   0.913   1.488   0.085
  317SOL    HW1 1850   0.953   1.408   0.130
  317SOL    HW2 1851   0.813   1.485   0.095
  318SOL     OW 1852   1.000   4.931   0.855
  318SOL    HW1 1853   1.012   5.027   0.831
  318SOL    HW2 1854   0.903   4.911   0.869
  319SOL     OW 1855   0.228   0.392   2.207
  319SOL    HW1 1856   0.284   0.317   2.243
  319SOL    HW2 1857   0.250   0.476   2.255
  320SOL     OW 1858   5.056   2.590   6.920
  320SOL    HW1 1859   5.036   2.655   6.994
  320SOL    HW2 1860   5.137   2.537   6.943
  321SOL     OW 1861   2.493   1.321   2.282
  321SOL    HW1 1862   2.563   1.270   2.333
  321SOL    HW2 1863   2.449   1.260   2.217
  322SOL     OW 1864   2.897   3.532   4.494
  322SOL    HW1 1865   2.939   3.606   4.441
  322SOL    HW2 1866   2.883   3.561   4.588
  323SOL     OW 1867   0.693   3.995   6.875
  323SOL    HW1 1868   0.690   4.042   6.787
  323SOL    HW2 1869   0.628   3.920   6.875
  324SOL     OW 1870   1.470   3.068   4.002
  324SOL    HW1 1871   1.396   3.135   4.016
  324SOL    HW2 1872   1.477   3.047   3.905
  325SOL     OW 1873   1.717   2.934   1.398
  325SOL    HW1 1874   1.778   2.859   1.372
  325SOL    HW2 1875   1.771   3.012   1.430
  326SOL     OW 1876   1.773   5.928   6.871
  326SOL    HW1 1877   1.793   5.839   6.830
  326SOL    HW2 1878   1.856   5.984   6.871
  327SOL     OW 1879   0.937   5.340   3.737
  327SOL    HW1 1880   0.878   5.267   3.705
  327SOL    HW2 1881   0.927   5.351   3.836
  328SOL     OW 1882   3.331   5.004   2.950
  328SOL    HW1 1883   3.242   4.967   2.977
  328SOL    HW2 1884   3.396   4.930   2.934
  329SOL     OW 1885   3.419   4.095   3.814
  329SOL    HW1 1886   3.444   4.159   3.742
  329SOL    HW2 1887   3.422   4.002   3.779
  330SOL     OW 1888   3.474   5.882   1.978
  330SOL    HW1 1889   3.517   5.945   1.912
  330SOL    HW2 1890   3.375   5.883   1.965
  331SOL     OW 1891   4.871   4.927   6.705
  331SOL    HW1 1892   4.864   4.858   6.633
  331SOL    HW2 1893   4.918   5.008   6.669
  332SOL     OW 1894   3.532   2.128   4.133
  332SOL    HW1 1895   3.619   2.173   4.113
  332SOL    HW2 1896   3.499   2.082   4.050
  333SOL     OW 1897   3.763   0.267   0.350
  333SOL    HW1 1898   3.792   0.280   0.256
  333SOL    HW2 1899   3.822   0.320   0.411
  334SOL     OW 1900   2.783   6.868   1.201
  334SOL    HW1 1901   2.714   6.920   1.250
  334SOL    HW2 1902   2.746   6.837   1.113
  335SOL     OW 1903   3.112   6.316   4.124
  335SOL    HW1 1904   3.035   6.304   4.061
  335SOL    HW2 1905   3.085   6.378   4.197
  336SOL     OW 1906   2.175   0.707   3.819
  336SOL    HW1 1907   2.252   0.667   3.769
  336SOL    HW2 1908   2.096   0.714   3.758
  337SOL     OW 1909   6.985   3.540   1.340
  337SOL    HW1 1910   0.040   3.547   1.268
  337SOL    HW2 1911   6.938   3.453   1.333
  338SOL     OW 1912   2.928   3.019   1.495
  338SOL    HW1 1913   2.944   2.974   1.583
  338SOL    HW2 1914   2.918   3.118   1.509
  339SOL     OW 1915   3.959   7.001   3.645
  339SOL    HW1 1916   3.956   0.056   3.574
  339SOL    HW2 1917   4.020   0.015   3.719
  340SOL     OW 1918   5.397   4.135   4.828
  340SOL    HW1 1919   5.477   4.092   4.871
  340SOL    HW2 1920   5.426   4.215   4.776
  341SOL     OW 1921   6.192   6.840   3.943
  341SOL    HW1 1922   6.167   6.933   3.969
  341SOL    HW2 1923   6.220   6.789   4.024
  342SOL     OW 1924   5.799   4.013   0.226
  342SOL    HW1 1925   5.762   3.945   0.162
  342SOL    HW2 1926   5.748   4.009   0.312
  343SOL     OW 1927   3.055   5.726   1.688
  343SOL    HW1 1928   3.023   5.784   1.613
  343SOL    HW2 1929   2.979   5.671   1.723
  344SOL     OW 1930   2.484   5.255   1.293
  344SOL    HW1 1931   2.582   5.274   1.297
  344SOL    HW2 1932   2.444   5.273   1.383
  345SOL     OW 1933   6.819   0.517   5.727
  345SOL    HW1 1934   6.785   0.491   5.636
  345SOL    HW2 1935   6.744   0.514   5.793
  346SOL     OW 1936   2.079   6.823   2.141
  346SOL    HW1 1937   2.033   6.912   2.144
  346SOL    HW2 1938   2.021   6.755   2.187
  347SOL     OW 1939   5.113   0.416   6.271
  347SOL    HW1 1940   5.177   0.341   6.253
  347SOL    HW2 1941   5.109   0.476   6.190
  348SOL     OW 1942   4.335   4.807   1.672
  348SOL    HW1 1943   4.323   4.794   1.574
  348SOL    HW2 1944   4.301   4.726   1.720
  349SOL     OW 1945   0.151   4.658   2.143
  349SOL    HW1 1946   0.153   4.751   2.106
  349SOL    HW2 1947   0.063   4.615   2.120
  350SOL     OW 1948   3.687   3.711   1.717
  350SOL    HW1 1949   3.622   3.636   1.730
  350SOL    HW2 1950   3.644   3.798   1.741
  351SOL     OW 1951   2.753   2.407   0.716
  351SOL    HW1 1952   2.779   2.487   0.662
  351SOL    HW2 1953   2.734   2.435   0.810
  352SOL     OW 1954   3.789   0.059   4.877
  352SOL    HW1 1955   3.823   0.151   4.897
  352SOL    HW2 1956   3.768   0.052   4.779
  353SOL     OW 1957   2.540   0.123   0.931
  353SOL    HW1 1958   2.637   0.133   0.953
  353SOL    HW2 1959   2.500   0.213   0.915
  354SOL     OW 1960   4.001   2.686   0.571
  354SOL    HW1 1961   3.912   2.720   0.600
  354SOL    HW2 1962   4.053   2.760   0.528
  355SOL     OW 1963   6.447   3.113   2.652
  355SOL    HW1 1964   6.448   3.035   2.715
  355SOL    HW2 1965   6.541   3.135   2.626
  356SOL     OW 1966   4.148   5.414   4.714
  356SOL    HW1 1967   4.049   5.431   4.712
  356SOL    HW2 1968   4.186   5.425   4.623
  357SOL     OW 1969   6.859   6.807   5.153
  357SOL    HW1 1970   6.879   6.855   5.239
  357SOL    HW2 1971   6.920   6.728   5.144
  358SOL     OW 1972   6.236   0.107   1.225
  358SOL    HW1 1973   6.176   0.072   1.152
  358SOL    HW2 1974   6.237   0.042   1.301
  359SOL     OW 1975   1.396   2.554   2.435
  359SOL    HW1 1976   1.431   2.566   2.527
  359SOL    HW2 1977   1.377   2.457   2.418
  360SOL     OW 1978   2.966   6.137   6.397
  360SOL    HW1 1979   2.954   6.225   6.350
  360SOL    HW2 1980   2.990   6.067   6.331
  361SOL     OW 1981   5.625   5.760   2.796
  361SOL    HW1 1982   5.687   5.694   2.755
  361SOL    HW2 1983   5.568   5.801   2.725
  362SOL     OW 1984   3.546   4.006   0.556
  362SOL    HW1 1985   3.542   3.984   0.458
  362SOL    HW2 1986   3.535   3.922   0.609
  363SOL     OW 1987   3.331   5.215   4.119
  363SOL    HW1 1988   3.278   5.283   4.069
  363SOL    HW2 1989   3.415   5.194   4.069
  364SOL     OW 1990   0.290   5.468   5.071
  364SOL    HW1 1991   0.242   5.440   4.989
  364SOL    HW2 1992   0.348   5.393   5.103
  365SOL     OW 1993   4.372   6.579   2.975
  365SOL    HW1 1994   4.308   6.503   2.968
  365SOL    HW2 1995   4.321   6.662   2.999
  366SOL     OW 1996   5.572   1.080   0.314
  366SOL    HW1 1997   5.619   1.046   0.395
  366SOL    HW2 1998   5.640   1.108   0.246
  367SOL     OW 1999   5.169   2.787   0.843
  367SOL    HW1 2000   5.124   2.764   0.757
  367SOL    HW2 2001   5.118   2.859   0.890
  368SOL     OW 2002   1.390   4.698   4.953
  368SOL    HW1 2003   1.389   4.599   4.963
  368SOL    HW2 2004   1.310   4.737   4.999
  369SOL     OW 2005   6.444   4.409   2.167
  369SOL    HW1 2006   6.436   4.363   2.255
  369SOL    HW2 2007   6.540   4.431   2.149
  370SOL     OW 2008   2.592   1.217   5.285
  370SOL    HW1 2009   2.589   1.287   5.213
  370SOL    HW2 2010   2.666   1.153   5.266
  371SOL     OW 2011   2.014   3.691   6.364
  371SOL    HW1 2012   2.085   3.762   6.367
  371SOL    HW2 2013   1.979   3.674   6.456
  372SOL     OW 2014   6.988   0.279   5.084
  372SOL    HW1 2015   6.968   0.191   5.043
  372SOL    HW2 2016   0.055   0.272   5.141
  373SOL     OW 2017   0.085   6.643   5.787
  373SOL    HW1 2018   0.134   6.571   5.737
  373SOL    HW2 2019   0.139   6.669   5.867
  374SOL     OW 2020   4.097   0.101   2.119
  374SOL    HW1 2021   3.999   0.086   2.137
  374SOL    HW2 2022   4.119   0.198   2.136
  375SOL     OW 2023   6.784   4.661   3.764
  375SOL    HW1 2024   6.775   4.564   3.739
  375SOL    HW2 2025   6.751   4.717   3.688
  376SOL     OW 2026   1.467   3.327   3.747
  376SOL    HW1 2027   1.518   3.241   3.742
  376SOL    HW2 2028   1.479   3.368   3.837
  377SOL     OW 2029   5.803   2.883   2.633
  377SOL    HW1 2030   5.844   2.920   2.550
  377SOL    HW2 2031   5.753   2.799   2.610
  378SOL     OW 2032   3.926   3.186   5.733
  378SOL    HW1 2033   3.959   3.261   5.675
  378SOL    HW2 2034   3.999   3.158   5.795
  379SOL     OW 2035   5.646   3.208   1.461
  379SOL    HW1 2036   5.666   3.163   1.548
  379SOL    HW2 2037   5.593   3.147   1.403
  380SOL     OW 2038   2.394   1.564   1.594
  380SOL    HW1 2039   2.413   1.624   1.516
  380SOL    HW2 2040   2.336   1.488   1.563
  381SOL     OW 2041   2.204   4.569   1.929
  381SOL    HW1 2042   2.291   4.562   1.879
  381SOL    HW2 2043   2.214   4.636   2.003
  382SOL     OW 2044   3.733   5.936   6.902
  382SOL    HW1 2045   3.762   5.974   6.814
  382SOL    HW2 2046   3.800   5.869   6.933
  383SOL     OW 2047   6.323   2.811   6.237
  383SOL    HW1 2048   6.254   2.854   6.296
  383SOL    HW2 2049   6.278   2.749   6.173
  384SOL     OW 2050   1.150   4.552   5.169
  384SOL    HW1 2051   1.155   4.651   5.154
  384SOL    HW2 2052   1.240   4.517   5.192
  385SOL     OW 2053   5.031   6.521   7.015
  385SOL    HW1 2054   5.039   6.594   0.068
  385SOL    HW2 2055   4.948   6.469   0.016
  386SOL     OW 2056   4.097   6.871   5.326
  386SOL    HW1 2057   4.005   6.883   5.289
  386SOL    HW2 2058   4.124   6.775   5.319
  387SOL     OW 2059   0.294   6.745   3.913
  387SOL    HW1 2060   0.253   6.665   3.871
  387SOL    HW2 2061   0.266   6.750   4.009
  388SOL     OW 2062   6.945   2.264   5.355
  388SOL    HW1 2063   6.973   2.169   5.372
  388SOL    HW2 2064   6.940   2.313   5.442
  389SOL     OW 2065   4.260   4.165   1.629
  389SOL    HW1 2066   4.200   4.088   1.649
  389SOL    HW2 2067   4.295   4.204   1.715
  390SOL     OW 2068   3.499   1.179   0.551
  390SOL    HW1 2069   3.545   1.176   0.640
  390SOL    HW2 2070   3.451   1.092   0.536
  391SOL     OW 2071   2.789   4.036   5.614
  391SOL    HW1 2072   2.840   4.122   5.617
  391SOL    HW2 2073   2.712   4.046   5.549
  392SOL     OW 2074   1.681   3.320   2.202
  392SOL    HW1 2075   1.669   3.297   2.105
  392SOL    HW2 2076   1.720   3.412   2.210
  393SOL     OW 2077   0.967   4.249   0.891
  393SOL    HW1 2078   0.924   4.310   0.957
  393SOL    HW2 2079   1.003   4.302   0.814
  394SOL     OW 2080   0.083   3.446   0.358
  394SOL    HW1 2081   0.142   3.372   0.327
  394SOL    HW2 2082   0.128   3.534   0.345
  395SOL     OW 2083   5.465   4.157   2.356
  395SOL    HW1 2084   5.431   4.199   2.441
  395SOL    HW2 2085   5.510   4.227   2.300
  396SOL     OW 2086   2.569   2.086   2.214
  396SOL    HW1 2087   2.645   2.021   2.222
  396SOL    HW2 2088   2.604   2.174   2.183
  397SOL     OW 2089   4.807   1.328   5.535
  397SOL    HW1 2090   4.754   1.401   5.492
  397SOL    HW2 2091   4.828   1.354   5.629
  398SOL     OW 2092   0.928   6.981   4.351
  398SOL    HW1 2093   0.837   7.012   4.377
  398SOL    HW2 2094   0.996   0.008   4.411
  399SOL     OW 2095   5.839   6.080   3.748
  399SOL    HW1 2096   5.744   6.049   3.758
  399SOL    HW2 2097   5.885   6.077   3.836
  400SOL     OW 2098   6.268   0.200   4.782
  400SOL    HW1 2099   6.322   0.159   4.854
  400SOL    HW2 2100   6.251   0.132   4.710
  401SOL     OW 2101   6.450   1.000   5.966
  401SOL    HW1 2102   6.534   0.958   5.931
  401SOL    HW2 2103   6.459   1.099   5.965
  402SOL     OW 2104   6.083   0.541   2.395
  402SOL    HW1 2105   6.099   0.633   2.361
  402SOL    HW2 2106   6.090   0.540   2.495
  403SOL     OW 2107   2.681   0.378   5.945
  403SOL    HW1 2108   2.601   0.322   5.967
  403SOL    HW2 2109   2.749   0.370   6.018
  404SOL     OW 2110   3.666   6.582   5.605
  404SOL    HW1 2111   3.597   6.645   5.640
  404SOL    HW2 2112   3.710   6.621   5.524
  405SOL     OW 2113   1.856   3.859   3.556
  405SOL    HW1 2114   1.949   3.894   3.548
  405SOL    HW2 2115   1.846   3.813   3.645
  406SOL     OW 2116   0.674   5.351   4.916
  406SOL    HW1 2117   0.626   5.292   4.980
  406SOL    HW2 2118   0.705   5.297   4.838
  407SOL     OW 2119   1.659   3.521   3.636
  407SOL    HW1 2120   1.662   3.466   3.553
  407SOL    HW2 2121   1.585   3.488   3.695
  408SOL     OW 2122   3.716   1.853   2.698
  408SOL    HW1 2123   3.774   1.798   2.638
  408SOL    HW2 2124   3.622   1.819   2.692
  409SOL     OW 2125   0.661   3.617   1.812
  409SOL    HW1 2126   0.752   3.598   1.849
  409SOL    HW2 2127   0.652   3.715   1.793
  410SOL     OW 2128   1.720   2.328   1.247
  410SOL    HW1 2129   1.718   2.372   1.337
  410SOL    HW2 2130   1.814   2.329   1.212
  411SOL     OW 2131   0.246   2.170   2.004
  411SOL    HW1 2132   0.320   2.104   2.013
  411SOL    HW2 2133   0.194   2.176   2.089
  412SOL     OW 2134   2.697   4.631   3.049
  412SOL    HW1 2135   2.777   4.584   3.013
  412SOL    HW2 2136   2.683   4.716   2.998
  413SOL     OW 2137   3.711   4.934   2.581
  413SOL    HW1 2138   3.637   4.902   2.521
  413SOL    HW2 2139   3.739   4.859   2.641
  414SOL     OW 2140   2.926   6.733   4.047
  414SOL    HW1 2141   2.868   6.809   4.076
  414SOL    HW2 2142   2.972   6.694   4.126
  415SOL     OW 2143   6.757   1.333   0.163
  415SOL    HW1 2144   6.835   1.322   0.102
  415SOL    HW2 2145   6.712   1.420   0.144
  416SOL     OW 2146   5.186   3.826   5.019
  416SOL    HW1 2147   5.204   3.735   4.980
  416SOL    HW2 2148   5.137   3.882   4.951
  417SOL     OW 2149   2.717   2.241   6.900
  417SOL    HW1 2150   2.784   2.273   6.967
  417SOL    HW2 2151   2.744   2.152   6.865
  418SOL     OW 2152   3.425   6.950   4.473
  418SOL    HW1 2153   3.510   6.950   4.421
  418SOL    HW2 2154   3.353   6.994   4.418
  419SOL     OW 2155   0.309   6.987   1.587
  419SOL    HW1 2156   0.393   6.951   1.629
  419SOL    HW2 2157   0.244   7.010   1.659
  420SOL     OW 2158   5.586   0.688   6.544
  420SOL    HW1 2159   5.638   0.634   6.611
  420SOL    HW2 2160   5.616   0.783   6.548
  421SOL     OW 2161   5.224   4.120   4.534
  421SOL    HW1 2162   5.161   4.060   4.584
  421SOL    HW2 2163   5.269   4.180   4.599
  422SOL     OW 2164   4.856   2.046   1.349
  422SOL    HW1 2165   4.778   1.998   1.310
  422SOL    HW2 2166   4.941   2.010   1.309
  423SOL     OW 2167   3.128   1.177   6.036
  423SOL    HW1 2168   3.099   1.089   6.075
  423SOL    HW2 2169   3.070   1.200   5.958
  424SOL     OW 2170   1.413   4.640   3.014
  424SOL    HW1 2171   1.505   4.634   3.054
  424SOL    HW2 2172   1.345   4.615   3.082
  425SOL     OW 2173   4.555   1.182   4.783
  425SOL    HW1 2174   4.491   1.220   4.716
  425SOL    HW2 2175   4.603   1.257   4.829
  426SOL     OW 2176   2.552   2.139   4.948
  426SOL    HW1 2177   2.631   2.198   4.933
  426SOL    HW2 2178   2.576   2.045   4.923
  427SOL     OW 2179   4.701   1.404   3.475
  427SOL    HW1 2180   4.642   1.324   3.486
  427SOL    HW2 2181   4.789   1.387   3.521
  428SOL     OW 2182   3.001   1.040   4.939
  428SOL    HW1 2183   2.966   0.962   4.887
  428SOL    HW2 2184   3.080   1.012   4.994
  429SOL     OW 2185   1.284   6.189   3.892
  429SOL    HW1 2186   1.346   6.154   3.821
  429SOL    HW2 2187   1.194   6.147   3.881
  430SOL     OW 2188   1.836   6.913   4.058
  430SOL    HW1 2189   1.760   6.979   4.064
  430SOL    HW2 2190   1.921   6.958   4.083
  431SOL     OW 2191   3.022   2.014   1.194
  431SOL    HW1 2192   2.944   2.076   1.183
  431SOL    HW2 2193   3.022   1.978   1.287
  432SOL     OW 2194   4.590   2.151   1.651
  432SOL    HW1 2195   4.536   2.173   1.570
  432SOL    HW2 2196   4.687   2.161   1.630
  433SOL     OW 2197   2.787   6.439   6.544
  433SOL    HW1 2198   2.733   6.442   6.460
  433SOL    HW2 2199   2.824   6.531   6.563
  434SOL     OW 2200   3.671   6.506   3.608
  434SOL    HW1 2201   3.685   6.411   3.638
  434SOL    HW2 2202   3.741   6.530   3.541
  435SOL     OW 2203   3.660   1.798   6.018
  435SOL    HW1 2204   3.752   1.833   6.004
  435SOL    HW2 2205   3.610   1.860   6.078
  436SOL     OW 2206   3.642   6.224   3.507
  436SOL    HW1 2207   3.660   6.129   3.534
  436SOL    HW2 2208   3.555   6.230   3.460
  437SOL     OW 2209   0.232   0.340   4.200
  437SOL    HW1 2210   0.187   0.324   4.112
  437SOL    HW2 2211   0.169   0.317   4.274
  438SOL     OW 2212   1.097   4.976   2.898
  438SOL    HW1 2213   0.999   4.967   2.912
  438SOL    HW2 2214   1.136   4.888   2.871
  439SOL     OW 2215   6.146   0.511   2.671
  439SOL    HW1 2216   6.140   0.592   2.728
  439SOL    HW2 2217   6.166   0.431   2.728
  440SOL     OW 2218   4.131   0.282   0.184
  440SOL    HW1 2219   4.211   0.340   0.200
  440SOL    HW2 2220   4.161   0.187   0.172
  441SOL     OW 2221   6.625   4.481   2.743
  441SOL    HW1 2222   6.552   4.418   2.721
  441SOL    HW2 2223   6.678   4.445   2.821
  442SOL     OW 2224   5.135   3.650   5.680
  442SOL    HW1 2225   5.091   3.647   5.590
  442SOL    HW2 2226   5.223   3.602   5.676
  443SOL     OW 2227   5.042   4.070   3.401
  443SOL    HW1 2228   5.133   4.037   3.376
  443SOL    HW2 2229   5.048   4.165   3.431
  444SOL     OW 2230   3.948   1.096   1.281
  444SOL    HW1 2231   4.041   1.097   1.316
  444SOL    HW2 2232   3.949   1.118   1.184
  445SOL     OW 2233   2.327   5.667   3.015
  445SOL    HW1 2234   2.423   5.684   2.996
  445SOL    HW2 2235   2.317   5.580   3.065
  446SOL     OW 2236   6.059   5.992   2.501
  446SOL    HW1 2237   6.087   5.989   2.597
  446SOL    HW2 2238   5.971   6.038   2.494
  447SOL     OW 2239   5.956   4.112   6.642
  447SOL    HW1 2240   6.036   4.062   6.676
  447SOL    HW2 2241   5.979   4.157   6.555
  448SOL     OW 2242   3.259   1.469   2.370
  448SOL    HW1 2243   3.180   1.457   2.309
  448SOL    HW2 2244   3.228   1.508   2.456
  449SOL     OW 2245   1.648   2.699   3.999
  449SOL    HW1 2246   1.583   2.663   3.932
  449SOL    HW2 2247   1.598   2.749   4.070
  450SOL     OW 2248   0.964   4.574   2.818
  450SOL    HW1 2249   0.874   4.616   2.819
  450SOL    HW2 2250   1.003   4.576   2.911
  451SOL     OW 2251   0.851   1.968   3.535
  451SOL    HW1 2252   0.949   1.969   3.557
  451SOL    HW2 2253   0.840   1.938   3.440
  452SOL     OW 2254   3.752   6.627   3.082
  452SOL    HW1 2255   3.732   6.673   2.995
  452SOL    HW2 2256   3.848   6.641   3.105
  453SOL     OW 2257   4.023   6.832   0.020
  453SOL    HW1 2258   3.999   6.787   0.106
  453SOL    HW2 2259   3.940   6.853   6.985
  454SOL     OW 2260   0.092   4.726   6.315
  454SOL    HW1 2261   0.108   4.804   6.256
  454SOL    HW2 2262   0.089   4.756   6.411
  455SOL     OW 2263   6.844   4.427   5.861
  455SOL    HW1 2264   6.935   4.401   5.831
  455SOL    HW2 2265   6.807   4.496   5.798
  456SOL     OW 2266   2.236   1.090   3.118
  456SOL    HW1 2267   2.330   1.082   3.152
  456SOL    HW2 2268   2.223   1.031   3.039
  457SOL     OW 2269   2.163   5.892   6.179
  457SOL    HW1 2270   2.154   5.934   6.089
  457SOL    HW2 2271   2.176   5.964   6.248
  458SOL     OW 2272   2.481   1.096   3.274
  458SOL    HW1 2273   2.419   1.074   3.350
  458SOL    HW2 2274   2.574   1.105   3.309
  459SOL     OW 2275   2.348   0.085   4.976
  459SOL    HW1 2276   2.433   0.100   4.925
  459SOL    HW2 2277   2.336   0.160   5.041
  460SOL     OW 2278   1.480   1.748   5.211
  460SOL    HW1 2279   1.545   1.686   5.255
  460SOL    HW2 2280   1.443   1.705   5.129
  461SOL     OW 2281   0.448   4.796   5.438
  461SOL    HW1 2282   0.354   4.775   5.464
  461SOL    HW2 2283   0.508   4.724   5.472
  462SOL     OW 2284   3.769   3.493   4.374
  462SOL    HW1 2285   3.767   3.507   4.473
  462SOL    HW2 2286   3.688   3.533   4.332
  463SOL     OW 2287   6.130   6.288   2.098
  463SOL    HW1 2288   6.183   6.373   2.091
  463SOL    HW2 2289   6.184   6.219   2.146
  464SOL     OW 2290   3.469   6.255   6.106
  464SOL    HW1 2291   3.396   6.317   6.134
  464SOL    HW2 2292   3.545   6.261   6.172
  465SOL     OW 2293   1.050   2.165   0.675
  465SOL    HW1 2294   1.137   2.160   0.626
  465SOL    HW2 2295   0.978   2.194   0.613
  466SOL     OW 2296   3.409   6.166   4.883
  466SOL    HW1 2297   3.469   6.113   4.944
  466SOL    HW2 2298   3.386   6.111   4.803
  467SOL     OW 2299   6.762   1.391   2.728
  467SOL    HW1 2300   6.745   1.468   2.790
  467SOL    HW2 2301   6.764   1.306   2.780
  468SOL     OW 2302   3.642   0.625   6.423
  468SOL    HW1 2303   3.585   0.664   6.350
  468SOL    HW2 2304   3.738   0.624   6.393
  469SOL     OW 2305   2.772   4.285   5.855
  469SOL    HW1 2306   2.830   4.361   5.824
  469SOL    HW2 2307   2.829   4.213   5.895
  470SOL     OW 2308   2.380   5.523   3.267
  470SOL    HW1 2309   2.461   5.482   3.227
  470SOL    HW2 2310   2.354   5.473   3.350
  471SOL     OW 2311   2.674   2.282   4.028
  471SOL    HW1 2312   2.757   2.277   3.972
  471SOL    HW2 2313   2.608   2.343   3.985
  472SOL     OW 2314   6.399   4.326   5.826
  472SOL    HW1 2315   6.414   4.234   5.862
  472SOL    HW2 2316   6.337   4.376   5.888
  473SOL     OW 2317   6.908   2.324   2.724
  473SOL    HW1 2318   6.874   2.407   2.768
  473SOL    HW2 2319   6.913   2.338   2.625
  474SOL     OW 2320   6.309   6.338   4.573
  474SOL    HW1 2321   6.266   6.404   4.512
  474SOL    HW2 2322   6.407   6.358   4.582
  475SOL     OW 2323   6.163   1.518   0.184
  475SOL    HW1 2324   6.208   1.573   0.114
  475SOL    HW2 2325   6.148   1.425   0.149
  476SOL     OW 2326   0.677   3.882   1.817
  476SOL    HW1 2327   0.756   3.941   1.804
  476SOL    HW2 2328   0.601   3.936   1.852
  477SOL     OW 2329   1.830   5.296   3.413
  477SOL    HW1 2330   1.878   5.209   3.418
  477SOL    HW2 2331   1.888   5.363   3.367
  478SOL     OW 2332   4.345   5.645   3.179
  478SOL    HW1 2333   4.387   5.652   3.269
  478SOL    HW2 2334   4.407   5.595   3.117
  479SOL     OW 2335   4.153   3.324   3.445
  479SOL    HW1 2336   4.178   3.412   3.404
  479SOL    HW2 2337   4.135   3.337   3.542
  480SOL     OW 2338   1.211   6.935   2.595
  480SOL    HW1 2339   1.170   7.015   2.639
  480SOL    HW2 2340   1.229   6.865   2.664
  481SOL     OW 2341   0.798   6.343   0.413
  481SOL    HW1 2342   0.870   6.280   0.383
  481SOL    HW2 2343   0.782   6.412   0.343
  482SOL     OW 2344   5.298   4.439   2.195
  482SOL    HW1 2345   5.216   4.462   2.246
  482SOL    HW2 2346   5.379   4.474   2.243
  483SOL     OW 2347   5.975   2.589   3.534
  483SOL    HW1 2348   5.891   2.638   3.554
  483SOL    HW2 2349   6.011   2.548   3.618
  484SOL     OW 2350   2.378   4.279   4.113
  484SOL    HW1 2351   2.420   4.275   4.023
  484SOL    HW2 2352   2.368   4.186   4.150
  485SOL     OW 2353   5.488   3.409   2.789
  485SOL    HW1 2354   5.520   3.367   2.704
  485SOL    HW2 2355   5.389   3.419   2.787
  486SOL     OW 2356   6.482   6.264   5.603
  486SOL    HW1 2357   6.417   6.189   5.599
  486SOL    HW2 2358   6.444   6.340   5.657
  487SOL     OW 2359   0.338   6.178   4.197
  487SOL    HW1 2360   0.360   6.094   4.247
  487SOL    HW2 2361   0.255   6.218   4.233
  488SOL     OW 2362   1.916   6.720   3.305
  488SOL    HW1 2363   1.905   6.654   3.231
  488SOL    HW2 2364   1.827   6.736   3.349
  489SOL     OW 2365   0.102   5.821   4.639
  489SOL    HW1 2366   0.085   5.724   4.622
  489SOL    HW2 2367   0.181   5.830   4.699
  490SOL     OW 2368   1.419   5.056   5.946
  490SOL    HW1 2369   1.464   5.125   5.889
  490SOL    HW2 2370   1.478   5.035   6.025
  491SOL     OW 2371   0.374   2.656   0.948
  491SOL    HW1 2372   0.381   2.559   0.926
  491SOL    HW2 2373   0.421   2.710   0.879
  492SOL     OW 2374   1.724   1.648   5.594
  492SOL    HW1 2375   1.634   1.616   5.624
  492SOL    HW2 2376   1.791   1.575   5.605
  493SOL     OW 2377   2.219   6.248   4.917
  493SOL    HW1 2378   2.294   6.186   4.940
  493SOL    HW2 2379   2.255   6.329   4.872
  494SOL     OW 2380   2.300   0.261   5.200
  494SOL    HW1 2381   2.281   0.352   5.162
  494SOL    HW2 2382   2.219   0.229   5.249
  495SOL     OW 2383   4.324   6.237   5.216
  495SOL    HW1 2384   4.326   6.153   5.162
  495SOL    HW2 2385   4.349   6.216   5.311
  496SOL     OW 2386   5.822   2.355   2.921
  496SOL    HW1 2387   5.859   2.424   2.982
  496SOL    HW2 2388   5.766   2.290   2.973
  497SOL     OW 2389   3.333   1.113   6.576
  497SOL    HW1 2390   3.343   1.025   6.622
  497SOL    HW2 2391   3.236   1.128   6.554
  498SOL     OW 2392   0.748   5.535   2.025
  498SOL    HW1 2393   0.719   5.481   2.104
  498SOL    HW2 2394   0.718   5.489   1.941
  499SOL     OW 2395   3.726   5.377   0.221
  499SOL    HW1 2396   3.660   5.308   0.250
  499SOL    HW2 2397   3.707   5.404   0.127
  500SOL     OW 2398   5.554   2.020   6.779
  500SOL    HW1 2399   5.493   2.092   6.811
  500SOL    HW2 2400   5.597   1.976   6.857
  501SOL     OW 2401   0.979   6.500   2.922
  501SOL    HW1 2402   1.005   6.428   2.858
  501SOL    HW2 2403   0.991   6.467   3.016
  502SOL     OW 2404   1.735   4.417   6.523
  502SOL    HW1 2405   1.752   4.399   6.426
  502SOL    HW2 2406   1.788   4.353   6.579
  503SOL     OW 2407   3.493   4.926   7.002
  503SOL    HW1 2408   3.563   4.887   6.943
  503SOL    HW2 2409   3.445   4.853   0.035
  504SOL     OW 2410   6.268   5.925   1.820
  504SOL    HW1 2411   6.352   5.897   1.867
  504SOL    HW2 2412   6.209   5.845   1.807
  505SOL     OW 2413   5.103   6.708   5.642
  505SOL    HW1 2414   5.012   6.727   5.678
  505SOL    HW2 2415   5.100   6.712   5.542
  506SOL     OW 2416   2.924   6.066   2.943
  506SOL    HW1 2417   2.858   6.008   2.991
  506SOL    HW2 2418   3.015   6.026   2.951
  507SOL     OW 2419   3.866   1.392   1.677
  507SOL    HW1 2420   3.931   1.396   1.753
  507SOL    HW2 2421   3.791   1.331   1.701
  508SOL     OW 2422   0.696   4.586   4.881
  508SOL    HW1 2423   0.601   4.582   4.852
  508SOL    HW2 2424   0.744   4.503   4.852
  509SOL     OW 2425   4.275   0.864   6.085
  509SOL    HW1 2426   4.193   0.922   6.081
  509SOL    HW2 2427   4.338   0.900   6.154
  510SOL     OW 2428   6.240   4.546   6.188
  510SOL    HW1 2429   6.264   4.622   6.248
  510SOL    HW2 2430   6.320   4.489   6.173
  511SOL     OW 2431   1.286   1.558   0.497
  511SOL    HW1 2432   1.205   1.570   0.440
  511SOL    HW2 2433   1.290   1.630   0.565
  512SOL     OW 2434   5.578   1.975   0.416
  512SOL    HW1 2435   5.594   1.911   0.341
  512SOL    HW2 2436   5.664   1.992   0.464
  513SOL     OW 2437   5.768   0.593   2.657
  513SOL    HW1 2438   5.766   0.675   2.599
  513SOL    HW2 2439   5.856   0.588   2.705
  514SOL     OW 2440   6.980   6.961   3.969
  514SOL    HW1 2441   6.943   0.036   3.950
  514SOL    HW2 2442   6.931   6.893   3.914
  515SOL     OW 2443   3.241   0.261   6.710
  515SOL    HW1 2444   3.305   0.187   6.732
  515SOL    HW2 2445   3.276   0.347   6.748
  516SOL     OW 2446   2.947   4.932   1.424
  516SOL    HW1 2447   2.919   4.836   1.415
  516SOL    HW2 2448   3.018   4.939   1.493
  517SOL     OW 2449   2.798   5.158   2.483
  517SOL    HW1 2450   2.778   5.060   2.492
  517SOL    HW2 2451   2.787   5.202   2.572
  518SOL     OW 2452   1.944   2.851   3.383
  518SOL    HW1 2453   1.866   2.898   3.341
  518SOL    HW2 2454   1.913   2.799   3.462
  519SOL     OW 2455   0.125   6.502   3.559
  519SOL    HW1 2456   0.113   6.499   3.658
  519SOL    HW2 2457   0.187   6.578   3.536
  520SOL     OW 2458   0.853   2.785   7.006
  520SOL    HW1 2459   0.840   2.771   6.907
  520SOL    HW2 2460   0.945   2.755   0.017
  521SOL     OW 2461   4.949   4.913   5.012
  521SOL    HW1 2462   5.020   4.968   5.057
  521SOL    HW2 2463   4.910   4.848   5.077
  522SOL     OW 2464   4.486   3.472   1.139
  522SOL    HW1 2465   4.535   3.517   1.214
  522SOL    HW2 2466   4.539   3.481   1.055
  523SOL     OW 2467   0.143   6.077   1.780
  523SOL    HW1 2468   0.177   6.049   1.869
  523SOL    HW2 2469   0.078   6.008   1.746
  524SOL     OW 2470   0.296   2.601   2.311
  524SOL    HW1 2471   0.289   2.689   2.358
  524SOL    HW2 2472   0.227   2.598   2.238
  525SOL     OW 2473   1.137   3.370   6.975
  525SOL    HW1 2474   1.175   3.450   6.930
  525SOL    HW2 2475   1.211   3.316   7.014
  526SOL     OW 2476   3.352   0.190   5.159
  526SOL    HW1 2477   3.275   0.241   5.120
  526SOL    HW2 2478   3.403   0.146   5.085
  527SOL     OW 2479   1.434   2.328   6.662
  527SOL    HW1 2480   1.373   2.342   6.585
  527SOL    HW2 2481   1.445   2.414   6.713
  528SOL     OW 2482   0.033   3.296   4.431
  528SOL    HW1 2483   6.995   3.305   4.515
  528SOL    HW2 2484   7.004   3.231   4.370
  529SOL     OW 2485   2.523   6.635   5.666
  529SOL    HW1 2486   2.534   6.595   5.757
  529SOL    HW2 2487   2.453   6.585   5.615
  530SOL     OW 2488   3.628   3.296   1.772
  530SOL    HW1 2489   3.565   3.359   1.726
  530SOL    HW2 2490   3.693   3.259   1.706
  531SOL     OW 2491   2.571   0.912   2.244
  531SOL    HW1 2492   2.590   0.942   2.337
  531SOL    HW2 2493   2.618   0.825   2.227
  532SOL     OW 2494   2.895   2.694   0.153
  532SOL    HW1 2495   2.823   2.640   0.195
  532SOL    HW2 2496   2.858   2.782   0.122
  533SOL     OW 2497   4.077   0.464   3.571
  533SOL    HW1 2498   4.134   0.510   3.638
  533SOL    HW2 2499   4.075   0.517   3.486
  534SOL     OW 2500   1.040   5.208   0.834
  534SOL    HW1 2501   1.129   5.252   0.820
  534SOL    HW2 2502   0.984   5.221   0.752
  535SOL     OW 2503   5.281   4.037   3.246
  535SOL    HW1 2504   5.222   4.017   3.168
  535SOL    HW2 2505   5.324   4.126   3.234
  536SOL     OW 2506   6.594   6.303   2.980
  536SOL    HW1 2507   6.497   6.288   2.999
  536SOL    HW2 2508   6.645   6.218   2.994
  537SOL     OW 2509   3.440   0.165   4.093
  537SOL    HW1 2510   3.441   0.260   4.124
  537SOL    HW2 2511   3.379   0.158   4.013
  538SOL     OW 2512   2.575   5.002   5.614
  538SOL    HW1 2513   2.660   4.964   5.652
  538SOL    HW2 2514   2.503   4.998   5.683
  539SOL     OW 2515   1.212   5.473   0.492
  539SOL    HW1 2516   1.163   5.402   0.442
  539SOL    HW2 2517   1.310   5.453   0.492
  540SOL     OW 2518   1.525   0.168   3.748
  540SOL    HW1 2519   1.493   0.213   3.831
  540SOL    HW2 2520   1.619   0.196   3.729
  541SOL     OW 2521   4.170   6.605   4.274
  541SOL    HW1 2522   4.149   6.558   4.188
  541SOL    HW2 2523   4.238   6.551   4.325
  542SOL     OW 2524   3.130   5.685   6.435
  542SOL    HW1 2525   3.095   5.770   6.396
  542SOL    HW2 2526   3.212   5.657   6.385
  543SOL     OW 2527   6.048   3.085   4.162
  543SOL    HW1 2528   6.043   2.987   4.183
  543SOL    HW2 2529   6.082   3.096   4.068
  544SOL     OW 2530   0.083   5.076   0.284
  544SOL    HW1 2531   0.049   5.170   0.292
  544SOL    HW2 2532   0.108   5.042   0.375
  545SOL     OW 2533   5.395   1.500   1.012
  545SOL    HW1 2534   5.299   1.488   0.989
  545SOL    HW2 2535   5.439   1.555   0.941
  546SOL     OW 2536   0.496   4.235   2.128
  546SOL    HW1 2537   0.521   4.181   2.208
  546SOL    HW2 2538   0.444   4.315   2.156
  547SOL     OW 2539   3.508   1.698   0.281
  547SOL    HW1 2540   3.508   1.667   0.186
  547SOL    HW2 2541   3.416   1.688   0.319
  548SOL     OW 2542   3.858   3.232   0.280
  548SOL    HW1 2543   3.762   3.212   0.298
  548SOL    HW2 2544   3.891   3.301   0.344
  549SOL     OW 2545   5.660   2.482   0.578
  549SOL    HW1 2546   5.709   2.565   0.548
  549SOL    HW2 2547   5.563   2.502   0.585
  550SOL     OW 2548   0.232   4.461   3.260
  550SOL    HW1 2549   0.133   4.465   3.247
  550SOL    HW2 2550   0.277   4.473   3.171
  551SOL     OW 2551   6.918   1.046   0.338
  551SOL    HW1 2552   6.970   0.964   0.362
  551SOL    HW2 2553   6.957   1.125   0.384
  552SOL     OW 2554   5.138   5.521   5.946
  552SOL    HW1 2555   5.107   5.451   5.882
  552SOL    HW2 2556   5.145   5.481   6.037
  553SOL     OW 2557   3.268   0.668   4.818
  553SOL    HW1 2558   3.173   0.689   4.795
  553SOL    HW2 2559   3.326   0.683   4.738
  554SOL     OW 2560   5.524   5.872   0.785
  554SOL    HW1 2561   5.561   5.937   0.851
  554SOL    HW2 2562   5.428   5.894   0.768
  555SOL     OW 2563   3.072   5.504   5.324
  555SOL    HW1 2564   3.003   5.573   5.344
  555SOL    HW2 2565   3.144   5.507   5.394
  556SOL     OW 2566   4.886   2.159   3.891
  556SOL    HW1 2567   4.870   2.253   3.923
  556SOL    HW2 2568   4.822   2.138   3.817
  557SOL     OW 2569   0.208   4.738   5.583
  557SOL    HW1 2570   0.162   4.759   5.670
  557SOL    HW2 2571   0.188   4.643   5.558
  558SOL     OW 2572   3.723   3.591   3.005
  558SOL    HW1 2573   3.658   3.528   3.047
  558SOL    HW2 2574   3.810   3.588   3.054
  559SOL     OW 2575   6.269   6.080   5.594
  559SOL    HW1 2576   6.247   5.997   5.543
  559SOL    HW2 2577   6.185   6.126   5.621
  560SOL     OW 2578   6.831   3.036   3.623
  560SOL    HW1 2579   6.892   2.994   3.555
  560SOL    HW2 2580   6.883   3.060   3.705
  561SOL     OW 2581   6.895   3.351   6.598
  561SOL    HW1 2582   6.985   3.389   6.579
  561SOL    HW2 2583   6.825   3.421   6.584
  562SOL     OW 2584   4.885   6.767   5.831
  562SOL    HW1 2585   4.846   6.749   5.922
  562SOL    HW2 2586   4.824   6.828   5.781
  563SOL     OW 2587   1.452   1.628   4.554
  563SOL    HW1 2588   1.550   1.610   4.548
  563SOL    HW2 2589   1.403   1.541   4.559
  564SOL     OW 2590   0.320   1.204   5.989
  564SOL    HW1 2591   0.415   1.194   5.959
  564SOL    HW2 2592   0.308   1.293   6.032
  565SOL     OW 2593   3.541   2.896   3.837
  565SOL    HW1 2594   3.573   2.888   3.932
  565SOL    HW2 2595   3.482   2.976   3.829
  566SOL     OW 2596   2.759   5.338   3.227
  566SOL    HW1 2597   2.789   5.262   3.168
  566SOL    HW2 2598   2.837   5.397   3.247
  567SOL     OW 2599   2.376   2.592   0.603
  567SOL    HW1 2600   2.384   2.651   0.683
  567SOL    HW2 2601   2.323   2.510   0.628
  568SOL     OW 2602   5.326   6.981   0.524
  568SOL    HW1 2603   5.355   6.942   0.437
  568SOL    HW2 2604   5.397   0.029   0.557
  569SOL     OW 2605   0.264   2.255   0.136
  569SOL    HW1 2606   0.167   2.267   0.118
  569SOL    HW2 2607   0.314   2.251   0.050
  570SOL     OW 2608   2.880   0.291   6.221
  570SOL    HW1 2609   2.940   0.366   6.250
  570SOL    HW2 2610   2.914   0.205   6.257
  571SOL     OW 2611   2.566   4.893   3.362
  571SOL    HW1 2612   2.486   4.836   3.380
  571SOL    HW2 2613   2.646   4.834   3.352
  572SOL     OW 2614   1.641   5.841   4.577
  572SOL    HW1 2615   1.659   5.939   4.565
  572SOL    HW2 2616   1.666   5.814   4.670
  573SOL     OW 2617   6.456   2.055   6.015
  573SOL    HW1 2618   6.541   2.005   6.002
  573SOL    HW2 2619   6.378   1.993   5.999
  574SOL     OW 2620   3.025   1.199   4.686
  574SOL    HW1 2621   3.112   1.245   4.701
  574SOL    HW2 2622   2.989   1.166   4.773
  575SOL     OW 2623   3.658   2.823   0.958
  575SOL    HW1 2624   3.735   2.760   0.971
  575SOL    HW2 2625   3.685   2.915   0.983
  576SOL     OW 2626   2.230   2.866   2.916
  576SOL    HW1 2627   2.202   2.861   2.820
  576SOL    HW2 2628   2.265   2.777   2.945
  577SOL     OW 2629   0.589   0.697   2.143
  577SOL    HW1 2630   0.636   0.717   2.057
  577SOL    HW2 2631   0.562   0.600   2.145
  578SOL     OW 2632   1.628   5.205   0.200
  578SOL    HW1 2633   1.634   5.176   0.104
  578SOL    HW2 2634   1.532   5.224   0.222
  579SOL     OW 2635   2.569   4.516   2.665
  579SOL    HW1 2636   2.516   4.492   2.583
  579SOL    HW2 2637   2.663   4.536   2.639
  580SOL     OW 2638   4.617   5.296   4.999
  580SOL    HW1 2639   4.704   5.335   4.969
  580SOL    HW2 2640   4.631   5.203   5.032
  581SOL     OW 2641   0.676   2.937   3.729
  581SOL    HW1 2642   0.629   3.018   3.694
  581SOL    HW2 2643   0.772   2.939   3.701
  582SOL     OW 2644   5.044   5.576   3.258
  582SOL    HW1 2645   5.110   5.501   3.250
  582SOL    HW2 2646   5.083   5.660   3.221
  583SOL     OW 2647   3.104   4.989   5.477
  583SOL    HW1 2648   3.069   5.033   5.559
  583SOL    HW2 2649   3.170   5.049   5.431
  584SOL     OW 2650   3.511   0.248   6.166
  584SOL    HW1 2651   3.529   0.180   6.236
  584SOL    HW2 2652   3.594   0.265   6.114
  585SOL     OW 2653   3.500   0.028   1.512
  585SOL    HW1 2654   3.534   6.979   1.443
  585SOL    HW2 2655   3.401   0.041   1.500
  586SOL     OW 2656   4.221   0.266   1.320
  586SOL    HW1 2657   4.275   0.343   1.352
  586SOL    HW2 2658   4.248   0.243   1.226
  587SOL     OW 2659   5.482   1.930   1.885
  587SOL    HW1 2660   5.495   2.028   1.899
  587SOL    HW2 2661   5.536   1.900   1.807
  588SOL     OW 2662   1.649   5.486   0.732
  588SOL    HW1 2663   1.604   5.501   0.820
  588SOL    HW2 2664   1.706   5.566   0.710
  589SOL     OW 2665   3.198   6.012   1.587
  589SOL    HW1 2666   3.275   6.055   1.539
  589SOL    HW2 2667   3.127   5.987   1.521
  590SOL     OW 2668   5.917   1.513   0.781
  590SOL    HW1 2669   5.925   1.534   0.683
  590SOL    HW2 2670   6.001   1.470   0.814
  591SOL     OW 2671   4.370   6.158   4.283
  591SOL    HW1 2672   4.330   6.138   4.373
  591SOL    HW2 2673   4.469   6.146   4.288
  592SOL     OW 2674   4.972   1.015   3.889
  592SOL    HW1 2675   5.058   1.062   3.869
  592SOL    HW2 2676   4.962   1.004   3.988
  593SOL     OW 2677   4.022   2.208   4.718
  593SOL    HW1 2678   4.001   2.192   4.814
  593SOL    HW2 2679   4.091   2.280   4.710
  594SOL     OW 2680   6.010   2.009   1.334
  594SOL    HW1 2681   6.078   2.076   1.304
  594SOL    HW2 2682   5.921   2.054   1.344
  595SOL     OW 2683   5.161   6.714   3.301
  595SOL    HW1 2684   5.215   6.724   3.385
  595SOL    HW2 2685   5.081   6.775   3.307
  596SOL     OW 2686   6.947   4.661   3.478
  596SOL    HW1 2687   6.960   4.565   3.501
  596SOL    HW2 2688   0.021   4.707   3.475
  597SOL     OW 2689   3.382   0.041   5.691
  597SOL    HW1 2690   3.469   0.034   5.641
  597SOL    HW2 2691   3.396   0.011   5.785
  598SOL     OW 2692   3.085   3.782   4.628
  598SOL    HW1 2693   3.049   3.865   4.671
  598SOL    HW2 2694   3.066   3.703   4.686
  599SOL     OW 2695   1.843   5.922   1.935
  599SOL    HW1 2696   1.915   5.974   1.982
  599SOL    HW2 2697   1.769   5.984   1.908
  600SOL     OW 2698   0.101   3.845   5.543
  600SOL    HW1 2699   0.200   3.843   5.560
  600SOL    HW2 2700   0.076   3.770   5.482
  601SOL     OW 2701   1.966   1.010   5.036
  601SOL    HW1 2702   1.909   0.952   5.094
  601SOL    HW2 2703   1.931   1.007   4.942
  602SOL     OW 2704   3.009   6.661   5.512
  602SOL    HW1 2705   2.940   6.670   5.584
  602SOL    HW2 2706   3.090   6.713   5.537
  603SOL     OW 2707   1.888   1.001   5.353
  603SOL    HW1 2708   1.951   1.027   5.427
  603SOL    HW2 2709   1.810   1.064   5.353
  604SOL     OW 2710   6.930   2.470   1.684
  604SOL    HW1 2711   7.011   2.484   1.627
  604SOL    HW2 2712   6.909   2.555   1.733
  605SOL     OW 2713   0.365   4.934   2.247
  605SOL    HW1 2714   0.321   4.846   2.269
  605SOL    HW2 2715   0.296   5.007   2.250
  606SOL     OW 2716   4.800   6.758   5.353
  606SOL    HW1 2717   4.778   6.696   5.278
  606SOL    HW2 2718   4.772   6.718   5.440
  607SOL     OW 2719   0.791   5.506   5.646
  607SOL    HW1 2720   0.866   5.540   5.589
  607SOL    HW2 2721   0.708   5.501   5.591
  608SOL     OW 2722   4.094   0.080   6.561
  608SOL    HW1 2723   4.154   0.153   6.530
  608SOL    HW2 2724   4.017   0.071   6.499
  609SOL     OW 2725   3.925   2.288   1.743
  609SOL    HW1 2726   3.917   2.349   1.664
  609SOL    HW2 2727   3.842   2.293   1.798
  610SOL     OW 2728   4.640   2.242   0.398
  610SOL    HW1 2729   4.668   2.206   0.487
  610SOL    HW2 2730   4.720   2.253   0.339
  611SOL     OW 2731   4.157   6.956   2.319
  611SOL    HW1 2732   4.168   0.004   2.243
  611SOL    HW2 2733   4.061   6.926   2.323
  612SOL     OW 2734   2.950   4.713   5.533
  612SOL    HW1 2735   2.877   4.655   5.495
  612SOL    HW2 2736   2.989   4.768   5.460
  613SOL     OW 2737   5.663   5.302   4.903
  613SOL    HW1 2738   5.649   5.399   4.886
  613SOL    HW2 2739   5.679   5.287   5.001
  614SOL     OW 2740   4.998   5.296   5.191
  614SOL    HW1 2741   4.965   5.321   5.100
  614SOL    HW2 2742   4.940   5.338   5.261
  615SOL     OW 2743   0.035   4.491   0.666
  615SOL    HW1 2744   6.979   4.473   0.598
  615SOL    HW2 2745   0.028   4.423   0.739
  616SOL     OW 2746   6.638   3.171   3.430
  616SOL    HW1 2747   6.602   3.253   3.474
  616SOL    HW2 2748   6.693   3.119   3.496
  617SOL     OW 2749   1.990   5.390   6.266
  617SOL    HW1 2750   1.902   5.344   6.257
  617SOL    HW2 2751   1.996   5.464   6.198
  618SOL     OW 2752   1.604   1.414   1.720
  618SOL    HW1 2753   1.662   1.343   1.680
  618SOL    HW2 2754   1.604   1.495   1.660
  619SOL     OW 2755   1.642   1.807   0.094
  619SOL    HW1 2756   1.686   1.722   0.065
  619SOL    HW2 2757   1.636   1.869   0.016
  620SOL     OW 2758   4.940   2.038   0.428
  620SOL    HW1 2759   5.021   1.987   0.457
  620SOL    HW2 2760   4.874   2.042   0.503
  621SOL     OW 2761   6.406   5.048   6.624
  621SOL    HW1 2762   6.319   5.012   6.591
  621SOL    HW2 2763   6.413   5.145   6.600
  622SOL     OW 2764   1.647   1.146   0.218
  622SOL    HW1 2765   1.614   1.098   0.299
  622SOL    HW2 2766   1.746   1.133   0.210
  623SOL     OW 2767   0.501   5.638   5.793
  623SOL    HW1 2768   0.469   5.546   5.770
  623SOL    HW2 2769   0.596   5.634   5.825
  624SOL     OW 2770   0.560   2.651   2.389
  624SOL    HW1 2771   0.469   2.629   2.354
  624SOL    HW2 2772   0.626   2.583   2.357
  625SOL     OW 2773   3.364   1.614   1.852
  625SOL    HW1 2774   3.285   1.591   1.908
  625SOL    HW2 2775   3.335   1.667   1.772
  626SOL     OW 2776   2.217   5.900   3.430
  626SOL    HW1 2777   2.259   5.811   3.442
  626SOL    HW2 2778   2.260   5.947   3.353
  627SOL     OW 2779   5.382   0.506   0.435
  627SOL    HW1 2780   5.396   0.603   0.455
  627SOL    HW2 2781   5.285   0.484   0.444
  628SOL     OW 2782   5.153   5.182   4.766
  628SOL    HW1 2783   5.157   5.251   4.693
  628SOL    HW2 2784   5.239   5.181   4.816
  629SOL     OW 2785   0.656   0.719   1.311
  629SOL    HW1 2786   0.712   0.789   1.267
  629SOL    HW2 2787   0.627   0.752   1.401
  630SOL     OW 2788   4.872   1.896   2.075
  630SOL    HW1 2789   4.911   1.819   2.127
  630SOL    HW2 2790   4.929   1.977   2.089
  631SOL     OW 2791   3.014   0.866   5.393
  631SOL    HW1 2792   3.106   0.897   5.414
  631SOL    HW2 2793   3.006   0.846   5.295
  632SOL     OW 2794   2.460   1.181   0.292
  632SOL    HW1 2795   2.372   1.141   0.265
  632SOL    HW2 2796   2.496   1.237   0.216
  633SOL     OW 2797   3.210   5.440   0.611
  633SOL    HW1 2798   3.139   5.508   0.632
  633SOL    HW2 2799   3.253   5.410   0.696
  634SOL     OW 2800   4.106   4.962   1.577
  634SOL    HW1 2801   4.104   4.875   1.625
  634SOL    HW2 2802   4.037   5.023   1.615
  635SOL     OW 2803   3.728   6.917   3.376
  635SOL    HW1 2804   3.706   7.003   3.421
  635SOL    HW2 2805   3.656   6.850   3.394
  636SOL     OW 2806   5.032   5.419   6.185
  636SOL    HW1 2807   4.935   5.395   6.189
  636SOL    HW2 2808   5.046   5.507   6.231
  637SOL     OW 2809   5.183   4.941   2.011
  637SOL    HW1 2810   5.086   4.938   2.032
  637SOL    HW2 2811   5.204   4.874   1.939
  638SOL     OW 2812   5.166   1.225   2.430
  638SOL    HW1 2813   5.080   1.180   2.407
  638SOL    HW2 2814   5.239   1.158   2.434
  639SOL     OW 2815   4.717   4.820   1.924
  639SOL    HW1 2816   4.787   4.816   1.854
  639SOL    HW2 2817   4.644   4.756   1.903
  640SOL     OW 2818   2.281   4.096   5.601
  640SOL    HW1 2819   2.356   4.073   5.539
  640SOL    HW2 2820   2.221   4.162   5.557
  641SOL     OW 2821   0.752   4.980   4.274
  641SOL    HW1 2822   0.821   4.998   4.345
  641SOL    HW2 2823   0.741   4.881   4.264
  642SOL     OW 2824   0.217   4.687   4.933
  642SOL    HW1 2825   0.257   4.778   4.944
  642SOL    HW2 2826   0.193   4.650   5.023
  643SOL     OW 2827   6.180   6.137   4.720
  643SOL    HW1 2828   6.182   6.047   4.677
  643SOL    HW2 2829   6.227   6.203   4.661
  644SOL     OW 2830   1.040   6.055   2.991
  644SOL    HW1 2831   0.973   5.984   2.971
  644SOL    HW2 2832   1.043   6.071   3.090
  645SOL     OW 2833   4.666   2.344   4.497
  645SOL    HW1 2834   4.598   2.416   4.510
  645SOL    HW2 2835   4.757   2.385   4.495
  646SOL     OW 2836   1.782   1.628   3.645
  646SOL    HW1 2837   1.871   1.647   3.603
  646SOL    HW2 2838   1.738   1.715   3.671
  647SOL     OW 2839   6.117   2.958   6.795
  647SOL    HW1 2840   6.196   2.901   6.774
  647SOL    HW2 2841   6.089   3.008   6.713
  648SOL     OW 2842   6.060   3.932   2.677
  648SOL    HW1 2843   6.065   4.001   2.750
  648SOL    HW2 2844   6.108   3.849   2.706
  649SOL     OW 2845   3.915   4.071   0.656
  649SOL    HW1 2846   3.899   4.017   0.573
  649SOL    HW2 2847   4.010   4.058   0.686
  650SOL     OW 2848   4.782   4.506   0.439
  650SOL    HW1 2849   4.816   4.597   0.416
  650SOL    HW2 2850   4.859   4.443   0.446
  651SOL     OW 2851   0.665   6.507   0.906
  651SOL    HW1 2852   0.595   6.522   0.976
  651SOL    HW2 2853   0.738   6.450   0.945
  652SOL     OW 2854   4.607   6.934   3.302
  652SOL    HW1 2855   4.634   6.856   3.358
  652SOL    HW2 2856   4.514   6.962   3.326
  653SOL     OW 2857   3.199   5.364   4.717
  653SOL    HW1 2858   3.278   5.302   4.724
  653SOL    HW2 2859   3.197   5.424   4.796
  654SOL     OW 2860   0.032   5.043   6.113
  654SOL    HW1 2861   6.970   4.980   6.120
  654SOL    HW2 2862   0.066   5.044   6.019
  655SOL     OW 2863   0.652   0.166   1.910
  655SOL    HW1 2864   0.731   0.121   1.869
  655SOL    HW2 2865   0.616   0.234   1.847
  656SOL     OW 2866   2.182   5.919   2.701
  656SOL    HW1 2867   2.146   5.826   2.710
  656SOL    HW2 2868   2.245   5.938   2.777
  657SOL     OW 2869   2.440   1.749   0.993
  657SOL    HW1 2870   2.360   1.789   1.037
  657SOL    HW2 2871   2.435   1.649   1.001
  658SOL     OW 2872   3.337   3.629   6.968
  658SOL    HW1 2873   3.253   3.615   0.004
  658SOL    HW2 2874   3.330   3.714   6.916
  659SOL     OW 2875   2.658   6.421   6.298
  659SOL    HW1 2876   2.712   6.427   6.213
  659SOL    HW2 2877   2.629   6.326   6.311
  660SOL     OW 2878   3.805   5.783   1.889
  660SOL    HW1 2879   3.765   5.747   1.974
  660SOL    HW2 2880   3.766   5.735   1.811
  661SOL     OW 2881   4.313   6.019   3.742
  661SOL    HW1 2882   4.356   6.104   3.710
  661SOL    HW2 2883   4.297   5.958   3.664
  662SOL     OW 2884   3.530   1.010   4.877
  662SOL    HW1 2885   3.601   0.989   4.945
  662SOL    HW2 2886   3.479   1.091   4.906
  663SOL     OW 2887   2.058   4.346   4.606
  663SOL    HW1 2888   2.005   4.399   4.672
  663SOL    HW2 2889   2.032   4.250   4.611
  664SOL     OW 2890   0.614   6.619   5.878
  664SOL    HW1 2891   0.692   6.681   5.874
  664SOL    HW2 2892   0.531   6.669   5.855
  665SOL     OW 2893   3.560   5.273   3.947
  665SOL    HW1 2894   3.507   5.351   3.914
  665SOL    HW2 2895   3.622   5.303   4.020
  666SOL     OW 2896   4.270   0.662   2.097
  666SOL    HW1 2897   4.350   0.718   2.075
  666SOL    HW2 2898   4.284   0.617   2.185
  667SOL     OW 2899   1.130   5.272   1.880
  667SOL    HW1 2900   1.170   5.282   1.789
  667SOL    HW2 2901   1.033   5.252   1.872
  668SOL     OW 2902   5.757   5.272   6.112
  668SOL    HW1 2903   5.777   5.175   6.112
  668SOL    HW2 2904   5.839   5.323   6.137
  669SOL     OW 2905   5.750   1.359   3.112
  669SOL    HW1 2906   5.846   1.378   3.091
  669SOL    HW2 2907   5.742   1.337   3.209
  670SOL     OW 2908   2.175   1.691   2.777
  670SOL    HW1 2909   2.230   1.754   2.722
  670SOL    HW2 2910   2.235   1.630   2.828
  671SOL     OW 2911   2.859   6.322   1.694
  671SOL    HW1 2912   2.817   6.254   1.754
  671SOL    HW2 2913   2.791   6.392   1.671
  672SOL     OW 2914   6.944   4.994   1.904
  672SOL    HW1 2915   6.949   4.925   1.832
  672SOL    HW2 2916   0.009   4.987   1.963
  673SOL     OW 2917   5.141   6.843   1.222
  673SOL    HW1 2918   5.161   6.871   1.128
  673SOL    HW2 2919   5.139   6.924   1.280
  674SOL     OW 2920   0.278   2.158   4.954
  674SOL    HW1 2921   0.257   2.242   5.004
  674SOL    HW2 2922   0.289   2.179   4.857
  675SOL     OW 2923   6.309   2.361   2.033
  675SOL    HW1 2924   6.294   2.390   2.127
  675SOL    HW2 2925   6.407   2.363   2.013
  676SOL     OW 2926   2.429   4.651   4.774
  676SOL    HW1 2927   2.511   4.704   4.796
  676SOL    HW2 2928   2.421   4.574   4.838
  677SOL     OW 2929   5.034   0.648   1.657
  677SOL    HW1 2930   5.095   0.718   1.694
  677SOL    HW2 2931   5.053   0.635   1.560
  678SOL     OW 2932   2.642   4.670   5.217
  678SOL    HW1 2933   2.629   4.576   5.247
  678SOL    HW2 2934   2.717   4.674   5.151
  679SOL     OW 2935   5.194   2.277   5.085
  679SOL    HW1 2936   5.106   2.287   5.037
  679SOL    HW2 2937   5.269   2.294   5.020
  680SOL     OW 2938   5.089   6.360   4.512
  680SOL    HW1 2939   5.134   6.338   4.599
  680SOL    HW2 2940   5.086   6.459   4.499
  681SOL     OW 2941   4.655   5.881   2.345
  681SOL    HW1 2942   4.658   5.981   2.339
  681SOL    HW2 2943   4.748   5.846   2.355
  682SOL     OW 2944   6.849   1.403   1.791
  682SOL    HW1 2945   6.934   1.446   1.761
  682SOL    HW2 2946   6.817   1.449   1.874
  683SOL     OW 2947   4.187   2.999   1.481
  683SOL    HW1 2948   4.109   2.978   1.539
  683SOL    HW2 2949   4.155   3.046   1.398
  684SOL     OW 2950   5.967   0.417   6.702
  684SOL    HW1 2951   5.950   0.326   6.665
  684SOL    HW2 2952   6.063   0.425   6.727
  685SOL     OW 2953   2.920   1.281   3.469
  685SOL    HW1 2954   2.956   1.324   3.552
  685SOL    HW2 2955   2.839   1.227   3.491
  686SOL     OW 2956   4.457   1.233   3.553
  686SOL    HW1 2957   4.375   1.273   3.512
  686SOL    HW2 2958   4.434   1.190   3.640
  687SOL     OW 2959   0.919   1.618   4.732
  687SOL    HW1 2960   0.966   1.567   4.659
  687SOL    HW2 2961   0.899   1.710   4.701
  688SOL     OW 2962   6.970   0.615   5.953
  688SOL    HW1 2963   0.044   0.648   5.925
  688SOL    HW2 2964   6.923   0.574   5.875
  689SOL     OW 2965   1.408   4.386   6.237
  689SOL    HW1 2966   1.497   4.385   6.192
  689SOL    HW2 2967   1.364   4.297   6.226
  690SOL     OW 2968   6.953   3.822   3.483
  690SOL    HW1 2969   6.888   3.817   3.407
  690SOL    HW2 2970   0.026   3.855   3.450
  691SOL     OW 2971   4.187   1.558   0.742
  691SOL    HW1 2972   4.114   1.533   0.679
  691SOL    HW2 2973   4.276   1.548   0.696
  692SOL     OW 2974   3.251   1.592   5.059
  692SOL    HW1 2975   3.321   1.593   5.131
  692SOL    HW2 2976   3.295   1.611   4.971
  693SOL     OW 2977   4.659   6.412   3.764
  693SOL    HW1 2978   4.677   6.416   3.862
  693SOL    HW2 2979   4.723   6.349   3.721
  694SOL     OW 2980   4.051   5.818   4.496
  694SOL    HW1 2981   4.047   5.886   4.569
  694SOL    HW2 2982   4.052   5.864   4.408
  695SOL     OW 2983   3.368   5.697   4.853
  695SOL    HW1 2984   3.338   5.711   4.759
  695SOL    HW2 2985   3.372   5.599   4.872
  696SOL     OW 2986   4.839   3.968   3.551
  696SOL    HW1 2987   4.915   4.006   3.498
  696SOL    HW2 2988   4.783   4.043   3.586
  697SOL     OW 2989   1.299   3.526   1.911
  697SOL    HW1 2990   1.361   3.578   1.969
  697SOL    HW2 2991   1.270   3.443   1.959
  698SOL     OW 2992   4.693   6.725   1.839
  698SOL    HW1 2993   4.649   6.714   1.749
  698SOL    HW2 2994   4.716   6.822   1.853
  699SOL     OW 2995   2.194   3.403   0.059
  699SOL    HW1 2996   2.177   3.500   0.073
  699SOL    HW2 2997   2.158   3.351   0.137
  700SOL     OW 2998   3.314   0.310   1.973
  700SOL    HW1 2999   3.257   0.244   1.925
  700SOL    HW2 3000   3.339   0.273   2.063
  701SOL     OW 3001   6.034   4.484   1.200
  701SOL    HW1 3002   6.042   4.564   1.141
  701SOL    HW2 3003   6.122   4.437   1.206
  702SOL     OW 3004   2.494   0.147   4.291
  702SOL    HW1 3005   2.579   0.142   4.344
  702SOL    HW2 3006   2.459   0.241   4.294
  703SOL     OW 3007   3.008   3.389   5.483
  703SOL    HW1 3008   2.976   3.372   5.576
  703SOL    HW2 3009   2.935   3.370   5.418
  704SOL     OW 3010   2.084   2.836   6.043
  704SOL    HW1 3011   2.070   2.870   6.136
  704SOL    HW2 3012   2.181   2.814   6.031
  705SOL     OW 3013   6.915   6.117   3.672
  705SOL    HW1 3014   6.895   6.078   3.761
  705SOL    HW2 3015   6.925   6.044   3.604
  706SOL     OW 3016   4.395   1.584   5.287
  706SOL    HW1 3017   4.385   1.626   5.197
  706SOL    HW2 3018   4.380   1.485   5.280
  707SOL     OW 3019   3.982   5.761   3.437
  707SOL    HW1 3020   4.024   5.697   3.373
  707SOL    HW2 3021   3.894   5.725   3.469
  708SOL     OW 3022   2.425   1.472   3.782
  708SOL    HW1 3023   2.383   1.490   3.693
  708SOL    HW2 3024   2.495   1.541   3.799
  709SOL     OW 3025   1.736   6.695   1.482
  709SOL    HW1 3026   1.641   6.727   1.488
  709SOL    HW2 3027   1.757   6.671   1.387
  710SOL     OW 3028   5.059   2.464   1.987
  710SOL    HW1 3029   4.991   2.391   1.989
  710SOL    HW2 3030   5.101   2.474   2.078
  711SOL     OW 3031   6.773   3.022   6.233
  711SOL    HW1 3032   6.718   3.014   6.316
  711SOL    HW2 3033   6.869   3.033   6.258
  712SOL     OW 3034   5.105   2.803   1.204
  712SOL    HW1 3035   5.089   2.805   1.106
  712SOL    HW2 3036   5.024   2.834   1.253
  713SOL     OW 3037   4.199   2.765   5.358
  713SOL    HW1 3038   4.211   2.737   5.453
  713SOL    HW2 3039   4.196   2.684   5.300
  714SOL     OW 3040   6.042   5.281   3.874
  714SOL    HW1 3041   6.030   5.364   3.819
  714SOL    HW2 3042   6.021   5.201   3.819
  715SOL     OW 3043   6.634   4.962   5.364
  715SOL    HW1 3044   6.647   5.060   5.375
  715SOL    HW2 3045   6.686   4.913   5.434
  716SOL     OW 3046   1.902   1.065   3.113
  716SOL    HW1 3047   1.974   1.131   3.098
  716SOL    HW2 3048   1.881   1.018   3.027
  717SOL     OW 3049   5.935   4.740   4.184
  717SOL    HW1 3050   6.016   4.700   4.140
  717SOL    HW2 3051   5.940   4.724   4.283
  718SOL     OW 3052   4.798   2.821   4.444
  718SOL    HW1 3053   4.771   2.917   4.434
  718SOL    HW2 3054   4.779   2.792   4.538
  719SOL     OW 3055   6.309   0.248   2.192
  719SOL    HW1 3056   6.395   0.196   2.184
  719SOL    HW2 3057   6.283   0.254   2.289
  720SOL     OW 3058   2.675   0.464   5.665
  720SOL    HW1 3059   2.590   0.444   5.616
  720SOL    HW2 3060   2.659   0.457   5.763
  721SOL     OW 3061   0.724   1.414   2.195
  721SOL    HW1 3062   0.690   1.459   2.112
  721SOL    HW2 3063   0.783   1.337   2.169
  722SOL     OW 3064   3.900   0.935   6.556
  722SOL    HW1 3065   3.826   0.871   6.578
  722SOL    HW2 3066   3.941   0.969   6.640
  723SOL     OW 3067   2.083   6.309   3.465
  723SOL    HW1 3068   2.068   6.262   3.378
  723SOL    HW2 3069   2.107   6.405   3.447
  724SOL     OW 3070   6.891   0.661   3.228
  724SOL    HW1 3071   6.928   0.745   3.267
  724SOL    HW2 3072   6.929   0.582   3.276
  725SOL     OW 3073   1.718   4.670   1.896
  725SOL    HW1 3074   1.637   4.676   1.839
  725SOL    HW2 3075   1.772   4.590   1.869
  726SOL     OW 3076   2.579   5.078   0.864
  726SOL    HW1 3077   2.650   5.109   0.801
  726SOL    HW2 3078   2.621   5.051   0.951
  727SOL     OW 3079   4.501   5.438   6.015
  727SOL    HW1 3080   4.417   5.383   6.022
  727SOL    HW2 3081   4.504   5.482   5.925
  728SOL     OW 3082   0.232   3.188   4.777
  728SOL    HW1 3083   0.257   3.204   4.681
  728SOL    HW2 3084   0.132   3.186   4.786
  729SOL     OW 3085   0.667   2.870   1.035
  729SOL    HW1 3086   0.603   2.825   1.098
  729SOL    HW2 3087   0.657   2.969   1.043
  730SOL     OW 3088   5.389   0.581   2.779
  730SOL    HW1 3089   5.398   0.481   2.771
  730SOL    HW2 3090   5.475   0.619   2.815
  731SOL     OW 3091   4.936   4.652   6.553
  731SOL    HW1 3092   4.951   4.700   6.466
  731SOL    HW2 3093   4.954   4.554   6.540
  732SOL     OW 3094   5.421   1.807   2.124
  732SOL    HW1 3095   5.413   1.708   2.112
  732SOL    HW2 3096   5.447   1.849   2.037
  733SOL     OW 3097   5.531   0.192   4.288
  733SOL    HW1 3098   5.467   0.269   4.286
  733SOL    HW2 3099   5.612   0.214   4.233
  734SOL     OW 3100   6.448   4.295   2.430
  734SOL    HW1 3101   6.467   4.347   2.513
  734SOL    HW2 3102   6.474   4.199   2.443
  735SOL     OW 3103   5.555   0.575   1.869
  735SOL    HW1 3104   5.628   0.638   1.842
  735SOL    HW2 3105   5.592   0.484   1.884
  736SOL     OW 3106   1.411   1.308   4.247
  736SOL    HW1 3107   1.324   1.267   4.222
  736SOL    HW2 3108   1.482   1.276   4.184
  737SOL     OW 3109   5.833   1.975   5.409
  737SOL    HW1 3110   5.892   1.922   5.348
  737SOL    HW2 3111   5.741   1.936   5.410
  738SOL     OW 3112   2.776   3.883   1.174
  738SOL    HW1 3113   2.782   3.898   1.076
  738SOL    HW2 3114   2.860   3.837   1.205
  739SOL     OW 3115   3.446   0.390   5.329
  739SOL    HW1 3116   3.399   0.320   5.275
  739SOL    HW2 3117   3.391   0.474   5.329
  740SOL     OW 3118   5.943   2.244   2.729
  740SOL    HW1 3119   5.897   2.157   2.715
  740SOL    HW2 3120   5.899   2.294   2.804
  741SOL     OW 3121   1.845   0.998   4.799
  741SOL    HW1 3122   1.908   0.949   4.738
  741SOL    HW2 3123   1.762   1.021   4.749
  742SOL     OW 3124   2.427   5.747   1.650
  742SOL    HW1 3125   2.337   5.780   1.680
  742SOL    HW2 3126   2.498   5.789   1.706
  743SOL     OW 3127   0.649   6.438   3.549
  743SOL    HW1 3128   0.574   6.429   3.484
  743SOL    HW2 3129   0.661   6.535   3.574
  744SOL     OW 3130   6.596   0.798   0.433
  744SOL    HW1 3131   6.577   0.888   0.473
  744SOL    HW2 3132   6.634   0.738   0.504
  745SOL     OW 3133   2.122   6.354   5.281
  745SOL    HW1 3134   2.191   6.427   5.279
  745SOL    HW2 3135   2.167   6.266   5.297
  746SOL     OW 3136   5.599   3.933   5.302
  746SOL    HW1 3137   5.566   3.894   5.216
  746SOL    HW2 3138   5.594   3.865   5.375
  747SOL     OW 3139   5.330   5.475   3.869
  747SOL    HW1 3140   5.378   5.458   3.955
  747SOL    HW2 3141   5.245   5.423   3.867
  748SOL     OW 3142   5.270   4.981   2.755
  748SOL    HW1 3143   5.300   5.075   2.771
  748SOL    HW2 3144   5.267   4.963   2.657
  749SOL     OW 3145   5.181   3.355   3.320
  749SOL    HW1 3146   5.275   3.320   3.326
  749SOL    HW2 3147   5.154   3.359   3.224
  750SOL     OW 3148   3.462   1.021   1.450
  750SOL    HW1 3149   3.529   1.079   1.404
  750SOL    HW2 3150   3.458   0.932   1.405
  751SOL     OW 3151   5.231   2.248   0.789
  751SOL    HW1 3152   5.236   2.302   0.705
  751SOL    HW2 3153   5.167   2.292   0.852
  752SOL     OW 3154   3.696   2.289   6.044
  752SOL    HW1 3155   3.604   2.253   6.058
  752SOL    HW2 3156   3.702   2.381   6.084
  753SOL     OW 3157   2.754   3.329   5.289
  753SOL    HW1 3158   2.739   3.416   5.337
  753SOL    HW2 3159   2.688   3.261   5.323
  754SOL     OW 3160   5.329   1.032   7.013
  754SOL    HW1 3161   5.418   1.076   0.009
  754SOL    HW2 3162   5.312   0.971   0.075
  755SOL     OW 3163   3.110   4.373   5.312
  755SOL    HW1 3164   3.151   4.448   5.363
  755SOL    HW2 3165   3.039   4.408   5.251
  756SOL     OW 3166   3.272   5.106   6.995
  756SOL    HW1 3167   3.338   5.032   7.008
  756SOL    HW2 3168   3.257   5.153   0.067
  757SOL     OW 3169   2.020   0.038   2.435
  757SOL    HW1 3170   1.996   0.122   2.484
  757SOL    HW2 3171   1.961   0.030   2.354
  758SOL     OW 3172   3.550   1.146   3.889
  758SOL    HW1 3173   3.529   1.197   3.972
  758SOL    HW2 3174   3.643   1.168   3.859
  759SOL     OW 3175   0.418   2.004   3.107
  759SOL    HW1 3176   0.512   2.037   3.115
  759SOL    HW2 3177   0.374   2.008   3.197
  760SOL     OW 3178   6.466   6.524   3.477
  760SOL    HW1 3179   6.539   6.574   3.430
  760SOL    HW2 3180   6.480   6.529   3.576
  761SOL     OW 3181   5.637   4.486   5.502
  761SOL    HW1 3182   5.592   4.435   5.429
  761SOL    HW2 3183   5.721   4.438   5.528
  762SOL     OW 3184   2.784   6.240   5.698
  762SOL    HW1 3185   2.731   6.159   5.674
  762SOL    HW2 3186   2.842   6.267   5.621
  763SOL     OW 3187   5.432   0.498   6.372
  763SOL    HW1 3188   5.413   0.564   6.445
  763SOL    HW2 3189   5.373   0.418   6.384
  764SOL     OW 3190   5.769   1.226   5.393
  764SOL    HW1 3191   5.788   1.225   5.295
  764SOL    HW2 3192   5.854   1.211   5.444
  765SOL     OW 3193   1.155   6.775   0.648
  765SOL    HW1 3194   1.065   6.820   0.648
  765SOL    HW2 3195   1.185   6.762   0.554
  766SOL     OW 3196   2.512   2.152   5.363
  766SOL    HW1 3197   2.589   2.216   5.364
  766SOL    HW2 3198   2.453   2.169   5.442
  767SOL     OW 3199   6.806   6.544   3.450
  767SOL    HW1 3200   6.861   6.619   3.486
  767SOL    HW2 3201   6.801   6.470   3.518
  768SOL     OW 3202   2.118   6.501   2.895
  768SOL    HW1 3203   2.208   6.544   2.894
  768SOL    HW2 3204   2.078   6.510   2.987
  769SOL     OW 3205   3.620   1.485   5.090
  769SOL    HW1 3206   3.649   1.446   5.177
  769SOL    HW2 3207   3.548   1.553   5.106
  770SOL     OW 3208   1.639   4.684   4.413
  770SOL    HW1 3209   1.721   4.710   4.362
  770SOL    HW2 3210   1.578   4.763   4.418
  771SOL     OW 3211   0.788   5.798   3.341
  771SOL    HW1 3212   0.838   5.792   3.428
  771SOL    HW2 3213   0.725   5.875   3.344
  772SOL     OW 3214   5.800   4.916   6.736
  772SOL    HW1 3215   5.710   4.905   6.778
  772SOL    HW2 3216   5.840   5.003   6.765
  773SOL     OW 3217   1.401   3.810   2.969
  773SOL    HW1 3218   1.311   3.782   2.937
  773SOL    HW2 3219   1.471   3.766   2.914
  774SOL     OW 3220   1.972   1.802   3.428
  774SOL    HW1 3221   2.027   1.729   3.468
  774SOL    HW2 3222   2.032   1.874   3.393
  775SOL     OW 3223   1.948   2.977   4.183
  775SOL    HW1 3224   1.990   2.937   4.101
  775SOL    HW2 3225   1.860   3.017   4.158
  776SOL     OW 3226   0.203   6.719   6.025
  776SOL    HW1 3227   0.261   6.653   6.073
  776SOL    HW2 3228   0.209   6.807   6.072
  777SOL     OW 3229   1.563   3.504   0.568
  777SOL    HW1 3230   1.566   3.582   0.631
  777SOL    HW2 3231   1.532   3.423   0.617
  778SOL     OW 3232   2.888   0.157   1.893
  778SOL    HW1 3233   2.891   0.254   1.871
  778SOL    HW2 3234   2.804   0.138   1.944
  779SOL     OW 3235   0.320   2.644   1.683
  779SOL    HW1 3236   0.393   2.704   1.648
  779SOL    HW2 3237   0.232   2.690   1.671
  780SOL     OW 3238   1.337   2.512   4.383
  780SOL    HW1 3239   1.416   2.481   4.328
  780SOL    HW2 3240   1.253   2.488   4.336
  781SOL     OW 3241   6.788   4.645   6.962
  781SOL    HW1 3242   6.767   4.703   0.026
  781SOL    HW2 3243   6.876   4.673   6.923
  782SOL     OW 3244   2.191   4.318   5.434
  782SOL    HW1 3245   2.258   4.273   5.376
  782SOL    HW2 3246   2.104   4.327   5.384
  783SOL     OW 3247   5.800   5.626   6.847
  783SOL    HW1 3248   5.788   5.712   6.898
  783SOL    HW2 3249   5.740   5.556   6.886
  784SOL     OW 3250   2.573   5.823   2.213
  784SOL    HW1 3251   2.621   5.804   2.299
  784SOL    HW2 3252   2.523   5.741   2.184
  785SOL     OW 3253   0.671   0.150   3.724
  785SOL    HW1 3254   0.573   0.132   3.731
  785SOL    HW2 3255   0.706   0.181   3.813
  786SOL     OW 3256   5.841   0.572   3.165
  786SOL    HW1 3257   5.779   0.603   3.094
  786SOL    HW2 3258   5.847   0.472   3.164
  787SOL     OW 3259   2.578   0.889   0.272
  787SOL    HW1 3260   2.581   0.989   0.280
  787SOL    HW2 3261   2.532   0.851   0.353
  788SOL     OW 3262   3.531   3.092   1.541
  788SOL    HW1 3263   3.504   3.105   1.636
  788SOL    HW2 3264   3.605   3.156   1.518
  789SOL     OW 3265   4.322   5.702   1.812
  789SOL    HW1 3266   4.406   5.752   1.834
  789SOL    HW2 3267   4.243   5.751   1.850
  790SOL     OW 3268   1.176   2.002   1.566
  790SOL    HW1 3269   1.084   1.997   1.527
  790SOL    HW2 3270   1.223   2.083   1.531
  791SOL     OW 3271   2.892   5.477   5.629
  791SOL    HW1 3272   2.894   5.577   5.628
  791SOL    HW2 3273   2.807   5.447   5.672
  792SOL     OW 3274   0.480   1.707   0.838
  792SOL    HW1 3275   0.575   1.736   0.848
  792SOL    HW2 3276   0.450   1.661   0.922
  793SOL     OW 3277   4.862   5.738   4.436
  793SOL    HW1 3278   4.877   5.836   4.431
  793SOL    HW2 3279   4.831   5.714   4.528
  794SOL     OW 3280   3.314   3.312   4.587
  794SOL    HW1 3281   3.406   3.347   4.604
  794SOL    HW2 3282   3.288   3.330   4.492
  795SOL     OW 3283   3.714   0.566   5.648
  795SOL    HW1 3284   3.628   0.514   5.641
  795SOL    HW2 3285   3.744   0.592   5.556
  796SOL     OW 3286   1.826   2.663   6.771
  796SOL    HW1 3287   1.836   2.614   6.685
  796SOL    HW2 3288   1.874   2.751   6.765
  797SOL     OW 3289   4.185   0.245   1.039
  797SOL    HW1 3290   4.212   0.315   0.973
  797SOL    HW2 3291   4.109   0.279   1.094
  798SOL     OW 3292   2.744   6.336   1.233
  798SOL    HW1 3293   2.822   6.310   1.290
  798SOL    HW2 3294   2.677   6.386   1.289
  799SOL     OW 3295   0.256   2.346   6.255
  799SOL    HW1 3296   0.224   2.278   6.321
  799SOL    HW2 3297   0.252   2.437   6.297
  800SOL     OW 3298   6.184   1.265   1.730
  800SOL    HW1 3299   6.221   1.200   1.797
  800SOL    HW2 3300   6.258   1.321   1.694
  801SOL     OW 3301   2.275   5.258   5.606
  801SOL    HW1 3302   2.301   5.210   5.522
  801SOL    HW2 3303   2.179   5.242   5.626
  802SOL     OW 3304   4.864   2.401   6.283
  802SOL    HW1 3305   4.770   2.368   6.279
  802SOL    HW2 3306   4.864   2.500   6.295
  803SOL     OW 3307   2.839   0.015   5.795
  803SOL    HW1 3308   2.753   0.004   5.845
  803SOL    HW2 3309   2.888   6.943   5.793
  804SOL     OW 3310   5.949   6.977   1.271
  804SOL    HW1 3311   5.992   6.989   1.182
  804SOL    HW2 3312   5.937   6.879   1.289
  805SOL     OW 3313   2.049   0.374   3.806
  805SOL    HW1 3314   2.104   0.336   3.881
  805SOL    HW2 3315   1.993   0.449   3.841
  806SOL     OW 3316   0.230   0.240   5.858
  806SOL    HW1 3317   0.245   0.142   5.844
  806SOL    HW2 3318   0.138   0.255   5.893
  807SOL     OW 3319   0.627   6.798   4.425
  807SOL    HW1 3320   0.609   6.829   4.332
  807SOL    HW2 3321   0.721   6.763   4.432
  808SOL     OW 3322   5.798   2.957   0.463
  808SOL    HW1 3323   5.888   3.001   0.470
  808SOL    HW2 3324   5.726   3.025   0.473
  809SOL     OW 3325   0.260   5.552   6.733
  809SOL    HW1 3326   0.225   5.512   6.648
  809SOL    HW2 3327   0.284   5.478   6.797
  810SOL     OW 3328   2.528   3.417   0.713
  810SOL    HW1 3329   2.598   3.429   0.783
  810SOL    HW2 3330   2.474   3.336   0.734
  811SOL     OW 3331   5.725   5.214   4.473
  811SOL    HW1 3332   5.674   5.226   4.387
  811SOL    HW2 3333   5.821   5.195   4.452
  812SOL     OW 3334   0.541   2.104   2.252
  812SOL    HW1 3335   0.574   2.147   2.169
  812SOL    HW2 3336   0.474   2.163   2.297
  813SOL     OW 3337   2.178   0.589   4.130
  813SOL    HW1 3338   2.171   0.566   4.227
  813SOL    HW2 3339   2.271   0.571   4.098
  814SOL     OW 3340   6.650   6.040   2.441
  814SOL    HW1 3341   6.625   5.951   2.402
  814SOL    HW2 3342   6.567   6.085   2.475
  815SOL     OW 3343   4.739   2.852   3.379
  815SOL    HW1 3344   4.686   2.914   3.438
  815SOL    HW2 3345   4.763   2.900   3.295
  816SOL     OW 3346   5.158   4.100   0.407
  816SOL    HW1 3347   5.197   4.047   0.483
  816SOL    HW2 3348   5.168   4.049   0.322
  817SOL     OW 3349   1.269   5.370   0.771
  817SOL    HW1 3350   1.236   5.405   0.683
  817SOL    HW2 3351   1.345   5.307   0.755
  818SOL     OW 3352   5.421   2.802   3.381
  818SOL    HW1 3353   5.482   2.732   3.344
  818SOL    HW2 3354   5.471   2.861   3.444
  819SOL     OW 3355   5.972   2.726   1.234
  819SOL    HW1 3356   5.944   2.741   1.328
  819SOL    HW2 3357   6.022   2.640   1.227
  820SOL     OW 3358   2.658   2.003   4.676
  820SOL    HW1 3359   2.638   2.087   4.626
  820SOL    HW2 3360   2.701   1.937   4.615
  821SOL     OW 3361   5.806   4.686   4.443
  821SOL    HW1 3362   5.833   4.745   4.519
  821SOL    HW2 3363   5.755   4.608   4.479
  822SOL     OW 3364   0.442   4.275   3.110
  822SOL    HW1 3365   0.479   4.329   3.185
  822SOL    HW2 3366   0.346   4.255   3.127
  823SOL     OW 3367   0.502   4.001   5.909
  823SOL    HW1 3368   0.582   3.989   5.850
  823SOL    HW2 3369   0.524   3.970   6.002
  824SOL     OW 3370   5.453   1.268   4.949
  824SOL    HW1 3371   5.545   1.303   4.970
  824SOL    HW2 3372   5.411   1.233   5.032
  825SOL     OW 3373   6.257   6.302   0.678
  825SOL    HW1 3374   6.254   6.286   0.580
  825SOL    HW2 3375   6.348   6.280   0.712
  826SOL     OW 3376   3.947   2.129   6.095
  826SOL    HW1 3377   4.000   2.156   6.176
  826SOL    HW2 3378   3.863   2.183   6.090
  827SOL     OW 3379   3.074   4.081   4.996
  827SOL    HW1 3380   2.985   4.061   4.956
  827SOL    HW2 3381   3.146   4.037   4.943
  828SOL     OW 3382   6.219   5.491   4.587
  828SOL    HW1 3383   6.311   5.511   4.554
  828SOL    HW2 3384   6.204   5.392   4.589
  829SOL     OW 3385   3.632   2.927   2.417
  829SOL    HW1 3386   3.723   2.895   2.391
  829SOL    HW2 3387   3.610   3.009   2.365
  830SOL     OW 3388   6.035   4.614   6.543
  830SOL    HW1 3389   6.105   4.660   6.489
  830SOL    HW2 3390   6.033   4.652   6.635
  831SOL     OW 3391   5.547   6.551   1.497
  831SOL    HW1 3392   5.457   6.595   1.497
  831SOL    HW2 3393   5.536   6.453   1.485
  832SOL     OW 3394   4.139   1.535   4.212
  832SOL    HW1 3395   4.062   1.562   4.154
  832SOL    HW2 3396   4.188   1.458   4.170
  833SOL     OW 3397   0.997   3.865   6.370
  833SOL    HW1 3398   1.056   3.835   6.444
  833SOL    HW2 3399   1.016   3.810   6.288
  834SOL     OW 3400   4.681   3.669   6.668
  834SOL    HW1 3401   4.736   3.722   6.605
  834SOL    HW2 3402   4.585   3.696   6.660
  835SOL     OW 3403   2.153   0.741   4.999
  835SOL    HW1 3404   2.062   0.713   5.027
  835SOL    HW2 3405   2.179   0.825   5.047
  836SOL     OW 3406   3.348   1.847   5.729
  836SOL    HW1 3407   3.384   1.930   5.688
  836SOL    HW2 3408   3.263   1.821   5.682
  837SOL     OW 3409   1.657   0.508   1.516
  837SOL    HW1 3410   1.638   0.506   1.615
  837SOL    HW2 3411   1.727   0.576   1.497
  838SOL     OW 3412   1.839   5.610   4.252
  838SOL    HW1 3413   1.922   5.569   4.290
  838SOL    HW2 3414   1.810   5.555   4.173
  839SOL     OW 3415   2.398   1.054   1.560
  839SOL    HW1 3416   2.442   1.144   1.559
  839SOL    HW2 3417   2.367   1.032   1.467
  840SOL     OW 3418   5.956   5.878   0.281
  840SOL    HW1 3419   5.953   5.974   0.252
  840SOL    HW2 3420   5.901   5.824   0.218
  841SOL     OW 3421   4.527   5.382   5.642
  841SOL    HW1 3422   4.520   5.385   5.542
  841SOL    HW2 3423   4.472   5.307   5.678
  842SOL     OW 3424   3.060   6.807   6.981
  842SOL    HW1 3425   3.004   6.877   6.936
  842SOL    HW2 3426   3.102   6.846   0.047
  843SOL     OW 3427   2.157   2.050   1.815
  843SOL    HW1 3428   2.125   1.992   1.739
  843SOL    HW2 3429   2.124   2.012   1.902
  844SOL     OW 3430   0.420   6.403   1.109
  844SOL    HW1 3431   0.432   6.328   1.043
  844SOL    HW2 3432   0.434   6.369   1.201
  845SOL     OW 3433   4.103   2.254   3.125
  845SOL    HW1 3434   4.031   2.228   3.061
  845SOL    HW2 3435   4.126   2.350   3.113
  846SOL     OW 3436   2.859   1.719   5.899
  846SOL    HW1 3437   2.776   1.664   5.894
  846SOL    HW2 3438   2.923   1.689   5.828
  847SOL     OW 3439   2.236   3.110   1.468
  847SOL    HW1 3440   2.316   3.119   1.527
  847SOL    HW2 3441   2.165   3.174   1.498
  848SOL     OW 3442   6.201   6.615   5.828
  848SOL    HW1 3443   6.130   6.594   5.895
  848SOL    HW2 3444   6.273   6.545   5.833
  849SOL     OW 3445   5.781   3.432   0.063
  849SOL    HW1 3446   5.774   3.448   6.980
  849SOL    HW2 3447   5.812   3.339   0.080
  850SOL     OW 3448   6.890   0.372   4.762
  850SOL    HW1 3449   6.878   0.454   4.818
  850SOL    HW2 3450   6.946   0.394   4.682
  851SOL     OW 3451   6.623   3.127   6.805
  851SOL    HW1 3452   6.532   3.087   6.803
  851SOL    HW2 3453   6.692   3.054   6.803
  852SOL     OW 3454   0.127   4.725   0.795
  852SOL    HW1 3455   0.126   4.625   0.791
  852SOL    HW2 3456   0.219   4.757   0.817
  853SOL     OW 3457   2.272   3.970   6.629
  853SOL    HW1 3458   2.251   4.060   6.668
  853SOL    HW2 3459   2.332   3.920   6.691
  854SOL     OW 3460   5.975   6.675   6.673
  854SOL    HW1 3461   5.965   6.671   6.772
  854SOL    HW2 3462   5.962   6.769   6.642
  855SOL     OW 3463   6.902   0.429   0.108
  855SOL    HW1 3464   6.951   0.476   0.181
  855SOL    HW2 3465   6.805   0.454   0.111
  856SOL     OW 3466   1.632   6.812   6.142
  856SOL    HW1 3467   1.609   6.810   6.239
  856SOL    HW2 3468   1.674   6.726   6.116
  857SOL     OW 3469   0.110   4.614   2.757
  857SOL    HW1 3470   0.104   4.581   2.663
  857SOL    HW2 3471   0.025   4.660   2.782
  858SOL     OW 3472   2.790   3.922   0.907
  858SOL    HW1 3473   2.704   3.970   0.892
  858SOL    HW2 3474   2.867   3.983   0.887
  859SOL     OW 3475   4.722   6.132   5.336
  859SOL    HW1 3476   4.758   6.220   5.304
  859SOL    HW2 3477   4.748   6.060   5.272
  860SOL     OW 3478   5.685   3.149   6.757
  860SOL    HW1 3479   5.766   3.172   6.811
  860SOL    HW2 3480   5.711   3.089   6.681
  861SOL     OW 3481   1.628   5.481   2.906
  861SOL    HW1 3482   1.577   5.548   2.852
  861SOL    HW2 3483   1.726   5.494   2.891
  862SOL     OW 3484   1.876   5.186   3.719
  862SOL    HW1 3485   1.912   5.155   3.631
  862SOL    HW2 3486   1.825   5.111   3.762
  863SOL     OW 3487   6.225   0.715   5.983
  863SOL    HW1 3488   6.233   0.805   5.940
  863SOL    HW2 3489   6.317   0.680   6.002
  864SOL     OW 3490   4.597   0.409   5.354
  864SOL    HW1 3491   4.540   0.477   5.308
  864SOL    HW2 3492   4.640   0.349   5.287
  865SOL     OW 3493   1.984   6.999   5.348
  865SOL    HW1 3494   2.007   0.064   5.293
  865SOL    HW2 3495   1.960   0.013   5.441
  866SOL     OW 3496   3.221   6.723   1.051
  866SOL    HW1 3497   3.306   6.740   1.102
  866SOL    HW2 3498   3.243   6.694   0.958
  867SOL     OW 3499   5.786   2.725   0.586
  867SOL    HW1 3500   5.788   2.812   0.536
  867SOL    HW2 3501   5.765   2.743   0.683
  868SOL     OW 3502   0.162   2.373   2.483
  868SOL    HW1 3503   0.063   2.384   2.481
  868SOL    HW2 3504   0.206   2.459   2.458
  869SOL     OW 3505   6.962   3.430   4.080
  869SOL    HW1 3506   6.977   3.444   4.178
  869SOL    HW2 3507   7.003   3.343   4.052
  870SOL     OW 3508   3.921   4.752   1.211
  870SOL    HW1 3509   3.943   4.704   1.296
  870SOL    HW2 3510   3.824   4.739   1.190
  871SOL     OW 3511   5.118   2.012   3.914
  871SOL    HW1 3512   5.044   2.078   3.898
  871SOL    HW2 3513   5.195   2.058   3.959
  872SOL     OW 3514   0.249   1.856   4.704
  872SOL    HW1 3515   0.332   1.884   4.752
  872SOL    HW2 3516   0.234   1.758   4.717
  873SOL     OW 3517   4.493   6.400   5.581
  873SOL    HW1 3518   4.516   6.487   5.536
  873SOL    HW2 3519   4.483   6.416   5.680
  874SOL     OW 3520   6.236   4.011   6.747
  874SOL    HW1 3521   6.263   4.093   6.798
  874SOL    HW2 3522   6.204   3.941   6.811
  875SOL     OW 3523   5.452   5.730   1.100
  875SOL    HW1 3524   5.550   5.711   1.104
  875SOL    HW2 3525   5.405   5.650   1.062
  876SOL     OW 3526   0.699   5.064   2.007
  876SOL    HW1 3527   0.605   5.093   2.023
  876SOL    HW2 3528   0.704   4.964   2.010
  877SOL     OW 3529   2.461   4.156   6.535
  877SOL    HW1 3530   2.424   4.071   6.573
  877SOL    HW2 3531   2.477   4.144   6.437
  878SOL     OW 3532   4.457   6.894   4.061
  878SOL    HW1 3533   4.464   6.858   4.154
  878SOL    HW2 3534   4.427   6.821   3.999
  879SOL     OW 3535   3.760   0.536   1.479
  879SOL    HW1 3536   3.841   0.488   1.513
  879SOL    HW2 3537   3.773   0.635   1.488
  880SOL     OW 3538   3.865   4.010   3.818
  880SOL    HW1 3539   3.783   3.975   3.864
  880SOL    HW2 3540   3.909   4.078   3.877
  881SOL     OW 3541   4.879   3.111   4.806
  881SOL    HW1 3542   4.901   3.204   4.835
  881SOL    HW2 3543   4.932   3.088   4.725
  882SOL     OW 3544   0.726   2.973   4.255
  882SOL    HW1 3545   0.788   2.938   4.325
  882SOL    HW2 3546   0.727   2.912   4.175
  883SOL     OW 3547   3.579   0.845   1.916
  883SOL    HW1 3548   3.484   0.827   1.941
  883SOL    HW2 3549   3.640   0.797   1.980
  884SOL     OW 3550   5.353   3.388   6.111
  884SOL    HW1 3551   5.255   3.401   6.100
  884SOL    HW2 3552   5.371   3.295   6.145
  885SOL     OW 3553   3.759   1.236   5.033
  885SOL    HW1 3554   3.737   1.333   5.040
  885SOL    HW2 3555   3.857   1.225   5.015
  886SOL     OW 3556   3.677   0.181   0.977
  886SOL    HW1 3557   3.681   0.215   0.883
  886SOL    HW2 3558   3.767   0.149   1.005
  887SOL     OW 3559   3.823   6.719   4.152
  887SOL    HW1 3560   3.818   6.819   4.147
  887SOL    HW2 3561   3.836   6.682   4.060
  888SOL     OW 3562   0.339   6.290   3.163
  888SOL    HW1 3563   0.310   6.202   3.201
  888SOL    HW2 3564   0.261   6.334   3.119
  889SOL     OW 3565   0.150   3.762   0.704
  889SOL    HW1 3566   0.239   3.763   0.750
  889SOL    HW2 3567   0.091   3.832   0.744
  890SOL     OW 3568   1.609   5.585   3.233
  890SOL    HW1 3569   1.609   5.485   3.226
  890SOL    HW2 3570   1.580   5.625   3.145
  891SOL     OW 3571   5.225   5.749   0.527
  891SOL    HW1 3572   5.257   5.713   0.614
  891SOL    HW2 3573   5.224   5.675   0.459
  892SOL     OW 3574   2.180   3.880   5.314
  892SOL    HW1 3575   2.261   3.901   5.260
  892SOL    HW2 3576   2.148   3.788   5.290
  893SOL     OW 3577   1.898   6.816   2.759
  893SOL    HW1 3578   1.929   6.792   2.667
  893SOL    HW2 3579   1.857   6.907   2.757
  894SOL     OW 3580   1.175   3.161   1.842
  894SOL    HW1 3581   1.186   3.184   1.938
  894SOL    HW2 3582   1.086   3.119   1.827
  895SOL     OW 3583   0.399   4.480   4.019
  895SOL    HW1 3584   0.377   4.570   4.057
  895SOL    HW2 3585   0.314   4.434   3.992
  896SOL     OW 3586   5.305   4.678   0.722
  896SOL    HW1 3587   5.210   4.695   0.694
  896SOL    HW2 3588   5.360   4.658   0.641
  897SOL     OW 3589   4.463   1.586   6.982
  897SOL    HW1 3590   4.453   1.632   6.894
  897SOL    HW2 3591   4.483   1.489   6.967
  898SOL     OW 3592   2.971   5.965   2.671
  898SOL    HW1 3593   2.974   6.038   2.602
  898SOL    HW2 3594   3.026   5.991   2.750
  899SOL     OW 3595   0.133   6.489   6.577
  899SOL    HW1 3596   0.210   6.446   6.531
  899SOL    HW2 3597   0.119   6.447   6.666
  900SOL     OW 3598   5.607   6.685   0.409
  900SOL    HW1 3599   5.575   6.778   0.391
  900SOL    HW2 3600   5.543   6.640   0.471
  901SOL     OW 3601   2.347   0.288   3.611
  901SOL    HW1 3602   2.255   0.250   3.609
  901SOL    HW2 3603   2.347   0.375   3.661
  902SOL     OW 3604   0.539   2.476   0.491
  902SOL    HW1 3605   0.528   2.573   0.473
  902SOL    HW2 3606   0.477   2.424   0.432
  903SOL     OW 3607   6.803   2.472   6.965
  903SOL    HW1 3608   6.819   2.488   0.047
  903SOL    HW2 3609   6.758   2.552   6.925
  904SOL     OW 3610   2.730   2.338   2.854
  904SOL    HW1 3611   2.650   2.394   2.833
  904SOL    HW2 3612   2.793   2.339   2.776
  905SOL     OW 3613   5.028   1.658   6.833
  905SOL    HW1 3614   5.127   1.655   6.841
  905SOL    HW2 3615   4.987   1.625   6.918
  906SOL     OW 3616   0.175   2.198   6.006
  906SOL    HW1 3617   0.205   2.102   6.010
  906SOL    HW2 3618   0.229   2.252   6.071
  907SOL     OW 3619   5.388   3.719   0.671
  907SOL    HW1 3620   5.417   3.626   0.645
  907SOL    HW2 3621   5.368   3.721   0.769
  908SOL     OW 3622   2.655   4.675   2.391
  908SOL    HW1 3623   2.577   4.650   2.335
  908SOL    HW2 3624   2.731   4.703   2.332
  909SOL     OW 3625   4.529   5.539   0.964
  909SOL    HW1 3626   4.563   5.588   0.884
  909SOL    HW2 3627   4.594   5.549   1.040
  910SOL     OW 3628   2.741   2.364   1.348
  910SOL    HW1 3629   2.697   2.454   1.338
  910SOL    HW2 3630   2.690   2.309   1.413
  911SOL     OW 3631   1.100   6.021   6.259
  911SOL    HW1 3632   1.096   6.044   6.162
  911SOL    HW2 3633   1.144   5.932   6.271
  912SOL     OW 3634   6.118   2.064   2.984
  912SOL    HW1 3635   6.048   2.043   2.915
  912SOL    HW2 3636   6.088   2.142   3.039
  913SOL     OW 3637   4.252   6.791   3.067
  913SOL    HW1 3638   4.254   6.883   3.027
  913SOL    HW2 3639   4.203   6.793   3.154
  914SOL     OW 3640   2.028   0.023   6.715
  914SOL    HW1 3641   2.109   6.980   6.726
  914SOL    HW2 3642   2.057   0.114   6.685
  915SOL     OW 3643   6.141   4.326   6.425
  915SOL    HW1 3644   6.158   4.376   6.341
  915SOL    HW2 3645   6.122   4.391   6.499
  916SOL     OW 3646   1.584   2.139   2.194
  916SOL    HW1 3647   1.636   2.132   2.109
  916SOL    HW2 3648   1.599   2.056   2.249
  917SOL     OW 3649   0.313   6.189   0.408
  917SOL    HW1 3650   0.392   6.250   0.417
  917SOL    HW2 3651   0.343   6.094   0.413
  918SOL     OW 3652   2.905   0.332   0.532
  918SOL    HW1 3653   2.837   0.319   0.604
  918SOL    HW2 3654   2.985   0.276   0.551
  919SOL     OW 3655   5.489   1.596   3.386
  919SOL    HW1 3656   5.482   1.678   3.328
  919SOL    HW2 3657   5.407   1.590   3.443
  920SOL     OW 3658   2.633   4.092   1.681
  920SOL    HW1 3659   2.703   4.163   1.679
  920SOL    HW2 3660   2.560   4.119   1.744
  921SOL     OW 3661   4.900   6.260   4.300
  921SOL    HW1 3662   4.947   6.274   4.387
  921SOL    HW2 3663   4.916   6.338   4.240
  922SOL     OW 3664   4.009   3.939   4.330
  922SOL    HW1 3665   3.978   3.906   4.419
  922SOL    HW2 3666   4.079   3.878   4.294
  923SOL     OW 3667   2.709   3.068   6.946
  923SOL    HW1 3668   2.739   2.997   7.011
  923SOL    HW2 3669   2.647   3.132   6.992
  924SOL     OW 3670   6.102   4.062   2.161
  924SOL    HW1 3671   6.064   3.980   2.118
  924SOL    HW2 3672   6.072   4.066   2.257
  925SOL     OW 3673   6.813   2.650   0.237
  925SOL    HW1 3674   6.886   2.713   0.263
  925SOL    HW2 3675   6.785   2.597   0.316
  926SOL     OW 3676   0.024   1.189   0.729
  926SOL    HW1 3677   0.072   1.157   0.811
  926SOL    HW2 3678   6.956   1.136   0.717
  927SOL     OW 3679   5.629   3.563   4.046
  927SOL    HW1 3680   5.685   3.646   4.056
  927SOL    HW2 3681   5.687   3.483   4.060
  928SOL     OW 3682   2.834   5.992   0.928
  928SOL    HW1 3683   2.919   6.016   0.881
  928SOL    HW2 3684   2.757   6.033   0.880
  929SOL     OW 3685   6.952   0.520   6.787
  929SOL    HW1 3686   6.909   0.462   6.718
  929SOL    HW2 3687   6.926   0.489   6.878
  930SOL     OW 3688   4.369   5.460   6.519
  930SOL    HW1 3689   4.339   5.502   6.605
  930SOL    HW2 3690   4.290   5.428   6.467
  931SOL     OW 3691   6.492   2.381   4.466
  931SOL    HW1 3692   6.434   2.351   4.541
  931SOL    HW2 3693   6.439   2.437   4.402
  932SOL     OW 3694   2.301   1.659   3.354
  932SOL    HW1 3695   2.307   1.757   3.373
  932SOL    HW2 3696   2.325   1.608   3.437
  933SOL     OW 3697   1.514   4.916   2.784
  933SOL    HW1 3698   1.603   4.946   2.751
  933SOL    HW2 3699   1.466   4.993   2.826
  934SOL     OW 3700   2.509   6.101   5.514
  934SOL    HW1 3701   2.429   6.049   5.543
  934SOL    HW2 3702   2.510   6.107   5.414
  935SOL     OW 3703   4.949   3.783   3.833
  935SOL    HW1 3704   4.932   3.758   3.737
  935SOL    HW2 3705   4.974   3.702   3.885
  936SOL     OW 3706   1.518   0.211   6.316
  936SOL    HW1 3707   1.615   0.235   6.323
  936SOL    HW2 3708   1.466   0.262   6.385
  937SOL     OW 3709   4.850   1.777   5.355
  937SOL    HW1 3710   4.927   1.798   5.415
  937SOL    HW2 3711   4.853   1.680   5.330
  938SOL     OW 3712   6.352   5.475   4.222
  938SOL    HW1 3713   6.274   5.515   4.270
  938SOL    HW2 3714   6.319   5.422   4.144
  939SOL     OW 3715   0.190   6.767   4.434
  939SOL    HW1 3716   0.217   6.855   4.474
  939SOL    HW2 3717   0.205   6.769   4.335
  940SOL     OW 3718   0.853   4.200   0.415
  940SOL    HW1 3719   0.811   4.117   0.379
  940SOL    HW2 3720   0.799   4.280   0.388
  941SOL     OW 3721   4.894   0.297   6.671
  941SOL    HW1 3722   4.886   0.265   6.577
  941SOL    HW2 3723   4.831   0.244   6.729
  942SOL     OW 3724   6.334   6.077   1.429
  942SOL    HW1 3725   6.300   6.160   1.473
  942SOL    HW2 3726   6.271   6.002   1.446
  943SOL     OW 3727   1.967   4.531   2.908
  943SOL    HW1 3728   1.937   4.499   2.998
  943SOL    HW2 3729   1.886   4.556   2.854
  944SOL     OW 3730   0.279   5.087   4.067
  944SOL    HW1 3731   0.339   5.050   4.137
  944SOL    HW2 3732   0.273   5.187   4.076
  945SOL     OW 3733   0.417   5.076   5.472
  945SOL    HW1 3734   0.360   5.111   5.546
  945SOL    HW2 3735   0.429   4.978   5.482
  946SOL     OW 3736   4.875   4.757   4.300
  946SOL    HW1 3737   4.873   4.711   4.389
  946SOL    HW2 3738   4.897   4.853   4.313
  947SOL     OW 3739   3.582   3.358   3.465
  947SOL    HW1 3740   3.572   3.299   3.545
  947SOL    HW2 3741   3.623   3.445   3.493
  948SOL     OW 3742   5.115   0.909   2.491
  948SOL    HW1 3743   5.065   0.963   2.557
  948SOL    HW2 3744   5.108   0.812   2.514
  949SOL     OW 3745   3.203   6.443   0.021
  949SOL    HW1 3746   3.123   6.467   6.983
  949SOL    HW2 3747   3.271   6.399   6.977
  950SOL     OW 3748   5.721   5.694   2.278
  950SOL    HW1 3749   5.645   5.704   2.344
  950SOL    HW2 3750   5.808   5.695   2.328
  951SOL     OW 3751   1.054   6.729   3.485
  951SOL    HW1 3752   1.103   6.801   3.535
  951SOL    HW2 3753   1.087   6.640   3.515
  952SOL     OW 3754   4.192   1.949   2.754
  952SOL    HW1 3755   4.271   1.899   2.719
  952SOL    HW2 3756   4.173   1.921   2.848
  953SOL     OW 3757   6.149   5.861   5.111
  953SOL    HW1 3758   6.176   5.780   5.058
  953SOL    HW2 3759   6.097   5.923   5.053
  954SOL     OW 3760   4.224   6.092   2.390
  954SOL    HW1 3761   4.271   6.088   2.302
  954SOL    HW2 3762   4.183   6.183   2.402
  955SOL     OW 3763   1.762   4.201   6.978
  955SOL    HW1 3764   1.788   4.293   6.951
  955SOL    HW2 3765   1.765   4.140   6.899
  956SOL     OW 3766   0.350   1.031   0.887
  956SOL    HW1 3767   0.266   1.066   0.927
  956SOL    HW2 3768   0.358   1.061   0.792
  957SOL     OW 3769   6.010   1.416   1.876
  957SOL    HW1 3770   6.047   1.508   1.894
  957SOL    HW2 3771   6.082   1.359   1.836
  958SOL     OW 3772   5.109   6.120   2.242
  958SOL    HW1 3773   5.039   6.191   2.236
  958SOL    HW2 3774   5.075   6.043   2.296
  959SOL     OW 3775   3.693   6.685   4.585
  959SOL    HW1 3776   3.678   6.707   4.489
  959SOL    HW2 3777   3.791   6.692   4.606
  960SOL     OW 3778   1.089   0.750   0.872
  960SOL    HW1 3779   1.021   0.811   0.911
  960SOL    HW2 3780   1.067   0.732   0.777
  961SOL     OW 3781   3.505   6.688   3.222
  961SOL    HW1 3782   3.482   6.754   3.151
  961SOL    HW2 3783   3.588   6.639   3.196
  962SOL     OW 3784   5.855   0.556   4.721
  962SOL    HW1 3785   5.821   0.650   4.712
  962SOL    HW2 3786   5.889   0.542   4.814
  963SOL     OW 3787   4.711   1.316   1.240
  963SOL    HW1 3788   4.700   1.407   1.199
  963SOL    HW2 3789   4.780   1.265   1.190
  964SOL     OW 3790   4.550   4.863   5.293
  964SOL    HW1 3791   4.533   4.765   5.278
  964SOL    HW2 3792   4.486   4.898   5.361
  965SOL     OW 3793   6.508   2.108   2.420
  965SOL    HW1 3794   6.600   2.068   2.422
  965SOL    HW2 3795   6.457   2.077   2.500
  966SOL     OW 3796   4.760   2.547   3.379
  966SOL    HW1 3797   4.666   2.516   3.394
  966SOL    HW2 3798   4.764   2.647   3.383
  967SOL     OW 3799   3.310   4.898   6.462
  967SOL    HW1 3800   3.359   4.974   6.507
  967SOL    HW2 3801   3.219   4.929   6.436
  968SOL     OW 3802   3.611   6.964   1.270
  968SOL    HW1 3803   3.623   0.045   1.295
  968SOL    HW2 3804   3.617   6.954   1.171
  969SOL     OW 3805   2.915   5.246   5.367
  969SOL    HW1 3806   2.988   5.284   5.423
  969SOL    HW2 3807   2.873   5.169   5.415
  970SOL     OW 3808   5.844   1.400   5.897
  970SOL    HW1 3809   5.752   1.362   5.885
  970SOL    HW2 3810   5.891   1.352   5.971
  971SOL     OW 3811   6.833   3.442   2.570
  971SOL    HW1 3812   6.876   3.436   2.660
  971SOL    HW2 3813   6.751   3.498   2.575
  972SOL     OW 3814   6.692   2.620   1.104
  972SOL    HW1 3815   6.680   2.625   1.203
  972SOL    HW2 3816   6.631   2.686   1.059
  973SOL     OW 3817   0.207   4.043   6.381
  973SOL    HW1 3818   0.123   3.991   6.392
  973SOL    HW2 3819   0.247   4.063   6.471
  974SOL     OW 3820   0.676   4.933   2.548
  974SOL    HW1 3821   0.670   4.922   2.449
  974SOL    HW2 3822   0.587   4.910   2.589
  975SOL     OW 3823   2.605   6.863   0.910
  975SOL    HW1 3824   2.571   6.954   0.934
  975SOL    HW2 3825   2.655   6.867   0.823
  976SOL     OW 3826   6.160   3.876   1.844
  976SOL    HW1 3827   6.087   3.846   1.906
  976SOL    HW2 3828   6.247   3.879   1.893
  977SOL     OW 3829   0.860   1.174   2.102
  977SOL    HW1 3830   0.940   1.187   2.043
  977SOL    HW2 3831   0.890   1.134   2.189
  978SOL     OW 3832   5.370   1.924   1.076
  978SOL    HW1 3833   5.301   1.957   1.140
  978SOL    HW2 3834   5.333   1.923   0.984
  979SOL     OW 3835   6.850   2.914   6.854
  979SOL    HW1 3836   6.796   2.892   6.936
  979SOL    HW2 3837   6.942   2.941   6.882
  980SOL     OW 3838   3.983   0.993   4.649
  980SOL    HW1 3839   4.003   1.079   4.602
  980SOL    HW2 3840   4.049   0.979   4.723
  981SOL     OW 3841   0.195   0.227   5.259
  981SOL    HW1 3842   0.228   0.266   5.345
  981SOL    HW2 3843   0.270   0.184   5.210
  982SOL     OW 3844   0.458   1.582   5.362
  982SOL    HW1 3845   0.363   1.551   5.361
  982SOL    HW2 3846   0.462   1.675   5.399
  983SOL     OW 3847   6.561   2.958   3.268
  983SOL    HW1 3848   6.479   2.969   3.212
  983SOL    HW2 3849   6.574   3.039   3.324
  984SOL     OW 3850   1.521   2.254   2.941
  984SOL    HW1 3851   1.597   2.197   2.908
  984SOL    HW2 3852   1.455   2.196   2.989
  985SOL     OW 3853   5.955   3.990   4.824
  985SOL    HW1 3854   5.980   4.049   4.747
  985SOL    HW2 3855   5.858   3.968   4.819
  986SOL     OW 3856   4.736   4.619   1.545
  986SOL    HW1 3857   4.714   4.709   1.581
  986SOL    HW2 3858   4.774   4.562   1.618
  987SOL     OW 3859   5.584   6.398   3.398
  987SOL    HW1 3860   5.582   6.491   3.434
  987SOL    HW2 3861   5.517   6.389   3.325
  988SOL     OW 3862   3.280   3.675   2.350
  988SOL    HW1 3863   3.248   3.704   2.441
  988SOL    HW2 3864   3.279   3.753   2.288
  989SOL     OW 3865   6.824   2.162   0.596
  989SOL    HW1 3866   6.865   2.080   0.556
  989SOL    HW2 3867   6.831   2.238   0.532
  990SOL     OW 3868   3.533   0.179   2.949
  990SOL    HW1 3869   3.580   0.267   2.947
  990SOL    HW2 3870   3.437   0.192   2.975
  991SOL     OW 3871   6.524   4.445   3.160
  991SOL    HW1 3872   6.469   4.432   3.243
  991SOL    HW2 3873   6.620   4.455   3.184
  992SOL     OW 3874   0.891   2.814   1.462
  992SOL    HW1 3875   0.854   2.808   1.555
  992SOL    HW2 3876   0.928   2.905   1.447
  993SOL     OW 3877   0.971   4.034   1.095
  993SOL    HW1 3878   1.001   3.997   1.007
  993SOL    HW2 3879   0.918   4.117   1.079
  994SOL     OW 3880   3.806   5.857   1.070
  994SOL    HW1 3881   3.739   5.930   1.057
  994SOL    HW2 3882   3.764   5.780   1.117
  995SOL     OW 3883   4.337   3.477   5.551
  995SOL    HW1 3884   4.394   3.433   5.482
  995SOL    HW2 3885   4.292   3.557   5.512
  996SOL     OW 3886   4.126   5.427   5.153
  996SOL    HW1 3887   4.198   5.426   5.083
  996SOL    HW2 3888   4.042   5.462   5.112
  997SOL     OW 3889   1.187   6.779   3.231
  997SOL    HW1 3890   1.136   6.821   3.156
  997SOL    HW2 3891   1.124   6.732   3.292
  998SOL     OW 3892   6.014   0.291   6.008
  998SOL    HW1 3893   6.017   0.257   6.102
  998SOL    HW2 3894   6.099   0.269   5.961
  999SOL     OW 3895   4.814   3.797   1.854
  999SOL    HW1 3896   4.780   3.781   1.946
  999SOL    HW2 3897   4.914   3.796   1.854
 1000SOL     OW 3898   4.601   1.374   1.488
 1000SOL    HW1 3899   4.654   1.349   1.407
 1000SOL    HW2 3900   4.516   1.420   1.459
 1001SOL     OW 3901   2.803   6.154   2.074
 1001SOL    HW1 3902   2.726   6.204   2.114
 1001SOL    HW2 3903   2.886   6.175   2.125
 1002SOL     OW 3904   5.585   1.843   1.596
 1002SOL    HW1 3905   5.510   1.898   1.561
 1002SOL    HW2 3906   5.652   1.902   1.642
 1003SOL     OW 3907   1.543   6.056   2.704
 1003SOL    HW1 3908   1.483   6.101   2.637
 1003SOL    HW2 3909   1.599   5.987   2.657
 1004SOL     OW 3910   6.269   1.534   2.374
 1004SOL    HW1 3911   6.254   1.454   2.316
 1004SOL    HW2 3912   6.366   1.558   2.373
 1005SOL     OW 3913   1.495   4.591   3.741
 1005SOL    HW1 3914   1.486   4.689   3.752
 1005SOL    HW2 3915   1.587   4.570   3.706
 1006SOL     OW 3916   2.307   3.452   0.376
 1006SOL    HW1 3917   2.263   3.541   0.390
 1006SOL    HW2 3918   2.376   3.460   0.304
 1007SOL     OW 3919   4.542   1.450   6.615
 1007SOL    HW1 3920   4.629   1.485   6.580
 1007SOL    HW2 3921   4.479   1.527   6.629
 1008SOL     OW 3922   0.379   4.005   5.539
 1008SOL    HW1 3923   0.421   4.092   5.564
 1008SOL    HW2 3924   0.384   3.992   5.440
 1009SOL     OW 3925   6.191   5.017   5.317
 1009SOL    HW1 3926   6.264   5.077   5.349
 1009SOL    HW2 3927   6.161   5.046   5.226
 1010SOL     OW 3928   2.542   2.277   1.850
 1010SOL    HW1 3929   2.635   2.263   1.814
 1010SOL    HW2 3930   2.487   2.325   1.782
 1011SOL     OW 3931   0.444   5.435   2.791
 1011SOL    HW1 3932   0.411   5.528   2.807
 1011SOL    HW2 3933   0.481   5.398   2.876
 1012SOL     OW 3934   6.473   6.755   2.412
 1012SOL    HW1 3935   6.384   6.718   2.384
 1012SOL    HW2 3936   6.542   6.683   2.405
 1013SOL     OW 3937   6.758   1.332   5.998
 1013SOL    HW1 3938   6.709   1.392   6.062
 1013SOL    HW2 3939   6.787   1.249   6.046
 1014SOL     OW 3940   0.805   4.322   4.752
 1014SOL    HW1 3941   0.861   4.246   4.784
 1014SOL    HW2 3942   0.856   4.375   4.683
 1015SOL     OW 3943   3.236   0.612   6.481
 1015SOL    HW1 3944   3.327   0.578   6.458
 1015SOL    HW2 3945   3.167   0.549   6.446
 1016SOL     OW 3946   4.710   4.534   1.279
 1016SOL    HW1 3947   4.797   4.538   1.230
 1016SOL    HW2 3948   4.719   4.583   1.366
 1017SOL     OW 3949   3.183   1.290   1.757
 1017SOL    HW1 3950   3.204   1.199   1.794
 1017SOL    HW2 3951   3.096   1.287   1.709
 1018SOL     OW 3952   6.713   4.403   3.664
 1018SOL    HW1 3953   6.793   4.389   3.605
 1018SOL    HW2 3954   6.640   4.340   3.637
 1019SOL     OW 3955   6.738   5.176   0.302
 1019SOL    HW1 3956   6.798   5.216   0.233
 1019SOL    HW2 3957   6.662   5.128   0.257
 1020SOL     OW 3958   6.463   0.849   1.043
 1020SOL    HW1 3959   6.404   0.919   1.001
 1020SOL    HW2 3960   6.408   0.770   1.069
 1021SOL     OW 3961   6.534   5.794   2.323
 1021SOL    HW1 3962   6.572   5.713   2.279
 1021SOL    HW2 3963   6.436   5.782   2.337
 1022SOL     OW 3964   3.009   5.972   6.039
 1022SOL    HW1 3965   2.934   6.031   6.069
 1022SOL    HW2 3966   3.040   6.001   5.949
 1023SOL     OW 3967   6.950   0.690   2.259
 1023SOL    HW1 3968   6.880   0.744   2.213
 1023SOL    HW2 3969   0.008   0.749   2.290
 1024SOL     OW 3970   0.575   1.183   4.304
 1024SOL    HW1 3971   0.503   1.149   4.364
 1024SOL    HW2 3972   0.636   1.244   4.356
 1025SOL     OW 3973   4.444   3.246   0.658
 1025SOL    HW1 3974   4.436   3.260   0.757
 1025SOL    HW2 3975   4.473   3.331   0.615
 1026SOL     OW 3976   3.042   2.570   1.736
 1026SOL    HW1 3977   2.985   2.526   1.806
 1026SOL    HW2 3978   3.020   2.532   1.647
 1027SOL     OW 3979   1.834   6.188   1.789
 1027SOL    HW1 3980   1.888   6.272   1.782
 1027SOL    HW2 3981   1.747   6.208   1.835
 1028SOL     OW 3982   1.567   6.486   3.209
 1028SOL    HW1 3983   1.579   6.572   3.159
 1028SOL    HW2 3984   1.552   6.506   3.306
 1029SOL     OW 3985   1.159   1.771   5.931
 1029SOL    HW1 3986   1.089   1.700   5.931
 1029SOL    HW2 3987   1.250   1.729   5.933
 1030SOL     OW 3988   3.171   3.358   1.714
 1030SOL    HW1 3989   3.157   3.286   1.645
 1030SOL    HW2 3990   3.248   3.416   1.687
 1031SOL     OW 3991   3.896   3.253   1.599
 1031SOL    HW1 3992   3.918   3.155   1.593
 1031SOL    HW2 3993   3.975   3.302   1.636
 1032SOL     OW 3994   2.412   1.021   5.172
 1032SOL    HW1 3995   2.320   1.049   5.199
 1032SOL    HW2 3996   2.480   1.074   5.223
 1033SOL     OW 3997   2.109   6.138   2.528
 1033SOL    HW1 3998   2.046   6.212   2.550
 1033SOL    HW2 3999   2.140   6.094   2.613
 1034SOL     OW 4000   2.053   5.963   4.262
 1034SOL    HW1 4001   2.055   6.063   4.257
 1034SOL    HW2 4002   1.966   5.929   4.226
 1035SOL     OW 4003   0.568   2.041   5.982
 1035SOL    HW1 4004   0.610   2.131   5.987
 1035SOL    HW2 4005   0.554   2.005   6.074
 1036SOL     OW 4006   5.091   1.152   1.558
 1036SOL    HW1 4007   5.058   1.161   1.652
 1036SOL    HW2 4008   5.164   1.219   1.542
 1037SOL     OW 4009   1.023   1.945   2.495
 1037SOL    HW1 4010   0.981   1.960   2.405
 1037SOL    HW2 4011   1.032   2.033   2.542
 1038SOL     OW 4012   1.654   1.358   6.558
 1038SOL    HW1 4013   1.674   1.261   6.550
 1038SOL    HW2 4014   1.670   1.403   6.469
 1039SOL     OW 4015   3.098   3.140   3.690
 1039SOL    HW1 4016   3.185   3.092   3.698
 1039SOL    HW2 4017   3.113   3.228   3.645
 1040SOL     OW 4018   5.212   1.124   3.391
 1040SOL    HW1 4019   5.134   1.133   3.329
 1040SOL    HW2 4020   5.248   1.215   3.412
 1041SOL     OW 4021   6.708   6.610   3.899
 1041SOL    HW1 4022   6.748   6.643   3.985
 1041SOL    HW2 4023   6.773   6.621   3.825
 1042SOL     OW 4024   4.647   5.136   2.844
 1042SOL    HW1 4025   4.729   5.136   2.787
 1042SOL    HW2 4026   4.654   5.207   2.913
 1043SOL     OW 4027   3.781   2.167   3.192
 1043SOL    HW1 4028   3.685   2.139   3.195
 1043SOL    HW2 4029   3.806   2.194   3.099
 1044SOL     OW 4030   6.147   5.644   1.238
 1044SOL    HW1 4031   6.177   5.627   1.332
 1044SOL    HW2 4032   6.050   5.622   1.230
 1045SOL     OW 4033   2.889   6.835   3.152
 1045SOL    HW1 4034   2.919   6.905   3.217
 1045SOL    HW2 4035   2.842   6.762   3.203
 1046SOL     OW 4036   2.650   1.423   1.066
 1046SOL    HW1 4037   2.689   1.492   1.127
 1046SOL    HW2 4038   2.705   1.340   1.071
 1047SOL     OW 4039   3.217   0.073   4.300
 1047SOL    HW1 4040   3.283   0.071   4.225
 1047SOL    HW2 4041   3.129   0.038   4.268
 1048SOL     OW 4042   3.054   5.379   2.844
 1048SOL    HW1 4043   3.041   5.461   2.788
 1048SOL    HW2 4044   3.106   5.311   2.792
 1049SOL     OW 4045   4.600   0.002   3.871
 1049SOL    HW1 4046   4.552   6.975   3.948
 1049SOL    HW2 4047   4.541   0.003   3.791
 1050SOL     OW 4048   4.129   5.263   3.063
 1050SOL    HW1 4049   4.037   5.284   3.096
 1050SOL    HW2 4050   4.152   5.326   2.989
 1051SOL     OW 4051   6.920   5.642   0.331
 1051SOL    HW1 4052   7.012   5.617   0.301
 1051SOL    HW2 4053   6.924   5.678   0.424
 1052SOL     OW 4054   4.627   1.128   5.513
 1052SOL    HW1 4055   4.563   1.124   5.590
 1052SOL    HW2 4056   4.687   1.208   5.524
 1053SOL     OW 4057   6.106   3.689   2.392
 1053SOL    HW1 4058   6.051   3.772   2.377
 1053SOL    HW2 4059   6.154   3.696   2.479
 1054SOL     OW 4060   2.995   3.257   0.980
 1054SOL    HW1 4061   3.036   3.203   1.054
 1054SOL    HW2 4062   2.901   3.280   1.005
 1055SOL     OW 4063   5.241   5.991   6.542
 1055SOL    HW1 4064   5.279   5.938   6.618
 1055SOL    HW2 4065   5.246   6.088   6.564
 1056SOL     OW 4066   1.348   3.717   0.235
 1056SOL    HW1 4067   1.251   3.706   0.258
 1056SOL    HW2 4068   1.385   3.629   0.205
 1057SOL     OW 4069   3.729   2.047   1.778
 1057SOL    HW1 4070   3.827   2.025   1.776
 1057SOL    HW2 4071   3.709   2.104   1.857
 1058SOL     OW 4072   4.355   2.405   3.064
 1058SOL    HW1 4073   4.353   2.433   2.968
 1058SOL    HW2 4074   4.403   2.318   3.072
 1059SOL     OW 4075   2.827   6.852   2.297
 1059SOL    HW1 4076   2.831   6.842   2.396
 1059SOL    HW2 4077   2.828   6.762   2.254
 1060SOL     OW 4078   6.865   4.737   4.008
 1060SOL    HW1 4079   6.822   4.728   3.918
 1060SOL    HW2 4080   6.931   4.813   4.006
 1061SOL     OW 4081   6.411   3.788   6.912
 1061SOL    HW1 4082   6.395   3.730   6.832
 1061SOL    HW2 4083   6.467   3.739   6.978
 1062SOL     OW 4084   4.016   6.431   5.514
 1062SOL    HW1 4085   4.016   6.503   5.444
 1062SOL    HW2 4086   4.108   6.392   5.521
 1063SOL     OW 4087   0.264   6.922   6.234
 1063SOL    HW1 4088   0.290   0.000   6.211
 1063SOL    HW2 4089   0.198   6.923   6.309
 1064SOL     OW 4090   0.464   4.081   1.900
 1064SOL    HW1 4091   0.491   4.148   1.831
 1064SOL    HW2 4092   0.503   4.108   1.988
 1065SOL     OW 4093   3.108   0.817   3.767
 1065SOL    HW1 4094   3.071   0.872   3.691
 1065SOL    HW2 4095   3.098   0.868   3.852
 1066SOL     OW 4096   4.651   6.832   2.427
 1066SOL    HW1 4097   4.644   6.929   2.450
 1066SOL    HW2 4098   4.641   6.821   2.328
 1067SOL     OW 4099   2.776   1.029   6.698
 1067SOL    HW1 4100   2.749   1.096   6.629
 1067SOL    HW2 4101   2.835   1.073   6.766
 1068SOL     OW 4102   5.737   4.111   1.278
 1068SOL    HW1 4103   5.704   4.021   1.307
 1068SOL    HW2 4104   5.797   4.149   1.347
 1069SOL     OW 4105   5.556   5.230   0.965
 1069SOL    HW1 4106   5.605   5.221   1.051
 1069SOL    HW2 4107   5.619   5.214   0.889
 1070SOL     OW 4108   2.225   0.311   2.520
 1070SOL    HW1 4109   2.233   0.303   2.420
 1070SOL    HW2 4110   2.260   0.227   2.562
 1071SOL     OW 4111   0.587   1.771   4.632
 1071SOL    HW1 4112   0.570   1.817   4.719
 1071SOL    HW2 4113   0.508   1.781   4.572
 1072SOL     OW 4114   1.843   0.708   1.473
 1072SOL    HW1 4115   1.938   0.682   1.459
 1072SOL    HW2 4116   1.837   0.785   1.536
 1073SOL     OW 4117   6.196   1.987   3.416
 1073SOL    HW1 4118   6.242   2.037   3.489
 1073SOL    HW2 4119   6.251   1.991   3.333
 1074SOL     OW 4120   2.767   5.126   1.441
 1074SOL    HW1 4121   2.855   5.080   1.427
 1074SOL    HW2 4122   2.695   5.057   1.453
 1075SOL     OW 4123   6.377   1.467   4.410
 1075SOL    HW1 4124   6.320   1.408   4.353
 1075SOL    HW2 4125   6.407   1.416   4.491
 1076SOL     OW 4126   1.798   3.484   5.345
 1076SOL    HW1 4127   1.726   3.434   5.298
 1076SOL    HW2 4128   1.784   3.582   5.335
 1077SOL     OW 4129   6.927   6.741   0.247
 1077SOL    HW1 4130   6.926   6.651   0.202
 1077SOL    HW2 4131   6.987   6.737   0.327
 1078SOL     OW 4132   6.616   0.011   2.708
 1078SOL    HW1 4133   6.553   6.979   2.770
 1078SOL    HW2 4134   6.702   6.976   2.704
 1079SOL     OW 4135   1.506   5.553   1.924
 1079SOL    HW1 4136   1.409   5.531   1.911
 1079SOL    HW2 4137   1.525   5.559   2.022
 1080SOL     OW 4138   2.135   5.691   5.275
 1080SOL    HW1 4139   2.140   5.654   5.182
 1080SOL    HW2 4140   2.069   5.766   5.277
 1081SOL     OW 4141   0.303   5.895   4.057
 1081SOL    HW1 4142   0.375   5.924   4.120
 1081SOL    HW2 4143   0.219   5.878   4.108
 1082SOL     OW 4144   5.943   1.608   6.179
 1082SOL    HW1 4145   6.025   1.556   6.157
 1082SOL    HW2 4146   5.965   1.677   6.249
 1083SOL     OW 4147   4.699   3.769   0.366
 1083SOL    HW1 4148   4.796   3.793   0.377
 1083SOL    HW2 4149   4.691   3.693   0.301
 1084SOL     OW 4150   6.502   6.810   6.539
 1084SOL    HW1 4151   6.426   6.775   6.484
 1084SOL    HW2 4152   6.478   6.804   6.636
 1085SOL     OW 4153   2.145   3.448   3.934
 1085SOL    HW1 4154   2.243   3.467   3.942
 1085SOL    HW2 4155   2.121   3.439   3.837
 1086SOL     OW 4156   6.714   4.748   6.371
 1086SOL    HW1 4157   6.663   4.663   6.356
 1086SOL    HW2 4158   6.664   4.825   6.333
 1087SOL     OW 4159   1.462   1.567   5.698
 1087SOL    HW1 4160   1.403   1.602   5.626
 1087SOL    HW2 4161   1.434   1.604   5.786
 1088SOL     OW 4162   0.043   5.454   3.039
 1088SOL    HW1 4163   0.061   5.519   2.965
 1088SOL    HW2 4164   0.064   5.497   3.127
 1089SOL     OW 4165   0.746   5.751   4.968
 1089SOL    HW1 4166   0.761   5.693   5.047
 1089SOL    HW2 4167   0.762   5.698   4.884
 1090SOL     OW 4168   5.410   2.029   3.206
 1090SOL    HW1 4169   5.368   2.054   3.119
 1090SOL    HW2 4170   5.398   2.104   3.272
 1091SOL     OW 4171   1.863   3.216   3.541
 1091SOL    HW1 4172   1.836   3.262   3.626
 1091SOL    HW2 4173   1.955   3.244   3.516
 1092SOL     OW 4174   0.872   4.634   0.488
 1092SOL    HW1 4175   0.934   4.708   0.460
 1092SOL    HW2 4176   0.798   4.672   0.543
 1093SOL     OW 4177   2.964   0.262   1.409
 1093SOL    HW1 4178   3.005   0.281   1.497
 1093SOL    HW2 4179   2.959   0.163   1.395
 1094SOL     OW 4180   0.624   6.662   2.655
 1094SOL    HW1 4181   0.656   6.717   2.578
 1094SOL    HW2 4182   0.649   6.566   2.640
 1095SOL     OW 4183   0.769   2.724   6.274
 1095SOL    HW1 4184   0.703   2.798   6.278
 1095SOL    HW2 4185   0.803   2.715   6.180
 1096SOL     OW 4186   2.966   4.953   0.903
 1096SOL    HW1 4187   2.908   4.903   0.838
 1096SOL    HW2 4188   2.924   4.951   0.993
 1097SOL     OW 4189   2.110   5.595   3.435
 1097SOL    HW1 4190   2.163   5.512   3.417
 1097SOL    HW2 4191   2.062   5.585   3.523
 1098SOL     OW 4192   5.812   4.268   6.805
 1098SOL    HW1 4193   5.874   4.331   6.851
 1098SOL    HW2 4194   5.861   4.220   6.733
 1099SOL     OW 4195   4.630   1.144   6.319
 1099SOL    HW1 4196   4.579   1.179   6.397
 1099SOL    HW2 4197   4.726   1.134   6.344
 1100SOL     OW 4198   3.162   1.165   4.004
 1100SOL    HW1 4199   3.240   1.110   4.034
 1100SOL    HW2 4200   3.147   1.240   4.069
 1101SOL     OW 4201   5.768   3.403   5.375
 1101SOL    HW1 4202   5.712   3.358   5.445
 1101SOL    HW2 4203   5.843   3.451   5.420
 1102SOL     OW 4204   2.390   0.929   4.404
 1102SOL    HW1 4205   2.421   1.023   4.418
 1102SOL    HW2 4206   2.446   0.867   4.460
 1103SOL     OW 4207   2.890   1.596   0.023
 1103SOL    HW1 4208   2.881   1.679   6.984
 1103SOL    HW2 4209   2.889   1.516   6.977
 1104SOL     OW 4210   1.510   4.299   3.459
 1104SOL    HW1 4211   1.607   4.320   3.471
 1104SOL    HW2 4212   1.463   4.306   3.547
 1105SOL     OW 4213   4.914   2.451   4.485
 1105SOL    HW1 4214   4.937   2.518   4.415
 1105SOL    HW2 4215   4.943   2.484   4.575
 1106SOL     OW 4216   0.272   1.569   0.356
 1106SOL    HW1 4217   0.321   1.501   0.410
 1106SOL    HW2 4218   0.240   1.643   0.415
 1107SOL     OW 4219   1.210   0.702   7.001
 1107SOL    HW1 4220   1.309   0.704   6.985
 1107SOL    HW2 4221   1.162   0.724   6.916
 1108SOL     OW 4222   3.872   6.401   4.455
 1108SOL    HW1 4223   3.832   6.426   4.366
 1108SOL    HW2 4224   3.843   6.309   4.479
 1109SOL     OW 4225   5.865   1.851   3.778
 1109SOL    HW1 4226   5.798   1.794   3.730
 1109SOL    HW2 4227   5.819   1.933   3.813
 1110SOL     OW 4228   3.182   1.061   2.875
 1110SOL    HW1 4229   3.099   1.055   2.930
 1110SOL    HW2 4230   3.216   0.969   2.856
 1111SOL     OW 4231   4.881   4.242   6.228
 1111SOL    HW1 4232   4.817   4.252   6.152
 1111SOL    HW2 4233   4.877   4.148   6.263
 1112SOL     OW 4234   6.339   6.974   3.344
 1112SOL    HW1 4235   6.364   6.906   3.413
 1112SOL    HW2 4236   6.324   6.929   3.256
 1113SOL     OW 4237   6.087   4.183   1.728
 1113SOL    HW1 4238   5.996   4.220   1.745
 1113SOL    HW2 4239   6.085   4.083   1.739
 1114SOL     OW 4240   3.880   2.644   5.720
 1114SOL    HW1 4241   3.805   2.599   5.672
 1114SOL    HW2 4242   3.867   2.743   5.716
 1115SOL     OW 4243   4.179   4.432   5.628
 1115SOL    HW1 4244   4.082   4.438   5.652
 1115SOL    HW2 4245   4.190   4.365   5.554
 1116SOL     OW 4246   5.454   0.611   0.185
 1116SOL    HW1 4247   5.446   0.554   0.267
 1116SOL    HW2 4248   5.524   0.575   0.125
 1117SOL     OW 4249   1.036   2.344   1.600
 1117SOL    HW1 4250   0.957   2.335   1.538
 1117SOL    HW2 4251   1.021   2.287   1.681
 1118SOL     OW 4252   1.996   5.549   0.320
 1118SOL    HW1 4253   2.040   5.462   0.343
 1118SOL    HW2 4254   1.962   5.545   0.226
 1119SOL     OW 4255   4.230   4.640   2.416
 1119SOL    HW1 4256   4.158   4.637   2.347
 1119SOL    HW2 4257   4.312   4.683   2.377
 1120SOL     OW 4258   6.273   5.836   1.058
 1120SOL    HW1 4259   6.215   5.787   1.123
 1120SOL    HW2 4260   6.335   5.897   1.108
 1121SOL     OW 4261   0.873   4.683   4.555
 1121SOL    HW1 4262   0.819   4.751   4.605
 1121SOL    HW2 4263   0.835   4.672   4.463
 1122SOL     OW 4264   6.652   2.832   2.118
 1122SOL    HW1 4265   6.697   2.872   2.198
 1122SOL    HW2 4266   6.566   2.880   2.100
 1123SOL     OW 4267   4.427   2.153   3.635
 1123SOL    HW1 4268   4.499   2.217   3.662
 1123SOL    HW2 4269   4.452   2.060   3.662
 1124SOL     OW 4270   1.113   3.556   5.344
 1124SOL    HW1 4271   1.094   3.464   5.379
 1124SOL    HW2 4272   1.206   3.560   5.308
 1125SOL     OW 4273   1.507   2.900   4.689
 1125SOL    HW1 4274   1.547   2.809   4.703
 1125SOL    HW2 4275   1.565   2.969   4.731
 1126SOL     OW 4276   4.117   5.902   5.196
 1126SOL    HW1 4277   4.062   5.973   5.240
 1126SOL    HW2 4278   4.138   5.830   5.262
 1127SOL     OW 4279   5.681   6.560   4.615
 1127SOL    HW1 4280   5.645   6.479   4.569
 1127SOL    HW2 4281   5.664   6.553   4.714
 1128SOL     OW 4282   5.748   1.332   4.676
 1128SOL    HW1 4283   5.651   1.308   4.690
 1128SOL    HW2 4284   5.767   1.420   4.718
 1129SOL     OW 4285   1.879   6.833   0.505
 1129SOL    HW1 4286   1.852   6.924   0.535
 1129SOL    HW2 4287   1.943   6.793   0.571
 1130SOL     OW 4288   1.893   5.212   1.631
 1130SOL    HW1 4289   1.917   5.258   1.717
 1130SOL    HW2 4290   1.794   5.215   1.618
 1131SOL     OW 4291   1.590   0.370   4.626
 1131SOL    HW1 4292   1.611   0.296   4.561
 1131SOL    HW2 4293   1.671   0.425   4.641
 1132SOL     OW 4294   4.898   0.564   2.748
 1132SOL    HW1 4295   4.941   0.557   2.658
 1132SOL    HW2 4296   4.937   0.641   2.798
 1133SOL     OW 4297   1.503   0.362   6.563
 1133SOL    HW1 4298   1.486   0.280   6.618
 1133SOL    HW2 4299   1.547   0.431   6.620
 1134SOL     OW 4300   5.384   6.629   1.985
 1134SOL    HW1 4301   5.432   6.610   1.899
 1134SOL    HW2 4302   5.432   6.702   2.034
 1135SOL     OW 4303   2.401   6.260   3.802
 1135SOL    HW1 4304   2.488   6.231   3.840
 1135SOL    HW2 4305   2.385   6.213   3.715
 1136SOL     OW 4306   3.490   5.276   3.455
 1136SOL    HW1 4307   3.582   5.306   3.481
 1136SOL    HW2 4308   3.492   5.233   3.365
 1137SOL     OW 4309   1.025   6.192   6.491
 1137SOL    HW1 4310   1.056   6.128   6.421
 1137SOL    HW2 4311   0.925   6.197   6.491
 1138SOL     OW 4312   1.843   2.499   5.146
 1138SOL    HW1 4313   1.924   2.540   5.189
 1138SOL    HW2 4314   1.763   2.556   5.165
 1139SOL     OW 4315   2.422   4.698   3.936
 1139SOL    HW1 4316   2.469   4.672   4.020
 1139SOL    HW2 4317   2.435   4.796   3.920
 1140SOL     OW 4318   2.031   0.641   2.167
 1140SOL    HW1 4319   2.018   0.571   2.096
 1140SOL    HW2 4320   2.010   0.731   2.128
 1141SOL     OW 4321   6.287   5.455   6.347
 1141SOL    HW1 4322   6.297   5.404   6.262
 1141SOL    HW2 4323   6.348   5.416   6.416
 1142SOL     OW 4324   2.589   6.948   3.616
 1142SOL    HW1 4325   2.582   0.032   3.602
 1142SOL    HW2 4326   2.511   6.917   3.672
 1143SOL     OW 4327   1.221   2.638   2.262
 1143SOL    HW1 4328   1.178   2.560   2.217
 1143SOL    HW2 4329   1.290   2.606   2.327
 1144SOL     OW 4330   5.296   4.599   2.613
 1144SOL    HW1 4331   5.241   4.578   2.532
 1144SOL    HW2 4332   5.361   4.524   2.629
 1145SOL     OW 4333   1.145   2.713   0.674
 1145SOL    HW1 4334   1.114   2.799   0.716
 1145SOL    HW2 4335   1.218   2.733   0.608
 1146SOL     OW 4336   0.607   2.031   1.058
 1146SOL    HW1 4337   0.681   2.100   1.059
 1146SOL    HW2 4338   0.544   2.050   1.133
 1147SOL     OW 4339   3.037   6.244   0.591
 1147SOL    HW1 4340   3.035   6.153   0.634
 1147SOL    HW2 4341   3.048   6.233   0.492
 1148SOL     OW 4342   3.952   6.450   1.801
 1148SOL    HW1 4343   3.923   6.412   1.713
 1148SOL    HW2 4344   4.032   6.400   1.834
 1149SOL     OW 4345   6.073   3.054   1.540
 1149SOL    HW1 4346   6.080   3.151   1.563
 1149SOL    HW2 4347   6.164   3.014   1.532
 1150SOL     OW 4348   0.959   4.020   6.901
 1150SOL    HW1 4349   0.960   4.114   6.934
 1150SOL    HW2 4350   0.866   3.983   6.906
 1151SOL     OW 4351   5.994   5.174   4.434
 1151SOL    HW1 4352   6.070   5.206   4.378
 1151SOL    HW2 4353   6.029   5.140   4.521
 1152SOL     OW 4354   4.422   6.509   6.795
 1152SOL    HW1 4355   4.342   6.495   6.737
 1152SOL    HW2 4356   4.490   6.562   6.745
 1153SOL     OW 4357   6.777   0.030   1.220
 1153SOL    HW1 4358   6.698   0.004   1.164
 1153SOL    HW2 4359   6.847   0.071   1.162
 1154SOL     OW 4360   0.597   3.742   1.510
 1154SOL    HW1 4361   0.683   3.784   1.482
 1154SOL    HW2 4362   0.611   3.643   1.524
 1155SOL     OW 4363   2.315   6.545   5.312
 1155SOL    HW1 4364   2.387   6.522   5.246
 1155SOL    HW2 4365   2.263   6.623   5.277
 1156SOL     OW 4366   4.346   1.709   5.047
 1156SOL    HW1 4367   4.372   1.783   4.986
 1156SOL    HW2 4368   4.249   1.717   5.070
 1157SOL     OW 4369   5.065   1.547   5.508
 1157SOL    HW1 4370   4.978   1.517   5.469
 1157SOL    HW2 4371   5.056   1.640   5.543
 1158SOL     OW 4372   6.021   6.144   4.425
 1158SOL    HW1 4373   6.011   6.044   4.423
 1158SOL    HW2 4374   6.093   6.171   4.361
 1159SOL     OW 4375   6.024   6.802   3.349
 1159SOL    HW1 4376   5.977   6.743   3.283
 1159SOL    HW2 4377   6.103   6.754   3.386
 1160SOL     OW 4378   3.999   6.016   1.219
 1160SOL    HW1 4379   3.941   6.095   1.237
 1160SOL    HW2 4380   3.958   5.961   1.146
 1161SOL     OW 4381   0.009   5.740   6.210
 1161SOL    HW1 4382   7.010   5.825   6.261
 1161SOL    HW2 4383   0.028   5.666   6.273
 1162SOL     OW 4384   2.534   2.423   5.831
 1162SOL    HW1 4385   2.458   2.455   5.775
 1162SOL    HW2 4386   2.603   2.381   5.773
 1163SOL     OW 4387   6.086   4.698   1.464
 1163SOL    HW1 4388   6.139   4.655   1.391
 1163SOL    HW2 4389   6.061   4.630   1.533
 1164SOL     OW 4390   5.488   2.480   4.747
 1164SOL    HW1 4391   5.536   2.438   4.670
 1164SOL    HW2 4392   5.491   2.418   4.825
 1165SOL     OW 4393   4.371   6.144   3.137
 1165SOL    HW1 4394   4.336   6.233   3.168
 1165SOL    HW2 4395   4.298   6.076   3.142
 1166SOL     OW 4396   1.799   6.431   6.833
 1166SOL    HW1 4397   1.762   6.436   6.926
 1166SOL    HW2 4398   1.807   6.335   6.806
 1167SOL     OW 4399   4.971   4.177   1.455
 1167SOL    HW1 4400   4.976   4.118   1.374
 1167SOL    HW2 4401   4.894   4.148   1.512
 1168SOL     OW 4402   6.138   2.096   1.973
 1168SOL    HW1 4403   6.225   2.121   2.016
 1168SOL    HW2 4404   6.145   2.108   1.874
 1169SOL     OW 4405   5.618   1.801   5.359
 1169SOL    HW1 4406   5.559   1.851   5.296
 1169SOL    HW2 4407   5.651   1.717   5.316
 1170SOL     OW 4408   4.613   0.178   2.800
 1170SOL    HW1 4409   4.538   0.113   2.795
 1170SOL    HW2 4410   4.670   0.158   2.879
 1171SOL     OW 4411   2.243   0.147   0.419
 1171SOL    HW1 4412   2.233   0.103   0.508
 1171SOL    HW2 4413   2.197   0.091   0.350
 1172SOL     OW 4414   5.274   4.170   1.271
 1172SOL    HW1 4415   5.195   4.186   1.213
 1172SOL    HW2 4416   5.251   4.195   1.365
 1173SOL     OW 4417   2.211   1.378   1.559
 1173SOL    HW1 4418   2.238   1.334   1.473
 1173SOL    HW2 4419   2.180   1.308   1.623
 1174SOL     OW 4420   3.379   4.036   1.997
 1174SOL    HW1 4421   3.460   4.071   2.045
 1174SOL    HW2 4422   3.313   4.003   2.064
 1175SOL     OW 4423   4.742   3.322   5.648
 1175SOL    HW1 4424   4.784   3.358   5.565
 1175SOL    HW2 4425   4.791   3.240   5.677
 1176SOL     OW 4426   4.694   3.482   6.347
 1176SOL    HW1 4427   4.772   3.479   6.409
 1176SOL    HW2 4428   4.726   3.500   6.254
 1177SOL     OW 4429   6.704   3.852   4.953
 1177SOL    HW1 4430   6.793   3.897   4.948
 1177SOL    HW2 4431   6.672   3.852   5.048
 1178SOL     OW 4432   2.718   3.042   0.403
 1178SOL    HW1 4433   2.747   3.121   0.456
 1178SOL    HW2 4434   2.683   2.972   0.465
 1179SOL     OW 4435   2.335   5.574   0.561
 1179SOL    HW1 4436   2.286   5.635   0.623
 1179SOL    HW2 4437   2.386   5.628   0.495
 1180SOL     OW 4438   2.587   6.178   3.179
 1180SOL    HW1 4439   2.495   6.163   3.215
 1180SOL    HW2 4440   2.581   6.213   3.086
 1181SOL     OW 4441   0.501   5.350   5.733
 1181SOL    HW1 4442   0.558   5.281   5.688
 1181SOL    HW2 4443   0.447   5.306   5.805
 1182SOL     OW 4444   3.737   5.293   3.616
 1182SOL    HW1 4445   3.703   5.386   3.633
 1182SOL    HW2 4446   3.826   5.282   3.659
 1183SOL     OW 4447   2.183   4.455   0.264
 1183SOL    HW1 4448   2.215   4.371   0.220
 1183SOL    HW2 4449   2.092   4.440   0.302
 1184SOL     OW 4450   0.214   0.479   4.746
 1184SOL    HW1 4451   0.151   0.525   4.809
 1184SOL    HW2 4452   0.305   0.520   4.754
 1185SOL     OW 4453   0.312   1.074   0.273
 1185SOL    HW1 4454   0.373   1.065   0.352
 1185SOL    HW2 4455   0.321   1.165   0.234
 1186SOL     OW 4456   5.212   5.745   5.571
 1186SOL    HW1 4457   5.308   5.760   5.595
 1186SOL    HW2 4458   5.202   5.657   5.525
 1187SOL     OW 4459   6.335   6.484   6.820
 1187SOL    HW1 4460   6.380   6.475   6.909
 1187SOL    HW2 4461   6.340   6.578   6.789
 1188SOL     OW 4462   3.551   6.068   5.114
 1188SOL    HW1 4463   3.496   6.066   5.198
 1188SOL    HW2 4464   3.646   6.047   5.136
 1189SOL     OW 4465   6.581   2.640   2.784
 1189SOL    HW1 4466   6.518   2.643   2.861
 1189SOL    HW2 4467   6.532   2.659   2.700
 1190SOL     OW 4468   2.739   5.808   4.188
 1190SOL    HW1 4469   2.680   5.871   4.139
 1190SOL    HW2 4470   2.694   5.719   4.196
 1191SOL     OW 4471   4.679   5.066   3.754
 1191SOL    HW1 4472   4.716   4.986   3.801
 1191SOL    HW2 4473   4.631   5.037   3.671
 1192SOL     OW 4474   3.866   5.339   3.123
 1192SOL    HW1 4475   3.826   5.309   3.036
 1192SOL    HW2 4476   3.840   5.434   3.139
 1193SOL     OW 4477   6.463   3.383   4.610
 1193SOL    HW1 4478   6.550   3.404   4.655
 1193SOL    HW2 4479   6.450   3.284   4.608
 1194SOL     OW 4480   5.345   7.013   1.609
 1194SOL    HW1 4481   5.268   6.955   1.637
 1194SOL    HW2 4482   5.412   6.959   1.559
 1195SOL     OW 4483   6.485   4.403   1.511
 1195SOL    HW1 4484   6.573   4.355   1.509
 1195SOL    HW2 4485   6.441   4.396   1.422
 1196SOL     OW 4486   0.029   5.756   2.918
 1196SOL    HW1 4487   6.993   5.707   2.847
 1196SOL    HW2 4488   0.042   5.851   2.889
 1197SOL     OW 4489   4.387   0.797   5.637
 1197SOL    HW1 4490   4.458   0.736   5.672
 1197SOL    HW2 4491   4.297   0.758   5.658
 1198SOL     OW 4492   1.150   2.710   1.949
 1198SOL    HW1 4493   1.194   2.777   2.009
 1198SOL    HW2 4494   1.201   2.624   1.953
 1199SOL     OW 4495   4.192   4.724   1.967
 1199SOL    HW1 4496   4.216   4.630   1.946
 1199SOL    HW2 4497   4.171   4.732   2.065
 1200SOL     OW 4498   3.170   3.635   3.628
 1200SOL    HW1 4499   3.141   3.730   3.635
 1200SOL    HW2 4500   3.267   3.632   3.604
 1201SOL     OW 4501   1.234   0.696   4.657
 1201SOL    HW1 4502   1.221   0.625   4.588
 1201SOL    HW2 4503   1.146   0.731   4.687
 1202SOL     OW 4504   0.723   5.754   6.121
 1202SOL    HW1 4505   0.784   5.706   6.057
 1202SOL    HW2 4506   0.645   5.791   6.071
 1203SOL     OW 4507   5.832   6.492   0.004
 1203SOL    HW1 4508   5.816   6.404   6.975
 1203SOL    HW2 4509   5.745   6.530   0.036
 1204SOL     OW 4510   3.304   6.739   1.437
 1204SOL    HW1 4511   3.396   6.726   1.402
 1204SOL    HW2 4512   3.242   6.671   1.397
 1205SOL     OW 4513   5.655   3.500   1.305
 1205SOL    HW1 4514   5.721   3.557   1.353
 1205SOL    HW2 4515   5.632   3.420   1.360
 1206SOL     OW 4516   3.100   2.844   5.397
 1206SOL    HW1 4517   3.079   2.936   5.365
 1206SOL    HW2 4518   3.029   2.813   5.460
 1207SOL     OW 4519   2.167   6.152   1.677
 1207SOL    HW1 4520   2.096   6.220   1.696
 1207SOL    HW2 4521   2.128   6.077   1.623
 1208SOL     OW 4522   3.232   3.440   0.585
 1208SOL    HW1 4523   3.160   3.476   0.525
 1208SOL    HW2 4524   3.213   3.468   0.679
 1209SOL     OW 4525   4.246   0.924   4.761
 1209SOL    HW1 4526   4.271   0.956   4.853
 1209SOL    HW2 4527   4.258   0.998   4.696
 1210SOL     OW 4528   2.703   0.336   3.273
 1210SOL    HW1 4529   2.683   0.306   3.366
 1210SOL    HW2 4530   2.622   0.323   3.215
 1211SOL     OW 4531   1.476   3.379   1.735
 1211SOL    HW1 4532   1.503   3.414   1.646
 1211SOL    HW2 4533   1.421   3.448   1.783
 1212SOL     OW 4534   6.251   0.404   6.732
 1212SOL    HW1 4535   6.298   0.470   6.672
 1212SOL    HW2 4536   6.268   0.311   6.699
 1213SOL     OW 4537   6.616   2.177   0.778
 1213SOL    HW1 4538   6.603   2.271   0.810
 1213SOL    HW2 4539   6.687   2.175   0.708
 1214SOL     OW 4540   0.504   3.066   0.507
 1214SOL    HW1 4541   0.486   3.101   0.415
 1214SOL    HW2 4542   0.603   3.058   0.520
 1215SOL     OW 4543   1.536   3.987   3.676
 1215SOL    HW1 4544   1.492   4.059   3.730
 1215SOL    HW2 4545   1.628   3.971   3.712
 1216SOL     OW 4546   4.969   0.744   1.318
 1216SOL    HW1 4547   4.949   0.810   1.390
 1216SOL    HW2 4548   4.884   0.708   1.280
 1217SOL     OW 4549   1.369   4.966   0.554
 1217SOL    HW1 4550   1.311   5.018   0.492
 1217SOL    HW2 4551   1.459   4.954   0.513
 1218SOL     OW 4552   2.102   4.305   3.999
 1218SOL    HW1 4553   2.174   4.282   4.064
 1218SOL    HW2 4554   2.123   4.393   3.956
 1219SOL     OW 4555   5.886   5.339   1.774
 1219SOL    HW1 4556   5.903   5.307   1.680
 1219SOL    HW2 4557   5.962   5.312   1.833
 1220SOL     OW 4558   0.834   4.903   3.012
 1220SOL    HW1 4559   0.862   4.833   3.078
 1220SOL    HW2 4560   0.746   4.942   3.040
 1221SOL     OW 4561   5.307   3.852   6.082
 1221SOL    HW1 4562   5.294   3.951   6.078
 1221SOL    HW2 4563   5.404   3.830   6.068
 1222SOL     OW 4564   6.306   6.781   6.369
 1222SOL    HW1 4565   6.308   6.824   6.278
 1222SOL    HW2 4566   6.233   6.713   6.372
 1223SOL     OW 4567   3.783   0.723   0.771
 1223SOL    HW1 4568   3.690   0.724   0.733
 1223SOL    HW2 4569   3.779   0.700   0.869
 1224SOL     OW 4570   2.748   6.682   0.502
 1224SOL    HW1 4571   2.742   6.619   0.425
 1224SOL    HW2 4572   2.835   6.670   0.549
 1225SOL     OW 4573   3.556   3.955   6.500
 1225SOL    HW1 4574   3.573   4.053   6.502
 1225SOL    HW2 4575   3.524   3.928   6.410
 1226SOL     OW 4576   2.567   5.505   0.902
 1226SOL    HW1 4577   2.569   5.489   0.804
 1226SOL    HW2 4578   2.558   5.603   0.920
 1227SOL     OW 4579   6.900   3.808   7.000
 1227SOL    HW1 4580   6.925   3.872   0.057
 1227SOL    HW2 4581   6.843   3.736   0.023
 1228SOL     OW 4582   4.466   2.911   0.125
 1228SOL    HW1 4583   4.384   2.967   0.136
 1228SOL    HW2 4584   4.440   2.820   0.092
 1229SOL     OW 4585   3.147   4.703   5.970
 1229SOL    HW1 4586   3.226   4.695   6.031
 1229SOL    HW2 4587   3.115   4.798   5.970
 1230SOL     OW 4588   4.308   0.263   3.593
 1230SOL    HW1 4589   4.232   0.291   3.535
 1230SOL    HW2 4590   4.346   0.344   3.639
 1231SOL     OW 4591   1.547   3.777   4.171
 1231SOL    HW1 4592   1.479   3.834   4.124
 1231SOL    HW2 4593   1.503   3.723   4.242
 1232SOL     OW 4594   0.932   2.148   6.003
 1232SOL    HW1 4595   0.965   2.134   5.909
 1232SOL    HW2 4596   0.960   2.070   6.059
 1233SOL     OW 4597   0.968   3.105   4.453
 1233SOL    HW1 4598   1.000   3.113   4.359
 1233SOL    HW2 4599   0.934   3.194   4.485
 1234SOL     OW 4600   6.368   3.974   5.157
 1234SOL    HW1 4601   6.331   4.024   5.079
 1234SOL    HW2 4602   6.370   4.033   5.238
 1235SOL     OW 4603   6.787   6.273   2.460
 1235SOL    HW1 4604   6.863   6.273   2.395
 1235SOL    HW2 4605   6.731   6.191   2.447
 1236SOL     OW 4606   5.233   1.302   6.757
 1236SOL    HW1 4607   5.158   1.311   6.691
 1236SOL    HW2 4608   5.217   1.222   6.815
 1237SOL     OW 4609   2.683   5.062   6.237
 1237SOL    HW1 4610   2.676   4.972   6.280
 1237SOL    HW2 4611   2.615   5.123   6.275
 1238SOL     OW 4612   2.389   0.894   0.498
 1238SOL    HW1 4613   2.373   0.991   0.483
 1238SOL    HW2 4614   2.301   0.845   0.494
 1239SOL     OW 4615   6.929   6.539   6.409
 1239SOL    HW1 4616   7.015   6.533   6.460
 1239SOL    HW2 4617   6.948   6.567   6.315
 1240SOL     OW 4618   5.563   5.694   2.029
 1240SOL    HW1 4619   5.572   5.594   2.039
 1240SOL    HW2 4620   5.620   5.740   2.097
 1241SOL     OW 4621   6.364   3.845   4.155
 1241SOL    HW1 4622   6.272   3.850   4.193
 1241SOL    HW2 4623   6.427   3.814   4.227
 1242SOL     OW 4624   1.243   3.577   1.198
 1242SOL    HW1 4625   1.331   3.551   1.159
 1242SOL    HW2 4626   1.195   3.495   1.229
 1243SOL     OW 4627   0.942   6.524   5.362
 1243SOL    HW1 4628   0.942   6.519   5.262
 1243SOL    HW2 4629   0.898   6.609   5.391
 1244SOL     OW 4630   0.300   6.006   3.576
 1244SOL    HW1 4631   0.261   6.098   3.590
 1244SOL    HW2 4632   0.398   6.008   3.596
 1245SOL     OW 4633   4.400   3.891   6.363
 1245SOL    HW1 4634   4.321   3.895   6.424
 1245SOL    HW2 4635   4.446   3.803   6.374
 1246SOL     OW 4636   2.408   6.300   2.174
 1246SOL    HW1 4637   2.321   6.265   2.209
 1246SOL    HW2 4638   2.403   6.400   2.166
 1247SOL     OW 4639   2.553   0.187   6.903
 1247SOL    HW1 4640   2.469   0.218   6.859
 1247SOL    HW2 4641   2.598   0.264   6.947
 1248SOL     OW 4642   2.453   6.788   4.340
 1248SOL    HW1 4643   2.415   6.791   4.432
 1248SOL    HW2 4644   2.551   6.809   4.344
 1249SOL     OW 4645   5.781   2.464   2.270
 1249SOL    HW1 4646   5.828   2.439   2.355
 1249SOL    HW2 4647   5.721   2.388   2.242
 1250SOL     OW 4648   6.827   4.572   4.736
 1250SOL    HW1 4649   6.840   4.602   4.641
 1250SOL    HW2 4650   6.835   4.651   4.796
 1251SOL     OW 4651   3.126   0.202   4.642
 1251SOL    HW1 4652   3.162   0.221   4.733
 1251SOL    HW2 4653   3.194   0.230   4.574
 1252SOL     OW 4654   3.584   3.610   6.101
 1252SOL    HW1 4655   3.607   3.603   6.198
 1252SOL    HW2 4656   3.668   3.619   6.047
 1253SOL     OW 4657   3.635   5.672   1.690
 1253SOL    HW1 4658   3.641   5.750   1.627
 1253SOL    HW2 4659   3.581   5.599   1.648
 1254SOL     OW 4660   6.244   3.290   2.653
 1254SOL    HW1 4661   6.320   3.225   2.644
 1254SOL    HW2 4662   6.200   3.303   2.564
 1255SOL     OW 4663   6.791   1.598   4.465
 1255SOL    HW1 4664   6.846   1.648   4.397
 1255SOL    HW2 4665   6.839   1.597   4.552
 1256SOL     OW 4666   6.795   6.817   2.722
 1256SOL    HW1 4667   6.852   6.802   2.803
 1256SOL    HW2 4668   6.777   6.730   2.677
 1257SOL     OW 4669   6.956   6.753   3.740
 1257SOL    HW1 4670   0.028   6.787   3.703
 1257SOL    HW2 4671   6.881   6.807   3.703
 1258SOL     OW 4672   0.361   5.033   3.391
 1258SOL    HW1 4673   0.324   5.095   3.322
 1258SOL    HW2 4674   0.451   5.001   3.362
 1259SOL     OW 4675   3.634   2.103   4.409
 1259SOL    HW1 4676   3.733   2.107   4.397
 1259SOL    HW2 4677   3.589   2.159   4.340
 1260SOL     OW 4678   1.063   2.025   6.783
 1260SOL    HW1 4679   1.056   1.961   6.859
 1260SOL    HW2 4680   1.053   1.976   6.697
 1261SOL     OW 4681   0.304   5.832   6.526
 1261SOL    HW1 4682   0.357   5.829   6.611
 1261SOL    HW2 4683   0.230   5.898   6.535
 1262SOL     OW 4684   5.501   5.089   2.329
 1262SOL    HW1 4685   5.562   5.109   2.252
 1262SOL    HW2 4686   5.459   4.999   2.315
 1263SOL     OW 4687   0.026   1.207   2.891
 1263SOL    HW1 4688   0.069   1.232   2.804
 1263SOL    HW2 4689   6.943   1.195   2.877
 1264SOL     OW 4690   0.980   3.500   6.392
 1264SOL    HW1 4691   1.073   3.522   6.421
 1264SOL    HW2 4692   0.978   3.487   6.293
 1265SOL     OW 4693   6.838   5.520   4.710
 1265SOL    HW1 4694   6.846   5.432   4.662
 1265SOL    HW2 4695   6.896   5.588   4.664
 1266SOL     OW 4696   0.580   0.575   4.409
 1266SOL    HW1 4697   0.524   0.591   4.327
 1266SOL    HW2 4698   0.573   0.479   4.435
 1267SOL     OW 4699   4.900   0.972   1.985
 1267SOL    HW1 4700   4.933   1.045   1.925
 1267SOL    HW2 4701   4.843   0.909   1.933
 1268SOL     OW 4702   3.683   2.720   5.974
 1268SOL    HW1 4703   3.718   2.797   5.920
 1268SOL    HW2 4704   3.601   2.684   5.930
 1269SOL     OW 4705   5.263   2.600   4.211
 1269SOL    HW1 4706   5.228   2.523   4.156
 1269SOL    HW2 4707   5.251   2.685   4.160
 1270SOL     OW 4708   1.818   4.874   2.064
 1270SOL    HW1 4709   1.882   4.847   2.135
 1270SOL    HW2 4710   1.785   4.793   2.016
 1271SOL     OW 4711   2.744   0.862   1.319
 1271SOL    HW1 4712   2.684   0.906   1.386
 1271SOL    HW2 4713   2.741   0.915   1.234
 1272SOL     OW 4714   6.426   4.158   6.255
 1272SOL    HW1 4715   6.346   4.114   6.297
 1272SOL    HW2 4716   6.446   4.115   6.168
 1273SOL     OW 4717   1.823   3.886   4.856
 1273SOL    HW1 4718   1.915   3.853   4.875
 1273SOL    HW2 4719   1.820   3.924   4.763
 1274SOL     OW 4720   0.500   4.457   1.506
 1274SOL    HW1 4721   0.509   4.430   1.602
 1274SOL    HW2 4722   0.437   4.534   1.498
 1275SOL     OW 4723   2.793   6.931   3.443
 1275SOL    HW1 4724   2.745   6.937   3.356
 1275SOL    HW2 4725   2.728   6.907   3.516
 1276SOL     OW 4726   5.430   4.596   4.577
 1276SOL    HW1 4727   5.374   4.656   4.634
 1276SOL    HW2 4728   5.426   4.626   4.482
 1277SOL     OW 4729   1.320   5.132   6.958
 1277SOL    HW1 4730   1.365   5.191   0.009
 1277SOL    HW2 4731   1.239   5.091   6.999
 1278SOL     OW 4732   1.208   0.020   3.974
 1278SOL    HW1 4733   1.213   0.069   4.061
 1278SOL    HW2 4734   1.282   6.968   3.970
 1279SOL     OW 4735   2.140   3.479   5.824
 1279SOL    HW1 4736   2.066   3.453   5.886
 1279SOL    HW2 4737   2.103   3.490   5.731
 1280SOL     OW 4738   3.329   0.234   3.821
 1280SOL    HW1 4739   3.272   0.262   3.744
 1280SOL    HW2 4740   3.426   0.248   3.797
 1281SOL     OW 4741   3.029   5.870   4.156
 1281SOL    HW1 4742   2.929   5.860   4.165
 1281SOL    HW2 4743   3.065   5.792   4.105
 1282SOL     OW 4744   0.069   2.603   0.635
 1282SOL    HW1 4745   7.001   2.598   0.691
 1282SOL    HW2 4746   0.132   2.669   0.675
 1283SOL     OW 4747   6.602   4.251   5.346
 1283SOL    HW1 4748   6.608   4.350   5.356
 1283SOL    HW2 4749   6.507   4.224   5.331
 1284SOL     OW 4750   3.796   0.557   1.211
 1284SOL    HW1 4751   3.712   0.503   1.205
 1284SOL    HW2 4752   3.832   0.554   1.304
 1285SOL     OW 4753   3.962   1.496   5.430
 1285SOL    HW1 4754   4.051   1.514   5.470
 1285SOL    HW2 4755   3.891   1.512   5.499
 1286SOL     OW 4756   4.959   2.956   0.918
 1286SOL    HW1 4757   4.877   2.940   0.972
 1286SOL    HW2 4758   4.940   3.024   0.847
 1287SOL     OW 4759   5.263   4.945   5.395
 1287SOL    HW1 4760   5.235   4.986   5.308
 1287SOL    HW2 4761   5.358   4.914   5.388
 1288SOL     OW 4762   4.474   4.512   6.021
 1288SOL    HW1 4763   4.439   4.420   6.002
 1288SOL    HW2 4764   4.418   4.580   5.973
 1289SOL     OW 4765   6.559   0.656   1.793
 1289SOL    HW1 4766   6.565   0.590   1.868
 1289SOL    HW2 4767   6.645   0.657   1.742
 1290SOL     OW 4768   1.281   0.377   0.852
 1290SOL    HW1 4769   1.311   0.282   0.846
 1290SOL    HW2 4770   1.361   0.437   0.853
 1291SOL     OW 4771   6.291   4.723   4.522
 1291SOL    HW1 4772   6.237   4.806   4.515
 1291SOL    HW2 4773   6.346   4.712   4.440
 1292SOL     OW 4774   0.350   5.732   2.348
 1292SOL    HW1 4775   0.424   5.716   2.413
 1292SOL    HW2 4776   0.278   5.665   2.363
 1293SOL     OW 4777   2.191   2.002   0.185
 1293SOL    HW1 4778   2.238   2.040   0.264
 1293SOL    HW2 4779   2.206   2.061   0.105
 1294SOL     OW 4780   1.533   4.154   6.436
 1294SOL    HW1 4781   1.626   4.147   6.400
 1294SOL    HW2 4782   1.536   4.175   6.533
 1295SOL     OW 4783   0.108   3.956   1.089
 1295SOL    HW1 4784   0.153   3.881   1.138
 1295SOL    HW2 4785   0.176   4.017   1.050
 1296SOL     OW 4786   4.914   0.253   5.675
 1296SOL    HW1 4787   4.825   0.238   5.631
 1296SOL    HW2 4788   4.978   0.182   5.646
 1297SOL     OW 4789   1.044   6.522   1.623
 1297SOL    HW1 4790   1.082   6.463   1.552
 1297SOL    HW2 4791   0.948   6.539   1.604
 1298SOL     OW 4792   5.092   6.428   3.352
 1298SOL    HW1 4793   5.074   6.519   3.315
 1298SOL    HW2 4794   5.081   6.430   3.451
 1299SOL     OW 4795   2.043   2.901   3.913
 1299SOL    HW1 4796   2.069   2.997   3.901
 1299SOL    HW2 4797   2.124   2.847   3.938
 1300SOL     OW 4798   1.846   3.635   1.152
 1300SOL    HW1 4799   1.814   3.592   1.236
 1300SOL    HW2 4800   1.936   3.600   1.129
 1301SOL     OW 4801   0.881   0.133   1.753
 1301SOL    HW1 4802   0.967   0.086   1.772
 1301SOL    HW2 4803   0.895   0.198   1.677
 1302SOL     OW 4804   5.667   0.405   5.478
 1302SOL    HW1 4805   5.675   0.305   5.487
 1302SOL    HW2 4806   5.687   0.448   5.565
 1303SOL     OW 4807   4.094   0.444   1.620
 1303SOL    HW1 4808   4.151   0.363   1.633
 1303SOL    HW2 4809   4.121   0.514   1.686
 1304SOL     OW 4810   1.420   1.274   1.133
 1304SOL    HW1 4811   1.489   1.203   1.117
 1304SOL    HW2 4812   1.409   1.288   1.231
 1305SOL     OW 4813   5.471   4.604   6.167
 1305SOL    HW1 4814   5.402   4.591   6.239
 1305SOL    HW2 4815   5.532   4.679   6.193
 1306SOL     OW 4816   0.559   5.921   4.533
 1306SOL    HW1 4817   0.621   5.986   4.576
 1306SOL    HW2 4818   0.484   5.899   4.596
 1307SOL     OW 4819   1.812   3.280   3.847
 1307SOL    HW1 4820   1.775   3.371   3.864
 1307SOL    HW2 4821   1.739   3.218   3.820
 1308SOL     OW 4822   6.504   6.351   6.097
 1308SOL    HW1 4823   6.464   6.413   6.165
 1308SOL    HW2 4824   6.603   6.361   6.097
 1309SOL     OW 4825   5.321   4.833   5.754
 1309SOL    HW1 4826   5.234   4.869   5.720
 1309SOL    HW2 4827   5.312   4.735   5.774
 1310SOL     OW 4828   0.631   4.023   4.002
 1310SOL    HW1 4829   0.610   4.120   4.014
 1310SOL    HW2 4830   0.551   3.976   3.965
 1311SOL     OW 4831   6.433   5.684   6.212
 1311SOL    HW1 4832   6.358   5.704   6.274
 1311SOL    HW2 4833   6.397   5.657   6.122
 1312SOL     OW 4834   1.888   0.877   6.375
 1312SOL    HW1 4835   1.862   0.970   6.351
 1312SOL    HW2 4836   1.844   0.813   6.311
 1313SOL     OW 4837   6.478   5.344   2.471
 1313SOL    HW1 4838   6.412   5.389   2.412
 1313SOL    HW2 4839   6.445   5.347   2.566
 1314SOL     OW 4840   2.884   1.945   4.458
 1314SOL    HW1 4841   2.972   1.951   4.411
 1314SOL    HW2 4842   2.811   1.982   4.400
 1315SOL     OW 4843   6.662   0.586   3.556
 1315SOL    HW1 4844   6.650   0.635   3.470
 1315SOL    HW2 4845   6.741   0.526   3.550
 1316SOL     OW 4846   3.839   0.319   4.945
 1316SOL    HW1 4847   3.922   0.364   4.977
 1316SOL    HW2 4848   3.762   0.382   4.953
 1317SOL     OW 4849   2.100   4.653   5.609
 1317SOL    HW1 4850   2.005   4.622   5.605
 1317SOL    HW2 4851   2.160   4.577   5.633
 1318SOL     OW 4852   1.722   2.896   6.571
 1318SOL    HW1 4853   1.693   2.891   6.475
 1318SOL    HW2 4854   1.802   2.837   6.585
 1319SOL     OW 4855   0.139   6.070   6.695
 1319SOL    HW1 4856   0.042   6.055   6.674
 1319SOL    HW2 4857   0.146   6.128   6.776
 1320SOL     OW 4858   3.134   3.114   6.629
 1320SOL    HW1 4859   3.119   3.193   6.569
 1320SOL    HW2 4860   3.055   3.105   6.691
 1321SOL     OW 4861   4.861   2.282   6.742
 1321SOL    HW1 4862   4.946   2.237   6.715
 1321SOL    HW2 4863   4.798   2.285   6.664
 1322SOL     OW 4864   3.434   1.394   4.390
 1322SOL    HW1 4865   3.374   1.314   4.386
 1322SOL    HW2 4866   3.528   1.364   4.406
 1323SOL     OW 4867   3.479   6.452   0.910
 1323SOL    HW1 4868   3.393   6.436   0.861
 1323SOL    HW2 4869   3.515   6.542   0.887
 1324SOL     OW 4870   1.071   3.715   0.231
 1324SOL    HW1 4871   1.046   3.620   0.212
 1324SOL    HW2 4872   1.025   3.745   0.315
 1325SOL     OW 4873   4.182   6.588   5.292
 1325SOL    HW1 4874   4.124   6.544   5.223
 1325SOL    HW2 4875   4.272   6.544   5.291
 1326SOL     OW 4876   4.631   4.158   5.295
 1326SOL    HW1 4877   4.645   4.207   5.209
 1326SOL    HW2 4878   4.659   4.063   5.284
 1327SOL     OW 4879   0.300   6.656   0.770
 1327SOL    HW1 4880   0.202   6.677   0.770
 1327SOL    HW2 4881   0.352   6.742   0.769
 1328SOL     OW 4882   1.360   3.290   6.019
 1328SOL    HW1 4883   1.431   3.271   5.952
 1328SOL    HW2 4884   1.337   3.206   6.068
 1329SOL     OW 4885   6.989   1.611   2.804
 1329SOL    HW1 4886   0.026   1.546   2.858
 1329SOL    HW2 4887   6.994   1.585   2.707
 1330SOL     OW 4888   0.214   1.944   0.804
 1330SOL    HW1 4889   0.312   1.955   0.788
 1330SOL    HW2 4890   0.184   2.013   0.870
 1331SOL     OW 4891   4.680   2.390   2.582
 1331SOL    HW1 4892   4.710   2.476   2.625
 1331SOL    HW2 4893   4.584   2.398   2.556
 1332SOL     OW 4894   2.053   6.711   0.260
 1332SOL    HW1 4895   1.958   6.680   0.266
 1332SOL    HW2 4896   2.086   6.735   0.351
 1333SOL     OW 4897   3.186   3.950   2.867
 1333SOL    HW1 4898   3.239   4.035   2.877
 1333SOL    HW2 4899   3.195   3.896   2.951
 1334SOL     OW 4900   6.821   2.193   3.577
 1334SOL    HW1 4901   6.921   2.190   3.575
 1334SOL    HW2 4902   6.790   2.287   3.569
 1335SOL     OW 4903   1.687   2.276   2.474
 1335SOL    HW1 4904   1.759   2.210   2.452
 1335SOL    HW2 4905   1.609   2.262   2.413
 1336SOL     OW 4906   4.076   1.779   5.782
 1336SOL    HW1 4907   4.015   1.811   5.709
 1336SOL    HW2 4908   4.120   1.693   5.754
 1337SOL     OW 4909   6.650   1.394   2.468
 1337SOL    HW1 4910   6.675   1.372   2.562
 1337SOL    HW2 4911   6.565   1.347   2.444
 1338SOL     OW 4912   6.041   4.401   4.301
 1338SOL    HW1 4913   6.004   4.392   4.393
 1338SOL    HW2 4914   6.010   4.324   4.245
 1339SOL     OW 4915   6.879   0.185   6.980
 1339SOL    HW1 4916   6.879   0.113   0.033
 1339SOL    HW2 4917   6.877   0.274   0.010
 1340SOL     OW 4918   5.532   2.090   2.664
 1340SOL    HW1 4919   5.447   2.055   2.623
 1340SOL    HW2 4920   5.562   2.172   2.614
 1341SOL     OW 4921   4.216   6.277   0.500
 1341SOL    HW1 4922   4.269   6.330   0.435
 1341SOL    HW2 4923   4.249   6.182   0.501
 1342SOL     OW 4924   3.130   5.226   6.790
 1342SOL    HW1 4925   3.194   5.161   6.831
 1342SOL    HW2 4926   3.086   5.184   6.711
 1343SOL     OW 4927   5.947   5.398   3.013
 1343SOL    HW1 4928   5.902   5.445   3.088
 1343SOL    HW2 4929   5.900   5.311   2.995
 1344SOL     OW 4930   0.992   6.531   4.295
 1344SOL    HW1 4931   1.025   6.502   4.205
 1344SOL    HW2 4932   0.924   6.466   4.328
 1345SOL     OW 4933   1.307   4.683   2.012
 1345SOL    HW1 4934   1.350   4.601   2.051
 1345SOL    HW2 4935   1.238   4.717   2.076
 1346SOL     OW 4936   1.707   5.279   6.233
 1346SOL    HW1 4937   1.731   5.238   6.321
 1346SOL    HW2 4938   1.688   5.376   6.245
 1347SOL     OW 4939   1.921   7.006   6.420
 1347SOL    HW1 4940   1.911   0.018   6.516
 1347SOL    HW2 4941   1.905   6.908   6.411
 1348SOL     OW 4942   0.031   6.268   5.333
 1348SOL    HW1 4943   7.009   6.260   5.425
 1348SOL    HW2 4944   0.055   6.364   5.315
 1349SOL     OW 4945   5.601   2.599   4.025
 1349SOL    HW1 4946   5.632   2.514   4.066
 1349SOL    HW2 4947   5.527   2.581   3.961
 1350SOL     OW 4948   4.277   5.000   0.026
 1350SOL    HW1 4949   4.339   5.025   0.101
 1350SOL    HW2 4950   4.189   4.973   0.064
 1351SOL     OW 4951   5.944   2.256   3.734
 1351SOL    HW1 4952   5.941   2.356   3.734
 1351SOL    HW2 4953   5.851   2.220   3.742
 1352SOL     OW 4954   6.736   6.568   2.615
 1352SOL    HW1 4955   6.688   6.496   2.565
 1352SOL    HW2 4956   6.725   6.554   2.713
 1353SOL     OW 4957   0.911   1.854   0.312
 1353SOL    HW1 4958   0.869   1.846   0.402
 1353SOL    HW2 4959   0.917   1.951   0.287
 1354SOL     OW 4960   6.945   3.376   2.314
 1354SOL    HW1 4961   6.964   3.282   2.284
 1354SOL    HW2 4962   6.907   3.374   2.406
 1355SOL     OW 4963   6.170   3.556   4.222
 1355SOL    HW1 4964   6.115   3.498   4.280
 1355SOL    HW2 4965   6.267   3.538   4.239
 1356SOL     OW 4966   3.688   2.878   2.031
 1356SOL    HW1 4967   3.756   2.916   2.094
 1356SOL    HW2 4968   3.734   2.837   1.953
 1357SOL     OW 4969   6.460   4.067   5.994
 1357SOL    HW1 4970   6.548   4.114   5.984
 1357SOL    HW2 4971   6.465   3.977   5.952
 1358SOL     OW 4972   5.759   0.208   0.240
 1358SOL    HW1 4973   5.669   0.241   0.270
 1358SOL    HW2 4974   5.797   0.149   0.312
 1359SOL     OW 4975   6.673   4.840   2.037
 1359SOL    HW1 4976   6.687   4.837   1.937
 1359SOL    HW2 4977   6.587   4.795   2.060
 1360SOL     OW 4978   3.627   3.332   0.050
 1360SOL    HW1 4979   3.723   3.306   0.054
 1360SOL    HW2 4980   3.614   3.419   0.097
 1361SOL     OW 4981   0.186   4.583   5.212
 1361SOL    HW1 4982   0.116   4.582   5.283
 1361SOL    HW2 4983   0.169   4.508   5.148
 1362SOL     OW 4984   3.829   3.609   2.601
 1362SOL    HW1 4985   3.886   3.544   2.651
 1362SOL    HW2 4986   3.873   3.632   2.514
 1363SOL     OW 4987   0.118   4.750   4.505
 1363SOL    HW1 4988   0.078   4.822   4.561
 1363SOL    HW2 4989   0.204   4.781   4.466
 1364SOL     OW 4990   4.425   4.297   0.038
 1364SOL    HW1 4991   4.476   4.360   6.994
 1364SOL    HW2 4992   4.446   4.203   0.013
 1365SOL     OW 4993   0.415   4.452   6.682
 1365SOL    HW1 4994   0.497   4.448   6.740
 1365SOL    HW2 4995   0.443   4.459   6.586
 1366SOL     OW 4996   1.953   6.643   5.821
 1366SOL    HW1 4997   2.020   6.657   5.893
 1366SOL    HW2 4998   1.998   6.651   5.732
 1367SOL     OW 4999   1.785   1.488   2.341
 1367SOL    HW1 5000   1.770   1.547   2.420
 1367SOL    HW2 5001   1.867   1.518   2.291
 1368SOL     OW 5002   5.779   6.768   4.790
 1368SOL    HW1 5003   5.782   6.731   4.697
 1368SOL    HW2 5004   5.714   6.714   4.845
 1369SOL     OW 5005   1.524   6.283   3.011
 1369SOL    HW1 5006   1.528   6.302   2.913
 1369SOL    HW2 5007   1.562   6.360   3.062
 1370SOL     OW 5008   3.544   1.086   1.713
 1370SOL    HW1 5009   3.616   1.044   1.770
 1370SOL    HW2 5010   3.561   1.063   1.617
 1371SOL     OW 5011   4.400   1.405   4.675
 1371SOL    HW1 5012   4.373   1.425   4.581
 1371SOL    HW2 5013   4.466   1.473   4.707
 1372SOL     OW 5014   1.953   2.611   1.087
 1372SOL    HW1 5015   2.039   2.560   1.087
 1372SOL    HW2 5016   1.888   2.566   1.026
 1373SOL     OW 5017   0.012   4.865   0.594
 1373SOL    HW1 5018   0.053   4.812   0.668
 1373SOL    HW2 5019   0.033   4.962   0.606
 1374SOL     OW 5020   4.356   2.194   0.970
 1374SOL    HW1 5021   4.293   2.138   0.917
 1374SOL    HW2 5022   4.326   2.290   0.966
 1375SOL     OW 5023   0.160   4.979   5.410
 1375SOL    HW1 5024   0.252   5.013   5.389
 1375SOL    HW2 5025   0.105   4.978   5.327
 1376SOL     OW 5026   4.514   2.535   3.924
 1376SOL    HW1 5027   4.446   2.496   3.986
 1376SOL    HW2 5028   4.485   2.520   3.829
 1377SOL     OW 5029   0.639   4.541   5.218
 1377SOL    HW1 5030   0.672   4.564   5.309
 1377SOL    HW2 5031   0.715   4.507   5.163
 1378SOL     OW 5032   1.322   2.475   6.068
 1378SOL    HW1 5033   1.399   2.444   6.125
 1378SOL    HW2 5034   1.247   2.409   6.074
 1379SOL     OW 5035   3.303   6.038   3.300
 1379SOL    HW1 5036   3.270   6.063   3.209
 1379SOL    HW2 5037   3.226   6.012   3.358
 1380SOL     OW 5038   6.333   6.864   2.091
 1380SOL    HW1 5039   6.426   6.867   2.055
 1380SOL    HW2 5040   6.269   6.890   2.020
 1381SOL     OW 5041   5.854   3.256   0.304
 1381SOL    HW1 5042   5.775   3.308   0.336
 1381SOL    HW2 5043   5.892   3.202   0.379
 1382SOL     OW 5044   6.120   5.458   5.998
 1382SOL    HW1 5045   6.135   5.459   5.899
 1382SOL    HW2 5046   6.197   5.412   6.043
 1383SOL     OW 5047   0.149   0.653   0.095
 1383SOL    HW1 5048   0.213   0.711   0.146
 1383SOL    HW2 5049   0.184   0.559   0.094
 1384SOL     OW 5050   3.541   1.185   3.208
 1384SOL    HW1 5051   3.508   1.171   3.115
 1384SOL    HW2 5052   3.615   1.252   3.208
 1385SOL     OW 5053   6.359   2.969   3.050
 1385SOL    HW1 5054   6.309   3.009   2.973
 1385SOL    HW2 5055   6.300   2.966   3.130
 1386SOL     OW 5056   2.118   3.148   4.374
 1386SOL    HW1 5057   2.063   3.098   4.307
 1386SOL    HW2 5058   2.178   3.084   4.422
 1387SOL     OW 5059   3.522   0.469   4.925
 1387SOL    HW1 5060   3.584   0.505   4.855
 1387SOL    HW2 5061   3.555   0.497   5.015
 1388SOL     OW 5062   6.750   0.814   4.330
 1388SOL    HW1 5063   6.704   0.790   4.416
 1388SOL    HW2 5064   6.700   0.772   4.254
 1389SOL     OW 5065   6.030   0.001   4.123
 1389SOL    HW1 5066   5.979   0.020   4.039
 1389SOL    HW2 5067   6.037   0.084   4.178
 1390SOL     OW 5068   4.655   1.761   1.489
 1390SOL    HW1 5069   4.559   1.736   1.498
 1390SOL    HW2 5070   4.694   1.774   1.580
 1391SOL     OW 5071   6.640   0.478   4.689
 1391SOL    HW1 5072   6.719   0.417   4.703
 1391SOL    HW2 5073   6.572   0.460   4.760
 1392SOL     OW 5074   4.283   5.875   6.348
 1392SOL    HW1 5075   4.357   5.845   6.288
 1392SOL    HW2 5076   4.302   5.967   6.382
 1393SOL     OW 5077   6.636   1.637   6.452
 1393SOL    HW1 5078   6.668   1.732   6.452
 1393SOL    HW2 5079   6.714   1.576   6.467
 1394SOL     OW 5080   4.029   6.760   3.381
 1394SOL    HW1 5081   4.126   6.743   3.395
 1394SOL    HW2 5082   4.013   6.858   3.368
 1395SOL     OW 5083   1.339   5.130   2.877
 1395SOL    HW1 5084   1.361   5.165   2.968
 1395SOL    HW2 5085   1.263   5.065   2.884
 1396SOL     OW 5086   2.189   1.071   4.686
 1396SOL    HW1 5087   2.157   1.166   4.677
 1396SOL    HW2 5088   2.272   1.059   4.633
 1397SOL     OW 5089   0.453   4.916   4.610
 1397SOL    HW1 5090   0.431   4.890   4.704
 1397SOL    HW2 5091   0.389   4.986   4.579
 1398SOL     OW 5092   0.893   1.575   0.692
 1398SOL    HW1 5093   0.826   1.616   0.754
 1398SOL    HW2 5094   0.980   1.565   0.738
 1399SOL     OW 5095   3.667   0.337   0.742
 1399SOL    HW1 5096   3.583   0.388   0.760
 1399SOL    HW2 5097   3.731   0.396   0.692
 1400SOL     OW 5098   6.218   0.790   4.342
 1400SOL    HW1 5099   6.119   0.792   4.353
 1400SOL    HW2 5100   6.257   0.725   4.408
 1401SOL     OW 5101   5.260   0.686   3.435
 1401SOL    HW1 5102   5.285   0.684   3.338
 1401SOL    HW2 5103   5.165   0.658   3.446
 1402SOL     OW 5104   5.852   3.576   1.513
 1402SOL    HW1 5105   5.811   3.661   1.546
 1402SOL    HW2 5106   5.918   3.597   1.440
 1403SOL     OW 5107   3.463   2.898   6.930
 1403SOL    HW1 5108   3.514   2.979   6.961
 1403SOL    HW2 5109   3.527   2.823   6.913
 1404SOL     OW 5110   4.316   7.008   1.012
 1404SOL    HW1 5111   4.399   7.007   0.955
 1404SOL    HW2 5112   4.278   0.085   1.015
 1405SOL     OW 5113   2.205   3.290   1.172
 1405SOL    HW1 5114   2.155   3.204   1.158
 1405SOL    HW2 5115   2.302   3.270   1.187
 1406SOL     OW 5116   2.659   3.013   0.809
 1406SOL    HW1 5117   2.640   2.921   0.776
 1406SOL    HW2 5118   2.639   3.019   0.907
 1407SOL     OW 5119   0.612   3.039   1.454
 1407SOL    HW1 5120   0.710   3.051   1.435
 1407SOL    HW2 5121   0.572   3.129   1.473
 1408SOL     OW 5122   5.637   5.857   6.648
 1408SOL    HW1 5123   5.609   5.842   6.554
 1408SOL    HW2 5124   5.634   5.955   6.669
 1409SOL     OW 5125   6.754   0.926   5.881
 1409SOL    HW1 5126   6.793   0.893   5.795
 1409SOL    HW2 5127   6.790   1.017   5.901
 1410SOL     OW 5128   2.949   2.717   5.604
 1410SOL    HW1 5129   2.964   2.624   5.569
 1410SOL    HW2 5130   2.872   2.716   5.668
 1411SOL     OW 5131   3.954   5.746   6.978
 1411SOL    HW1 5132   4.034   5.801   7.004
 1411SOL    HW2 5133   3.882   5.757   0.031
 1412SOL     OW 5134   1.719   2.428   0.600
 1412SOL    HW1 5135   1.755   2.350   0.651
 1412SOL    HW2 5136   1.669   2.394   0.520
 1413SOL     OW 5137   1.655   1.578   5.329
 1413SOL    HW1 5138   1.670   1.612   5.422
 1413SOL    HW2 5139   1.695   1.487   5.319
 1414SOL     OW 5140   0.983   3.393   2.086
 1414SOL    HW1 5141   0.907   3.386   2.152
 1414SOL    HW2 5142   1.044   3.315   2.098
 1415SOL     OW 5143   2.702   2.000   3.627
 1415SOL    HW1 5144   2.732   1.911   3.662
 1415SOL    HW2 5145   2.607   2.015   3.652
 1416SOL     OW 5146   4.147   0.051   6.044
 1416SOL    HW1 5147   4.164   0.116   5.970
 1416SOL    HW2 5148   4.053   0.017   6.037
 1417SOL     OW 5149   3.602   2.844   6.362
 1417SOL    HW1 5150   3.550   2.890   6.290
 1417SOL    HW2 5151   3.585   2.745   6.358
 1418SOL     OW 5152   3.580   3.600   0.150
 1418SOL    HW1 5153   3.524   3.654   0.087
 1418SOL    HW2 5154   3.525   3.574   0.230
 1419SOL     OW 5155   1.916   5.038   3.470
 1419SOL    HW1 5156   1.979   4.975   3.515
 1419SOL    HW2 5157   1.823   5.003   3.479
 1420SOL     OW 5158   3.488   5.427   3.160
 1420SOL    HW1 5159   3.510   5.360   3.089
 1420SOL    HW2 5160   3.401   5.472   3.138
 1421SOL     OW 5161   1.089   5.617   6.008
 1421SOL    HW1 5162   0.994   5.592   5.990
 1421SOL    HW2 5163   1.150   5.546   5.973
 1422SOL     OW 5164   2.758   3.362   5.823
 1422SOL    HW1 5165   2.750   3.270   5.786
 1422SOL    HW2 5166   2.737   3.429   5.752
 1423SOL     OW 5167   4.643   0.929   4.553
 1423SOL    HW1 5168   4.646   0.848   4.612
 1423SOL    HW2 5169   4.647   1.011   4.610
 1424SOL     OW 5170   5.528   3.287   6.469
 1424SOL    HW1 5171   5.560   3.231   6.393
 1424SOL    HW2 5172   5.499   3.228   6.544
 1425SOL     OW 5173   3.950   6.613   3.922
 1425SOL    HW1 5174   3.959   6.516   3.947
 1425SOL    HW2 5175   3.965   6.624   3.824
 1426SOL     OW 5176   2.722   1.952   6.891
 1426SOL    HW1 5177   2.700   1.979   6.985
 1426SOL    HW2 5178   2.818   1.927   6.885
 1427SOL     OW 5179   1.036   1.263   2.956
 1427SOL    HW1 5180   1.071   1.348   2.914
 1427SOL    HW2 5181   1.107   1.193   2.953
 1428SOL     OW 5182   6.696   3.472   3.990
 1428SOL    HW1 5183   6.788   3.445   4.019
 1428SOL    HW2 5184   6.700   3.560   3.943
 1429SOL     OW 5185   6.188   1.457   0.453
 1429SOL    HW1 5186   6.191   1.476   0.355
 1429SOL    HW2 5187   6.278   1.476   0.493
 1430SOL     OW 5188   2.106   3.203   3.340
 1430SOL    HW1 5189   2.146   3.162   3.258
 1430SOL    HW2 5190   2.147   3.161   3.422
 1431SOL     OW 5191   2.420   1.536   6.296
 1431SOL    HW1 5192   2.508   1.565   6.260
 1431SOL    HW2 5193   2.357   1.614   6.299
 1432SOL     OW 5194   2.879   1.264   1.441
 1432SOL    HW1 5195   2.970   1.236   1.410
 1432SOL    HW2 5196   2.888   1.318   1.525
 1433SOL     OW 5197   2.963   0.400   4.386
 1433SOL    HW1 5198   2.897   0.377   4.314
 1433SOL    HW2 5199   2.968   0.324   4.451
 1434SOL     OW 5200   6.789   3.217   0.033
 1434SOL    HW1 5201   6.691   3.208   0.015
 1434SOL    HW2 5202   6.817   3.313   0.019
 1435SOL     OW 5203   0.666   0.226   5.158
 1435SOL    HW1 5204   0.567   0.221   5.174
 1435SOL    HW2 5205   0.684   0.214   5.060
 1436SOL     OW 5206   5.658   1.939   0.849
 1436SOL    HW1 5207   5.710   1.891   0.779
 1436SOL    HW2 5208   5.595   2.004   0.806
 1437SOL     OW 5209   4.129   1.352   6.282
 1437SOL    HW1 5210   4.056   1.305   6.332
 1437SOL    HW2 5211   4.151   1.301   6.199
 1438SOL     OW 5212   2.652   0.944   1.567
 1438SOL    HW1 5213   2.668   0.889   1.649
 1438SOL    HW2 5214   2.558   0.978   1.568
 1439SOL     OW 5215   6.706   5.175   6.967
 1439SOL    HW1 5216   6.793   5.199   6.925
 1439SOL    HW2 5217   6.652   5.120   6.902
 1440SOL     OW 5218   3.141   3.381   3.556
 1440SOL    HW1 5219   3.142   3.481   3.561
 1440SOL    HW2 5220   3.171   3.352   3.465
 1441SOL     OW 5221   0.336   2.595   4.092
 1441SOL    HW1 5222   0.261   2.633   4.037
 1441SOL    HW2 5223   0.361   2.660   4.164
 1442SOL     OW 5224   4.720   4.124   0.197
 1442SOL    HW1 5225   4.812   4.103   0.163
 1442SOL    HW2 5226   4.703   4.222   0.185
 1443SOL     OW 5227   1.026   1.666   3.506
 1443SOL    HW1 5228   0.964   1.647   3.431
 1443SOL    HW2 5229   1.022   1.763   3.530
 1444SOL     OW 5230   4.356   0.856   3.689
 1444SOL    HW1 5231   4.438   0.822   3.734
 1444SOL    HW2 5232   4.360   0.956   3.684
 1445SOL     OW 5233   6.578   2.347   1.951
 1445SOL    HW1 5234   6.646   2.403   1.998
 1445SOL    HW2 5235   6.618   2.258   1.928
 1446SOL     OW 5236   4.023   2.072   1.611
 1446SOL    HW1 5237   3.990   2.155   1.655
 1446SOL    HW2 5238   3.998   2.073   1.514
 1447SOL     OW 5239   6.395   1.349   4.668
 1447SOL    HW1 5240   6.342   1.346   4.753
 1447SOL    HW2 5241   6.486   1.310   4.685
 1448SOL     OW 5242   5.324   1.073   6.359
 1448SOL    HW1 5243   5.375   1.091   6.275
 1448SOL    HW2 5244   5.236   1.122   6.355
 1449SOL     OW 5245   5.234   5.520   1.061
 1449SOL    HW1 5246   5.197   5.587   1.125
 1449SOL    HW2 5247   5.302   5.463   1.107
 1450SOL     OW 5248   5.586   2.960   3.044
 1450SOL    HW1 5249   5.606   2.983   2.949
 1450SOL    HW2 5250   5.575   2.861   3.052
 1451SOL     OW 5251   1.376   6.405   2.771
 1451SOL    HW1 5252   1.307   6.351   2.820
 1451SOL    HW2 5253   1.333   6.449   2.692
 1452SOL     OW 5254   4.917   0.627   5.423
 1452SOL    HW1 5255   4.870   0.653   5.507
 1452SOL    HW2 5256   4.876   0.674   5.345
 1453SOL     OW 5257   5.154   4.141   4.941
 1453SOL    HW1 5258   5.182   4.122   5.035
 1453SOL    HW2 5259   5.235   4.154   4.884
 1454SOL     OW 5260   4.980   3.031   1.953
 1454SOL    HW1 5261   5.010   2.952   1.900
 1454SOL    HW2 5262   4.886   3.017   1.984
 1455SOL     OW 5263   1.303   1.241   1.764
 1455SOL    HW1 5264   1.299   1.150   1.722
 1455SOL    HW2 5265   1.367   1.238   1.841
 1456SOL     OW 5266   6.834   6.593   4.428
 1456SOL    HW1 5267   6.896   6.630   4.497
 1456SOL    HW2 5268   6.886   6.572   4.345
 1457SOL     OW 5269   1.862   0.173   3.795
 1457SOL    HW1 5270   1.955   0.207   3.788
 1457SOL    HW2 5271   1.859   0.076   3.771
 1458SOL     OW 5272   5.647   6.167   6.282
 1458SOL    HW1 5273   5.680   6.081   6.322
 1458SOL    HW2 5274   5.686   6.178   6.191
 1459SOL     OW 5275   3.291   6.064   6.886
 1459SOL    HW1 5276   3.221   6.040   6.819
 1459SOL    HW2 5277   3.328   5.981   6.927
 1460SOL     OW 5278   1.537   0.154   0.002
 1460SOL    HW1 5279   1.624   0.108   0.019
 1460SOL    HW2 5280   1.470   0.125   0.070
 1461SOL     OW 5281   5.530   4.550   2.298
 1461SOL    HW1 5282   5.547   4.583   2.391
 1461SOL    HW2 5283   5.606   4.492   2.269
 1462SOL     OW 5284   6.031   0.549   0.356
 1462SOL    HW1 5285   5.943   0.506   0.338
 1462SOL    HW2 5286   6.036   0.638   0.310
 1463SOL     OW 5287   1.122   0.699   5.243
 1463SOL    HW1 5288   1.170   0.752   5.313
 1463SOL    HW2 5289   1.147   0.734   5.152
 1464SOL     OW 5290   0.001   6.469   0.796
 1464SOL    HW1 5291   0.018   6.500   0.703
 1464SOL    HW2 5292   0.053   6.527   0.860
 1465SOL     OW 5293   0.440   0.081   4.870
 1465SOL    HW1 5294   0.530   0.097   4.828
 1465SOL    HW2 5295   0.369   0.116   4.810
 1466SOL     OW 5296   5.855   5.308   3.435
 1466SOL    HW1 5297   5.863   5.305   3.535
 1466SOL    HW2 5298   5.933   5.261   3.394
 1467SOL     OW 5299   0.925   1.251   3.934
 1467SOL    HW1 5300   0.941   1.349   3.943
 1467SOL    HW2 5301   0.828   1.232   3.950
 1468SOL     OW 5302   5.122   5.893   3.665
 1468SOL    HW1 5303   5.196   5.831   3.689
 1468SOL    HW2 5304   5.103   5.886   3.568
 1469SOL     OW 5305   0.905   1.040   2.338
 1469SOL    HW1 5306   0.879   1.113   2.401
 1469SOL    HW2 5307   0.849   0.959   2.356
 1470SOL     OW 5308   1.224   1.082   2.847
 1470SOL    HW1 5309   1.277   1.124   2.773
 1470SOL    HW2 5310   1.284   1.059   2.923
 1471SOL     OW 5311   0.235   0.117   6.855
 1471SOL    HW1 5312   0.265   0.059   6.780
 1471SOL    HW2 5313   0.244   0.213   6.828
 1472SOL     OW 5314   4.971   0.463   6.008
 1472SOL    HW1 5315   4.894   0.527   6.002
 1472SOL    HW2 5316   5.057   0.514   6.010
 1473SOL     OW 5317   6.267   4.713   2.788
 1473SOL    HW1 5318   6.288   4.668   2.874
 1473SOL    HW2 5319   6.255   4.644   2.716
 1474SOL     OW 5320   5.824   5.543   4.347
 1474SOL    HW1 5321   5.795   5.502   4.433
 1474SOL    HW2 5322   5.753   5.528   4.278
 1475SOL     OW 5323   6.771   0.845   2.112
 1475SOL    HW1 5324   6.690   0.798   2.147
 1475SOL    HW2 5325   6.771   0.843   2.012
 1476SOL     OW 5326   0.867   1.897   2.242
 1476SOL    HW1 5327   0.786   1.865   2.291
 1476SOL    HW2 5328   0.855   1.994   2.218
 1477SOL     OW 5329   2.656   6.629   5.204
 1477SOL    HW1 5330   2.745   6.597   5.173
 1477SOL    HW2 5331   2.659   6.727   5.219
 1478SOL     OW 5332   5.886   4.817   0.979
 1478SOL    HW1 5333   5.889   4.822   1.079
 1478SOL    HW2 5334   5.852   4.727   0.952
 1479SOL     OW 5335   1.861   4.494   0.128
 1479SOL    HW1 5336   1.862   4.427   0.202
 1479SOL    HW2 5337   1.840   4.584   0.167
 1480SOL     OW 5338   2.553   1.693   0.414
 1480SOL    HW1 5339   2.510   1.619   0.362
 1480SOL    HW2 5340   2.556   1.669   0.511
 1481SOL     OW 5341   5.798   2.413   6.013
 1481SOL    HW1 5342   5.812   2.317   6.039
 1481SOL    HW2 5343   5.776   2.418   5.916
 1482SOL     OW 5344   5.695   0.848   0.114
 1482SOL    HW1 5345   5.638   0.766   0.104
 1482SOL    HW2 5346   5.652   0.925   0.066
 1483SOL     OW 5347   6.228   2.369   0.415
 1483SOL    HW1 5348   6.252   2.373   0.512
 1483SOL    HW2 5349   6.195   2.458   0.385
 1484SOL     OW 5350   6.858   5.346   2.615
 1484SOL    HW1 5351   6.836   5.296   2.531
 1484SOL    HW2 5352   6.915   5.288   2.674
 1485SOL     OW 5353   5.361   2.556   3.879
 1485SOL    HW1 5354   5.264   2.532   3.877
 1485SOL    HW2 5355   5.371   2.655   3.894
 1486SOL     OW 5356   4.830   2.186   2.763
 1486SOL    HW1 5357   4.736   2.216   2.745
 1486SOL    HW2 5358   4.831   2.089   2.784
 1487SOL     OW 5359   5.955   1.451   5.640
 1487SOL    HW1 5360   5.891   1.505   5.585
 1487SOL    HW2 5361   5.912   1.429   5.728
 1488SOL     OW 5362   4.239   1.271   3.265
 1488SOL    HW1 5363   4.151   1.256   3.219
 1488SOL    HW2 5364   4.280   1.183   3.289
 1489SOL     OW 5365   3.545   5.022   5.133
 1489SOL    HW1 5366   3.522   4.932   5.169
 1489SOL    HW2 5367   3.462   5.066   5.098
 1490SOL     OW 5368   1.314   2.468   0.431
 1490SOL    HW1 5369   1.224   2.451   0.390
 1490SOL    HW2 5370   1.312   2.556   0.479
 1491SOL     OW 5371   0.063   3.231   3.758
 1491SOL    HW1 5372   0.002   3.270   3.689
 1491SOL    HW2 5373   0.010   3.175   3.822
 1492SOL     OW 5374   5.162   1.643   1.528
 1492SOL    HW1 5375   5.168   1.742   1.515
 1492SOL    HW2 5376   5.092   1.622   1.596
 1493SOL     OW 5377   4.674   0.231   5.159
 1493SOL    HW1 5378   4.688   0.136   5.186
 1493SOL    HW2 5379   4.581   0.242   5.124
 1494SOL     OW 5380   4.115   2.487   5.743
 1494SOL    HW1 5381   4.092   2.399   5.785
 1494SOL    HW2 5382   4.031   2.539   5.730
 1495SOL     OW 5383   0.925   3.116   2.764
 1495SOL    HW1 5384   0.900   3.038   2.821
 1495SOL    HW2 5385   1.011   3.155   2.795
 1496SOL     OW 5386   0.005   0.223   2.157
 1496SOL    HW1 5387   0.069   0.295   2.183
 1496SOL    HW2 5388   6.971   0.191   2.238
 1497SOL     OW 5389   6.229   4.979   4.320
 1497SOL    HW1 5390   6.216   5.078   4.331
 1497SOL    HW2 5391   6.257   4.959   4.226
 1498SOL     OW 5392   1.796   4.645   6.615
 1498SOL    HW1 5393   1.710   4.695   6.623
 1498SOL    HW2 5394   1.779   4.554   6.577
 1499SOL     OW 5395   1.162   4.199   5.139
 1499SOL    HW1 5396   1.169   4.168   5.234
 1499SOL    HW2 5397   1.073   4.171   5.102
 1500SOL     OW 5398   5.106   6.689   0.204
 1500SOL    HW1 5399   5.166   6.628   0.256
 1500SOL    HW2 5400   5.059   6.751   0.266
 1501SOL     OW 5401   4.119   0.398   6.452
 1501SOL    HW1 5402   4.075   0.371   6.538
 1501SOL    HW2 5403   4.218   0.392   6.461
 1502SOL     OW 5404   6.247   6.659   0.122
 1502SOL    HW1 5405   6.272   6.563   0.114
 1502SOL    HW2 5406   6.328   6.716   0.105
 1503SOL     OW 5407   3.222   3.087   6.992
 1503SOL    HW1 5408   3.134   3.099   0.023
 1503SOL    HW2 5409   3.264   3.001   0.006
 1504SOL     OW 5410   3.578   6.737   4.832
 1504SOL    HW1 5411   3.636   6.728   4.751
 1504SOL    HW2 5412   3.494   6.685   4.818
 1505SOL     OW 5413   5.511   6.438   5.740
 1505SOL    HW1 5414   5.458   6.398   5.815
 1505SOL    HW2 5415   5.467   6.523   5.711
 1506SOL     OW 5416   0.838   5.738   4.119
 1506SOL    HW1 5417   0.767   5.677   4.082
 1506SOL    HW2 5418   0.923   5.725   4.067
 1507SOL     OW 5419   1.458   1.254   5.385
 1507SOL    HW1 5420   1.554   1.228   5.371
 1507SOL    HW2 5421   1.416   1.273   5.296
 1508SOL     OW 5422   4.302   7.001   0.503
 1508SOL    HW1 5423   4.265   0.077   0.515
 1508SOL    HW2 5424   4.227   6.935   0.500
 1509SOL     OW 5425   4.562   3.020   6.913
 1509SOL    HW1 5426   4.515   3.011   7.001
 1509SOL    HW2 5427   4.595   3.114   6.902
 1510SOL     OW 5428   0.141   1.903   4.238
 1510SOL    HW1 5429   0.174   1.858   4.155
 1510SOL    HW2 5430   0.144   2.002   4.225
 1511SOL     OW 5431   2.622   2.127   0.417
 1511SOL    HW1 5432   2.613   2.227   0.416
 1511SOL    HW2 5433   2.652   2.098   0.508
 1512SOL     OW 5434   0.206   0.821   1.625
 1512SOL    HW1 5435   0.268   0.863   1.691
 1512SOL    HW2 5436   0.257   0.755   1.570
 1513SOL     OW 5437   3.631   6.998   4.072
 1513SOL    HW1 5438   3.554   0.045   4.066
 1513SOL    HW2 5439   3.657   6.968   3.980
 1514SOL     OW 5440   5.729   1.589   4.810
 1514SOL    HW1 5441   5.784   1.621   4.733
 1514SOL    HW2 5442   5.637   1.628   4.803
 1515SOL     OW 5443   0.461   4.349   5.196
 1515SOL    HW1 5444   0.391   4.363   5.126
 1515SOL    HW2 5445   0.531   4.420   5.188
 1516SOL     OW 5446   0.303   1.312   0.536
 1516SOL    HW1 5447   0.354   1.249   0.594
 1516SOL    HW2 5448   0.205   1.290   0.541
 1517SOL     OW 5449   4.807   5.999   3.492
 1517SOL    HW1 5450   4.880   5.965   3.432
 1517SOL    HW2 5451   4.728   6.025   3.437
 1518SOL     OW 5452   6.725   3.920   1.060
 1518SOL    HW1 5453   6.808   3.929   1.115
 1518SOL    HW2 5454   6.747   3.873   0.975
 1519SOL     OW 5455   5.889   4.330   1.005
 1519SOL    HW1 5456   5.842   4.417   0.988
 1519SOL    HW2 5457   5.957   4.343   1.077
 1520SOL     OW 5458   2.132   3.654   2.682
 1520SOL    HW1 5459   2.139   3.557   2.702
 1520SOL    HW2 5460   2.046   3.690   2.718
 1521SOL     OW 5461   1.887   3.107   6.583
 1521SOL    HW1 5462   1.816   3.038   6.592
 1521SOL    HW2 5463   1.876   3.176   6.654
 1522SOL     OW 5464   5.578   1.941   6.503
 1522SOL    HW1 5465   5.507   1.881   6.466
 1522SOL    HW2 5466   5.562   1.955   6.601
 1523SOL     OW 5467   6.247   2.838   1.149
 1523SOL    HW1 5468   6.310   2.769   1.186
 1523SOL    HW2 5469   6.156   2.824   1.187
 1524SOL     OW 5470   0.501   0.982   1.457
 1524SOL    HW1 5471   0.441   0.952   1.383
 1524SOL    HW2 5472   0.451   1.044   1.518
 1525SOL     OW 5473   3.907   1.896   5.972
 1525SOL    HW1 5474   3.976   1.904   5.900
 1525SOL    HW2 5475   3.914   1.975   6.033
 1526SOL     OW 5476   0.177   2.110   1.731
 1526SOL    HW1 5477   0.197   2.146   1.822
 1526SOL    HW2 5478   0.210   2.015   1.725
 1527SOL     OW 5479   3.588   2.037   5.226
 1527SOL    HW1 5480   3.567   2.134   5.237
 1527SOL    HW2 5481   3.598   2.016   5.129
 1528SOL     OW 5482   4.326   6.930   3.446
 1528SOL    HW1 5483   4.366   6.947   3.536
 1528SOL    HW2 5484   4.285   7.015   3.411
 1529SOL     OW 5485   3.828   0.306   6.281
 1529SOL    HW1 5486   3.815   0.300   6.182
 1529SOL    HW2 5487   3.854   0.399   6.306
 1530SOL     OW 5488   2.833   6.597   2.231
 1530SOL    HW1 5489   2.844   6.565   2.325
 1530SOL    HW2 5490   2.916   6.575   2.179
 1531SOL     OW 5491   6.697   6.990   4.009
 1531SOL    HW1 5492   6.647   0.033   4.074
 1531SOL    HW2 5493   6.784   6.962   4.049
 1532SOL     OW 5494   3.382   2.305   5.362
 1532SOL    HW1 5495   3.323   2.349   5.294
 1532SOL    HW2 5496   3.473   2.346   5.360
 1533SOL     OW 5497   6.140   3.545   6.926
 1533SOL    HW1 5498   6.058   3.571   6.877
 1533SOL    HW2 5499   6.135   3.449   6.953
 1534SOL     OW 5500   0.864   6.118   0.774
 1534SOL    HW1 5501   0.934   6.096   0.706
 1534SOL    HW2 5502   0.818   6.203   0.747
 1535SOL     OW 5503   5.086   4.135   4.096
 1535SOL    HW1 5504   5.025   4.112   4.020
 1535SOL    HW2 5505   5.108   4.052   4.147
 1536SOL     OW 5506   2.428   5.870   4.680
 1536SOL    HW1 5507   2.373   5.821   4.748
 1536SOL    HW2 5508   2.518   5.826   4.672
 1537SOL     OW 5509   1.848   5.306   4.803
 1537SOL    HW1 5510   1.831   5.385   4.744
 1537SOL    HW2 5511   1.884   5.337   4.891
 1538SOL     OW 5512   2.474   4.893   0.200
 1538SOL    HW1 5513   2.565   4.930   0.221
 1538SOL    HW2 5514   2.476   4.793   0.210
 1539SOL     OW 5515   3.702   4.776   1.613
 1539SOL    HW1 5516   3.794   4.802   1.643
 1539SOL    HW2 5517   3.657   4.726   1.687
 1540SOL     OW 5518   0.867   0.326   5.298
 1540SOL    HW1 5519   0.779   0.304   5.257
 1540SOL    HW2 5520   0.875   0.425   5.309
 1541SOL     OW 5521   4.741   2.960   1.067
 1541SOL    HW1 5522   4.719   3.053   1.036
 1541SOL    HW2 5523   4.714   2.949   1.162
 1542SOL     OW 5524   0.346   6.077   1.572
 1542SOL    HW1 5525   0.437   6.084   1.613
 1542SOL    HW2 5526   0.277   6.071   1.644
 1543SOL     OW 5527   3.682   3.632   3.882
 1543SOL    HW1 5528   3.657   3.729   3.880
 1543SOL    HW2 5529   3.770   3.619   3.836
 1544SOL     OW 5530   3.455   4.177   2.384
 1544SOL    HW1 5531   3.535   4.167   2.326
 1544SOL    HW2 5532   3.480   4.157   2.479
 1545SOL     OW 5533   6.324   0.648   4.539
 1545SOL    HW1 5534   6.416   0.686   4.524
 1545SOL    HW2 5535   6.323   0.598   4.626
 1546SOL     OW 5536   6.443   6.049   5.870
 1546SOL    HW1 5537   6.538   6.078   5.855
 1546SOL    HW2 5538   6.390   6.066   5.788
 1547SOL     OW 5539   3.027   5.242   3.084
 1547SOL    HW1 5540   3.037   5.312   3.154
 1547SOL    HW2 5541   3.050   5.280   2.994
 1548SOL     OW 5542   4.645   4.300   5.062
 1548SOL    HW1 5543   4.643   4.392   5.023
 1548SOL    HW2 5544   4.582   4.241   5.012
 1549SOL     OW 5545   6.416   2.679   1.288
 1549SOL    HW1 5546   6.469   2.756   1.326
 1549SOL    HW2 5547   6.459   2.593   1.315
 1550SOL     OW 5548   1.799   6.241   4.723
 1550SOL    HW1 5549   1.884   6.197   4.751
 1550SOL    HW2 5550   1.728   6.222   4.791
 1551SOL     OW 5551   1.583   3.281   0.742
 1551SOL    HW1 5552   1.663   3.276   0.682
 1551SOL    HW2 5553   1.610   3.258   0.835
 1552SOL     OW 5554   1.198   0.814   1.132
 1552SOL    HW1 5555   1.168   0.809   1.036
 1552SOL    HW2 5556   1.202   0.721   1.169
 1553SOL     OW 5557   5.688   1.830   6.940
 1553SOL    HW1 5558   5.691   1.754   6.875
 1553SOL    HW2 5559   5.772   1.831   6.994
 1554SOL     OW 5560   4.550   1.746   2.386
 1554SOL    HW1 5561   4.588   1.829   2.345
 1554SOL    HW2 5562   4.480   1.771   2.453
 1555SOL     OW 5563   4.038   1.464   5.158
 1555SOL    HW1 5564   4.109   1.535   5.160
 1555SOL    HW2 5565   3.994   1.458   5.248
 1556SOL     OW 5566   3.977   0.323   0.782
 1556SOL    HW1 5567   3.964   0.269   0.865
 1556SOL    HW2 5568   4.043   0.396   0.800
 1557SOL     OW 5569   1.844   1.930   1.344
 1557SOL    HW1 5570   1.886   2.006   1.295
 1557SOL    HW2 5571   1.783   1.965   1.415
 1558SOL     OW 5572   6.196   3.313   5.273
 1558SOL    HW1 5573   6.200   3.246   5.199
 1558SOL    HW2 5574   6.147   3.395   5.242
 1559SOL     OW 5575   1.448   4.080   2.866
 1559SOL    HW1 5576   1.440   3.990   2.907
 1559SOL    HW2 5577   1.437   4.073   2.767
 1560SOL     OW 5578   3.866   1.473   0.995
 1560SOL    HW1 5579   3.950   1.419   1.003
 1560SOL    HW2 5580   3.821   1.480   1.084
 1561SOL     OW 5581   5.203   6.392   2.034
 1561SOL    HW1 5582   5.250   6.475   2.064
 1561SOL    HW2 5583   5.126   6.374   2.095
 1562SOL     OW 5584   3.170   0.089   1.917
 1562SOL    HW1 5585   3.092   0.131   1.964
 1562SOL    HW2 5586   3.137   0.016   1.856
 1563SOL     OW 5587   3.409   2.053   4.563
 1563SOL    HW1 5588   3.504   2.083   4.576
 1563SOL    HW2 5589   3.370   2.101   4.485
 1564SOL     OW 5590   0.850   2.157   2.228
 1564SOL    HW1 5591   0.947   2.170   2.205
 1564SOL    HW2 5592   0.794   2.185   2.150
 1565SOL     OW 5593   3.654   0.109   3.552
 1565SOL    HW1 5594   3.613   0.083   3.640
 1565SOL    HW2 5595   3.661   0.208   3.547
 1566SOL     OW 5596   4.628   4.309   3.111
 1566SOL    HW1 5597   4.703   4.298   3.177
 1566SOL    HW2 5598   4.621   4.228   3.054
 1567SOL     OW 5599   5.164   5.571   5.377
 1567SOL    HW1 5600   5.092   5.505   5.400
 1567SOL    HW2 5601   5.219   5.536   5.302
 1568SOL     OW 5602   1.924   6.530   2.714
 1568SOL    HW1 5603   1.992   6.523   2.787
 1568SOL    HW2 5604   1.875   6.616   2.722
 1569SOL     OW 5605   2.642   0.081   3.030
 1569SOL    HW1 5606   2.693   0.144   3.088
 1569SOL    HW2 5607   2.628   7.010   3.079
 1570SOL     OW 5608   3.311   0.174   0.234
 1570SOL    HW1 5609   3.381   0.222   0.289
 1570SOL    HW2 5610   3.301   0.220   0.146
 1571SOL     OW 5611   1.351   2.834   3.749
 1571SOL    HW1 5612   1.279   2.829   3.818
 1571SOL    HW2 5613   1.407   2.752   3.754
 1572SOL     OW 5614   1.638   5.267   1.560
 1572SOL    HW1 5615   1.656   5.351   1.611
 1572SOL    HW2 5616   1.557   5.222   1.597
 1573SOL     OW 5617   4.388   4.942   1.449
 1573SOL    HW1 5618   4.344   4.890   1.376
 1573SOL    HW2 5619   4.455   5.005   1.410
 1574SOL     OW 5620   6.488   3.419   2.088
 1574SOL    HW1 5621   6.574   3.471   2.090
 1574SOL    HW2 5622   6.509   3.321   2.094
 1575SOL     OW 5623   0.566   0.830   0.621
 1575SOL    HW1 5624   0.635   0.786   0.679
 1575SOL    HW2 5625   0.575   0.796   0.528
 1576SOL     OW 5626   0.553   6.148   1.758
 1576SOL    HW1 5627   0.628   6.087   1.731
 1576SOL    HW2 5628   0.524   6.126   1.851
 1577SOL     OW 5629   3.899   0.024   6.353
 1577SOL    HW1 5630   3.919   0.119   6.329
 1577SOL    HW2 5631   3.816   7.009   6.305
 1578SOL     OW 5632   4.554   0.954   0.513
 1578SOL    HW1 5633   4.592   0.904   0.435
 1578SOL    HW2 5634   4.466   0.913   0.539
 1579SOL     OW 5635   2.161   2.349   1.817
 1579SOL    HW1 5636   2.235   2.393   1.767
 1579SOL    HW2 5637   2.172   2.249   1.811
 1580SOL     OW 5638   3.366   4.157   2.904
 1580SOL    HW1 5639   3.360   4.257   2.907
 1580SOL    HW2 5640   3.454   4.127   2.941
 1581SOL     OW 5641   0.287   4.195   6.143
 1581SOL    HW1 5642   0.276   4.116   6.204
 1581SOL    HW2 5643   0.274   4.166   6.049
 1582SOL     OW 5644   4.442   6.500   5.855
 1582SOL    HW1 5645   4.473   6.572   5.917
 1582SOL    HW2 5646   4.444   6.411   5.902
 1583SOL     OW 5647   1.006   6.042   5.207
 1583SOL    HW1 5648   1.005   6.114   5.277
 1583SOL    HW2 5649   0.919   6.041   5.158
 1584SOL     OW 5650   0.759   5.268   6.524
 1584SOL    HW1 5651   0.779   5.195   6.589
 1584SOL    HW2 5652   0.733   5.351   6.572
 1585SOL     OW 5653   3.857   0.261   2.960
 1585SOL    HW1 5654   3.833   0.164   2.970
 1585SOL    HW2 5655   3.900   0.294   3.044
 1586SOL     OW 5656   2.962   5.695   4.511
 1586SOL    HW1 5657   3.018   5.665   4.434
 1586SOL    HW2 5658   2.942   5.616   4.570
 1587SOL     OW 5659   1.716   5.817   6.001
 1587SOL    HW1 5660   1.635   5.874   6.017
 1587SOL    HW2 5661   1.772   5.814   6.084
 1588SOL     OW 5662   6.180   0.061   1.840
 1588SOL    HW1 5663   6.245   0.111   1.897
 1588SOL    HW2 5664   6.102   0.032   1.896
 1589SOL     OW 5665   6.522   3.931   2.875
 1589SOL    HW1 5666   6.474   3.852   2.911
 1589SOL    HW2 5667   6.509   4.010   2.935
 1590SOL     OW 5668   6.462   2.098   3.524
 1590SOL    HW1 5669   6.486   2.113   3.620
 1590SOL    HW2 5670   6.500   2.171   3.468
 1591SOL     OW 5671   0.480   5.806   0.994
 1591SOL    HW1 5672   0.509   5.813   0.898
 1591SOL    HW2 5673   0.404   5.742   1.002
 1592SOL     OW 5674   1.506   4.383   6.904
 1592SOL    HW1 5675   1.511   4.330   6.988
 1592SOL    HW2 5676   1.568   4.461   6.910
 1593SOL     OW 5677   0.779   0.159   6.780
 1593SOL    HW1 5678   0.850   0.228   6.791
 1593SOL    HW2 5679   0.708   0.172   6.848
 1594SOL     OW 5680   6.845   0.336   1.696
 1594SOL    HW1 5681   6.792   0.285   1.627
 1594SOL    HW2 5682   6.872   0.274   1.769
 1595SOL     OW 5683   1.603   3.815   6.631
 1595SOL    HW1 5684   1.511   3.844   6.604
 1595SOL    HW2 5685   1.610   3.812   6.730
 1596SOL     OW 5686   5.738   4.337   2.249
 1596SOL    HW1 5687   5.770   4.331   2.154
 1596SOL    HW2 5688   5.793   4.405   2.298
 1597SOL     OW 5689   3.434   5.798   1.042
 1597SOL    HW1 5690   3.441   5.824   0.946
 1597SOL    HW2 5691   3.523   5.767   1.074
 1598SOL     OW 5692   1.574   5.953   0.087
 1598SOL    HW1 5693   1.630   6.005   0.151
 1598SOL    HW2 5694   1.624   5.941   0.001
 1599SOL     OW 5695   3.777   5.369   4.096
 1599SOL    HW1 5696   3.776   5.281   4.143
 1599SOL    HW2 5697   3.805   5.441   4.159
 1600SOL     OW 5698   3.056   0.510   2.814
 1600SOL    HW1 5699   3.034   0.418   2.847
 1600SOL    HW2 5700   3.149   0.510   2.777
 1601SOL     OW 5701   6.502   6.792   4.030
 1601SOL    HW1 5702   6.543   6.883   4.025
 1601SOL    HW2 5703   6.571   6.723   4.012
 1602SOL     OW 5704   4.547   5.035   4.103
 1602SOL    HW1 5705   4.555   5.086   4.189
 1602SOL    HW2 5706   4.636   4.996   4.080
 1603SOL     OW 5707   3.225   6.062   4.130
 1603SOL    HW1 5708   3.161   5.986   4.145
 1603SOL    HW2 5709   3.175   6.149   4.137
 1604SOL     OW 5710   3.667   4.905   2.223
 1604SOL    HW1 5711   3.645   4.837   2.154
 1604SOL    HW2 5712   3.729   4.973   2.185
 1605SOL     OW 5713   4.822   5.101   2.266
 1605SOL    HW1 5714   4.738   5.072   2.312
 1605SOL    HW2 5715   4.855   5.185   2.308
 1606SOL     OW 5716   4.416   6.436   4.163
 1606SOL    HW1 5717   4.396   6.340   4.145
 1606SOL    HW2 5718   4.502   6.445   4.213
 1607SOL     OW 5719   4.503   6.947   2.726
 1607SOL    HW1 5720   4.462   6.881   2.662
 1607SOL    HW2 5721   4.566   6.899   2.787
 1608SOL     OW 5722   6.621   0.700   2.901
 1608SOL    HW1 5723   6.625   0.796   2.929
 1608SOL    HW2 5724   6.711   0.658   2.913
 1609SOL     OW 5725   3.253   6.580   0.776
 1609SOL    HW1 5726   3.205   6.547   0.695
 1609SOL    HW2 5727   3.325   6.644   0.747
 1610SOL     OW 5728   3.860   6.552   6.883
 1610SOL    HW1 5729   3.825   6.644   6.901
 1610SOL    HW2 5730   3.920   6.554   6.803
 1611SOL     OW 5731   0.924   4.132   1.490
 1611SOL    HW1 5732   1.010   4.164   1.450
 1611SOL    HW2 5733   0.913   4.034   1.472
 1612SOL     OW 5734   3.004   5.835   1.080
 1612SOL    HW1 5735   2.935   5.893   1.038
 1612SOL    HW2 5736   2.979   5.816   1.175
 1613SOL     OW 5737   0.638   5.674   2.427
 1613SOL    HW1 5738   0.593   5.603   2.373
 1613SOL    HW2 5739   0.709   5.718   2.373
 1614SOL     OW 5740   5.424   2.813   6.703
 1614SOL    HW1 5741   5.455   2.720   6.721
 1614SOL    HW2 5742   5.401   2.858   6.789
 1615SOL     OW 5743   0.269   5.383   6.510
 1615SOL    HW1 5744   0.289   5.298   6.559
 1615SOL    HW2 5745   0.318   5.384   6.423
 1616SOL     OW 5746   3.234   1.049   5.421
 1616SOL    HW1 5747   3.272   1.135   5.389
 1616SOL    HW2 5748   3.239   1.045   5.521
 1617SOL     OW 5749   4.580   6.647   3.669
 1617SOL    HW1 5750   4.614   6.573   3.728
 1617SOL    HW2 5751   4.480   6.648   3.671
 1618SOL     OW 5752   2.388   5.985   2.930
 1618SOL    HW1 5753   2.308   5.963   2.987
 1618SOL    HW2 5754   2.383   6.080   2.900
 1619SOL     OW 5755   0.949   5.310   6.834
 1619SOL    HW1 5756   0.902   5.246   6.894
 1619SOL    HW2 5757   0.911   5.304   6.742
 1620SOL     OW 5758   3.053   5.172   0.763
 1620SOL    HW1 5759   3.018   5.113   0.836
 1620SOL    HW2 5760   3.147   5.197   0.782
 1621SOL     OW 5761   5.766   6.406   1.075
 1621SOL    HW1 5762   5.845   6.467   1.073
 1621SOL    HW2 5763   5.795   6.313   1.051
 1622SOL     OW 5764   1.028   3.818   4.956
 1622SOL    HW1 5765   1.023   3.831   5.055
 1622SOL    HW2 5766   1.111   3.862   4.921
 1623SOL     OW 5767   0.648   2.495   5.119
 1623SOL    HW1 5768   0.744   2.470   5.105
 1623SOL    HW2 5769   0.593   2.456   5.045
 1624SOL     OW 5770   3.704   1.284   0.379
 1624SOL    HW1 5771   3.689   1.382   0.395
 1624SOL    HW2 5772   3.633   1.231   0.425
 1625SOL     OW 5773   2.009   4.842   0.779
 1625SOL    HW1 5774   1.920   4.797   0.788
 1625SOL    HW2 5775   2.023   4.868   0.684
 1626SOL     OW 5776   3.309   2.041   1.319
 1626SOL    HW1 5777   3.365   2.110   1.274
 1626SOL    HW2 5778   3.243   2.086   1.380
 1627SOL     OW 5779   4.874   2.192   4.324
 1627SOL    HW1 5780   4.903   2.260   4.390
 1627SOL    HW2 5781   4.812   2.234   4.258
 1628SOL     OW 5782   5.049   5.648   6.413
 1628SOL    HW1 5783   5.137   5.626   6.456
 1628SOL    HW2 5784   5.014   5.734   6.449
 1629SOL     OW 5785   3.082   1.977   3.071
 1629SOL    HW1 5786   2.998   1.940   3.030
 1629SOL    HW2 5787   3.067   1.996   3.168
 1630SOL     OW 5788   0.258   4.234   0.204
 1630SOL    HW1 5789   0.197   4.309   0.182
 1630SOL    HW2 5790   0.324   4.263   0.273
 1631SOL     OW 5791   6.898   3.286   1.254
 1631SOL    HW1 5792   6.951   3.252   1.332
 1631SOL    HW2 5793   6.803   3.258   1.264
 1632SOL     OW 5794   5.630   4.639   2.548
 1632SOL    HW1 5795   5.580   4.676   2.626
 1632SOL    HW2 5796   5.712   4.694   2.531
 1633SOL     OW 5797   4.881   3.507   3.990
 1633SOL    HW1 5798   4.866   3.411   4.013
 1633SOL    HW2 5799   4.837   3.527   3.903
 1634SOL     OW 5800   4.537   0.651   4.533
 1634SOL    HW1 5801   4.602   0.607   4.471
 1634SOL    HW2 5802   4.481   0.716   4.482
 1635SOL     OW 5803   3.769   4.704   5.619
 1635SOL    HW1 5804   3.746   4.608   5.633
 1635SOL    HW2 5805   3.698   4.761   5.661
 1636SOL     OW 5806   4.267   5.679   1.427
 1636SOL    HW1 5807   4.169   5.659   1.431
 1636SOL    HW2 5808   4.282   5.776   1.448
 1637SOL     OW 5809   0.140   6.754   2.456
 1637SOL    HW1 5810   0.063   6.693   2.471
 1637SOL    HW2 5811   0.223   6.713   2.493
 1638SOL     OW 5812   6.778   3.253   1.857
 1638SOL    HW1 5813   6.874   3.279   1.868
 1638SOL    HW2 5814   6.723   3.336   1.844
 1639SOL     OW 5815   5.995   3.939   2.395
 1639SOL    HW1 5816   6.041   3.980   2.474
 1639SOL    HW2 5817   5.902   3.973   2.389
 1640SOL     OW 5818   6.010   0.529   1.201
 1640SOL    HW1 5819   6.103   0.525   1.236
 1640SOL    HW2 5820   5.997   0.614   1.149
 1641SOL     OW 5821   6.944   2.582   3.469
 1641SOL    HW1 5822   7.013   2.546   3.532
 1641SOL    HW2 5823   6.955   2.538   3.380
 1642SOL     OW 5824   5.502   2.591   5.932
 1642SOL    HW1 5825   5.584   2.627   5.889
 1642SOL    HW2 5826   5.450   2.667   5.973
 1643SOL     OW 5827   3.467   5.215   4.750
 1643SOL    HW1 5828   3.543   5.217   4.686
 1643SOL    HW2 5829   3.471   5.132   4.805
 1644SOL     OW 5830   5.934   3.256   0.711
 1644SOL    HW1 5831   5.955   3.196   0.788
 1644SOL    HW2 5832   5.985   3.227   0.631
 1645SOL     OW 5833   3.173   0.695   6.104
 1645SOL    HW1 5834   3.160   0.794   6.108
 1645SOL    HW2 5835   3.150   0.663   6.012
 1646SOL     OW 5836   0.965   5.731   0.192
 1646SOL    HW1 5837   0.985   5.751   0.096
 1646SOL    HW2 5838   0.988   5.636   0.212
 1647SOL     OW 5839   6.849   2.818   4.279
 1647SOL    HW1 5840   6.777   2.876   4.318
 1647SOL    HW2 5841   6.827   2.722   4.294
 1648SOL     OW 5842   5.009   6.140   0.787
 1648SOL    HW1 5843   4.925   6.190   0.810
 1648SOL    HW2 5844   5.068   6.199   0.732
 1649SOL     OW 5845   3.087   0.256   3.383
 1649SOL    HW1 5846   3.033   0.325   3.430
 1649SOL    HW2 5847   3.090   0.276   3.285
 1650SOL     OW 5848   2.140   4.819   6.456
 1650SOL    HW1 5849   2.077   4.861   6.390
 1650SOL    HW2 5850   2.195   4.750   6.409
 1651SOL     OW 5851   0.519   2.678   3.560
 1651SOL    HW1 5852   0.565   2.739   3.625
 1651SOL    HW2 5853   0.451   2.729   3.508
 1652SOL     OW 5854   1.421   2.590   1.712
 1652SOL    HW1 5855   1.490   2.653   1.678
 1652SOL    HW2 5856   1.332   2.613   1.671
 1653SOL     OW 5857   0.073   5.618   2.300
 1653SOL    HW1 5858   0.070   5.556   2.222
 1653SOL    HW2 5859   7.012   5.683   2.294
 1654SOL     OW 5860   0.525   2.808   1.577
 1654SOL    HW1 5861   0.545   2.900   1.545
 1654SOL    HW2 5862   0.580   2.742   1.526
 1655SOL     OW 5863   6.698   1.344   4.433
 1655SOL    HW1 5864   6.759   1.290   4.491
 1655SOL    HW2 5865   6.725   1.440   4.437
 1656SOL     OW 5866   2.152   5.474   4.614
 1656SOL    HW1 5867   2.107   5.385   4.606
 1656SOL    HW2 5868   2.248   5.461   4.639
 1657SOL     OW 5869   6.850   0.731   5.385
 1657SOL    HW1 5870   6.818   0.805   5.445
 1657SOL    HW2 5871   6.922   0.765   5.325
 1658SOL     OW 5872   6.692   6.731   0.429
 1658SOL    HW1 5873   6.599   6.763   0.414
 1658SOL    HW2 5874   6.745   6.741   0.344
 1659SOL     OW 5875   4.350   6.930   6.567
 1659SOL    HW1 5876   4.412   6.976   6.631
 1659SOL    HW2 5877   4.262   6.978   6.565
 1660SOL     OW 5878   1.625   6.369   1.971
 1660SOL    HW1 5879   1.527   6.355   1.986
 1660SOL    HW2 5880   1.639   6.410   1.881
 1661SOL     OW 5881   2.853   4.797   2.233
 1661SOL    HW1 5882   2.809   4.881   2.201
 1661SOL    HW2 5883   2.871   4.737   2.155
 1662SOL     OW 5884   6.661   1.656   5.710
 1662SOL    HW1 5885   6.694   1.750   5.719
 1662SOL    HW2 5886   6.731   1.600   5.668
 1663SOL     OW 5887   4.632   4.841   1.609
 1663SOL    HW1 5888   4.547   4.856   1.559
 1663SOL    HW2 5889   4.644   4.914   1.677
 1664SOL     OW 5890   0.867   0.090   5.642
 1664SOL    HW1 5891   0.820   0.171   5.675
 1664SOL    HW2 5892   0.812   0.046   5.571
 1665SOL     OW 5893   1.848   3.695   0.894
 1665SOL    HW1 5894   1.829   3.603   0.860
 1665SOL    HW2 5895   1.843   3.696   0.994
 1666SOL     OW 5896   5.335   0.246   6.523
 1666SOL    HW1 5897   5.296   0.158   6.495
 1666SOL    HW2 5898   5.404   0.230   6.594
 1667SOL     OW 5899   0.502   6.563   0.605
 1667SOL    HW1 5900   0.582   6.622   0.618
 1667SOL    HW2 5901   0.436   6.580   0.678
 1668SOL     OW 5902   5.210   4.893   3.880
 1668SOL    HW1 5903   5.124   4.940   3.898
 1668SOL    HW2 5904   5.285   4.959   3.877
 1669SOL     OW 5905   0.259   4.109   5.864
 1669SOL    HW1 5906   0.347   4.062   5.868
 1669SOL    HW2 5907   0.188   4.044   5.836
 1670SOL     OW 5908   1.649   4.583   6.014
 1670SOL    HW1 5909   1.588   4.629   6.079
 1670SOL    HW2 5910   1.733   4.635   6.004
 1671SOL     OW 5911   4.993   1.732   2.548
 1671SOL    HW1 5912   5.061   1.803   2.527
 1671SOL    HW2 5913   4.995   1.713   2.647
 1672SOL     OW 5914   0.870   2.996   0.181
 1672SOL    HW1 5915   0.847   3.084   0.139
 1672SOL    HW2 5916   0.888   2.929   0.109
 1673SOL     OW 5917   2.259   1.740   4.329
 1673SOL    HW1 5918   2.312   1.697   4.402
 1673SOL    HW2 5919   2.191   1.676   4.295
 1674SOL     OW 5920   5.015   2.919   2.396
 1674SOL    HW1 5921   4.941   2.927   2.328
 1674SOL    HW2 5922   5.073   2.841   2.372
 1675SOL     OW 5923   5.454   0.710   1.249
 1675SOL    HW1 5924   5.532   0.723   1.188
 1675SOL    HW2 5925   5.376   0.762   1.216
 1676SOL     OW 5926   1.740   2.103   2.840
 1676SOL    HW1 5927   1.690   2.040   2.780
 1676SOL    HW2 5928   1.828   2.126   2.798
 1677SOL     OW 5929   3.494   3.758   3.013
 1677SOL    HW1 5930   3.473   3.767   2.916
 1677SOL    HW2 5931   3.586   3.721   3.024
 1678SOL     OW 5932   0.515   6.352   0.435
 1678SOL    HW1 5933   0.494   6.441   0.476
 1678SOL    HW2 5934   0.614   6.340   0.431
 1679SOL     OW 5935   1.411   1.307   5.641
 1679SOL    HW1 5936   1.444   1.303   5.546
 1679SOL    HW2 5937   1.417   1.401   5.674
 1680SOL     OW 5938   5.402   2.844   4.477
 1680SOL    HW1 5939   5.440   2.771   4.421
 1680SOL    HW2 5940   5.448   2.930   4.456
 1681SOL     OW 5941   1.769   5.769   3.703
 1681SOL    HW1 5942   1.812   5.843   3.651
 1681SOL    HW2 5943   1.689   5.735   3.653
 1682SOL     OW 5944   2.918   0.308   5.726
 1682SOL    HW1 5945   2.835   0.344   5.683
 1682SOL    HW2 5946   2.903   0.213   5.752
 1683SOL     OW 5947   5.777   5.029   2.708
 1683SOL    HW1 5948   5.728   5.097   2.653
 1683SOL    HW2 5949   5.764   5.050   2.805
 1684SOL     OW 5950   1.527   4.609   1.707
 1684SOL    HW1 5951   1.563   4.523   1.670
 1684SOL    HW2 5952   1.507   4.672   1.631
 1685SOL     OW 5953   1.197   1.282   5.847
 1685SOL    HW1 5954   1.156   1.341   5.778
 1685SOL    HW2 5955   1.174   1.187   5.828
 1686SOL     OW 5956   4.926   5.968   3.869
 1686SOL    HW1 5957   4.971   6.000   3.952
 1686SOL    HW2 5958   4.994   5.927   3.808
 1687SOL     OW 5959   0.128   3.689   2.583
 1687SOL    HW1 5960   0.175   3.624   2.642
 1687SOL    HW2 5961   0.193   3.730   2.519
 1688SOL     OW 5962   1.994   2.229   3.246
 1688SOL    HW1 5963   1.962   2.191   3.159
 1688SOL    HW2 5964   1.918   2.231   3.311
 1689SOL     OW 5965   6.391   1.178   2.066
 1689SOL    HW1 5966   6.474   1.231   2.051
 1689SOL    HW2 5967   6.401   1.087   2.024
 1690SOL     OW 5968   0.814   3.935   4.179
 1690SOL    HW1 5969   0.807   3.848   4.227
 1690SOL    HW2 5970   0.742   3.940   4.109
 1691SOL     OW 5971   4.983   3.303   4.284
 1691SOL    HW1 5972   4.995   3.402   4.282
 1691SOL    HW2 5973   4.921   3.276   4.210
 1692SOL     OW 5974   5.778   5.112   2.224
 1692SOL    HW1 5975   5.859   5.086   2.277
 1692SOL    HW2 5976   5.792   5.088   2.128
 1693SOL     OW 5977   6.961   1.459   5.394
 1693SOL    HW1 5978   6.931   1.515   5.471
 1693SOL    HW2 5979   6.885   1.402   5.362
 1694SOL     OW 5980   6.138   1.097   4.495
 1694SOL    HW1 5981   6.106   1.187   4.467
 1694SOL    HW2 5982   6.087   1.027   4.445
 1695SOL     OW 5983   3.760   0.700   6.926
 1695SOL    HW1 5984   3.771   0.792   6.962
 1695SOL    HW2 5985   3.716   0.706   6.836
 1696SOL     OW 5986   4.182   5.574   0.293
 1696SOL    HW1 5987   4.255   5.612   0.236
 1696SOL    HW2 5988   4.222   5.535   0.376
 1697SOL     OW 5989   6.101   2.439   0.880
 1697SOL    HW1 5990   6.035   2.382   0.831
 1697SOL    HW2 5991   6.070   2.453   0.974
 1698SOL     OW 5992   3.733   1.070   1.929
 1698SOL    HW1 5993   3.821   1.027   1.907
 1698SOL    HW2 5994   3.660   1.002   1.922
 1699SOL     OW 5995   2.866   1.337   6.225
 1699SOL    HW1 5996   2.885   1.338   6.323
 1699SOL    HW2 5997   2.949   1.313   6.175
 1700SOL     OW 5998   5.820   3.339   3.657
 1700SOL    HW1 5999   5.881   3.309   3.584
 1700SOL    HW2 6000   5.726   3.340   3.624
 1701SOL     OW 6001   6.533   4.907   4.611
 1701SOL    HW1 6002   6.585   4.929   4.528
 1701SOL    HW2 6003   6.461   4.841   4.589
 1702SOL     OW 6004   2.185   1.403   6.401
 1702SOL    HW1 6005   2.198   1.390   6.499
 1702SOL    HW2 6006   2.273   1.421   6.357
 1703SOL     OW 6007   3.264   1.367   6.153
 1703SOL    HW1 6008   3.265   1.455   6.105
 1703SOL    HW2 6009   3.194   1.308   6.113
 1704SOL     OW 6010   2.425   1.497   0.278
 1704SOL    HW1 6011   2.422   1.434   0.201
 1704SOL    HW2 6012   2.341   1.550   0.281
 1705SOL     OW 6013   3.874   1.647   1.870
 1705SOL    HW1 6014   3.895   1.732   1.919
 1705SOL    HW2 6015   3.777   1.625   1.882
 1706SOL     OW 6016   4.488   1.704   0.542
 1706SOL    HW1 6017   4.486   1.614   0.587
 1706SOL    HW2 6018   4.399   1.722   0.499
 1707SOL     OW 6019   4.825   1.921   2.831
 1707SOL    HW1 6020   4.913   1.877   2.809
 1707SOL    HW2 6021   4.799   1.898   2.924
 1708SOL     OW 6022   3.364   5.357   2.332
 1708SOL    HW1 6023   3.320   5.273   2.362
 1708SOL    HW2 6024   3.366   5.359   2.232
 1709SOL     OW 6025   4.971   5.873   0.842
 1709SOL    HW1 6026   4.992   5.964   0.807
 1709SOL    HW2 6027   4.986   5.805   0.770
 1710SOL     OW 6028   4.448   5.327   3.422
 1710SOL    HW1 6029   4.508   5.332   3.501
 1710SOL    HW2 6030   4.354   5.346   3.450
 1711SOL     OW 6031   3.490   6.186   5.851
 1711SOL    HW1 6032   3.558   6.251   5.817
 1711SOL    HW2 6033   3.464   6.211   5.944
 1712SOL     OW 6034   0.295   2.101   4.536
 1712SOL    HW1 6035   0.307   2.162   4.614
 1712SOL    HW2 6036   0.245   2.019   4.565
 1713SOL     OW 6037   3.539   0.738   3.132
 1713SOL    HW1 6038   3.537   0.763   3.229
 1713SOL    HW2 6039   3.581   0.811   3.079
 1714SOL     OW 6040   3.692   2.740   0.005
 1714SOL    HW1 6041   3.757   2.740   0.081
 1714SOL    HW2 6042   3.702   2.656   6.968
 1715SOL     OW 6043   1.598   6.075   1.903
 1715SOL    HW1 6044   1.551   5.987   1.895
 1715SOL    HW2 6045   1.530   6.149   1.902
 1716SOL     OW 6046   5.012   0.556   4.272
 1716SOL    HW1 6047   4.950   0.515   4.339
 1716SOL    HW2 6048   5.066   0.627   4.317
 1717SOL     OW 6049   4.419   6.480   5.174
 1717SOL    HW1 6050   4.514   6.470   5.145
 1717SOL    HW2 6051   4.378   6.390   5.185
 1718SOL     OW 6052   2.374   2.235   2.339
 1718SOL    HW1 6053   2.420   2.279   2.416
 1718SOL    HW2 6054   2.428   2.157   2.307
 1719SOL     OW 6055   1.091   4.529   1.144
 1719SOL    HW1 6056   1.102   4.600   1.074
 1719SOL    HW2 6057   1.179   4.509   1.186
 1720SOL     OW 6058   6.990   2.698   5.636
 1720SOL    HW1 6059   6.957   2.763   5.705
 1720SOL    HW2 6060   0.001   2.746   5.553
 1721SOL     OW 6061   1.298   0.675   2.067
 1721SOL    HW1 6062   1.342   0.679   2.157
 1721SOL    HW2 6063   1.201   0.657   2.078
 1722SOL     OW 6064   3.417   2.108   2.785
 1722SOL    HW1 6065   3.465   2.195   2.800
 1722SOL    HW2 6066   3.444   2.069   2.697
 1723SOL     OW 6067   4.741   2.118   6.935
 1723SOL    HW1 6068   4.663   2.171   6.968
 1723SOL    HW2 6069   4.796   2.174   6.873
 1724SOL     OW 6070   6.461   2.432   1.457
 1724SOL    HW1 6071   6.552   2.464   1.480
 1724SOL    HW2 6072   6.464   2.381   1.371
 1725SOL     OW 6073   1.927   4.266   6.643
 1725SOL    HW1 6074   1.940   4.319   6.727
 1725SOL    HW2 6075   2.000   4.287   6.578
 1726SOL     OW 6076   5.515   4.751   3.768
 1726SOL    HW1 6077   5.571   4.676   3.803
 1726SOL    HW2 6078   5.557   4.839   3.792
 1727SOL     OW 6079   2.959   3.625   3.458
 1727SOL    HW1 6080   2.940   3.716   3.422
 1727SOL    HW2 6081   3.027   3.631   3.531
 1728SOL     OW 6082   4.807   3.836   5.582
 1728SOL    HW1 6083   4.796   3.905   5.654
 1728SOL    HW2 6084   4.902   3.806   5.578
 1729SOL     OW 6085   1.737   3.725   1.660
 1729SOL    HW1 6086   1.767   3.630   1.673
 1729SOL    HW2 6087   1.807   3.786   1.696
 1730SOL     OW 6088   2.748   5.471   5.361
 1730SOL    HW1 6089   2.779   5.418   5.440
 1730SOL    HW2 6090   2.754   5.416   5.279
 1731SOL     OW 6091   5.319   4.603   3.920
 1731SOL    HW1 6092   5.235   4.555   3.946
 1731SOL    HW2 6093   5.298   4.698   3.900
 1732SOL     OW 6094   1.782   4.044   6.765
 1732SOL    HW1 6095   1.843   3.969   6.788
 1732SOL    HW2 6096   1.806   4.080   6.674
 1733SOL     OW 6097   2.717   3.708   0.226
 1733SOL    HW1 6098   2.788   3.770   0.194
 1733SOL    HW2 6099   2.689   3.734   0.319
 1734SOL     OW 6100   6.675   3.155   1.550
 1734SOL    HW1 6101   6.741   3.215   1.594
 1734SOL    HW2 6102   6.665   3.181   1.454
 1735SOL     OW 6103   4.611   5.024   6.741
 1735SOL    HW1 6104   4.705   5.011   6.711
 1735SOL    HW2 6105   4.575   4.939   6.779
 1736SOL     OW 6106   4.596   3.534   1.733
 1736SOL    HW1 6107   4.534   3.610   1.750
 1736SOL    HW2 6108   4.689   3.559   1.760
 1737SOL     OW 6109   4.753   1.333   4.619
 1737SOL    HW1 6110   4.753   1.430   4.645
 1737SOL    HW2 6111   4.744   1.277   4.701
 1738SOL     OW 6112   1.382   3.915   3.979
 1738SOL    HW1 6113   1.395   3.841   3.913
 1738SOL    HW2 6114   1.439   3.993   3.954
 1739SOL     OW 6115   5.513   0.206   3.761
 1739SOL    HW1 6116   5.424   0.174   3.795
 1739SOL    HW2 6117   5.552   0.138   3.700
 1740SOL     OW 6118   7.014   1.984   4.733
 1740SOL    HW1 6119   0.069   1.913   4.722
 1740SOL    HW2 6120   7.003   2.005   4.830
 1741SOL     OW 6121   1.515   1.904   4.573
 1741SOL    HW1 6122   1.498   1.806   4.575
 1741SOL    HW2 6123   1.597   1.925   4.626
 1742SOL     OW 6124   6.099   6.542   6.063
 1742SOL    HW1 6125   6.153   6.459   6.056
 1742SOL    HW2 6126   6.003   6.522   6.043
 1743SOL     OW 6127   1.115   1.242   3.460
 1743SOL    HW1 6128   1.169   1.326   3.456
 1743SOL    HW2 6129   1.022   1.263   3.489
 1744SOL     OW 6130   5.158   2.529   3.324
 1744SOL    HW1 6131   5.126   2.497   3.235
 1744SOL    HW2 6132   5.140   2.628   3.331
 1745SOL     OW 6133   6.085   6.022   0.965
 1745SOL    HW1 6134   6.082   6.105   1.020
 1745SOL    HW2 6135   6.169   5.971   0.985
 1746SOL     OW 6136   1.995   3.603   3.494
 1746SOL    HW1 6137   1.919   3.667   3.503
 1746SOL    HW2 6138   2.030   3.606   3.400
 1747SOL     OW 6139   3.524   1.367   2.215
 1747SOL    HW1 6140   3.475   1.453   2.199
 1747SOL    HW2 6141   3.581   1.346   2.135
 1748SOL     OW 6142   6.878   1.608   4.721
 1748SOL    HW1 6143   6.804   1.671   4.744
 1748SOL    HW2 6144   6.913   1.566   4.805
 1749SOL     OW 6145   2.645   5.865   0.781
 1749SOL    HW1 6146   2.713   5.863   0.854
 1749SOL    HW2 6147   2.690   5.846   0.693
 1750SOL     OW 6148   4.439   1.104   5.344
 1750SOL    HW1 6149   4.421   1.008   5.322
 1750SOL    HW2 6150   4.523   1.110   5.398
 1751SOL     OW 6151   6.272   2.731   5.145
 1751SOL    HW1 6152   6.311   2.767   5.229
 1751SOL    HW2 6153   6.328   2.760   5.067
 1752SOL     OW 6154   6.387   1.239   1.118
 1752SOL    HW1 6155   6.350   1.327   1.090
 1752SOL    HW2 6156   6.360   1.220   1.212
 1753SOL     OW 6157   6.879   1.623   1.532
 1753SOL    HW1 6158   6.819   1.574   1.595
 1753SOL    HW2 6159   6.929   1.693   1.582
 1754SOL     OW 6160   3.049   6.137   5.762
 1754SOL    HW1 6161   2.951   6.145   5.745
 1754SOL    HW2 6162   3.095   6.107   5.679
 1755SOL     OW 6163   6.025   0.196   5.212
 1755SOL    HW1 6164   6.007   0.212   5.115
 1755SOL    HW2 6165   6.036   0.098   5.228
 1756SOL     OW 6166   5.681   0.474   6.144
 1756SOL    HW1 6167   5.612   0.426   6.198
 1756SOL    HW2 6168   5.738   0.529   6.204
 1757SOL     OW 6169   2.407   5.385   4.640
 1757SOL    HW1 6170   2.409   5.405   4.542
 1757SOL    HW2 6171   2.458   5.301   4.657
 1758SOL     OW 6172   1.930   6.888   5.046
 1758SOL    HW1 6173   2.028   6.895   5.031
 1758SOL    HW2 6174   1.897   6.799   5.013
 1759SOL     OW 6175   1.383   6.310   0.207
 1759SOL    HW1 6176   1.386   6.268   0.116
 1759SOL    HW2 6177   1.304   6.276   0.257
 1760SOL     OW 6178   6.238   0.759   5.193
 1760SOL    HW1 6179   6.322   0.753   5.247
 1760SOL    HW2 6180   6.171   0.814   5.242
 1761SOL     OW 6181   0.094   2.187   1.306
 1761SOL    HW1 6182   0.053   2.128   1.376
 1761SOL    HW2 6183   0.182   2.221   1.339
 1762SOL     OW 6184   0.361   1.413   5.675
 1762SOL    HW1 6185   0.281   1.459   5.713
 1762SOL    HW2 6186   0.342   1.384   5.582
 1763SOL     OW 6187   1.278   3.619   4.560
 1763SOL    HW1 6188   1.368   3.624   4.516
 1763SOL    HW2 6189   1.274   3.540   4.621
 1764SOL     OW 6190   1.740   4.346   1.893
 1764SOL    HW1 6191   1.782   4.256   1.895
 1764SOL    HW2 6192   1.792   4.408   1.952
 1765SOL     OW 6193   5.446   2.941   1.963
 1765SOL    HW1 6194   5.479   2.888   1.885
 1765SOL    HW2 6195   5.515   2.940   2.036
 1766SOL     OW 6196   4.145   4.764   4.143
 1766SOL    HW1 6197   4.124   4.768   4.045
 1766SOL    HW2 6198   4.078   4.819   4.193
 1767SOL     OW 6199   6.946   5.225   2.140
 1767SOL    HW1 6200   6.875   5.202   2.073
 1767SOL    HW2 6201   6.907   5.217   2.232
 1768SOL     OW 6202   4.488   6.543   1.992
 1768SOL    HW1 6203   4.440   6.597   2.061
 1768SOL    HW2 6204   4.549   6.603   1.940
 1769SOL     OW 6205   5.780   0.150   6.416
 1769SOL    HW1 6206   5.865   0.118   6.457
 1769SOL    HW2 6207   5.761   0.243   6.446
 1770SOL     OW 6208   1.609   4.432   5.777
 1770SOL    HW1 6209   1.622   4.496   5.853
 1770SOL    HW2 6210   1.698   4.398   5.747
 1771SOL     OW 6211   0.915   3.512   6.660
 1771SOL    HW1 6212   0.974   3.574   6.711
 1771SOL    HW2 6213   0.942   3.512   6.563
 1772SOL     OW 6214   2.849   4.854   4.039
 1772SOL    HW1 6215   2.826   4.798   4.118
 1772SOL    HW2 6216   2.948   4.872   4.037
 1773SOL     OW 6217   0.396   0.091   5.159
 1773SOL    HW1 6218   0.424   0.008   5.205
 1773SOL    HW2 6219   0.405   0.080   5.060
 1774SOL     OW 6220   5.726   5.717   1.212
 1774SOL    HW1 6221   5.773   5.766   1.138
 1774SOL    HW2 6222   5.724   5.775   1.293
 1775SOL     OW 6223   1.675   5.585   6.938
 1775SOL    HW1 6224   1.605   5.521   6.906
 1775SOL    HW2 6225   1.720   5.627   6.860
 1776SOL     OW 6226   4.229   1.210   5.476
 1776SOL    HW1 6227   4.292   1.162   5.415
 1776SOL    HW2 6228   4.265   1.301   5.497
 1777SOL     OW 6229   4.299   6.280   6.983
 1777SOL    HW1 6230   4.214   6.306   0.015
 1777SOL    HW2 6231   4.331   6.357   6.929
 1778SOL     OW 6232   5.805   0.917   3.867
 1778SOL    HW1 6233   5.886   0.935   3.810
 1778SOL    HW2 6234   5.732   0.880   3.809
 1779SOL     OW 6235   5.677   6.783   4.137
 1779SOL    HW1 6236   5.637   6.851   4.075
 1779SOL    HW2 6237   5.627   6.783   4.223
 1780SOL     OW 6238   1.809   5.639   5.107
 1780SOL    HW1 6239   1.721   5.668   5.068
 1780SOL    HW2 6240   1.808   5.655   5.206
 1781SOL     OW 6241   4.323   0.415   3.910
 1781SOL    HW1 6242   4.300   0.434   4.005
 1781SOL    HW2 6243   4.419   0.436   3.894
 1782SOL     OW 6244   1.430   1.910   2.853
 1782SOL    HW1 6245   1.410   1.815   2.875
 1782SOL    HW2 6246   1.491   1.914   2.774
 1783SOL     OW 6247   2.015   4.051   5.738
 1783SOL    HW1 6248   2.102   4.058   5.787
 1783SOL    HW2 6249   1.990   3.955   5.728
 1784SOL     OW 6250   2.714   0.731   0.896
 1784SOL    HW1 6251   2.713   0.631   0.896
 1784SOL    HW2 6252   2.717   0.764   0.990
 1785SOL     OW 6253   0.877   6.703   4.529
 1785SOL    HW1 6254   0.913   6.633   4.468
 1785SOL    HW2 6255   0.954   6.752   4.571
 1786SOL     OW 6256   1.669   5.888   0.502
 1786SOL    HW1 6257   1.690   5.952   0.427
 1786SOL    HW2 6258   1.666   5.795   0.466
 1787SOL     OW 6259   1.807   3.284   5.727
 1787SOL    HW1 6260   1.891   3.231   5.715
 1787SOL    HW2 6261   1.826   3.381   5.711
 1788SOL     OW 6262   4.793   3.922   0.646
 1788SOL    HW1 6263   4.771   3.985   0.572
 1788SOL    HW2 6264   4.863   3.857   0.616
 1789SOL     OW 6265   6.642   3.809   1.776
 1789SOL    HW1 6266   6.617   3.722   1.819
 1789SOL    HW2 6267   6.559   3.858   1.751
 1790SOL     OW 6268   2.643   2.402   4.260
 1790SOL    HW1 6269   2.670   2.357   4.175
 1790SOL    HW2 6270   2.553   2.445   4.248
 1791SOL     OW 6271   6.040   7.002   3.752
 1791SOL    HW1 6272   6.139   6.989   3.748
 1791SOL    HW2 6273   6.000   6.978   3.664
 1792SOL     OW 6274   6.486   1.702   5.287
 1792SOL    HW1 6275   6.465   1.607   5.266
 1792SOL    HW2 6276   6.481   1.717   5.386
 1793SOL     OW 6277   0.184   1.038   5.442
 1793SOL    HW1 6278   0.146   0.958   5.487
 1793SOL    HW2 6279   0.206   1.107   5.511
 1794SOL     OW 6280   0.068   0.174   6.282
 1794SOL    HW1 6281   0.071   0.223   6.195
 1794SOL    HW2 6282   0.027   0.232   6.352
 1795SOL     OW 6283   6.059   4.382   0.204
 1795SOL    HW1 6284   6.048   4.283   0.202
 1795SOL    HW2 6285   5.997   4.421   0.272
 1796SOL     OW 6286   1.018   6.794   5.696
 1796SOL    HW1 6287   1.045   6.890   5.701
 1796SOL    HW2 6288   0.918   6.787   5.697
 1797SOL     OW 6289   2.374   6.133   4.572
 1797SOL    HW1 6290   2.400   6.054   4.628
 1797SOL    HW2 6291   2.403   6.116   4.477
 1798SOL     OW 6292   3.304   3.925   4.901
 1798SOL    HW1 6293   3.271   3.922   4.807
 1798SOL    HW2 6294   3.366   3.848   4.917
 1799SOL     OW 6295   3.152   1.133   0.217
 1799SOL    HW1 6296   3.107   1.044   0.220
 1799SOL    HW2 6297   3.084   1.205   0.232
 1800SOL     OW 6298   5.318   3.218   4.513
 1800SOL    HW1 6299   5.372   3.276   4.452
 1800SOL    HW2 6300   5.330   3.248   4.607
 1801SOL     OW 6301   1.106   1.733   2.214
 1801SOL    HW1 6302   1.199   1.766   2.199
 1801SOL    HW2 6303   1.047   1.809   2.244
 1802SOL     OW 6304   6.319   4.604   3.597
 1802SOL    HW1 6305   6.371   4.527   3.636
 1802SOL    HW2 6306   6.374   4.650   3.528
 1803SOL     OW 6307   0.915   6.350   2.509
 1803SOL    HW1 6308   0.977   6.282   2.471
 1803SOL    HW2 6309   0.867   6.397   2.435
 1804SOL     OW 6310   2.587   3.480   6.040
 1804SOL    HW1 6311   2.637   3.448   5.959
 1804SOL    HW2 6312   2.586   3.580   6.041
 1805SOL     OW 6313   0.271   6.381   5.907
 1805SOL    HW1 6314   0.351   6.362   5.850
 1805SOL    HW2 6315   0.202   6.311   5.892
 1806SOL     OW 6316   6.874   2.186   1.836
 1806SOL    HW1 6317   6.931   2.268   1.835
 1806SOL    HW2 6318   6.824   2.182   1.923
 1807SOL     OW 6319   6.446   4.011   1.786
 1807SOL    HW1 6320   6.413   4.030   1.878
 1807SOL    HW2 6321   6.434   4.092   1.729
 1808SOL     OW 6322   5.610   2.007   5.671
 1808SOL    HW1 6323   5.586   2.041   5.761
 1808SOL    HW2 6324   5.694   2.051   5.639
 1809SOL     OW 6325   3.885   2.092   5.212
 1809SOL    HW1 6326   3.908   2.005   5.254
 1809SOL    HW2 6327   3.788   2.093   5.188
 1810SOL     OW 6328   0.635   6.771   4.143
 1810SOL    HW1 6329   0.615   6.836   4.070
 1810SOL    HW2 6330   0.724   6.728   4.127
 1811SOL     OW 6331   3.664   5.562   2.769
 1811SOL    HW1 6332   3.588   5.544   2.706
 1811SOL    HW2 6333   3.741   5.601   2.718
 1812SOL     OW 6334   4.639   0.035   5.959
 1812SOL    HW1 6335   4.689   6.983   6.014
 1812SOL    HW2 6336   4.574   0.084   6.017
 1813SOL     OW 6337   4.474   4.754   2.609
 1813SOL    HW1 6338   4.413   4.756   2.689
 1813SOL    HW2 6339   4.460   4.669   2.559
 1814SOL     OW 6340   0.809   6.584   0.239
 1814SOL    HW1 6341   0.731   6.554   0.184
 1814SOL    HW2 6342   0.788   6.674   0.279
 1815SOL     OW 6343   5.605   6.008   2.082
 1815SOL    HW1 6344   5.687   6.065   2.085
 1815SOL    HW2 6345   5.562   6.004   2.172
 1816SOL     OW 6346   3.976   5.735   5.612
 1816SOL    HW1 6347   3.966   5.753   5.710
 1816SOL    HW2 6348   3.908   5.669   5.582
 1817SOL     OW 6349   1.518   1.734   3.775
 1817SOL    HW1 6350   1.427   1.722   3.812
 1817SOL    HW2 6351   1.550   1.648   3.736
 1818SOL     OW 6352   2.534   6.532   0.242
 1818SOL    HW1 6353   2.598   6.607   0.229
 1818SOL    HW2 6354   2.442   6.560   0.212
 1819SOL     OW 6355   1.926   4.819   3.071
 1819SOL    HW1 6356   1.888   4.911   3.074
 1819SOL    HW2 6357   1.913   4.780   2.980
 1820SOL     OW 6358   3.518   0.557   3.855
 1820SOL    HW1 6359   3.446   0.617   3.818
 1820SOL    HW2 6360   3.607   0.601   3.843
 1821SOL     OW 6361   4.727   1.375   2.676
 1821SOL    HW1 6362   4.732   1.449   2.609
 1821SOL    HW2 6363   4.818   1.334   2.687
 1822SOL     OW 6364   0.803   3.260   2.268
 1822SOL    HW1 6365   0.882   3.206   2.296
 1822SOL    HW2 6366   0.729   3.199   2.241
 1823SOL     OW 6367   3.876   6.366   2.367
 1823SOL    HW1 6368   3.847   6.281   2.324
 1823SOL    HW2 6369   3.820   6.441   2.333
 1824SOL     OW 6370   4.200   3.400   1.138
 1824SOL    HW1 6371   4.138   3.427   1.212
 1824SOL    HW2 6372   4.277   3.463   1.135
 1825SOL     OW 6373   2.006   1.697   5.299
 1825SOL    HW1 6374   1.980   1.785   5.261
 1825SOL    HW2 6375   1.943   1.671   5.371
 1826SOL     OW 6376   3.490   2.322   1.637
 1826SOL    HW1 6377   3.568   2.346   1.694
 1826SOL    HW2 6378   3.420   2.394   1.644
 1827SOL     OW 6379   5.948   4.953   0.355
 1827SOL    HW1 6380   5.886   4.881   0.385
 1827SOL    HW2 6381   6.023   4.962   0.420
 1828SOL     OW 6382   1.576   3.543   5.635
 1828SOL    HW1 6383   1.558   3.449   5.606
 1828SOL    HW2 6384   1.642   3.542   5.711
 1829SOL     OW 6385   3.134   1.250   3.760
 1829SOL    HW1 6386   3.167   1.226   3.851
 1829SOL    HW2 6387   3.073   1.178   3.726
 1830SOL     OW 6388   6.088   6.613   4.627
 1830SOL    HW1 6389   6.188   6.604   4.632
 1830SOL    HW2 6390   6.054   6.557   4.551
 1831SOL     OW 6391   4.759   5.737   2.677
 1831SOL    HW1 6392   4.837   5.754   2.617
 1831SOL    HW2 6393   4.694   5.813   2.669
 1832SOL     OW 6394   2.326   3.205   0.785
 1832SOL    HW1 6395   2.248   3.247   0.738
 1832SOL    HW2 6396   2.294   3.130   0.843
 1833SOL     OW 6397   4.925   0.313   1.397
 1833SOL    HW1 6398   4.850   0.308   1.463
 1833SOL    HW2 6399   4.965   0.222   1.384
 1834SOL     OW 6400   2.322   2.721   6.794
 1834SOL    HW1 6401   2.395   2.729   6.861
 1834SOL    HW2 6402   2.275   2.633   6.806
 1835SOL     OW 6403   0.340   5.174   1.457
 1835SOL    HW1 6404   0.272   5.228   1.407
 1835SOL    HW2 6405   0.430   5.185   1.414
 1836SOL     OW 6406   5.436   2.097   1.583
 1836SOL    HW1 6407   5.377   2.158   1.530
 1836SOL    HW2 6408   5.379   2.033   1.635
 1837SOL     OW 6409   3.001   1.654   6.454
 1837SOL    HW1 6410   2.987   1.626   6.549
 1837SOL    HW2 6411   2.946   1.735   6.435
 1838SOL     OW 6412   5.905   0.766   0.759
 1838SOL    HW1 6413   5.964   0.788   0.681
 1838SOL    HW2 6414   5.869   0.850   0.799
 1839SOL     OW 6415   5.506   1.394   6.761
 1839SOL    HW1 6416   5.433   1.328   6.776
 1839SOL    HW2 6417   5.537   1.387   6.666
 1840SOL     OW 6418   4.086   0.027   3.022
 1840SOL    HW1 6419   4.012   7.001   3.076
 1840SOL    HW2 6420   4.066   0.017   2.925
 1841SOL     OW 6421   2.146   1.364   2.057
 1841SOL    HW1 6422   2.163   1.276   2.102
 1841SOL    HW2 6423   2.216   1.429   2.084
 1842SOL     OW 6424   1.766   5.316   0.405
 1842SOL    HW1 6425   1.736   5.277   0.318
 1842SOL    HW2 6426   1.853   5.275   0.432
 1843SOL     OW 6427   3.112   1.301   4.439
 1843SOL    HW1 6428   3.052   1.249   4.500
 1843SOL    HW2 6429   3.178   1.239   4.396
 1844SOL     OW 6430   5.002   1.353   6.571
 1844SOL    HW1 6431   4.949   1.335   6.654
 1844SOL    HW2 6432   5.017   1.451   6.562
 1845SOL     OW 6433   2.062   1.297   3.133
 1845SOL    HW1 6434   2.117   1.379   3.147
 1845SOL    HW2 6435   2.116   1.216   3.155
 1846SOL     OW 6436   4.490   1.337   2.492
 1846SOL    HW1 6437   4.415   1.271   2.487
 1846SOL    HW2 6438   4.517   1.349   2.588
 1847SOL     OW 6439   2.150   6.947   4.882
 1847SOL    HW1 6440   2.223   7.006   4.916
 1847SOL    HW2 6441   2.093   6.997   4.817
 1848SOL     OW 6442   2.077   5.500   4.355
 1848SOL    HW1 6443   2.091   5.506   4.454
 1848SOL    HW2 6444   2.138   5.566   4.310
 1849SOL     OW 6445   4.522   2.497   2.164
 1849SOL    HW1 6446   4.443   2.463   2.113
 1849SOL    HW2 6447   4.557   2.580   2.120
 1850SOL     OW 6448   5.211   1.825   1.917
 1850SOL    HW1 6449   5.203   1.819   2.016
 1850SOL    HW2 6450   5.302   1.795   1.888
 1851SOL     OW 6451   6.872   3.491   5.710
 1851SOL    HW1 6452   6.811   3.561   5.675
 1851SOL    HW2 6453   6.955   3.534   5.746
 1852SOL     OW 6454   1.667   5.371   2.165
 1852SOL    HW1 6455   1.590   5.308   2.161
 1852SOL    HW2 6456   1.752   5.322   2.150
 1853SOL     OW 6457   0.661   2.679   4.850
 1853SOL    HW1 6458   0.747   2.704   4.806
 1853SOL    HW2 6459   0.645   2.741   4.928
 1854SOL     OW 6460   0.417   6.473   3.808
 1854SOL    HW1 6461   0.452   6.391   3.763
 1854SOL    HW2 6462   0.432   6.552   3.748
 1855SOL     OW 6463   4.798   3.402   5.384
 1855SOL    HW1 6464   4.765   3.468   5.317
 1855SOL    HW2 6465   4.753   3.314   5.370
 1856SOL     OW 6466   3.413   2.796   0.172
 1856SOL    HW1 6467   3.480   2.806   0.245
 1856SOL    HW2 6468   3.439   2.854   0.094
 1857SOL     OW 6469   5.030   0.681   0.311
 1857SOL    HW1 6470   5.051   0.777   0.332
 1857SOL    HW2 6471   5.043   0.665   0.213
 1858SOL     OW 6472   4.132   2.273   4.240
 1858SOL    HW1 6473   4.201   2.205   4.262
 1858SOL    HW2 6474   4.175   2.352   4.196
 1859SOL     OW 6475   5.247   2.207   3.635
 1859SOL    HW1 6476   5.263   2.208   3.537
 1859SOL    HW2 6477   5.165   2.260   3.656
 1860SOL     OW 6478   1.450   1.013   4.702
 1860SOL    HW1 6479   1.527   1.027   4.639
 1860SOL    HW2 6480   1.366   0.999   4.650
 1861SOL     OW 6481   6.241   0.345   3.006
 1861SOL    HW1 6482   6.271   0.321   2.913
 1861SOL    HW2 6483   6.235   0.262   3.062
 1862SOL     OW 6484   2.747   6.039   6.530
 1862SOL    HW1 6485   2.672   6.105   6.531
 1862SOL    HW2 6486   2.831   6.083   6.499
 1863SOL     OW 6487   0.144   2.892   1.364
 1863SOL    HW1 6488   0.124   2.883   1.267
 1863SOL    HW2 6489   0.201   2.974   1.378
 1864SOL     OW 6490   3.504   5.829   3.060
 1864SOL    HW1 6491   3.492   5.748   3.002
 1864SOL    HW2 6492   3.416   5.858   3.096
 1865SOL     OW 6493   5.397   1.391   6.189
 1865SOL    HW1 6494   5.380   1.465   6.123
 1865SOL    HW2 6495   5.317   1.379   6.247
 1866SOL     OW 6496   0.318   4.425   3.511
 1866SOL    HW1 6497   0.292   4.433   3.415
 1866SOL    HW2 6498   0.250   4.370   3.560
 1867SOL     OW 6499   2.225   2.495   1.089
 1867SOL    HW1 6500   2.257   2.440   1.166
 1867SOL    HW2 6501   2.253   2.590   1.102
 1868SOL     OW 6502   6.071   4.685   5.713
 1868SOL    HW1 6503   5.981   4.721   5.687
 1868SOL    HW2 6504   6.140   4.756   5.701
 1869SOL     OW 6505   4.277   2.031   4.296
 1869SOL    HW1 6506   4.277   1.933   4.280
 1869SOL    HW2 6507   4.371   2.065   4.297
 1870SOL     OW 6508   0.522   4.924   3.922
 1870SOL    HW1 6509   0.609   4.918   3.970
 1870SOL    HW2 6510   0.468   4.999   3.962
 1871SOL     OW 6511   1.207   6.643   0.372
 1871SOL    HW1 6512   1.167   6.635   0.281
 1871SOL    HW2 6513   1.141   6.611   0.441
 1872SOL     OW 6514   2.597   2.501   0.966
 1872SOL    HW1 6515   2.684   2.458   0.992
 1872SOL    HW2 6516   2.614   2.596   0.940
 1873SOL     OW 6517   6.694   0.665   6.954
 1873SOL    HW1 6518   6.755   0.721   6.899
 1873SOL    HW2 6519   6.650   0.596   6.896
 1874SOL     OW 6520   1.304   6.176   6.998
 1874SOL    HW1 6521   1.326   6.086   6.960
 1874SOL    HW2 6522   1.311   6.246   6.926
 1875SOL     OW 6523   6.247   5.017   0.046
 1875SOL    HW1 6524   6.269   5.113   0.067
 1875SOL    HW2 6525   6.321   4.959   0.080
 1876SOL     OW 6526   6.726   5.989   6.211
 1876SOL    HW1 6527   6.773   6.054   6.151
 1876SOL    HW2 6528   6.640   6.029   6.242
 1877SOL     OW 6529   0.430   1.181   2.314
 1877SOL    HW1 6530   0.452   1.087   2.290
 1877SOL    HW2 6531   0.430   1.191   2.413
 1878SOL     OW 6532   0.142   4.798   3.352
 1878SOL    HW1 6533   0.088   4.812   3.269
 1878SOL    HW2 6534   0.238   4.787   3.329
 1879SOL     OW 6535   3.771   5.478   4.845
 1879SOL    HW1 6536   3.685   5.445   4.883
 1879SOL    HW2 6537   3.813   5.407   4.788
 1880SOL     OW 6538   0.562   1.627   3.764
 1880SOL    HW1 6539   0.474   1.596   3.801
 1880SOL    HW2 6540   0.636   1.594   3.823
 1881SOL     OW 6541   1.571   1.384   3.912
 1881SOL    HW1 6542   1.477   1.350   3.899
 1881SOL    HW2 6543   1.572   1.452   3.985
 1882SOL     OW 6544   1.392   5.402   0.175
 1882SOL    HW1 6545   1.300   5.438   0.161
 1882SOL    HW2 6546   1.437   5.452   0.249
 1883SOL     OW 6547   1.522   3.160   2.994
 1883SOL    HW1 6548   1.496   3.195   3.085
 1883SOL    HW2 6549   1.584   3.083   3.004
 1884SOL     OW 6550   3.117   0.834   0.227
 1884SOL    HW1 6551   3.021   0.819   0.204
 1884SOL    HW2 6552   3.137   0.794   0.316
 1885SOL     OW 6553   0.143   2.206   0.983
 1885SOL    HW1 6554   0.140   2.220   1.082
 1885SOL    HW2 6555   0.050   2.200   0.946
 1886SOL     OW 6556   2.532   2.706   6.982
 1886SOL    HW1 6557   2.627   2.697   6.953
 1886SOL    HW2 6558   2.496   2.616   7.007
 1887SOL     OW 6559   1.397   6.468   5.544
 1887SOL    HW1 6560   1.370   6.373   5.561
 1887SOL    HW2 6561   1.321   6.528   5.567
 1888SOL     OW 6562   1.693   2.286   6.582
 1888SOL    HW1 6563   1.598   2.302   6.610
 1888SOL    HW2 6564   1.695   2.258   6.486
 1889SOL     OW 6565   4.660   2.939   0.302
 1889SOL    HW1 6566   4.624   2.994   0.377
 1889SOL    HW2 6567   4.589   2.926   0.233
 1890SOL     OW 6568   0.295   5.996   6.160
 1890SOL    HW1 6569   0.367   6.064   6.170
 1890SOL    HW2 6570   0.318   5.934   6.086
 1891SOL     OW 6571   6.242   3.374   5.537
 1891SOL    HW1 6572   6.238   3.348   5.441
 1891SOL    HW2 6573   6.336   3.399   5.561
 1892SOL     OW 6574   3.945   5.142   1.947
 1892SOL    HW1 6575   3.890   5.173   2.025
 1892SOL    HW2 6576   3.895   5.160   1.862
 1893SOL     OW 6577   3.977   1.858   4.216
 1893SOL    HW1 6578   4.058   1.824   4.168
 1893SOL    HW2 6579   3.896   1.845   4.157
 1894SOL     OW 6580   4.775   3.772   0.931
 1894SOL    HW1 6581   4.777   3.841   0.858
 1894SOL    HW2 6582   4.706   3.797   0.998
 1895SOL     OW 6583   5.971   0.903   3.277
 1895SOL    HW1 6584   5.875   0.910   3.250
 1895SOL    HW2 6585   5.988   0.812   3.316
 1896SOL     OW 6586   6.916   1.495   5.004
 1896SOL    HW1 6587   6.869   1.407   5.003
 1896SOL    HW2 6588   6.851   1.567   5.030
 1897SOL     OW 6589   5.466   4.643   3.267
 1897SOL    HW1 6590   5.504   4.604   3.183
 1897SOL    HW2 6591   5.418   4.729   3.245
 1898SOL     OW 6592   5.477   4.921   1.161
 1898SOL    HW1 6593   5.407   4.988   1.136
 1898SOL    HW2 6594   5.565   4.966   1.170
 1899SOL     OW 6595   0.838   2.904   2.906
 1899SOL    HW1 6596   0.823   2.912   3.005
 1899SOL    HW2 6597   0.750   2.910   2.859
 1900SOL     OW 6598   1.682   5.550   6.255
 1900SOL    HW1 6599   1.751   5.574   6.186
 1900SOL    HW2 6600   1.592   5.583   6.227
 1901SOL     OW 6601   1.688   0.960   6.782
 1901SOL    HW1 6602   1.700   0.873   6.734
 1901SOL    HW2 6603   1.768   0.979   6.839
 1902SOL     OW 6604   0.855   2.938   4.650
 1902SOL    HW1 6605   0.907   2.854   4.665
 1902SOL    HW2 6606   0.895   2.989   4.573
 1903SOL     OW 6607   6.354   3.635   3.305
 1903SOL    HW1 6608   6.296   3.649   3.386
 1903SOL    HW2 6609   6.323   3.554   3.255
 1904SOL     OW 6610   6.373   0.005   3.842
 1904SOL    HW1 6611   6.425   0.003   3.757
 1904SOL    HW2 6612   6.391   6.937   3.895
 1905SOL     OW 6613   0.352   2.027   3.369
 1905SOL    HW1 6614   0.355   1.930   3.395
 1905SOL    HW2 6615   0.426   2.076   3.416
 1906SOL     OW 6616   2.460   0.262   6.631
 1906SOL    HW1 6617   2.502   0.340   6.679
 1906SOL    HW2 6618   2.381   0.294   6.579
 1907SOL     OW 6619   3.360   6.125   3.649
 1907SOL    HW1 6620   3.264   6.149   3.634
 1907SOL    HW2 6621   3.370   6.076   3.735
 1908SOL     OW 6622   4.123   1.466   5.923
 1908SOL    HW1 6623   4.119   1.542   5.987
 1908SOL    HW2 6624   4.206   1.412   5.941
 1909SOL     OW 6625   2.474   5.031   4.563
 1909SOL    HW1 6626   2.557   5.031   4.507
 1909SOL    HW2 6627   2.500   5.020   4.659
 1910SOL     OW 6628   5.597   2.145   5.902
 1910SOL    HW1 6629   5.613   2.168   5.998
 1910SOL    HW2 6630   5.544   2.217   5.858
 1911SOL     OW 6631   6.443   2.799   4.944
 1911SOL    HW1 6632   6.386   2.843   4.874
 1911SOL    HW2 6633   6.492   2.722   4.903
 1912SOL     OW 6634   3.880   0.127   2.663
 1912SOL    HW1 6635   3.783   0.105   2.655
 1912SOL    HW2 6636   3.896   0.181   2.745
 1913SOL     OW 6637   1.415   5.431   5.614
 1913SOL    HW1 6638   1.331   5.452   5.664
 1913SOL    HW2 6639   1.398   5.354   5.552
 1914SOL     OW 6640   3.443   2.509   6.101
 1914SOL    HW1 6641   3.413   2.431   6.046
 1914SOL    HW2 6642   3.381   2.585   6.087
 1915SOL     OW 6643   3.724   0.244   6.019
 1915SOL    HW1 6644   3.736   0.154   5.978
 1915SOL    HW2 6645   3.757   0.315   5.957
 1916SOL     OW 6646   3.069   5.773   2.148
 1916SOL    HW1 6647   2.978   5.799   2.116
 1916SOL    HW2 6648   3.137   5.805   2.083
 1917SOL     OW 6649   2.932   3.360   4.097
 1917SOL    HW1 6650   2.899   3.435   4.039
 1917SOL    HW2 6651   2.952   3.395   4.188
 1918SOL     OW 6652   5.467   5.812   5.679
 1918SOL    HW1 6653   5.426   5.786   5.767
 1918SOL    HW2 6654   5.555   5.767   5.669
 1919SOL     OW 6655   0.524   6.052   2.003
 1919SOL    HW1 6656   0.452   6.041   2.072
 1919SOL    HW2 6657   0.562   5.962   1.981
 1920SOL     OW 6658   0.404   5.643   3.805
 1920SOL    HW1 6659   0.397   5.681   3.898
 1920SOL    HW2 6660   0.390   5.544   3.809
 1921SOL     OW 6661   1.323   6.423   6.816
 1921SOL    HW1 6662   1.241   6.456   6.863
 1921SOL    HW2 6663   1.385   6.499   6.801
 1922SOL     OW 6664   3.940   4.006   1.019
 1922SOL    HW1 6665   3.888   3.960   0.947
 1922SOL    HW2 6666   3.942   4.104   1.001
 1923SOL     OW 6667   2.121   1.190   0.688
 1923SOL    HW1 6668   2.067   1.202   0.771
 1923SOL    HW2 6669   2.196   1.256   0.687
 1924SOL     OW 6670   6.962   4.100   1.812
 1924SOL    HW1 6671   0.015   4.026   1.811
 1924SOL    HW2 6672   6.999   4.180   1.858
 1925SOL     OW 6673   3.567   3.953   1.792
 1925SOL    HW1 6674   3.505   3.991   1.723
 1925SOL    HW2 6675   3.515   3.924   1.872
 1926SOL     OW 6676   1.109   0.109   4.478
 1926SOL    HW1 6677   1.148   0.173   4.545
 1926SOL    HW2 6678   1.095   0.156   4.391
 1927SOL     OW 6679   3.667   4.208   6.955
 1927SOL    HW1 6680   3.622   4.123   6.927
 1927SOL    HW2 6681   3.766   4.193   6.962
 1928SOL     OW 6682   6.029   4.165   5.742
 1928SOL    HW1 6683   6.062   4.074   5.768
 1928SOL    HW2 6684   6.087   4.202   5.669
 1929SOL     OW 6685   0.933   6.255   1.343
 1929SOL    HW1 6686   0.992   6.227   1.268
 1929SOL    HW2 6687   0.850   6.297   1.307
 1930SOL     OW 6688   5.848   4.828   6.272
 1930SOL    HW1 6689   5.827   4.880   6.355
 1930SOL    HW2 6690   5.827   4.732   6.288
 1931SOL     OW 6691   0.907   3.569   4.180
 1931SOL    HW1 6692   0.814   3.599   4.201
 1931SOL    HW2 6693   0.904   3.502   4.106
 1932SOL     OW 6694   5.058   4.183   1.953
 1932SOL    HW1 6695   5.118   4.150   2.026
 1932SOL    HW2 6696   4.974   4.218   1.993
 1933SOL     OW 6697   2.308   4.545   0.486
 1933SOL    HW1 6698   2.363   4.464   0.507
 1933SOL    HW2 6699   2.270   4.537   0.394
 1934SOL     OW 6700   1.078   6.901   5.967
 1934SOL    HW1 6701   1.163   6.850   5.955
 1934SOL    HW2 6702   1.003   6.851   5.922
 1935SOL     OW 6703   2.308   0.022   3.968
 1935SOL    HW1 6704   2.393   0.049   4.012
 1935SOL    HW2 6705   2.325   6.960   3.907
 1936SOL     OW 6706   5.829   6.159   4.710
 1936SOL    HW1 6707   5.764   6.201   4.773
 1936SOL    HW2 6708   5.913   6.214   4.708
 1937SOL     OW 6709   3.833   6.457   2.047
 1937SOL    HW1 6710   3.739   6.453   2.081
 1937SOL    HW2 6711   3.834   6.441   1.949
 1938SOL     OW 6712   4.110   1.088   3.555
 1938SOL    HW1 6713   4.032   1.030   3.533
 1938SOL    HW2 6714   4.084   1.152   3.627
 1939SOL     OW 6715   1.490   0.992   3.612
 1939SOL    HW1 6716   1.481   0.952   3.521
 1939SOL    HW2 6717   1.407   0.974   3.665
 1940SOL     OW 6718   6.874   5.384   0.158
 1940SOL    HW1 6719   6.879   5.472   0.206
 1940SOL    HW2 6720   6.925   5.389   0.072
 1941SOL     OW 6721   5.870   3.475   2.544
 1941SOL    HW1 6722   5.942   3.520   2.491
 1941SOL    HW2 6723   5.865   3.517   2.635
 1942SOL     OW 6724   6.736   5.240   2.385
 1942SOL    HW1 6725   6.657   5.280   2.430
 1942SOL    HW2 6726   6.717   5.144   2.364
 1943SOL     OW 6727   2.287   4.141   3.399
 1943SOL    HW1 6728   2.281   4.071   3.328
 1943SOL    HW2 6729   2.315   4.228   3.358
 1944SOL     OW 6730   5.567   1.355   6.515
 1944SOL    HW1 6731   5.582   1.396   6.425
 1944SOL    HW2 6732   5.604   1.262   6.516
 1945SOL     OW 6733   4.460   5.461   3.908
 1945SOL    HW1 6734   4.377   5.406   3.898
 1945SOL    HW2 6735   4.446   5.550   3.865
 1946SOL     OW 6736   1.483   0.292   0.352
 1946SOL    HW1 6737   1.512   0.386   0.366
 1946SOL    HW2 6738   1.425   0.287   0.270
 1947SOL     OW 6739   5.382   6.700   3.818
 1947SOL    HW1 6740   5.436   6.623   3.786
 1947SOL    HW2 6741   5.390   6.707   3.918
 1948SOL     OW 6742   6.717   5.599   3.896
 1948SOL    HW1 6743   6.646   5.638   3.835
 1948SOL    HW2 6744   6.673   5.546   3.968
 1949SOL     OW 6745   4.510   4.242   6.488
 1949SOL    HW1 6746   4.481   4.189   6.409
 1949SOL    HW2 6747   4.586   4.301   6.462
 1950SOL     OW 6748   3.311   3.852   6.817
 1950SOL    HW1 6749   3.285   3.922   6.885
 1950SOL    HW2 6750   3.292   3.887   6.725
 1951SOL     OW 6751   5.368   1.492   0.169
 1951SOL    HW1 6752   5.360   1.451   0.260
 1951SOL    HW2 6753   5.368   1.592   0.177
 1952SOL     OW 6754   4.000   2.168   0.762
 1952SOL    HW1 6755   3.978   2.183   0.859
 1952SOL    HW2 6756   3.915   2.146   0.713
 1953SOL     OW 6757   0.070   2.267   6.544
 1953SOL    HW1 6758   0.007   2.345   6.556
 1953SOL    HW2 6759   0.163   2.297   6.564
 1954SOL     OW 6760   4.276   1.699   3.666
 1954SOL    HW1 6761   4.257   1.678   3.570
 1954SOL    HW2 6762   4.363   1.748   3.673
 1955SOL     OW 6763   0.812   6.756   2.213
 1955SOL    HW1 6764   0.742   6.773   2.144
 1955SOL    HW2 6765   0.881   6.827   2.209
 1956SOL     OW 6766   5.476   5.715   2.477
 1956SOL    HW1 6767   5.427   5.628   2.489
 1956SOL    HW2 6768   5.419   5.790   2.512
 1957SOL     OW 6769   0.484   5.487   4.731
 1957SOL    HW1 6770   0.450   5.577   4.757
 1957SOL    HW2 6771   0.555   5.458   4.795
 1958SOL     OW 6772   5.310   3.434   5.353
 1958SOL    HW1 6773   5.233   3.429   5.289
 1958SOL    HW2 6774   5.278   3.473   5.440
 1959SOL     OW 6775   1.284   2.084   5.798
 1959SOL    HW1 6776   1.309   2.177   5.772
 1959SOL    HW2 6777   1.185   2.076   5.805
 1960SOL     OW 6778   6.169   5.013   0.517
 1960SOL    HW1 6779   6.176   5.113   0.519
 1960SOL    HW2 6780   6.259   4.973   0.502
 1961SOL     OW 6781   5.874   4.589   3.644
 1961SOL    HW1 6782   5.952   4.566   3.703
 1961SOL    HW2 6783   5.821   4.662   3.687
 1962SOL     OW 6784   1.276   6.387   3.382
 1962SOL    HW1 6785   1.261   6.410   3.285
 1962SOL    HW2 6786   1.321   6.298   3.389
 1963SOL     OW 6787   0.541   0.219   2.596
 1963SOL    HW1 6788   0.505   0.191   2.684
 1963SOL    HW2 6789   0.579   0.311   2.602
 1964SOL     OW 6790   4.503   2.433   1.804
 1964SOL    HW1 6791   4.421   2.428   1.861
 1964SOL    HW2 6792   4.502   2.517   1.750
 1965SOL     OW 6793   0.579   3.428   1.998
 1965SOL    HW1 6794   0.588   3.478   1.912
 1965SOL    HW2 6795   0.661   3.374   2.014
 1966SOL     OW 6796   6.865   5.317   4.543
 1966SOL    HW1 6797   6.882   5.365   4.457
 1966SOL    HW2 6798   6.788   5.254   4.532
 1967SOL     OW 6799   5.065   3.057   6.030
 1967SOL    HW1 6800   5.041   3.140   6.080
 1967SOL    HW2 6801   5.104   3.082   5.941
 1968SOL     OW 6802   2.972   6.048   6.946
 1968SOL    HW1 6803   2.975   5.949   6.938
 1968SOL    HW2 6804   2.936   6.087   6.861
 1969SOL     OW 6805   6.664   2.685   1.641
 1969SOL    HW1 6806   6.585   2.629   1.667
 1969SOL    HW2 6807   6.714   2.712   1.723
 1970SOL     OW 6808   1.553   0.508   5.756
 1970SOL    HW1 6809   1.641   0.476   5.791
 1970SOL    HW2 6810   1.564   0.537   5.661
 1971SOL     OW 6811   0.509   6.799   6.285
 1971SOL    HW1 6812   0.522   6.718   6.228
 1971SOL    HW2 6813   0.422   6.843   6.262
 1972SOL     OW 6814   0.538   4.257   4.090
 1972SOL    HW1 6815   0.528   4.273   4.188
 1972SOL    HW2 6816   0.495   4.331   4.039
 1973SOL     OW 6817   3.452   2.890   1.389
 1973SOL    HW1 6818   3.475   2.974   1.439
 1973SOL    HW2 6819   3.535   2.836   1.375
 1974SOL     OW 6820   5.571   6.296   4.877
 1974SOL    HW1 6821   5.658   6.274   4.922
 1974SOL    HW2 6822   5.498   6.242   4.918
 1975SOL     OW 6823   2.207   0.577   4.399
 1975SOL    HW1 6824   2.284   0.519   4.425
 1975SOL    HW2 6825   2.153   0.599   4.480
 1976SOL     OW 6826   0.782   5.857   0.770
 1976SOL    HW1 6827   0.826   5.832   0.856
 1976SOL    HW2 6828   0.788   5.956   0.757
 1977SOL     OW 6829   0.942   2.368   4.374
 1977SOL    HW1 6830   0.997   2.369   4.291
 1977SOL    HW2 6831   0.851   2.402   4.354
 1978SOL     OW 6832   0.137   0.934   4.779
 1978SOL    HW1 6833   0.174   0.861   4.836
 1978SOL    HW2 6834   0.087   0.999   4.837
 1979SOL     OW 6835   0.003   4.374   4.798
 1979SOL    HW1 6836   0.004   4.357   4.897
 1979SOL    HW2 6837   6.962   4.455   4.780
 1980SOL     OW 6838   3.276   0.218   0.900
 1980SOL    HW1 6839   3.247   0.277   0.976
 1980SOL    HW2 6840   3.342   0.151   0.934
 1981SOL     OW 6841   5.287   2.880   2.303
 1981SOL    HW1 6842   5.281   2.950   2.373
 1981SOL    HW2 6843   5.264   2.920   2.214
 1982SOL     OW 6844   6.199   4.878   4.850
 1982SOL    HW1 6845   6.181   4.906   4.755
 1982SOL    HW2 6846   6.297   4.873   4.866
 1983SOL     OW 6847   1.186   2.373   3.123
 1983SOL    HW1 6848   1.179   2.385   3.222
 1983SOL    HW2 6849   1.277   2.401   3.092
 1984SOL     OW 6850   4.512   1.441   6.336
 1984SOL    HW1 6851   4.505   1.341   6.343
 1984SOL    HW2 6852   4.429   1.483   6.373
 1985SOL     OW 6853   1.115   0.917   2.267
 1985SOL    HW1 6854   1.081   0.855   2.197
 1985SOL    HW2 6855   1.039   0.968   2.307
 1986SOL     OW 6856   1.439   2.058   6.810
 1986SOL    HW1 6857   1.431   2.157   6.798
 1986SOL    HW2 6858   1.535   2.034   6.822
 1987SOL     OW 6859   2.729   3.149   1.784
 1987SOL    HW1 6860   2.737   3.055   1.751
 1987SOL    HW2 6861   2.789   3.161   1.864
 1988SOL     OW 6862   4.698   4.082   6.840
 1988SOL    HW1 6863   4.719   3.992   6.878
 1988SOL    HW2 6864   4.722   4.153   6.906
 1989SOL     OW 6865   2.323   0.127   4.665
 1989SOL    HW1 6866   2.314   0.029   4.643
 1989SOL    HW2 6867   2.414   0.144   4.702
 1990SOL     OW 6868   3.122   1.231   1.341
 1990SOL    HW1 6869   3.126   1.212   1.243
 1990SOL    HW2 6870   3.208   1.271   1.371
 1991SOL     OW 6871   3.502   5.707   5.584
 1991SOL    HW1 6872   3.502   5.681   5.487
 1991SOL    HW2 6873   3.581   5.766   5.602
 1992SOL     OW 6874   2.179   6.782   5.285
 1992SOL    HW1 6875   2.260   6.835   5.260
 1992SOL    HW2 6876   2.106   6.845   5.314
 1993SOL     OW 6877   3.899   3.661   5.093
 1993SOL    HW1 6878   3.863   3.619   5.177
 1993SOL    HW2 6879   3.998   3.648   5.089
 1994SOL     OW 6880   0.444   1.965   1.943
 1994SOL    HW1 6881   0.521   2.012   1.900
 1994SOL    HW2 6882   0.389   1.920   1.873
 1995SOL     OW 6883   6.279   2.124   1.729
 1995SOL    HW1 6884   6.233   2.212   1.722
 1995SOL    HW2 6885   6.331   2.107   1.646
 1996SOL     OW 6886   3.665   3.380   0.569
 1996SOL    HW1 6887   3.626   3.347   0.483
 1996SOL    HW2 6888   3.627   3.328   0.646
 1997SOL     OW 6889   5.758   1.116   5.119
 1997SOL    HW1 6890   5.796   1.035   5.163
 1997SOL    HW2 6891   5.660   1.101   5.101
 1998SOL     OW 6892   2.460   3.649   6.426
 1998SOL    HW1 6893   2.444   3.703   6.344
 1998SOL    HW2 6894   2.507   3.564   6.402
 1999SOL     OW 6895   2.181   0.183   2.245
 1999SOL    HW1 6896   2.112   0.125   2.288
 1999SOL    HW2 6897   2.138   0.238   2.173
 2000SOL     OW 6898   4.456   1.745   4.765
 2000SOL    HW1 6899   4.374   1.702   4.727
 2000SOL    HW2 6900   4.437   1.840   4.788
 2001SOL     OW 6901   3.824   1.821   1.088
 2001SOL    HW1 6902   3.827   1.742   1.148
 2001SOL    HW2 6903   3.917   1.852   1.068
 2002SOL     OW 6904   1.844   6.246   6.141
 2002SOL    HW1 6905   1.883   6.335   6.119
 2002SOL    HW2 6906   1.849   6.187   6.060
 2003SOL     OW 6907   5.413   0.378   3.296
 2003SOL    HW1 6908   5.403   0.377   3.396
 2003SOL    HW2 6909   5.404   0.472   3.263
 2004SOL     OW 6910   4.238   1.131   4.576
 2004SOL    HW1 6911   4.170   1.203   4.559
 2004SOL    HW2 6912   4.317   1.145   4.516
 2005SOL     OW 6913   2.186   6.102   6.361
 2005SOL    HW1 6914   2.210   6.193   6.326
 2005SOL    HW2 6915   2.239   6.084   6.444
 2006SOL     OW 6916   4.726   4.224   3.664
 2006SOL    HW1 6917   4.666   4.298   3.637
 2006SOL    HW2 6918   4.742   4.229   3.763
 2007SOL     OW 6919   5.184   4.938   6.845
 2007SOL    HW1 6920   5.181   4.843   6.815
 2007SOL    HW2 6921   5.140   4.996   6.775
 2008SOL     OW 6922   6.607   6.037   3.333
 2008SOL    HW1 6923   6.638   5.959   3.388
 2008SOL    HW2 6924   6.587   6.114   3.394
 2009SOL     OW 6925   6.644   0.212   1.900
 2009SOL    HW1 6926   6.743   0.205   1.909
 2009SOL    HW2 6927   6.616   0.175   1.812
 2010SOL     OW 6928   1.674   0.938   1.101
 2010SOL    HW1 6929   1.615   0.858   1.096
 2010SOL    HW2 6930   1.640   1.009   1.040
 2011SOL     OW 6931   6.916   2.339   4.942
 2011SOL    HW1 6932   6.892   2.315   4.848
 2011SOL    HW2 6933   7.012   2.318   4.959
 2012SOL     OW 6934   1.416   4.300   1.394
 2012SOL    HW1 6935   1.374   4.347   1.472
 2012SOL    HW2 6936   1.415   4.201   1.410
 2013SOL     OW 6937   5.296   1.783   2.971
 2013SOL    HW1 6938   5.329   1.763   3.063
 2013SOL    HW2 6939   5.316   1.878   2.948
 2014SOL     OW 6940   1.005   5.966   3.547
 2014SOL    HW1 6941   0.938   5.942   3.617
 2014SOL    HW2 6942   1.075   5.895   3.542
 2015SOL     OW 6943   3.656   0.680   0.390
 2015SOL    HW1 6944   3.745   0.696   0.431
 2015SOL    HW2 6945   3.665   0.616   0.313
 2016SOL     OW 6946   1.182   5.751   4.032
 2016SOL    HW1 6947   1.240   5.804   4.094
 2016SOL    HW2 6948   1.210   5.655   4.035
 2017SOL     OW 6949   2.643   6.465   3.324
 2017SOL    HW1 6950   2.585   6.438   3.401
 2017SOL    HW2 6951   2.619   6.411   3.244
 2018SOL     OW 6952   6.923   5.513   4.993
 2018SOL    HW1 6953   6.916   5.606   5.027
 2018SOL    HW2 6954   6.845   5.493   4.933
 2019SOL     OW 6955   5.344   2.600   0.945
 2019SOL    HW1 6956   5.282   2.669   0.909
 2019SOL    HW2 6957   5.360   2.616   1.043
 2020SOL     OW 6958   1.679   5.249   4.132
 2020SOL    HW1 6959   1.770   5.224   4.166
 2020SOL    HW2 6960   1.674   5.348   4.119
 2021SOL     OW 6961   1.694   0.738   2.119
 2021SOL    HW1 6962   1.750   0.751   2.200
 2021SOL    HW2 6963   1.750   0.700   2.045
 2022SOL     OW 6964   2.170   3.509   1.675
 2022SOL    HW1 6965   2.206   3.598   1.647
 2022SOL    HW2 6966   2.224   3.474   1.752
 2023SOL     OW 6967   6.823   1.142   6.844
 2023SOL    HW1 6968   6.874   1.113   6.925
 2023SOL    HW2 6969   6.790   1.062   6.795
 2024SOL     OW 6970   6.036   0.639   3.347
 2024SOL    HW1 6971   5.984   0.611   3.266
 2024SOL    HW2 6972   6.132   0.617   3.333
 2025SOL     OW 6973   0.989   2.085   1.377
 2025SOL    HW1 6974   1.039   2.106   1.293
 2025SOL    HW2 6975   0.934   2.164   1.404
 2026SOL     OW 6976   2.208   2.387   6.399
 2026SOL    HW1 6977   2.234   2.405   6.304
 2026SOL    HW2 6978   2.279   2.422   6.460
 2027SOL     OW 6979   0.435   0.943   2.179
 2027SOL    HW1 6980   0.484   0.859   2.156
 2027SOL    HW2 6981   0.432   1.002   2.098
 2028SOL     OW 6982   3.912   1.226   0.718
 2028SOL    HW1 6983   3.915   1.133   0.755
 2028SOL    HW2 6984   3.829   1.272   0.749
 2029SOL     OW 6985   1.381   0.716   6.718
 2029SOL    HW1 6986   1.338   0.687   6.632
 2029SOL    HW2 6987   1.350   0.808   6.742
 2030SOL     OW 6988   2.299   2.387   3.502
 2030SOL    HW1 6989   2.311   2.379   3.403
 2030SOL    HW2 6990   2.240   2.465   3.522
 2031SOL     OW 6991   5.275   5.879   1.987
 2031SOL    HW1 6992   5.181   5.909   1.970
 2031SOL    HW2 6993   5.299   5.894   2.083
 2032SOL     OW 6994   5.222   6.013   1.362
 2032SOL    HW1 6995   5.133   5.969   1.373
 2032SOL    HW2 6996   5.295   5.944   1.365
 2033SOL     OW 6997   4.435   4.631   6.418
 2033SOL    HW1 6998   4.511   4.623   6.354
 2033SOL    HW2 6999   4.466   4.676   6.502
 2034SOL     OW 7000   2.059   6.156   3.206
 2034SOL    HW1 7001   2.025   6.070   3.245
 2034SOL    HW2 7002   2.077   6.143   3.109
 2035SOL     OW 7003   6.835   1.686   2.480
 2035SOL    HW1 7004   6.860   1.591   2.502
 2035SOL    HW2 7005   6.904   1.748   2.516
 2036SOL     OW 7006   0.733   5.562   0.984
 2036SOL    HW1 7007   0.735   5.466   1.011
 2036SOL    HW2 7008   0.649   5.604   1.018
 2037SOL     OW 7009   6.928   2.420   5.579
 2037SOL    HW1 7010   6.936   2.520   5.587
 2037SOL    HW2 7011   6.839   2.392   5.615
 2038SOL     OW 7012   1.128   1.459   5.659
 2038SOL    HW1 7013   1.098   1.403   5.582
 2038SOL    HW2 7014   1.202   1.519   5.629
 2039SOL     OW 7015   0.161   5.970   3.843
 2039SOL    HW1 7016   0.218   5.963   3.924
 2039SOL    HW2 7017   0.219   5.979   3.762
 2040SOL     OW 7018   3.595   3.180   4.113
 2040SOL    HW1 7019   3.554   3.254   4.060
 2040SOL    HW2 7020   3.527   3.110   4.132
 2041SOL     OW 7021   5.839   4.977   6.003
 2041SOL    HW1 7022   5.858   4.947   6.097
 2041SOL    HW2 7023   5.757   4.931   5.969
 2042SOL     OW 7024   5.457   5.449   0.814
 2042SOL    HW1 7025   5.469   5.354   0.842
 2042SOL    HW2 7026   5.537   5.502   0.842
 2043SOL     OW 7027   6.324   5.303   2.133
 2043SOL    HW1 7028   6.423   5.317   2.133
 2043SOL    HW2 7029   6.285   5.342   2.217
 2044SOL     OW 7030   6.051   6.927   2.057
 2044SOL    HW1 7031   6.038   6.830   2.036
 2044SOL    HW2 7032   6.002   6.949   2.142
 2045SOL     OW 7033   2.332   5.008   5.747
 2045SOL    HW1 7034   2.262   4.954   5.702
 2045SOL    HW2 7035   2.341   5.096   5.701
 2046SOL     OW 7036   0.028   0.178   4.378
 2046SOL    HW1 7037   7.002   0.117   4.446
 2046SOL    HW2 7038   0.028   0.272   4.412
 2047SOL     OW 7039   4.620   1.933   1.259
 2047SOL    HW1 7040   4.575   1.874   1.192
 2047SOL    HW2 7041   4.606   1.896   1.351
 2048SOL     OW 7042   3.702   6.729   0.148
 2048SOL    HW1 7043   3.738   6.667   0.218
 2048SOL    HW2 7044   3.614   6.693   0.115
 2049SOL     OW 7045   4.629   1.821   6.667
 2049SOL    HW1 7046   4.643   1.864   6.756
 2049SOL    HW2 7047   4.621   1.892   6.596
 2050SOL     OW 7048   6.215   3.056   3.517
 2050SOL    HW1 7049   6.182   2.964   3.539
 2050SOL    HW2 7050   6.292   3.079   3.576
 2051SOL     OW 7051   0.259   5.133   6.653
 2051SOL    HW1 7052   0.298   5.061   6.596
 2051SOL    HW2 7053   0.159   5.130   6.647
 2052SOL     OW 7054   0.667   3.182   0.090
 2052SOL    HW1 7055   0.749   3.233   0.063
 2052SOL    HW2 7056   0.651   3.108   0.025
 2053SOL     OW 7057   5.882   0.013   0.453
 2053SOL    HW1 7058   5.836   7.008   0.539
 2053SOL    HW2 7059   5.975   0.045   0.472
 2054SOL     OW 7060   6.158   2.694   0.800
 2054SOL    HW1 7061   6.171   2.743   0.886
 2054SOL    HW2 7062   6.135   2.598   0.819
 2055SOL     OW 7063   5.515   2.560   3.233
 2055SOL    HW1 7064   5.490   2.484   3.173
 2055SOL    HW2 7065   5.593   2.534   3.289
 2056SOL     OW 7066   2.036   1.292   2.855
 2056SOL    HW1 7067   2.046   1.286   2.954
 2056SOL    HW2 7068   2.006   1.384   2.830
 2057SOL     OW 7069   5.715   2.145   3.788
 2057SOL    HW1 7070   5.745   2.132   3.882
 2057SOL    HW2 7071   5.622   2.184   3.788
 2058SOL     OW 7072   0.670   1.734   2.985
 2058SOL    HW1 7073   0.594   1.783   2.941
 2058SOL    HW2 7074   0.741   1.799   3.012
 2059SOL     OW 7075   2.179   0.165   6.941
 2059SOL    HW1 7076   2.115   0.190   6.868
 2059SOL    HW2 7077   2.210   0.071   6.928
 2060SOL     OW 7078   6.734   4.297   1.498
 2060SOL    HW1 7079   6.773   4.207   1.476
 2060SOL    HW2 7080   6.804   4.368   1.485
 2061SOL     OW 7081   0.066   1.061   2.263
 2061SOL    HW1 7082   0.126   0.982   2.248
 2061SOL    HW2 7083   0.094   1.136   2.202
 2062SOL     OW 7084   5.200   6.856   3.015
 2062SOL    HW1 7085   5.122   6.892   2.964
 2062SOL    HW2 7086   5.170   6.825   3.105
 2063SOL     OW 7087   1.169   1.489   6.258
 2063SOL    HW1 7088   1.203   1.513   6.349
 2063SOL    HW2 7089   1.246   1.479   6.195
 2064SOL     OW 7090   1.168   2.454   5.693
 2064SOL    HW1 7091   1.259   2.495   5.701
 2064SOL    HW2 7092   1.108   2.492   5.764
 2065SOL     OW 7093   5.744   3.382   2.213
 2065SOL    HW1 7094   5.699   3.364   2.125
 2065SOL    HW2 7095   5.842   3.398   2.197
 2066SOL     OW 7096   0.469   4.972   4.236
 2066SOL    HW1 7097   0.433   5.030   4.309
 2066SOL    HW2 7098   0.569   4.969   4.241
 2067SOL     OW 7099   6.821   6.483   0.492
 2067SOL    HW1 7100   6.799   6.571   0.450
 2067SOL    HW2 7101   6.918   6.480   0.515
 2068SOL     OW 7102   2.123   1.370   5.575
 2068SOL    HW1 7103   2.155   1.428   5.499
 2068SOL    HW2 7104   2.188   1.377   5.651
 2069SOL     OW 7105   0.666   3.148   2.590
 2069SOL    HW1 7106   0.654   3.095   2.506
 2069SOL    HW2 7107   0.760   3.140   2.621
 2070SOL     OW 7108   1.126   0.479   2.377
 2070SOL    HW1 7109   1.056   0.543   2.410
 2070SOL    HW2 7110   1.109   0.388   2.415
 2071SOL     OW 7111   0.905   6.467   4.026
 2071SOL    HW1 7112   0.848   6.389   4.001
 2071SOL    HW2 7113   0.876   6.548   3.974
 2072SOL     OW 7114   4.489   5.826   2.140
 2072SOL    HW1 7115   4.567   5.829   2.204
 2072SOL    HW2 7116   4.444   5.738   2.147
 2073SOL     OW 7117   3.855   0.119   4.404
 2073SOL    HW1 7118   3.843   0.184   4.329
 2073SOL    HW2 7119   3.807   0.152   4.485
 2074SOL     OW 7120   0.346   2.142   6.828
 2074SOL    HW1 7121   0.246   2.143   6.824
 2074SOL    HW2 7122   0.378   2.049   6.844
 2075SOL     OW 7123   4.743   3.279   1.497
 2075SOL    HW1 7124   4.822   3.274   1.558
 2075SOL    HW2 7125   4.660   3.252   1.546
 2076SOL     OW 7126   5.660   6.016   0.185
 2076SOL    HW1 7127   5.574   5.965   0.186
 2076SOL    HW2 7128   5.722   5.977   0.117
 2077SOL     OW 7129   5.587   2.667   2.187
 2077SOL    HW1 7130   5.657   2.597   2.201
 2077SOL    HW2 7131   5.515   2.656   2.257
 2078SOL     OW 7132   2.989   5.879   6.302
 2078SOL    HW1 7133   2.998   5.878   6.203
 2078SOL    HW2 7134   2.898   5.847   6.328
 2079SOL     OW 7135   5.636   0.718   3.691
 2079SOL    HW1 7136   5.655   0.620   3.687
 2079SOL    HW2 7137   5.662   0.761   3.605
 2080SOL     OW 7138   2.286   1.764   4.940
 2080SOL    HW1 7139   2.317   1.849   4.898
 2080SOL    HW2 7140   2.344   1.743   5.019
 2081SOL     OW 7141   1.179   6.327   5.155
 2081SOL    HW1 7142   1.152   6.304   5.249
 2081SOL    HW2 7143   1.251   6.396   5.157
 2082SOL     OW 7144   5.516   0.368   1.582
 2082SOL    HW1 7145   5.577   0.301   1.625
 2082SOL    HW2 7146   5.426   0.364   1.625
 2083SOL     OW 7147   3.966   4.743   6.788
 2083SOL    HW1 7148   4.064   4.759   6.800
 2083SOL    HW2 7149   3.928   4.815   6.730
 2084SOL     OW 7150   6.616   2.850   3.546
 2084SOL    HW1 7151   6.654   2.936   3.580
 2084SOL    HW2 7152   6.637   2.840   3.449
 2085SOL     OW 7153   5.333   0.938   6.752
 2085SOL    HW1 7154   5.348   0.977   6.843
 2085SOL    HW2 7155   5.261   0.869   6.756
 2086SOL     OW 7156   2.918   5.568   6.306
 2086SOL    HW1 7157   2.835   5.618   6.330
 2086SOL    HW2 7158   2.996   5.607   6.355
 2087SOL     OW 7159   4.537   6.318   2.125
 2087SOL    HW1 7160   4.504   6.375   2.049
 2087SOL    HW2 7161   4.533   6.371   2.210
 2088SOL     OW 7162   3.290   6.011   0.689
 2088SOL    HW1 7163   3.258   5.917   0.692
 2088SOL    HW2 7164   3.229   6.070   0.741
 2089SOL     OW 7165   4.709   1.402   0.204
 2089SOL    HW1 7166   4.712   1.326   0.138
 2089SOL    HW2 7167   4.784   1.465   0.185
 2090SOL     OW 7168   4.095   3.603   4.173
 2090SOL    HW1 7169   4.103   3.591   4.272
 2090SOL    HW2 7170   4.000   3.624   4.149
 2091SOL     OW 7171   0.580   5.836   0.487
 2091SOL    HW1 7172   0.648   5.768   0.511
 2091SOL    HW2 7173   0.615   5.894   0.413
 2092SOL     OW 7174   5.610   6.190   0.550
 2092SOL    HW1 7175   5.666   6.259   0.504
 2092SOL    HW2 7176   5.638   6.099   0.520
 2093SOL     OW 7177   1.409   1.819   1.577
 2093SOL    HW1 7178   1.334   1.875   1.612
 2093SOL    HW2 7179   1.386   1.787   1.485
 2094SOL     OW 7180   6.226   0.692   1.600
 2094SOL    HW1 7181   6.184   0.748   1.671
 2094SOL    HW2 7182   6.245   0.600   1.636
 2095SOL     OW 7183   5.342   6.932   3.680
 2095SOL    HW1 7184   5.398   7.013   3.667
 2095SOL    HW2 7185   5.384   6.872   3.749
 2096SOL     OW 7186   4.847   3.801   3.094
 2096SOL    HW1 7187   4.875   3.797   3.190
 2096SOL    HW2 7188   4.879   3.719   3.046
 2097SOL     OW 7189   0.965   2.812   6.447
 2097SOL    HW1 7190   0.894   2.809   6.376
 2097SOL    HW2 7191   1.053   2.789   6.407
 2098SOL     OW 7192   3.953   6.343   3.961
 2098SOL    HW1 7193   4.053   6.344   3.959
 2098SOL    HW2 7194   3.920   6.271   3.901
 2099SOL     OW 7195   2.467   1.197   4.960
 2099SOL    HW1 7196   2.438   1.126   5.025
 2099SOL    HW2 7197   2.450   1.165   4.867
 2100SOL     OW 7198   3.688   3.722   6.603
 2100SOL    HW1 7199   3.709   3.641   6.547
 2100SOL    HW2 7200   3.621   3.779   6.555
 2101SOL     OW 7201   1.231   6.658   2.045
 2101SOL    HW1 7202   1.230   6.558   2.052
 2101SOL    HW2 7203   1.224   6.685   1.949
 2102SOL     OW 7204   0.175   4.900   2.006
 2102SOL    HW1 7205   0.222   4.904   1.917
 2102SOL    HW2 7206   0.223   4.957   2.072
 2103SOL     OW 7207   2.597   3.801   0.000
 2103SOL    HW1 7208   2.623   3.753   0.084
 2103SOL    HW2 7209   2.544   3.740   6.957
 2104SOL     OW 7210   1.648   3.542   6.763
 2104SOL    HW1 7211   1.747   3.535   6.775
 2104SOL    HW2 7212   1.624   3.526   6.668
 2105SOL     OW 7213   5.173   5.343   3.273
 2105SOL    HW1 7214   5.101   5.278   3.298
 2105SOL    HW2 7215   5.233   5.357   3.352
 2106SOL     OW 7216   4.163   5.327   0.194
 2106SOL    HW1 7217   4.165   5.414   0.243
 2106SOL    HW2 7218   4.197   5.342   0.101
 2107SOL     OW 7219   4.152   3.591   5.758
 2107SOL    HW1 7220   4.103   3.661   5.706
 2107SOL    HW2 7221   4.231   3.560   5.704
 2108SOL     OW 7222   5.990   6.141   5.771
 2108SOL    HW1 7223   6.033   6.127   5.860
 2108SOL    HW2 7224   5.927   6.066   5.752
 2109SOL     OW 7225   5.107   6.982   3.849
 2109SOL    HW1 7226   5.019   6.955   3.811
 2109SOL    HW2 7227   5.180   6.955   3.786
 2110SOL     OW 7228   2.784   4.015   6.357
 2110SOL    HW1 7229   2.864   4.039   6.412
 2110SOL    HW2 7230   2.759   3.920   6.373
 2111SOL     OW 7231   0.742   1.972   6.302
 2111SOL    HW1 7232   0.673   1.937   6.366
 2111SOL    HW2 7233   0.797   2.042   6.348
 2112SOL     OW 7234   4.717   1.860   1.773
 2112SOL    HW1 7235   4.621   1.869   1.802
 2112SOL    HW2 7236   4.758   1.951   1.766
 2113SOL     OW 7237   1.042   0.287   3.984
 2113SOL    HW1 7238   1.123   0.345   3.991
 2113SOL    HW2 7239   1.067   0.192   4.002
 2114SOL     OW 7240   1.427   3.119   0.517
 2114SOL    HW1 7241   1.336   3.088   0.545
 2114SOL    HW2 7242   1.467   3.175   0.589
 2115SOL     OW 7243   1.964   4.074   3.231
 2115SOL    HW1 7244   1.968   4.092   3.330
 2115SOL    HW2 7245   1.873   4.040   3.208
 2116SOL     OW 7246   6.677   3.866   3.338
 2116SOL    HW1 7247   6.662   3.876   3.437
 2116SOL    HW2 7248   6.611   3.923   3.289
 2117SOL     OW 7249   0.008   4.625   1.795
 2117SOL    HW1 7250   0.107   4.617   1.798
 2117SOL    HW2 7251   6.982   4.566   1.864
 2118SOL     OW 7252   0.354   3.438   2.523
 2118SOL    HW1 7253   0.452   3.449   2.533
 2118SOL    HW2 7254   0.308   3.465   2.608
 2119SOL     OW 7255   2.437   5.992   1.129
 2119SOL    HW1 7256   2.376   6.041   1.191
 2119SOL    HW2 7257   2.529   6.030   1.136
 2120SOL     OW 7258   6.511   4.958   2.955
 2120SOL    HW1 7259   6.438   4.899   2.989
 2120SOL    HW2 7260   6.471   5.037   2.908
 2121SOL     OW 7261   0.914   4.586   5.407
 2121SOL    HW1 7262   0.888   4.549   5.318
 2121SOL    HW2 7263   0.844   4.651   5.438
 2122SOL     OW 7264   6.338   4.136   5.387
 2122SOL    HW1 7265   6.362   4.074   5.462
 2122SOL    HW2 7266   6.242   4.163   5.395
 2123SOL     OW 7267   0.562   4.376   2.625
 2123SOL    HW1 7268   0.530   4.465   2.594
 2123SOL    HW2 7269   0.541   4.366   2.723
 2124SOL     OW 7270   2.203   1.554   1.295
 2124SOL    HW1 7271   2.126   1.571   1.234
 2124SOL    HW2 7272   2.199   1.617   1.372
 2125SOL     OW 7273   1.518   0.910   0.665
 2125SOL    HW1 7274   1.561   0.823   0.642
 2125SOL    HW2 7275   1.480   0.952   0.582
 2126SOL     OW 7276   3.076   0.725   0.832
 2126SOL    HW1 7277   3.159   0.682   0.796
 2126SOL    HW2 7278   3.014   0.747   0.756
 2127SOL     OW 7279   5.921   2.836   4.477
 2127SOL    HW1 7280   5.965   2.855   4.565
 2127SOL    HW2 7281   5.846   2.901   4.463
 2128SOL     OW 7282   0.136   4.434   4.567
 2128SOL    HW1 7283   0.090   4.411   4.652
 2128SOL    HW2 7284   0.110   4.526   4.538
 2129SOL     OW 7285   4.326   3.006   5.732
 2129SOL    HW1 7286   4.400   3.072   5.725
 2129SOL    HW2 7287   4.363   2.916   5.758
 2130SOL     OW 7288   4.774   6.726   2.652
 2130SOL    HW1 7289   4.857   6.781   2.650
 2130SOL    HW2 7290   4.714   6.753   2.576
 2131SOL     OW 7291   6.997   0.836   0.646
 2131SOL    HW1 7292   0.062   0.839   0.705
 2131SOL    HW2 7293   0.010   0.826   0.551
 2132SOL     OW 7294   3.816   3.053   0.962
 2132SOL    HW1 7295   3.769   3.118   0.901
 2132SOL    HW2 7296   3.862   2.984   0.906
 2133SOL     OW 7297   3.022   2.379   5.367
 2133SOL    HW1 7298   3.094   2.397   5.300
 2133SOL    HW2 7299   2.962   2.307   5.333
 2134SOL     OW 7300   0.045   1.877   0.602
 2134SOL    HW1 7301   0.024   1.783   0.625
 2134SOL    HW2 7302   0.087   1.923   0.681
 2135SOL     OW 7303   0.394   4.500   4.560
 2135SOL    HW1 7304   0.296   4.489   4.572
 2135SOL    HW2 7305   0.440   4.480   4.647
 2136SOL     OW 7306   3.004   5.171   2.261
 2136SOL    HW1 7307   2.911   5.204   2.275
 2136SOL    HW2 7308   3.022   5.096   2.326
 2137SOL     OW 7309   3.320   5.154   5.043
 2137SOL    HW1 7310   3.235   5.115   5.008
 2137SOL    HW2 7311   3.310   5.253   5.053
 2138SOL     OW 7312   6.106   0.996   2.991
 2138SOL    HW1 7313   6.064   0.975   3.079
 2138SOL    HW2 7314   6.116   1.095   2.980
 2139SOL     OW 7315   3.939   0.515   4.639
 2139SOL    HW1 7316   4.015   0.577   4.660
 2139SOL    HW2 7317   3.873   0.560   4.580
 2140SOL     OW 7318   3.747   0.305   4.592
 2140SOL    HW1 7319   3.674   0.359   4.552
 2140SOL    HW2 7320   3.803   0.362   4.652
 2141SOL     OW 7321   6.485   4.011   2.637
 2141SOL    HW1 7322   6.496   3.983   2.732
 2141SOL    HW2 7323   6.459   3.932   2.582
 2142SOL     OW 7324   1.184   2.236   3.663
 2142SOL    HW1 7325   1.193   2.148   3.616
 2142SOL    HW2 7326   1.273   2.267   3.694
 2143SOL     OW 7327   1.964   5.711   1.125
 2143SOL    HW1 7328   1.889   5.669   1.176
 2143SOL    HW2 7329   2.046   5.656   1.137
 2144SOL     OW 7330   0.359   4.713   4.159
 2144SOL    HW1 7331   0.376   4.679   4.252
 2144SOL    HW2 7332   0.387   4.809   4.153
 2145SOL     OW 7333   4.142   6.808   3.964
 2145SOL    HW1 7334   4.226   6.753   3.967
 2145SOL    HW2 7335   4.063   6.747   3.958
 2146SOL     OW 7336   2.156   1.959   0.643
 2146SOL    HW1 7337   2.167   1.874   0.696
 2146SOL    HW2 7338   2.246   1.989   0.612
 2147SOL     OW 7339   6.806   1.962   5.822
 2147SOL    HW1 7340   6.882   1.897   5.817
 2147SOL    HW2 7341   6.768   1.962   5.915
 2148SOL     OW 7342   0.190   3.213   6.180
 2148SOL    HW1 7343   0.135   3.131   6.193
 2148SOL    HW2 7344   0.135   3.295   6.198
 2149SOL     OW 7345   0.994   1.138   0.825
 2149SOL    HW1 7346   1.017   1.167   0.918
 2149SOL    HW2 7347   1.066   1.168   0.762
 2150SOL     OW 7348   2.773   2.678   1.710
 2150SOL    HW1 7349   2.812   2.587   1.726
 2150SOL    HW2 7350   2.845   2.747   1.722
 2151SOL     OW 7351   0.799   6.176   0.076
 2151SOL    HW1 7352   0.818   6.128   7.006
 2151SOL    HW2 7353   0.880   6.226   0.106
 2152SOL     OW 7354   3.551   5.523   2.435
 2152SOL    HW1 7355   3.488   5.462   2.387
 2152SOL    HW2 7356   3.513   5.616   2.436
 2153SOL     OW 7357   5.052   1.436   2.577
 2153SOL    HW1 7358   5.064   1.504   2.506
 2153SOL    HW2 7359   5.087   1.348   2.545
 2154SOL     OW 7360   2.795   6.644   3.836
 2154SOL    HW1 7361   2.827   6.684   3.750
 2154SOL    HW2 7362   2.847   6.683   3.912
 2155SOL     OW 7363   4.218   6.741   0.996
 2155SOL    HW1 7364   4.260   6.692   0.920
 2155SOL    HW2 7365   4.239   6.838   0.989
 2156SOL     OW 7366   6.529   0.375   4.415
 2156SOL    HW1 7367   6.585   0.398   4.495
 2156SOL    HW2 7368   6.494   0.458   4.372
 2157SOL     OW 7369   4.539   6.206   3.919
 2157SOL    HW1 7370   4.610   6.197   3.848
 2157SOL    HW2 7371   4.570   6.268   3.990
 2158SOL     OW 7372   4.191   6.670   0.723
 2158SOL    HW1 7373   4.195   6.570   0.715
 2158SOL    HW2 7374   4.097   6.699   0.738
 2159SOL     OW 7375   1.905   0.754   5.128
 2159SOL    HW1 7376   1.849   0.734   5.048
 2159SOL    HW2 7377   1.854   0.729   5.211
 2160SOL     OW 7378   5.003   5.141   0.013
 2160SOL    HW1 7379   5.077   5.095   6.979
 2160SOL    HW2 7380   4.969   5.217   6.973
 2161SOL     OW 7381   0.248   3.954   2.398
 2161SOL    HW1 7382   0.322   3.990   2.455
 2161SOL    HW2 7383   0.161   3.969   2.443
 2162SOL     OW 7384   2.552   6.977   3.295
 2162SOL    HW1 7385   2.479   0.000   3.238
 2162SOL    HW2 7386   2.524   6.888   3.330
 2163SOL     OW 7387   1.741   3.485   0.364
 2163SOL    HW1 7388   1.670   3.492   0.434
 2163SOL    HW2 7389   1.795   3.569   0.364
 2164SOL     OW 7390   2.796   2.626   6.859
 2164SOL    HW1 7391   2.803   2.708   6.802
 2164SOL    HW2 7392   2.886   2.583   6.869
 2165SOL     OW 7393   0.865   1.648   4.165
 2165SOL    HW1 7394   0.897   1.741   4.185
 2165SOL    HW2 7395   0.767   1.642   4.188
 2166SOL     OW 7396   0.128   4.331   3.934
 2166SOL    HW1 7397   0.137   4.256   4.000
 2166SOL    HW2 7398   0.120   4.418   3.983
 2167SOL     OW 7399   1.171   2.907   3.521
 2167SOL    HW1 7400   1.194   2.871   3.611
 2167SOL    HW2 7401   1.086   2.959   3.527
 2168SOL     OW 7402   1.059   1.793   2.922
 2168SOL    HW1 7403   1.072   1.783   2.824
 2168SOL    HW2 7404   0.990   1.728   2.953
 2169SOL     OW 7405   0.203   0.166   1.029
 2169SOL    HW1 7406   0.231   0.188   0.936
 2169SOL    HW2 7407   0.278   0.184   1.092
 2170SOL     OW 7408   0.056   4.119   4.719
 2170SOL    HW1 7409   0.152   4.144   4.709
 2170SOL    HW2 7410   0.000   4.201   4.730
 2171SOL     OW 7411   0.553   6.044   1.091
 2171SOL    HW1 7412   0.564   6.107   1.014
 2171SOL    HW2 7413   0.527   5.954   1.058
 2172SOL     OW 7414   1.681   2.087   5.765
 2172SOL    HW1 7415   1.743   2.152   5.808
 2172SOL    HW2 7416   1.656   2.016   5.830
 2173SOL     OW 7417   5.396   6.932   5.904
 2173SOL    HW1 7418   5.491   6.954   5.923
 2173SOL    HW2 7419   5.354   7.005   5.851
 2174SOL     OW 7420   0.116   6.242   4.916
 2174SOL    HW1 7421   0.192   6.303   4.940
 2174SOL    HW2 7422   0.146   6.178   4.845
 2175SOL     OW 7423   1.942   2.860   4.933
 2175SOL    HW1 7424   2.003   2.861   5.013
 2175SOL    HW2 7425   1.979   2.920   4.862
 2176SOL     OW 7426   4.827   2.601   1.020
 2176SOL    HW1 7427   4.860   2.660   1.095
 2176SOL    HW2 7428   4.779   2.523   1.059
 2177SOL     OW 7429   6.400   0.842   2.421
 2177SOL    HW1 7430   6.339   0.894   2.481
 2177SOL    HW2 7431   6.406   0.748   2.454
 2178SOL     OW 7432   1.257   0.936   1.940
 2178SOL    HW1 7433   1.163   0.967   1.931
 2178SOL    HW2 7434   1.258   0.839   1.967
 2179SOL     OW 7435   1.795   3.135   5.960
 2179SOL    HW1 7436   1.806   3.182   5.873
 2179SOL    HW2 7437   1.884   3.119   6.001
 2180SOL     OW 7438   1.801   3.581   1.934
 2180SOL    HW1 7439   1.869   3.582   2.007
 2180SOL    HW2 7440   1.840   3.540   1.852
 2181SOL     OW 7441   4.918   5.044   4.336
 2181SOL    HW1 7442   4.941   5.124   4.280
 2181SOL    HW2 7443   4.870   5.074   4.419
 2182SOL     OW 7444   0.532   4.513   3.631
 2182SOL    HW1 7445   0.441   4.488   3.598
 2182SOL    HW2 7446   0.524   4.569   3.713
 2183SOL     OW 7447   2.451   3.816   0.801
 2183SOL    HW1 7448   2.434   3.910   0.830
 2183SOL    HW2 7449   2.485   3.815   0.707
 2184SOL     OW 7450   4.740   0.081   6.762
 2184SOL    HW1 7451   4.795   0.012   6.810
 2184SOL    HW2 7452   4.695   0.039   6.683
 2185SOL     OW 7453   0.946   1.282   6.794
 2185SOL    HW1 7454   0.999   1.203   6.764
 2185SOL    HW2 7455   1.008   1.349   6.835
 2186SOL     OW 7456   5.952   5.523   5.725
 2186SOL    HW1 7457   5.890   5.457   5.767
 2186SOL    HW2 7458   5.973   5.595   5.791
 2187SOL     OW 7459   0.205   6.063   2.536
 2187SOL    HW1 7460   0.200   6.160   2.559
 2187SOL    HW2 7461   0.282   6.021   2.585
 2188SOL     OW 7462   2.237   5.093   6.000
 2188SOL    HW1 7463   2.282   5.046   6.076
 2188SOL    HW2 7464   2.291   5.080   5.916
 2189SOL     OW 7465   1.646   0.835   2.417
 2189SOL    HW1 7466   1.580   0.793   2.355
 2189SOL    HW2 7467   1.599   0.901   2.476
 2190SOL     OW 7468   6.619   3.740   2.404
 2190SOL    HW1 7469   6.632   3.767   2.309
 2190SOL    HW2 7470   6.703   3.760   2.455
 2191SOL     OW 7471   2.679   1.448   5.119
 2191SOL    HW1 7472   2.735   1.517   5.164
 2191SOL    HW2 7473   2.731   1.410   5.042
 2192SOL     OW 7474   5.242   6.944   2.603
 2192SOL    HW1 7475   5.231   0.019   2.561
 2192SOL    HW2 7476   5.155   6.895   2.601
 2193SOL     OW 7477   6.144   0.079   5.765
 2193SOL    HW1 7478   6.114   0.129   5.684
 2193SOL    HW2 7479   6.205   0.137   5.820
 2194SOL     OW 7480   0.773   4.136   5.720
 2194SOL    HW1 7481   0.856   4.129   5.664
 2194SOL    HW2 7482   0.782   4.079   5.801
 2195SOL     OW 7483   6.715   6.376   5.296
 2195SOL    HW1 7484   6.626   6.332   5.287
 2195SOL    HW2 7485   6.776   6.342   5.224
 2196SOL     OW 7486   2.929   6.588   5.109
 2196SOL    HW1 7487   2.948   6.686   5.110
 2196SOL    HW2 7488   2.950   6.549   5.198
 2197SOL     OW 7489   2.908   3.272   6.348
 2197SOL    HW1 7490   2.934   3.290   6.253
 2197SOL    HW2 7491   2.966   3.327   6.409
 2198SOL     OW 7492   6.376   6.807   1.033
 2198SOL    HW1 7493   6.355   6.787   0.937
 2198SOL    HW2 7494   6.372   6.723   1.087
 2199SOL     OW 7495   5.024   0.092   5.230
 2199SOL    HW1 7496   5.021   0.191   5.242
 2199SOL    HW2 7497   5.084   0.070   5.153
 2200SOL     OW 7498   2.512   1.174   3.780
 2200SOL    HW1 7499   2.470   1.260   3.751
 2200SOL    HW2 7500   2.448   1.099   3.764
 2201SOL     OW 7501   6.197   3.087   2.858
 2201SOL    HW1 7502   6.171   3.170   2.809
 2201SOL    HW2 7503   6.180   3.007   2.800
 2202SOL     OW 7504   3.078   5.659   2.733
 2202SOL    HW1 7505   3.144   5.711   2.678
 2202SOL    HW2 7506   3.023   5.601   2.673
 2203SOL     OW 7507   2.593   3.539   1.431
 2203SOL    HW1 7508   2.572   3.441   1.428
 2203SOL    HW2 7509   2.578   3.573   1.523
 2204SOL     OW 7510   4.561   2.769   0.990
 2204SOL    HW1 7511   4.577   2.746   0.894
 2204SOL    HW2 7512   4.618   2.847   1.015
 2205SOL     OW 7513   1.184   0.228   0.202
 2205SOL    HW1 7514   1.228   0.138   0.189
 2205SOL    HW2 7515   1.119   0.222   0.278
 2206SOL     OW 7516   2.286   4.274   6.306
 2206SOL    HW1 7517   2.212   4.226   6.258
 2206SOL    HW2 7518   2.368   4.273   6.249
 2207SOL     OW 7519   3.247   5.202   0.228
 2207SOL    HW1 7520   3.322   5.226   0.290
 2207SOL    HW2 7521   3.160   5.214   0.275
 2208SOL     OW 7522   0.625   5.374   3.011
 2208SOL    HW1 7523   0.669   5.450   3.058
 2208SOL    HW2 7524   0.694   5.308   2.981
 2209SOL     OW 7525   2.684   6.027   4.799
 2209SOL    HW1 7526   2.698   5.949   4.738
 2209SOL    HW2 7527   2.712   6.111   4.753
 2210SOL     OW 7528   6.655   5.830   2.903
 2210SOL    HW1 7529   6.701   5.758   2.955
 2210SOL    HW2 7530   6.632   5.796   2.812
 2211SOL     OW 7531   6.435   0.337   0.656
 2211SOL    HW1 7532   6.454   0.417   0.712
 2211SOL    HW2 7533   6.415   0.366   0.562
 2212SOL     OW 7534   1.837   5.677   6.757
 2212SOL    HW1 7535   1.906   5.749   6.761
 2212SOL    HW2 7536   1.833   5.639   6.664
 2213SOL     OW 7537   4.232   2.713   5.646
 2213SOL    HW1 7538   4.190   2.629   5.679
 2213SOL    HW2 7539   4.200   2.790   5.701
 2214SOL     OW 7540   3.040   3.096   4.612
 2214SOL    HW1 7541   3.088   3.034   4.551
 2214SOL    HW2 7542   3.090   3.104   4.698
 2215SOL     OW 7543   5.406   1.748   6.404
 2215SOL    HW1 7544   5.395   1.758   6.305
 2215SOL    HW2 7545   5.316   1.737   6.446
 2216SOL     OW 7546   6.789   0.401   6.082
 2216SOL    HW1 7547   6.826   0.490   6.109
 2216SOL    HW2 7548   6.736   0.412   5.997
 2217SOL     OW 7549   4.395   0.327   3.139
 2217SOL    HW1 7550   4.434   0.352   3.050
 2217SOL    HW2 7551   4.367   0.231   3.137
 2218SOL     OW 7552   6.944   5.296   6.821
 2218SOL    HW1 7553   6.970   5.240   6.742
 2218SOL    HW2 7554   6.901   5.380   6.789
 2219SOL     OW 7555   6.341   2.292   0.999
 2219SOL    HW1 7556   6.251   2.328   0.976
 2219SOL    HW2 7557   6.339   2.192   0.996
 2220SOL     OW 7558   1.681   5.807   5.598
 2220SOL    HW1 7559   1.684   5.891   5.651
 2220SOL    HW2 7560   1.687   5.728   5.660
 2221SOL     OW 7561   6.686   2.016   5.002
 2221SOL    HW1 7562   6.597   1.999   5.044
 2221SOL    HW2 7563   6.726   2.099   5.040
 2222SOL     OW 7564   5.803   6.938   0.693
 2222SOL    HW1 7565   5.835   6.983   0.775
 2222SOL    HW2 7566   5.780   6.843   0.714
 2223SOL     OW 7567   6.273   1.521   6.333
 2223SOL    HW1 7568   6.285   1.620   6.330
 2223SOL    HW2 7569   6.267   1.490   6.428
 2224SOL     OW 7570   6.028   3.103   2.130
 2224SOL    HW1 7571   6.052   3.161   2.052
 2224SOL    HW2 7572   6.086   3.125   2.208
 2225SOL     OW 7573   0.126   6.772   3.138
 2225SOL    HW1 7574   0.120   6.672   3.130
 2225SOL    HW2 7575   0.222   6.800   3.127
 2226SOL     OW 7576   3.910   5.860   0.603
 2226SOL    HW1 7577   3.941   5.899   0.690
 2226SOL    HW2 7578   3.899   5.761   0.613
 2227SOL     OW 7579   4.930   2.594   1.795
 2227SOL    HW1 7580   4.991   2.559   1.866
 2227SOL    HW2 7581   4.878   2.519   1.755
 2228SOL     OW 7582   4.421   5.595   0.061
 2228SOL    HW1 7583   4.425   5.573   6.979
 2228SOL    HW2 7584   4.513   5.586   0.101
 2229SOL     OW 7585   4.100   3.729   4.860
 2229SOL    HW1 7586   4.061   3.645   4.824
 2229SOL    HW2 7587   4.148   3.710   4.946
 2230SOL     OW 7588   5.467   6.036   1.031
 2230SOL    HW1 7589   5.441   5.944   1.062
 2230SOL    HW2 7590   5.394   6.100   1.052
 2231SOL     OW 7591   0.732   0.488   6.789
 2231SOL    HW1 7592   0.715   0.555   6.862
 2231SOL    HW2 7593   0.828   0.459   6.792
 2232SOL     OW 7594   0.786   1.509   4.922
 2232SOL    HW1 7595   0.843   1.561   4.858
 2232SOL    HW2 7596   0.747   1.571   4.990
 2233SOL     OW 7597   2.527   3.026   1.062
 2233SOL    HW1 7598   2.525   3.113   1.111
 2233SOL    HW2 7599   2.458   2.965   1.099
 2234SOL     OW 7600   3.532   1.569   0.691
 2234SOL    HW1 7601   3.575   1.494   0.740
 2234SOL    HW2 7602   3.458   1.534   0.633
 2235SOL     OW 7603   2.422   0.150   2.096
 2235SOL    HW1 7604   2.354   0.130   2.166
 2235SOL    HW2 7605   2.405   0.241   2.057
 2236SOL     OW 7606   1.763   3.552   5.862
 2236SOL    HW1 7607   1.840   3.502   5.901
 2236SOL    HW2 7608   1.689   3.558   5.928
 2237SOL     OW 7609   5.700   4.415   4.971
 2237SOL    HW1 7610   5.661   4.458   5.053
 2237SOL    HW2 7611   5.702   4.316   4.983
 2238SOL     OW 7612   4.343   4.999   2.513
 2238SOL    HW1 7613   4.252   4.960   2.529
 2238SOL    HW2 7614   4.412   4.930   2.536
 2239SOL     OW 7615   4.704   5.890   4.060
 2239SOL    HW1 7616   4.707   5.938   4.147
 2239SOL    HW2 7617   4.769   5.931   3.996
 2240SOL     OW 7618   3.430   5.399   2.729
 2240SOL    HW1 7619   3.372   5.325   2.764
 2240SOL    HW2 7620   3.461   5.377   2.637
 2241SOL     OW 7621   6.979   6.498   1.876
 2241SOL    HW1 7622   0.037   6.467   1.815
 2241SOL    HW2 7623   6.969   6.433   1.951
 2242SOL     OW 7624   5.226   3.797   2.811
 2242SOL    HW1 7625   5.174   3.730   2.863
 2242SOL    HW2 7626   5.197   3.795   2.715
 2243SOL     OW 7627   1.928   6.815   6.997
 2243SOL    HW1 7628   2.026   6.830   6.993
 2243SOL    HW2 7629   1.909   6.723   0.016
 2244SOL     OW 7630   3.056   6.947   1.741
 2244SOL    HW1 7631   2.986   6.988   1.683
 2244SOL    HW2 7632   3.013   6.905   1.821
 2245SOL     OW 7633   0.248   1.355   1.084
 2245SOL    HW1 7634   0.313   1.361   1.008
 2245SOL    HW2 7635   0.274   1.280   1.145
 2246SOL     OW 7636   1.757   0.667   4.151
 2246SOL    HW1 7637   1.794   0.759   4.165
 2246SOL    HW2 7638   1.821   0.614   4.095
 2247SOL     OW 7639   3.028   3.216   3.289
 2247SOL    HW1 7640   3.013   3.218   3.190
 2247SOL    HW2 7641   2.974   3.288   3.333
 2248SOL     OW 7642   6.484   3.749   4.659
 2248SOL    HW1 7643   6.525   3.829   4.702
 2248SOL    HW2 7644   6.500   3.753   4.560
 2249SOL     OW 7645   4.841   6.926   3.714
 2249SOL    HW1 7646   4.742   6.916   3.723
 2249SOL    HW2 7647   4.862   7.000   3.651
 2250SOL     OW 7648   3.200   3.551   5.390
 2250SOL    HW1 7649   3.130   3.512   5.449
 2250SOL    HW2 7650   3.196   3.506   5.300
 2251SOL     OW 7651   5.091   0.093   6.173
 2251SOL    HW1 7652   5.029   0.141   6.111
 2251SOL    HW2 7653   5.183   0.131   6.163
 2252SOL     OW 7654   4.670   1.824   3.248
 2252SOL    HW1 7655   4.613   1.749   3.283
 2252SOL    HW2 7656   4.759   1.787   3.220
 2253SOL     OW 7657   6.774   3.773   0.263
 2253SOL    HW1 7658   6.803   3.863   0.232
 2253SOL    HW2 7659   6.838   3.739   0.331
 2254SOL     OW 7660   3.330   3.055   4.097
 2254SOL    HW1 7661   3.251   3.042   4.158
 2254SOL    HW2 7662   3.297   3.070   4.004
 2255SOL     OW 7663   3.219   3.730   5.775
 2255SOL    HW1 7664   3.273   3.715   5.692
 2255SOL    HW2 7665   3.126   3.758   5.749
 2256SOL     OW 7666   5.249   6.882   2.278
 2256SOL    HW1 7667   5.250   6.803   2.338
 2256SOL    HW2 7668   5.154   6.906   2.257
 2257SOL     OW 7669   0.364   1.021   4.648
 2257SOL    HW1 7670   0.413   0.939   4.618
 2257SOL    HW2 7671   0.274   0.996   4.683
 2258SOL     OW 7672   1.586   5.541   4.802
 2258SOL    HW1 7673   1.568   5.635   4.829
 2258SOL    HW2 7674   1.673   5.536   4.754
 2259SOL     OW 7675   5.294   2.796   5.369
 2259SOL    HW1 7676   5.384   2.805   5.412
 2259SOL    HW2 7677   5.273   2.699   5.356
 2260SOL     OW 7678   0.127   3.655   1.530
 2260SOL    HW1 7679   0.084   3.605   1.455
 2260SOL    HW2 7680   0.124   3.753   1.511
 2261SOL     OW 7681   6.562   5.366   0.112
 2261SOL    HW1 7682   6.618   5.437   0.155
 2261SOL    HW2 7683   6.620   5.307   0.057
 2262SOL     OW 7684   6.257   0.060   3.030
 2262SOL    HW1 7685   6.259   0.076   3.129
 2262SOL    HW2 7686   6.187   7.006   3.009
 2263SOL     OW 7687   2.300   6.141   0.136
 2263SOL    HW1 7688   2.275   6.143   0.039
 2263SOL    HW2 7689   2.255   6.216   0.184
 2264SOL     OW 7690   3.136   6.409   6.487
 2264SOL    HW1 7691   3.080   6.400   6.570
 2264SOL    HW2 7692   3.216   6.466   6.507
 2265SOL     OW 7693   1.786   0.456   4.360
 2265SOL    HW1 7694   1.762   0.525   4.293
 2265SOL    HW2 7695   1.778   0.365   4.319
 2266SOL     OW 7696   5.195   2.036   6.320
 2266SOL    HW1 7697   5.152   2.112   6.270
 2266SOL    HW2 7698   5.124   1.977   6.357
 2267SOL     OW 7699   4.795   3.041   5.289
 2267SOL    HW1 7700   4.703   3.059   5.324
 2267SOL    HW2 7701   4.789   3.012   5.194
 2268SOL     OW 7702   6.257   4.097   6.469
 2268SOL    HW1 7703   6.263   4.072   6.565
 2268SOL    HW2 7704   6.202   4.179   6.458
 2269SOL     OW 7705   0.769   3.591   5.212
 2269SOL    HW1 7706   0.828   3.667   5.240
 2269SOL    HW2 7707   0.705   3.569   5.286
 2270SOL     OW 7708   4.011   2.650   6.238
 2270SOL    HW1 7709   3.973   2.722   6.180
 2270SOL    HW2 7710   4.085   2.689   6.294
 2271SOL     OW 7711   5.815   4.591   0.128
 2271SOL    HW1 7712   5.847   4.567   0.220
 2271SOL    HW2 7713   5.855   4.679   0.101
 2272SOL     OW 7714   5.982   1.106   6.959
 2272SOL    HW1 7715   6.033   1.094   6.874
 2272SOL    HW2 7716   5.908   1.172   6.945
 2273SOL     OW 7717   1.242   1.930   1.812
 2273SOL    HW1 7718   1.205   1.958   1.724
 2273SOL    HW2 7719   1.301   2.003   1.848
 2274SOL     OW 7720   0.338   1.815   6.689
 2274SOL    HW1 7721   0.402   1.825   6.614
 2274SOL    HW2 7722   0.360   1.732   6.742
 2275SOL     OW 7723   6.043   6.888   3.041
 2275SOL    HW1 7724   6.126   6.838   3.063
 2275SOL    HW2 7725   6.004   6.927   3.124
 2276SOL     OW 7726   2.200   5.579   1.965
 2276SOL    HW1 7727   2.161   5.562   2.055
 2276SOL    HW2 7728   2.300   5.580   1.971
 2277SOL     OW 7729   3.558   4.186   4.807
 2277SOL    HW1 7730   3.538   4.139   4.721
 2277SOL    HW2 7731   3.554   4.285   4.794
 2278SOL     OW 7732   5.959   2.881   3.765
 2278SOL    HW1 7733   5.927   2.806   3.822
 2278SOL    HW2 7734   6.015   2.845   3.690
 2279SOL     OW 7735   5.680   7.008   5.277
 2279SOL    HW1 7736   5.743   0.016   5.351
 2279SOL    HW2 7737   5.721   6.936   5.221
 2280SOL     OW 7738   6.774   6.948   4.304
 2280SOL    HW1 7739   6.812   6.999   4.381
 2280SOL    HW2 7740   6.693   6.995   4.270
 2281SOL     OW 7741   3.303   0.795   2.006
 2281SOL    HW1 7742   3.297   0.737   1.925
 2281SOL    HW2 7743   3.232   0.767   2.071
 2282SOL     OW 7744   5.352   6.297   5.924
 2282SOL    HW1 7745   5.252   6.302   5.917
 2282SOL    HW2 7746   5.385   6.222   5.866
 2283SOL     OW 7747   2.052   0.063   1.837
 2283SOL    HW1 7748   2.088   0.081   1.745
 2283SOL    HW2 7749   1.965   0.014   1.829
 2284SOL     OW 7750   1.222   3.237   6.529
 2284SOL    HW1 7751   1.308   3.187   6.516
 2284SOL    HW2 7752   1.152   3.175   6.564
 2285SOL     OW 7753   1.029   3.059   0.504
 2285SOL    HW1 7754   1.092   3.051   0.582
 2285SOL    HW2 7755   1.037   3.150   0.464
 2286SOL     OW 7756   5.394   0.464   3.560
 2286SOL    HW1 7757   5.343   0.543   3.525
 2286SOL    HW2 7758   5.484   0.493   3.591
 2287SOL     OW 7759   2.032   0.328   3.534
 2287SOL    HW1 7760   2.064   0.338   3.628
 2287SOL    HW2 7761   1.966   0.253   3.528
 2288SOL     OW 7762   6.493   5.027   3.747
 2288SOL    HW1 7763   6.401   5.000   3.717
 2288SOL    HW2 7764   6.560   4.997   3.678
 2289SOL     OW 7765   0.035   5.147   0.626
 2289SOL    HW1 7766   6.963   5.165   0.580
 2289SOL    HW2 7767   0.034   5.190   0.716
 2290SOL     OW 7768   0.683   3.594   1.241
 2290SOL    HW1 7769   0.760   3.584   1.304
 2290SOL    HW2 7770   0.701   3.542   1.158
 2291SOL     OW 7771   2.349   2.784   5.693
 2291SOL    HW1 7772   2.313   2.694   5.667
 2291SOL    HW2 7773   2.295   2.821   5.768
 2292SOL     OW 7774   1.321   1.702   4.326
 2292SOL    HW1 7775   1.358   1.696   4.419
 2292SOL    HW2 7776   1.364   1.633   4.269
 2293SOL     OW 7777   4.872   6.337   1.925
 2293SOL    HW1 7778   4.784   6.325   1.879
 2293SOL    HW2 7779   4.931   6.259   1.903
 2294SOL     OW 7780   3.066   0.511   0.158
 2294SOL    HW1 7781   3.157   0.544   0.185
 2294SOL    HW2 7782   3.036   0.561   0.077
 2295SOL     OW 7783   0.586   1.876   2.389
 2295SOL    HW1 7784   0.590   1.863   2.488
 2295SOL    HW2 7785   0.581   1.974   2.368
 2296SOL     OW 7786   3.444   6.012   0.443
 2296SOL    HW1 7787   3.444   6.106   0.410
 2296SOL    HW2 7788   3.384   6.004   0.523
 2297SOL     OW 7789   3.573   3.925   5.134
 2297SOL    HW1 7790   3.617   3.930   5.044
 2297SOL    HW2 7791   3.526   4.011   5.153
 2298SOL     OW 7792   4.198   2.508   1.698
 2298SOL    HW1 7793   4.171   2.412   1.705
 2298SOL    HW2 7794   4.289   2.513   1.657
 2299SOL     OW 7795   5.116   0.428   6.651
 2299SOL    HW1 7796   5.182   0.354   6.641
 2299SOL    HW2 7797   5.024   0.390   6.650
 2300SOL     OW 7798   2.636   4.774   1.600
 2300SOL    HW1 7799   2.735   4.765   1.613
 2300SOL    HW2 7800   2.618   4.842   1.530
 2301SOL     OW 7801   3.146   2.970   3.361
 2301SOL    HW1 7802   3.082   2.905   3.401
 2301SOL    HW2 7803   3.098   3.056   3.342
 2302SOL     OW 7804   3.458   0.028   1.861
 2302SOL    HW1 7805   3.366   0.063   1.878
 2302SOL    HW2 7806   3.510   0.095   1.809
 2303SOL     OW 7807   1.628   3.457   6.118
 2303SOL    HW1 7808   1.582   3.369   6.110
 2303SOL    HW2 7809   1.715   3.445   6.167
 2304SOL     OW 7810   3.258   0.195   3.036
 2304SOL    HW1 7811   3.283   0.183   3.132
 2304SOL    HW2 7812   3.202   0.278   3.027
 2305SOL     OW 7813   3.239   6.142   3.074
 2305SOL    HW1 7814   3.231   6.224   3.130
 2305SOL    HW2 7815   3.196   6.158   2.985
 2306SOL     OW 7816   2.040   5.241   2.183
 2306SOL    HW1 7817   1.999   5.172   2.244
 2306SOL    HW2 7818   2.088   5.309   2.238
 2307SOL     OW 7819   1.542   4.294   2.724
 2307SOL    HW1 7820   1.480   4.244   2.784
 2307SOL    HW2 7821   1.636   4.284   2.756
 2308SOL     OW 7822   1.343   6.710   6.802
 2308SOL    HW1 7823   1.325   6.780   6.733
 2308SOL    HW2 7824   1.438   6.714   6.831
 2309SOL     OW 7825   2.908   6.903   0.332
 2309SOL    HW1 7826   2.999   6.904   0.290
 2309SOL    HW2 7827   2.850   6.970   0.286
 2310SOL     OW 7828   6.024   6.129   1.547
 2310SOL    HW1 7829   6.058   6.053   1.491
 2310SOL    HW2 7830   6.099   6.194   1.563
 2311SOL     OW 7831   2.749   6.553   2.522
 2311SOL    HW1 7832   2.656   6.521   2.504
 2311SOL    HW2 7833   2.785   6.508   2.603
 2312SOL     OW 7834   3.523   6.760   3.935
 2312SOL    HW1 7835   3.542   6.665   3.909
 2312SOL    HW2 7836   3.589   6.820   3.891
 2313SOL     OW 7837   4.896   5.348   2.396
 2313SOL    HW1 7838   4.890   5.358   2.496
 2313SOL    HW2 7839   4.963   5.412   2.360
 2314SOL     OW 7840   5.523   0.885   4.543
 2314SOL    HW1 7841   5.611   0.914   4.503
 2314SOL    HW2 7842   5.536   0.802   4.596
 2315SOL     OW 7843   5.083   3.412   5.161
 2315SOL    HW1 7844   4.986   3.432   5.146
 2315SOL    HW2 7845   5.092   3.324   5.208
 2316SOL     OW 7846   2.826   0.857   4.817
 2316SOL    HW1 7847   2.783   0.869   4.907
 2316SOL    HW2 7848   2.793   0.928   4.755
 2317SOL     OW 7849   6.303   6.341   3.122
 2317SOL    HW1 7850   6.249   6.425   3.123
 2317SOL    HW2 7851   6.395   6.361   3.156
 2318SOL     OW 7852   2.088   3.418   4.428
 2318SOL    HW1 7853   2.100   3.478   4.349
 2318SOL    HW2 7854   2.102   3.323   4.399
 2319SOL     OW 7855   3.282   5.416   5.171
 2319SOL    HW1 7856   3.372   5.442   5.206
 2319SOL    HW2 7857   3.212   5.441   5.237
 2320SOL     OW 7858   1.577   2.617   5.167
 2320SOL    HW1 7859   1.543   2.707   5.138
 2320SOL    HW2 7860   1.500   2.558   5.190
 2321SOL     OW 7861   1.719   5.068   6.989
 2321SOL    HW1 7862   1.799   5.104   0.022
 2321SOL    HW2 7863   1.745   4.988   6.935
 2322SOL     OW 7864   2.022   4.251   2.688
 2322SOL    HW1 7865   1.986   4.223   2.599
 2322SOL    HW2 7866   1.958   4.313   2.732
 2323SOL     OW 7867   3.319   4.687   1.728
 2323SOL    HW1 7868   3.412   4.685   1.765
 2323SOL    HW2 7869   3.259   4.737   1.790
 2324SOL     OW 7870   6.642   6.016   0.856
 2324SOL    HW1 7871   6.615   5.998   0.951
 2324SOL    HW2 7872   6.709   5.948   0.827
 2325SOL     OW 7873   0.671   4.073   1.343
 2325SOL    HW1 7874   0.758   4.048   1.301
 2325SOL    HW2 7875   0.682   4.159   1.394
 2326SOL     OW 7876   2.059   6.529   6.869
 2326SOL    HW1 7877   1.968   6.489   6.864
 2326SOL    HW2 7878   2.068   6.602   6.801
 2327SOL     OW 7879   6.968   1.279   3.429
 2327SOL    HW1 7880   0.050   1.300   3.426
 2327SOL    HW2 7881   6.951   1.209   3.498
 2328SOL     OW 7882   1.467   1.663   2.963
 2328SOL    HW1 7883   1.423   1.635   3.048
 2328SOL    HW2 7884   1.564   1.681   2.980
 2329SOL     OW 7885   1.156   4.419   4.907
 2329SOL    HW1 7886   1.180   4.322   4.906
 2329SOL    HW2 7887   1.163   4.454   5.000
 2330SOL     OW 7888   0.404   2.637   1.248
 2330SOL    HW1 7889   0.379   2.628   1.151
 2330SOL    HW2 7890   0.426   2.732   1.268
 2331SOL     OW 7891   3.790   4.839   0.420
 2331SOL    HW1 7892   3.872   4.790   0.448
 2331SOL    HW2 7893   3.805   4.938   0.431
 2332SOL     OW 7894   6.774   0.105   5.497
 2332SOL    HW1 7895   6.845   0.058   5.444
 2332SOL    HW2 7896   6.694   0.046   5.505
 2333SOL     OW 7897   0.057   4.113   3.205
 2333SOL    HW1 7898   0.116   4.100   3.126
 2333SOL    HW2 7899   0.100   4.073   3.286
 2334SOL     OW 7900   2.362   0.770   6.498
 2334SOL    HW1 7901   2.368   0.860   6.541
 2334SOL    HW2 7902   2.341   0.702   6.568
 2335SOL     OW 7903   5.794   0.856   4.219
 2335SOL    HW1 7904   5.784   0.777   4.158
 2335SOL    HW2 7905   5.779   0.940   4.168
 2336SOL     OW 7906   4.066   1.348   4.590
 2336SOL    HW1 7907   4.131   1.421   4.570
 2336SOL    HW2 7908   4.009   1.375   4.668
 2337SOL     OW 7909   3.915   0.270   1.504
 2337SOL    HW1 7910   3.980   0.334   1.544
 2337SOL    HW2 7911   3.887   0.203   1.573
 2338SOL     OW 7912   0.315   3.202   5.024
 2338SOL    HW1 7913   0.279   3.208   4.931
 2338SOL    HW2 7914   0.341   3.108   5.044
 2339SOL     OW 7915   3.179   3.986   3.205
 2339SOL    HW1 7916   3.141   4.018   3.118
 2339SOL    HW2 7917   3.278   3.979   3.197
 2340SOL     OW 7918   6.671   4.134   6.396
 2340SOL    HW1 7919   6.590   4.166   6.347
 2340SOL    HW2 7920   6.720   4.211   6.436
 2341SOL     OW 7921   3.103   4.778   1.902
 2341SOL    HW1 7922   3.069   4.851   1.843
 2341SOL    HW2 7923   3.026   4.732   1.946
 2342SOL     OW 7924   1.191   6.580   5.709
 2342SOL    HW1 7925   1.129   6.529   5.768
 2342SOL    HW2 7926   1.154   6.671   5.692
 2343SOL     OW 7927   1.548   5.012   2.496
 2343SOL    HW1 7928   1.639   4.982   2.467
 2343SOL    HW2 7929   1.498   4.935   2.536
 2344SOL     OW 7930   0.882   5.769   6.794
 2344SOL    HW1 7931   0.817   5.753   6.868
 2344SOL    HW2 7932   0.833   5.778   6.707
 2345SOL     OW 7933   2.864   5.728   5.314
 2345SOL    HW1 7934   2.798   5.802   5.302
 2345SOL    HW2 7935   2.815   5.644   5.340
 2346SOL     OW 7936   3.489   3.486   5.319
 2346SOL    HW1 7937   3.444   3.557   5.265
 2346SOL    HW2 7938   3.442   3.399   5.306
 2347SOL     OW 7939   3.121   2.295   1.347
 2347SOL    HW1 7940   3.048   2.238   1.310
 2347SOL    HW2 7941   3.081   2.379   1.385
 2348SOL     OW 7942   2.536   6.743   3.885
 2348SOL    HW1 7943   2.462   6.679   3.862
 2348SOL    HW2 7944   2.624   6.697   3.875
 2349SOL     OW 7945   0.801   5.236   5.748
 2349SOL    HW1 7946   0.820   5.249   5.846
 2349SOL    HW2 7947   0.793   5.324   5.703
 2350SOL     OW 7948   6.208   6.276   6.015
 2350SOL    HW1 7949   6.291   6.291   6.067
 2350SOL    HW2 7950   6.136   6.242   6.075
 2351SOL     OW 7951   2.706   5.220   4.791
 2351SOL    HW1 7952   2.641   5.151   4.821
 2351SOL    HW2 7953   2.797   5.179   4.780
 2352SOL     OW 7954   0.493   4.105   2.544
 2352SOL    HW1 7955   0.554   4.060   2.609
 2352SOL    HW2 7956   0.502   4.204   2.553
 2353SOL     OW 7957   3.560   5.440   5.237
 2353SOL    HW1 7958   3.602   5.530   5.244
 2353SOL    HW2 7959   3.615   5.382   5.177
 2354SOL     OW 7960   3.026   1.810   5.352
 2354SOL    HW1 7961   2.978   1.730   5.387
 2354SOL    HW2 7962   3.041   1.800   5.254
 2355SOL     OW 7963   2.108   6.726   6.614
 2355SOL    HW1 7964   2.161   6.669   6.551
 2355SOL    HW2 7965   2.023   6.754   6.569
 2356SOL     OW 7966   1.248   3.507   6.499
 2356SOL    HW1 7967   1.252   3.411   6.528
 2356SOL    HW2 7968   1.296   3.517   6.412
 2357SOL     OW 7969   4.460   0.237   2.490
 2357SOL    HW1 7970   4.545   0.190   2.515
 2357SOL    HW2 7971   4.481   0.310   2.424
 2358SOL     OW 7972   3.775   5.022   4.783
 2358SOL    HW1 7973   3.799   4.939   4.834
 2358SOL    HW2 7974   3.767   4.999   4.686
 2359SOL     OW 7975   6.456   1.068   5.491
 2359SOL    HW1 7976   6.490   1.162   5.492
 2359SOL    HW2 7977   6.400   1.052   5.572
 2360SOL     OW 7978   5.656   3.580   6.885
 2360SOL    HW1 7979   5.586   3.513   6.859
 2360SOL    HW2 7980   5.613   3.666   6.910
 2361SOL     OW 7981   2.776   1.038   5.223
 2361SOL    HW1 7982   2.792   0.996   5.133
 2361SOL    HW2 7983   2.858   1.086   5.252
 2362SOL     OW 7984   2.261   6.097   4.060
 2362SOL    HW1 7985   2.248   6.054   4.149
 2362SOL    HW2 7986   2.270   6.196   4.072
 2363SOL     OW 7987   4.544   2.180   5.045
 2363SOL    HW1 7988   4.483   2.202   4.968
 2363SOL    HW2 7989   4.639   2.183   5.015
 2364SOL     OW 7990   0.643   2.235   2.532
 2364SOL    HW1 7991   0.646   2.291   2.449
 2364SOL    HW2 7992   0.550   2.202   2.546
 2365SOL     OW 7993   6.056   2.553   6.340
 2365SOL    HW1 7994   6.147   2.520   6.367
 2365SOL    HW2 7995   5.995   2.474   6.327
 2366SOL     OW 7996   2.514   5.264   6.296
 2366SOL    HW1 7997   2.421   5.278   6.265
 2366SOL    HW2 7998   2.518   5.276   6.395
 2367SOL     OW 7999   2.667   3.685   0.924
 2367SOL    HW1 8000   2.578   3.708   0.884
 2367SOL    HW2 8001   2.719   3.769   0.940
 2368SOL     OW 8002   4.179   0.417   4.340
 2368SOL    HW1 8003   4.086   0.405   4.374
 2368SOL    HW2 8004   4.200   0.345   4.274
 2369SOL     OW 8005   1.439   0.923   5.334
 2369SOL    HW1 8006   1.523   0.906   5.385
 2369SOL    HW2 8007   1.364   0.938   5.399
 2370SOL     OW 8008   4.601   3.275   6.888
 2370SOL    HW1 8009   4.634   3.348   6.948
 2370SOL    HW2 8010   4.564   3.314   6.804
 2371SOL     OW 8011   0.494   6.832   1.735
 2371SOL    HW1 8012   0.404   6.847   1.776
 2371SOL    HW2 8013   0.544   6.765   1.789
 2372SOL     OW 8014   0.290   2.855   2.450
 2372SOL    HW1 8015   0.317   2.803   2.531
 2372SOL    HW2 8016   0.337   2.943   2.449
 2373SOL     OW 8017   0.777   1.944   6.592
 2373SOL    HW1 8018   0.836   2.001   6.535
 2373SOL    HW2 8019   0.714   2.002   6.643
 2374SOL     OW 8020   6.063   1.773   3.581
 2374SOL    HW1 8021   6.014   1.729   3.506
 2374SOL    HW2 8022   5.998   1.817   3.642
 2375SOL     OW 8023   2.803   6.463   4.895
 2375SOL    HW1 8024   2.706   6.477   4.913
 2375SOL    HW2 8025   2.857   6.487   4.976
 2376SOL     OW 8026   7.009   2.302   4.662
 2376SOL    HW1 8027   6.928   2.303   4.603
 2376SOL    HW2 8028   0.026   2.207   4.672
 2377SOL     OW 8029   3.900   3.937   3.021
 2377SOL    HW1 8030   3.852   3.892   2.945
 2377SOL    HW2 8031   3.953   3.870   3.072
 2378SOL     OW 8032   5.061   1.361   0.592
 2378SOL    HW1 8033   5.025   1.307   0.516
 2378SOL    HW2 8034   5.139   1.313   0.632
 2379SOL     OW 8035   5.904   1.702   0.080
 2379SOL    HW1 8036   5.886   1.605   0.098
 2379SOL    HW2 8037   5.885   1.755   0.162
 2380SOL     OW 8038   0.646   1.253   6.919
 2380SOL    HW1 8039   0.668   1.318   6.846
 2380SOL    HW2 8040   0.655   1.299   7.008
 2381SOL     OW 8041   2.082   4.550   4.420
 2381SOL    HW1 8042   2.087   4.492   4.502
 2381SOL    HW2 8043   2.172   4.589   4.402
 2382SOL     OW 8044   1.930   4.150   4.210
 2382SOL    HW1 8045   1.924   4.232   4.265
 2382SOL    HW2 8046   1.932   4.175   4.113
 2383SOL     OW 8047   4.905   6.452   1.596
 2383SOL    HW1 8048   4.948   6.515   1.660
 2383SOL    HW2 8049   4.873   6.371   1.644
 2384SOL     OW 8050   5.686   0.936   3.241
 2384SOL    HW1 8051   5.697   0.886   3.327
 2384SOL    HW2 8052   5.622   1.012   3.255
 2385SOL     OW 8053   1.014   0.292   0.420
 2385SOL    HW1 8054   1.006   0.193   0.434
 2385SOL    HW2 8055   1.066   0.332   0.495
 2386SOL     OW 8056   6.128   5.860   4.135
 2386SOL    HW1 8057   6.153   5.836   4.228
 2386SOL    HW2 8058   6.175   5.800   4.070
 2387SOL     OW 8059   1.448   2.248   3.803
 2387SOL    HW1 8060   1.498   2.215   3.883
 2387SOL    HW2 8061   1.502   2.230   3.720
 2388SOL     OW 8062   0.908   2.094   4.739
 2388SOL    HW1 8063   0.960   2.097   4.653
 2388SOL    HW2 8064   0.884   2.000   4.760
 2389SOL     OW 8065   4.859   4.255   3.252
 2389SOL    HW1 8066   4.915   4.338   3.256
 2389SOL    HW2 8067   4.906   4.181   3.299
 2390SOL     OW 8068   3.942   3.028   3.087
 2390SOL    HW1 8069   3.978   3.116   3.056
 2390SOL    HW2 8070   3.938   3.027   3.187
 2391SOL     OW 8071   4.955   3.905   5.890
 2391SOL    HW1 8072   5.042   3.953   5.901
 2391SOL    HW2 8073   4.887   3.968   5.852
 2392SOL     OW 8074   4.721   6.481   5.246
 2392SOL    HW1 8075   4.804   6.437   5.280
 2392SOL    HW2 8076   4.728   6.493   5.147
 2393SOL     OW 8077   5.813   4.069   6.005
 2393SOL    HW1 8078   5.897   4.022   6.030
 2393SOL    HW2 8079   5.813   4.162   6.041
 2394SOL     OW 8080   1.298   3.942   4.897
 2394SOL    HW1 8081   1.362   3.892   4.956
 2394SOL    HW2 8082   1.322   4.039   4.897
 2395SOL     OW 8083   5.027   2.696   6.483
 2395SOL    HW1 8084   4.978   2.711   6.397
 2395SOL    HW2 8085   4.961   2.697   6.558
 2396SOL     OW 8086   3.247   5.426   1.406
 2396SOL    HW1 8087   3.221   5.375   1.324
 2396SOL    HW2 8088   3.169   5.479   1.439
 2397SOL     OW 8089   6.722   4.205   5.987
 2397SOL    HW1 8090   6.788   4.162   6.048
 2397SOL    HW2 8091   6.755   4.296   5.961
 2398SOL     OW 8092   2.810   3.475   0.048
 2398SOL    HW1 8093   2.744   3.441   6.996
 2398SOL    HW2 8094   2.762   3.507   0.129
 2399SOL     OW 8095   5.063   1.442   2.214
 2399SOL    HW1 8096   5.081   1.369   2.280
 2399SOL    HW2 8097   4.998   1.409   2.146
 2400SOL     OW 8098   3.259   3.918   0.778
 2400SOL    HW1 8099   3.239   3.927   0.681
 2400SOL    HW2 8100   3.355   3.893   0.791
 2401SOL     OW 8101   4.644   6.255   6.296
 2401SOL    HW1 8102   4.603   6.343   6.320
 2401SOL    HW2 8103   4.631   6.191   6.372
 2402SOL     OW 8104   6.894   0.434   3.498
 2402SOL    HW1 8105   6.954   0.376   3.442
 2402SOL    HW2 8106   6.916   0.421   3.594
 2403SOL     OW 8107   2.272   2.812   6.542
 2403SOL    HW1 8108   2.271   2.756   6.625
 2403SOL    HW2 8109   2.352   2.873   6.544
 2404SOL     OW 8110   3.518   1.375   1.240
 2404SOL    HW1 8111   3.450   1.404   1.308
 2404SOL    HW2 8112   3.599   1.432   1.248
 2405SOL     OW 8113   3.498   3.549   2.461
 2405SOL    HW1 8114   3.429   3.602   2.411
 2405SOL    HW2 8115   3.500   3.578   2.557
 2406SOL     OW 8116   2.875   6.823   2.559
 2406SOL    HW1 8117   2.974   6.831   2.569
 2406SOL    HW2 8118   2.853   6.730   2.528
 2407SOL     OW 8119   5.725   1.959   2.530
 2407SOL    HW1 8120   5.655   2.008   2.582
 2407SOL    HW2 8121   5.682   1.915   2.451
 2408SOL     OW 8122   4.057   4.774   3.118
 2408SOL    HW1 8123   4.110   4.713   3.176
 2408SOL    HW2 8124   3.968   4.793   3.161
 2409SOL     OW 8125   1.775   4.874   2.435
 2409SOL    HW1 8126   1.853   4.820   2.405
 2409SOL    HW2 8127   1.714   4.817   2.490
 2410SOL     OW 8128   4.474   3.242   5.679
 2410SOL    HW1 8129   4.568   3.276   5.684
 2410SOL    HW2 8130   4.413   3.319   5.663
 2411SOL     OW 8131   4.433   5.508   4.986
 2411SOL    HW1 8132   4.475   5.418   4.999
 2411SOL    HW2 8133   4.410   5.520   4.889
 2412SOL     OW 8134   4.768   4.967   0.835
 2412SOL    HW1 8135   4.867   4.955   0.827
 2412SOL    HW2 8136   4.748   5.057   0.873
 2413SOL     OW 8137   6.255   1.723   1.150
 2413SOL    HW1 8138   6.195   1.651   1.184
 2413SOL    HW2 8139   6.202   1.805   1.130
 2414SOL     OW 8140   4.686   4.706   2.937
 2414SOL    HW1 8141   4.738   4.658   3.008
 2414SOL    HW2 8142   4.704   4.804   2.943
 2415SOL     OW 8143   6.253   0.819   2.832
 2415SOL    HW1 8144   6.183   0.871   2.881
 2415SOL    HW2 8145   6.276   0.737   2.884
 2416SOL     OW 8146   4.704   2.455   5.500
 2416SOL    HW1 8147   4.742   2.446   5.408
 2416SOL    HW2 8148   4.670   2.366   5.531
 2417SOL     OW 8149   3.663   3.392   5.493
 2417SOL    HW1 8150   3.612   3.440   5.422
 2417SOL    HW2 8151   3.610   3.315   5.526
 2418SOL     OW 8152   3.084   3.080   4.236
 2418SOL    HW1 8153   3.045   3.104   4.147
 2418SOL    HW2 8154   3.030   3.122   4.309
 2419SOL     OW 8155   0.012   0.146   4.769
 2419SOL    HW1 8156   6.994   0.106   4.855
 2419SOL    HW2 8157   6.987   0.237   4.757
 2420SOL     OW 8158   3.169   0.788   2.591
 2420SOL    HW1 8159   3.104   0.864   2.603
 2420SOL    HW2 8160   3.118   0.702   2.587
 2421SOL     OW 8161   2.328   2.383   4.982
 2421SOL    HW1 8162   2.416   2.334   4.985
 2421SOL    HW2 8163   2.259   2.329   5.031
 2422SOL     OW 8164   5.710   1.507   0.973
 2422SOL    HW1 8165   5.629   1.557   0.942
 2422SOL    HW2 8166   5.782   1.514   0.903
 2423SOL     OW 8167   1.468   5.287   2.415
 2423SOL    HW1 8168   1.541   5.332   2.364
 2423SOL    HW2 8169   1.508   5.219   2.476
 2424SOL     OW 8170   6.096   6.925   5.999
 2424SOL    HW1 8171   6.005   6.917   6.041
 2424SOL    HW2 8172   6.085   6.936   5.900
 2425SOL     OW 8173   5.599   0.437   3.957
 2425SOL    HW1 8174   5.577   0.350   3.911
 2425SOL    HW2 8175   5.521   0.466   4.012
 2426SOL     OW 8176   0.954   6.270   4.983
 2426SOL    HW1 8177   0.913   6.182   5.010
 2426SOL    HW2 8178   1.049   6.273   5.014
 2427SOL     OW 8179   5.626   6.107   5.842
 2427SOL    HW1 8180   5.654   6.153   5.758
 2427SOL    HW2 8181   5.566   6.031   5.821
 2428SOL     OW 8182   6.683   0.361   2.363
 2428SOL    HW1 8183   6.646   0.339   2.272
 2428SOL    HW2 8184   6.725   0.280   2.402
 2429SOL     OW 8185   5.419   5.692   2.991
 2429SOL    HW1 8186   5.357   5.716   2.916
 2429SOL    HW2 8187   5.507   5.738   2.978
 2430SOL     OW 8188   5.756   0.739   1.529
 2430SOL    HW1 8189   5.753   0.730   1.628
 2430SOL    HW2 8190   5.717   0.657   1.487
 2431SOL     OW 8191   4.214   1.168   1.798
 2431SOL    HW1 8192   4.287   1.101   1.784
 2431SOL    HW2 8193   4.214   1.233   1.722
 2432SOL     OW 8194   3.217   6.176   2.642
 2432SOL    HW1 8195   3.150   6.167   2.569
 2432SOL    HW2 8196   3.237   6.273   2.659
 2433SOL     OW 8197   3.662   1.535   0.449
 2433SOL    HW1 8198   3.641   1.545   0.546
 2433SOL    HW2 8199   3.620   1.610   0.398
 2434SOL     OW 8200   3.597   1.249   5.759
 2434SOL    HW1 8201   3.659   1.324   5.781
 2434SOL    HW2 8202   3.621   1.212   5.669
 2435SOL     OW 8203   4.368   5.131   5.783
 2435SOL    HW1 8204   4.298   5.114   5.714
 2435SOL    HW2 8205   4.326   5.172   5.864
 2436SOL     OW 8206   1.613   4.946   0.459
 2436SOL    HW1 8207   1.642   4.873   0.521
 2436SOL    HW2 8208   1.694   4.991   0.421
 2437SOL     OW 8209   5.154   6.638   6.564
 2437SOL    HW1 8210   5.242   6.676   6.594
 2437SOL    HW2 8211   5.170   6.548   6.522
 2438SOL     OW 8212   3.270   1.491   6.700
 2438SOL    HW1 8213   3.286   1.466   6.605
 2438SOL    HW2 8214   3.310   1.581   6.718
 2439SOL     OW 8215   0.883   4.442   6.391
 2439SOL    HW1 8216   0.921   4.514   6.449
 2439SOL    HW2 8217   0.957   4.384   6.357
 2440SOL     OW 8218   4.538   6.172   5.741
 2440SOL    HW1 8219   4.616   6.182   5.803
 2440SOL    HW2 8220   4.552   6.230   5.661
 2441SOL     OW 8221   0.396   1.597   6.846
 2441SOL    HW1 8222   0.368   1.610   6.941
 2441SOL    HW2 8223   0.400   1.499   6.825
 2442SOL     OW 8224   0.855   3.497   5.595
 2442SOL    HW1 8225   0.926   3.427   5.600
 2442SOL    HW2 8226   0.781   3.465   5.536
 2443SOL     OW 8227   3.817   5.042   5.761
 2443SOL    HW1 8228   3.800   5.140   5.762
 2443SOL    HW2 8229   3.880   5.019   5.686
 2444SOL     OW 8230   2.698   4.226   6.686
 2444SOL    HW1 8231   2.606   4.219   6.648
 2444SOL    HW2 8232   2.718   4.143   6.739
 2445SOL     OW 8233   6.935   1.386   1.151
 2445SOL    HW1 8234   6.886   1.310   1.109
 2445SOL    HW2 8235   0.018   1.377   1.132
 2446SOL     OW 8236   6.092   4.597   3.804
 2446SOL    HW1 8237   6.157   4.656   3.757
 2446SOL    HW2 8238   6.104   4.605   3.902
 2447SOL     OW 8239   2.156   2.960   0.214
 2447SOL    HW1 8240   2.241   2.941   0.262
 2447SOL    HW2 8241   2.137   2.887   0.148
 2448SOL     OW 8242   0.175   0.813   4.362
 2448SOL    HW1 8243   0.221   0.766   4.437
 2448SOL    HW2 8244   0.230   0.891   4.333
 2449SOL     OW 8245   6.848   4.412   0.100
 2449SOL    HW1 8246   6.809   4.501   0.078
 2449SOL    HW2 8247   6.818   4.345   0.032
 2450SOL     OW 8248   2.307   4.237   2.647
 2450SOL    HW1 8249   2.211   4.254   2.669
 2450SOL    HW2 8250   2.338   4.303   2.578
 2451SOL     OW 8251   1.541   0.233   4.089
 2451SOL    HW1 8252   1.636   0.257   4.109
 2451SOL    HW2 8253   1.498   0.307   4.038
 2452SOL     OW 8254   1.716   3.654   3.267
 2452SOL    HW1 8255   1.687   3.563   3.297
 2452SOL    HW2 8256   1.687   3.722   3.335
 2453SOL     OW 8257   6.708   4.642   1.130
 2453SOL    HW1 8258   6.755   4.587   1.199
 2453SOL    HW2 8259   6.657   4.583   1.069
 2454SOL     OW 8260   3.977   1.019   1.853
 2454SOL    HW1 8261   3.996   0.932   1.898
 2454SOL    HW2 8262   4.063   1.062   1.824
 2455SOL     OW 8263   4.976   5.678   0.590
 2455SOL    HW1 8264   5.060   5.722   0.560
 2455SOL    HW2 8265   4.898   5.717   0.540
 2456SOL     OW 8266   4.941   6.929   2.126
 2456SOL    HW1 8267   4.993   6.897   2.047
 2456SOL    HW2 8268   4.930   6.855   2.192
 2457SOL     OW 8269   5.286   6.399   0.323
 2457SOL    HW1 8270   5.291   6.318   0.381
 2457SOL    HW2 8271   5.342   6.472   0.362
 2458SOL     OW 8272   2.253   5.366   3.470
 2458SOL    HW1 8273   2.251   5.267   3.465
 2458SOL    HW2 8274   2.285   5.395   3.560
 2459SOL     OW 8275   1.497   6.904   0.624
 2459SOL    HW1 8276   1.446   6.985   0.595
 2459SOL    HW2 8277   1.486   6.832   0.555
 2460SOL     OW 8278   2.272   6.540   2.438
 2460SOL    HW1 8279   2.240   6.455   2.480
 2460SOL    HW2 8280   2.194   6.599   2.420
 2461SOL     OW 8281   5.848   0.930   2.328
 2461SOL    HW1 8282   5.792   0.984   2.264
 2461SOL    HW2 8283   5.858   0.837   2.293
 2462SOL     OW 8284   2.011   5.190   0.460
 2462SOL    HW1 8285   2.086   5.236   0.413
 2462SOL    HW2 8286   1.995   5.101   0.419
 2463SOL     OW 8287   0.256   1.802   3.710
 2463SOL    HW1 8288   0.180   1.749   3.671
 2463SOL    HW2 8289   0.337   1.790   3.653
 2464SOL     OW 8290   0.631   4.344   0.669
 2464SOL    HW1 8291   0.670   4.352   0.578
 2464SOL    HW2 8292   0.641   4.250   0.701
 2465SOL     OW 8293   0.128   5.598   1.538
 2465SOL    HW1 8294   0.185   5.619   1.617
 2465SOL    HW2 8295   0.060   5.529   1.562
 2466SOL     OW 8296   4.565   1.583   2.995
 2466SOL    HW1 8297   4.546   1.527   3.075
 2466SOL    HW2 8298   4.541   1.679   3.014
 2467SOL     OW 8299   6.531   1.238   5.853
 2467SOL    HW1 8300   6.616   1.275   5.889
 2467SOL    HW2 8301   6.538   1.228   5.753
 2468SOL     OW 8302   6.910   6.204   2.211
 2468SOL    HW1 8303   6.926   6.118   2.258
 2468SOL    HW2 8304   6.915   6.190   2.112
 2469SOL     OW 8305   2.953   3.801   5.640
 2469SOL    HW1 8306   2.909   3.890   5.626
 2469SOL    HW2 8307   3.010   3.779   5.561
 2470SOL     OW 8308   2.734   3.649   5.708
 2470SOL    HW1 8309   2.816   3.705   5.692
 2470SOL    HW2 8310   2.672   3.698   5.769
 2471SOL     OW 8311   1.065   6.391   1.877
 2471SOL    HW1 8312   1.087   6.434   1.789
 2471SOL    HW2 8313   0.971   6.415   1.902
 2472SOL     OW 8314   5.316   2.183   4.232
 2472SOL    HW1 8315   5.410   2.164   4.205
 2472SOL    HW2 8316   5.312   2.268   4.285
 2473SOL     OW 8317   0.986   5.522   4.531
 2473SOL    HW1 8318   1.071   5.573   4.541
 2473SOL    HW2 8319   0.913   5.584   4.503
 2474SOL     OW 8320   0.015   5.363   5.220
 2474SOL    HW1 8321   6.960   5.298   5.248
 2474SOL    HW2 8322   7.004   5.404   5.133
 2475SOL     OW 8323   4.386   2.533   0.595
 2475SOL    HW1 8324   4.399   2.437   0.621
 2475SOL    HW2 8325   4.439   2.552   0.512
 2476SOL     OW 8326   1.065   1.514   3.997
 2476SOL    HW1 8327   1.045   1.570   3.916
 2476SOL    HW2 8328   1.031   1.561   4.078
 2477SOL     OW 8329   5.482   6.298   1.447
 2477SOL    HW1 8330   5.559   6.250   1.405
 2477SOL    HW2 8331   5.408   6.307   1.381
 2478SOL     OW 8332   6.312   6.793   2.628
 2478SOL    HW1 8333   6.389   6.833   2.579
 2478SOL    HW2 8334   6.246   6.865   2.651
 2479SOL     OW 8335   6.965   2.489   1.286
 2479SOL    HW1 8336   6.917   2.402   1.280
 2479SOL    HW2 8337   7.015   2.506   1.201
 2480SOL     OW 8338   6.755   3.484   1.560
 2480SOL    HW1 8339   6.812   3.566   1.560
 2480SOL    HW2 8340   6.687   3.491   1.487
 2481SOL     OW 8341   3.983   5.728   1.392
 2481SOL    HW1 8342   3.994   5.696   1.486
 2481SOL    HW2 8343   4.005   5.826   1.388
 2482SOL     OW 8344   5.050   3.427   5.481
 2482SOL    HW1 8345   5.019   3.521   5.494
 2482SOL    HW2 8346   4.982   3.377   5.427
 2483SOL     OW 8347   1.059   1.171   0.548
 2483SOL    HW1 8348   0.981   1.109   0.558
 2483SOL    HW2 8349   1.025   1.263   0.528
 2484SOL     OW 8350   2.784   1.036   0.575
 2484SOL    HW1 8351   2.744   1.111   0.523
 2484SOL    HW2 8352   2.712   0.970   0.599
 2485SOL     OW 8353   0.193   5.129   2.209
 2485SOL    HW1 8354   0.114   5.147   2.151
 2485SOL    HW2 8355   0.224   5.214   2.252
 2486SOL     OW 8356   1.964   5.295   3.121
 2486SOL    HW1 8357   2.036   5.324   3.059
 2486SOL    HW2 8358   1.927   5.374   3.170
 2487SOL     OW 8359   3.801   6.900   0.490
 2487SOL    HW1 8360   3.715   6.938   0.456
 2487SOL    HW2 8361   3.841   6.963   0.557
 2488SOL     OW 8362   2.836   4.354   1.235
 2488SOL    HW1 8363   2.775   4.309   1.301
 2488SOL    HW2 8364   2.878   4.284   1.176
 2489SOL     OW 8365   1.388   5.216   5.347
 2489SOL    HW1 8366   1.367   5.139   5.288
 2489SOL    HW2 8367   1.476   5.201   5.393
 2490SOL     OW 8368   6.158   3.845   0.842
 2490SOL    HW1 8369   6.182   3.942   0.835
 2490SOL    HW2 8370   6.240   3.790   0.826
 2491SOL     OW 8371   2.542   5.306   3.410
 2491SOL    HW1 8372   2.485   5.226   3.428
 2491SOL    HW2 8373   2.587   5.296   3.321
 2492SOL     OW 8374   4.738   3.078   6.499
 2492SOL    HW1 8375   4.809   3.144   6.477
 2492SOL    HW2 8376   4.753   3.043   6.592
 2493SOL     OW 8377   5.787   1.719   3.063
 2493SOL    HW1 8378   5.733   1.775   3.126
 2493SOL    HW2 8379   5.835   1.778   2.998
 2494SOL     OW 8380   4.637   2.677   2.319
 2494SOL    HW1 8381   4.575   2.735   2.266
 2494SOL    HW2 8382   4.639   2.585   2.278
 2495SOL     OW 8383   5.331   1.150   5.179
 2495SOL    HW1 8384   5.324   1.214   5.256
 2495SOL    HW2 8385   5.239   1.125   5.148
 2496SOL     OW 8386   0.853   5.486   0.007
 2496SOL    HW1 8387   0.760   5.452   0.020
 2496SOL    HW2 8388   0.892   5.445   6.939
 2497SOL     OW 8389   6.767   1.867   6.934
 2497SOL    HW1 8390   6.805   1.837   0.007
 2497SOL    HW2 8391   6.670   1.886   6.945
 2498SOL     OW 8392   1.780   2.894   3.831
 2498SOL    HW1 8393   1.876   2.898   3.859
 2498SOL    HW2 8394   1.738   2.812   3.871
 2499SOL     OW 8395   4.929   0.861   4.543
 2499SOL    HW1 8396   4.843   0.887   4.498
 2499SOL    HW2 8397   5.006   0.894   4.489
 2500SOL     OW 8398   4.841   3.201   6.179
 2500SOL    HW1 8399   4.871   3.197   6.274
 2500SOL    HW2 8400   4.820   3.296   6.154
 2501SOL     OW 8401   6.262   4.576   0.102
 2501SOL    HW1 8402   6.196   4.504   0.121
 2501SOL    HW2 8403   6.274   4.587   0.004
 2502SOL     OW 8404   1.699   7.012   2.960
 2502SOL    HW1 8405   1.695   0.086   3.006
 2502SOL    HW2 8406   1.707   0.011   2.861
 2503SOL     OW 8407   3.875   5.181   6.138
 2503SOL    HW1 8408   3.794   5.164   6.082
 2503SOL    HW2 8409   3.919   5.266   6.109
 2504SOL     OW 8410   1.915   4.928   4.705
 2504SOL    HW1 8411   1.970   4.851   4.739
 2504SOL    HW2 8412   1.950   4.956   4.616
 2505SOL     OW 8413   4.415   5.605   4.305
 2505SOL    HW1 8414   4.358   5.685   4.286
 2505SOL    HW2 8415   4.500   5.612   4.252
 2506SOL     OW 8416   6.467   2.975   6.025
 2506SOL    HW1 8417   6.416   2.916   6.087
 2506SOL    HW2 8418   6.563   2.945   6.022
 2507SOL     OW 8419   6.272   5.990   0.659
 2507SOL    HW1 8420   6.307   6.080   0.686
 2507SOL    HW2 8421   6.175   5.984   0.680
 2508SOL     OW 8422   2.343   1.945   2.179
 2508SOL    HW1 8423   2.433   1.988   2.192
 2508SOL    HW2 8424   2.356   1.848   2.160
 2509SOL     OW 8425   5.711   2.526   3.421
 2509SOL    HW1 8426   5.673   2.435   3.438
 2509SOL    HW2 8427   5.810   2.519   3.405
 2510SOL     OW 8428   3.038   5.342   0.407
 2510SOL    HW1 8429   3.116   5.390   0.446
 2510SOL    HW2 8430   3.041   5.246   0.434
 2511SOL     OW 8431   0.869   0.612   5.292
 2511SOL    HW1 8432   0.963   0.643   5.295
 2511SOL    HW2 8433   0.843   0.590   5.198
 2512SOL     OW 8434   4.898   4.021   4.934
 2512SOL    HW1 8435   4.832   4.059   4.869
 2512SOL    HW2 8436   4.983   4.073   4.930
 2513SOL     OW 8437   0.939   2.450   6.304
 2513SOL    HW1 8438   0.854   2.489   6.268
 2513SOL    HW2 8439   0.924   2.420   6.398
 2514SOL     OW 8440   1.305   0.774   4.372
 2514SOL    HW1 8441   1.309   0.824   4.459
 2514SOL    HW2 8442   1.396   0.772   4.331
 2515SOL     OW 8443   1.054   5.943   0.660
 2515SOL    HW1 8444   1.064   5.891   0.575
 2515SOL    HW2 8445   1.108   5.901   0.732
 2516SOL     OW 8446   6.228   6.648   3.502
 2516SOL    HW1 8447   6.312   6.594   3.500
 2516SOL    HW2 8448   6.194   6.651   3.596
 2517SOL     OW 8449   2.560   4.597   0.208
 2517SOL    HW1 8450   2.637   4.638   0.160
 2517SOL    HW2 8451   2.588   4.567   0.299
 2518SOL     OW 8452   2.274   3.250   6.606
 2518SOL    HW1 8453   2.247   3.332   6.557
 2518SOL    HW2 8454   2.354   3.209   6.563
 2519SOL     OW 8455   4.727   4.686   4.779
 2519SOL    HW1 8456   4.662   4.612   4.788
 2519SOL    HW2 8457   4.683   4.773   4.804
 2520SOL     OW 8458   2.094   3.495   1.022
 2520SOL    HW1 8459   2.133   3.426   1.084
 2520SOL    HW2 8460   2.158   3.512   0.947
 2521SOL     OW 8461   6.382   0.192   5.557
 2521SOL    HW1 8462   6.404   0.105   5.600
 2521SOL    HW2 8463   6.343   0.176   5.466
 2522SOL     OW 8464   1.290   3.163   4.572
 2522SOL    HW1 8465   1.218   3.217   4.617
 2522SOL    HW2 8466   1.379   3.204   4.591
 2523SOL     OW 8467   0.079   4.064   0.531
 2523SOL    HW1 8468   0.179   4.059   0.523
 2523SOL    HW2 8469   0.038   3.987   0.481
 2524SOL     OW 8470   1.661   6.587   3.754
 2524SOL    HW1 8471   1.639   6.502   3.802
 2524SOL    HW2 8472   1.586   6.610   3.692
 2525SOL     OW 8473   1.052   3.948   3.776
 2525SOL    HW1 8474   1.116   3.997   3.717
 2525SOL    HW2 8475   1.042   3.998   3.862
 2526SOL     OW 8476   6.946   1.736   4.283
 2526SOL    HW1 8477   0.008   1.799   4.285
 2526SOL    HW2 8478   6.904   1.737   4.192
 2527SOL     OW 8479   5.677   6.134   4.474
 2527SOL    HW1 8480   5.746   6.155   4.543
 2527SOL    HW2 8481   5.650   6.218   4.427
 2528SOL     OW 8482   6.132   5.460   0.663
 2528SOL    HW1 8483   6.122   5.538   0.602
 2528SOL    HW2 8484   6.205   5.478   0.728
 2529SOL     OW 8485   5.240   4.787   4.640
 2529SOL    HW1 8486   5.266   4.808   4.545
 2529SOL    HW2 8487   5.141   4.774   4.645
 2530SOL     OW 8488   1.140   0.129   3.237
 2530SOL    HW1 8489   1.071   0.152   3.306
 2530SOL    HW2 8490   1.109   0.049   3.186
 2531SOL     OW 8491   4.445   1.063   5.728
 2531SOL    HW1 8492   4.369   1.125   5.746
 2531SOL    HW2 8493   4.410   0.974   5.701
 2532SOL     OW 8494   1.316   5.189   6.691
 2532SOL    HW1 8495   1.297   5.159   6.784
 2532SOL    HW2 8496   1.322   5.110   6.630
 2533SOL     OW 8497   5.702   6.723   5.459
 2533SOL    HW1 8498   5.718   6.625   5.449
 2533SOL    HW2 8499   5.701   6.747   5.556
 2534SOL     OW 8500   1.945   0.568   4.001
 2534SOL    HW1 8501   2.035   0.583   4.041
 2534SOL    HW2 8502   1.939   0.615   3.913
 2535SOL     OW 8503   1.637   0.965   3.860
 2535SOL    HW1 8504   1.610   0.996   3.769
 2535SOL    HW2 8505   1.736   0.970   3.868
 2536SOL     OW 8506   5.875   1.822   4.505
 2536SOL    HW1 8507   5.904   1.740   4.455
 2536SOL    HW2 8508   5.933   1.899   4.480
 2537SOL     OW 8509   4.973   5.687   1.520
 2537SOL    HW1 8510   5.037   5.670   1.595
 2537SOL    HW2 8511   4.938   5.780   1.527
 2538SOL     OW 8512   1.979   4.937   4.445
 2538SOL    HW1 8513   1.968   4.853   4.393
 2538SOL    HW2 8514   2.062   4.984   4.415
 2539SOL     OW 8515   4.369   0.493   5.175
 2539SOL    HW1 8516   4.308   0.429   5.221
 2539SOL    HW2 8517   4.316   0.557   5.119
 2540SOL     OW 8518   5.552   1.266   1.809
 2540SOL    HW1 8519   5.577   1.172   1.832
 2540SOL    HW2 8520   5.461   1.286   1.844
 2541SOL     OW 8521   1.394   6.455   5.992
 2541SOL    HW1 8522   1.390   6.471   6.091
 2541SOL    HW2 8523   1.434   6.535   5.947
 2542SOL     OW 8524   3.316   1.638   4.425
 2542SOL    HW1 8525   3.222   1.649   4.458
 2542SOL    HW2 8526   3.339   1.541   4.423
 2543SOL     OW 8527   0.872   1.341   2.735
 2543SOL    HW1 8528   0.860   1.431   2.693
 2543SOL    HW2 8529   0.867   1.349   2.834
 2544SOL     OW 8530   6.566   4.864   1.047
 2544SOL    HW1 8531   6.626   4.797   1.091
 2544SOL    HW2 8532   6.492   4.815   1.000
 2545SOL     OW 8533   0.474   1.627   1.718
 2545SOL    HW1 8534   0.412   1.548   1.717
 2545SOL    HW2 8535   0.515   1.638   1.628
 2546SOL     OW 8536   6.353   3.729   2.034
 2546SOL    HW1 8537   6.305   3.686   2.110
 2546SOL    HW2 8538   6.410   3.804   2.068
 2547SOL     OW 8539   5.387   4.128   0.756
 2547SOL    HW1 8540   5.422   4.149   0.847
 2547SOL    HW2 8541   5.398   4.208   0.697
 2548SOL     OW 8542   0.454   6.898   5.326
 2548SOL    HW1 8543   0.517   6.821   5.324
 2548SOL    HW2 8544   0.365   6.867   5.359
 2549SOL     OW 8545   2.432   1.693   1.357
 2549SOL    HW1 8546   2.412   1.785   1.392
 2549SOL    HW2 8547   2.357   1.663   1.298
 2550SOL     OW 8548   4.563   0.092   6.454
 2550SOL    HW1 8549   4.643   0.141   6.418
 2550SOL    HW2 8550   4.485   0.154   6.456
 2551SOL     OW 8551   2.968   5.101   6.614
 2551SOL    HW1 8552   2.914   5.108   6.530
 2551SOL    HW2 8553   2.942   5.018   6.663
 2552SOL     OW 8554   2.035   5.966   0.179
 2552SOL    HW1 8555   2.066   5.896   0.243
 2552SOL    HW2 8556   2.099   6.042   0.178
 2553SOL     OW 8557   4.006   2.061   6.721
 2553SOL    HW1 8558   4.018   2.033   6.816
 2553SOL    HW2 8559   4.049   2.149   6.706
 2554SOL     OW 8560   2.007   5.941   1.296
 2554SOL    HW1 8561   1.978   5.871   1.232
 2554SOL    HW2 8562   2.020   5.901   1.387
 2555SOL     OW 8563   5.890   5.927   5.576
 2555SOL    HW1 8564   5.890   5.861   5.500
 2555SOL    HW2 8565   5.827   5.894   5.647
 2556SOL     OW 8566   3.223   0.031   1.530
 2556SOL    HW1 8567   3.200   0.122   1.565
 2556SOL    HW2 8568   3.186   6.976   1.591
 2557SOL     OW 8569   3.504   0.842   0.757
 2557SOL    HW1 8570   3.524   0.940   0.756
 2557SOL    HW2 8571   3.420   0.825   0.808
 2558SOL     OW 8572   5.604   4.510   6.993
 2558SOL    HW1 8573   5.570   4.429   0.025
 2558SOL    HW2 8574   5.688   4.542   0.022
 2559SOL     OW 8575   0.741   3.864   3.803
 2559SOL    HW1 8576   0.831   3.885   3.765
 2559SOL    HW2 8577   0.730   3.909   3.892
 2560SOL     OW 8578   4.975   2.773   2.972
 2560SOL    HW1 8579   5.014   2.777   2.880
 2560SOL    HW2 8580   4.958   2.866   3.005
 2561SOL     OW 8581   3.141   0.482   4.169
 2561SOL    HW1 8582   3.106   0.573   4.147
 2561SOL    HW2 8583   3.095   0.446   4.250
 2562SOL     OW 8584   3.026   6.449   3.717
 2562SOL    HW1 8585   2.951   6.481   3.775
 2562SOL    HW2 8586   3.110   6.496   3.742
 2563SOL     OW 8587   2.869   1.280   6.951
 2563SOL    HW1 8588   2.855   1.217   0.012
 2563SOL    HW2 8589   2.964   1.310   6.949
 2564SOL     OW 8590   1.585   1.075   0.863
 2564SOL    HW1 8591   1.567   0.990   0.814
 2564SOL    HW2 8592   1.591   1.150   0.797
 2565SOL     OW 8593   1.176   1.754   6.445
 2565SOL    HW1 8594   1.186   1.671   6.500
 2565SOL    HW2 8595   1.235   1.825   6.482
 2566SOL     OW 8596   3.016   0.873   1.341
 2566SOL    HW1 8597   2.919   0.861   1.360
 2566SOL    HW2 8598   3.064   0.892   1.426
 2567SOL     OW 8599   1.521   0.159   6.748
 2567SOL    HW1 8600   1.521   0.150   6.847
 2567SOL    HW2 8601   1.584   0.091   6.708
 2568SOL     OW 8602   2.755   6.099   1.438
 2568SOL    HW1 8603   2.724   6.058   1.353
 2568SOL    HW2 8604   2.677   6.136   1.489
 2569SOL     OW 8605   1.712   1.272   1.137
 2569SOL    HW1 8606   1.705   1.366   1.104
 2569SOL    HW2 8607   1.664   1.265   1.225
 2570SOL     OW 8608   5.156   5.997   0.057
 2570SOL    HW1 8609   5.172   6.036   6.982
 2570SOL    HW2 8610   5.124   6.069   0.119
 2571SOL     OW 8611   4.005   3.181   4.329
 2571SOL    HW1 8612   4.077   3.240   4.293
 2571SOL    HW2 8613   4.025   3.085   4.306
 2572SOL     OW 8614   2.310   5.499   1.581
 2572SOL    HW1 8615   2.375   5.431   1.548
 2572SOL    HW2 8616   2.356   5.588   1.585
 2573SOL     OW 8617   6.907   2.032   4.054
 2573SOL    HW1 8618   6.891   2.099   3.981
 2573SOL    HW2 8619   6.995   2.050   4.097
 2574SOL     OW 8620   6.867   3.798   1.362
 2574SOL    HW1 8621   6.916   3.721   1.322
 2574SOL    HW2 8622   6.850   3.782   1.459
 2575SOL     OW 8623   5.680   4.013   0.462
 2575SOL    HW1 8624   5.714   3.968   0.545
 2575SOL    HW2 8625   5.589   3.979   0.440
 2576SOL     OW 8626   2.164   6.961   2.803
 2576SOL    HW1 8627   2.097   6.894   2.771
 2576SOL    HW2 8628   2.131   7.005   2.886
 2577SOL     OW 8629   3.152   6.592   3.394
 2577SOL    HW1 8630   3.212   6.531   3.341
 2577SOL    HW2 8631   3.057   6.567   3.379
 2578SOL     OW 8632   4.458   2.532   4.510
 2578SOL    HW1 8633   4.505   2.555   4.595
 2578SOL    HW2 8634   4.377   2.479   4.531
 2579SOL     OW 8635   0.325   2.330   6.630
 2579SOL    HW1 8636   0.339   2.424   6.660
 2579SOL    HW2 8637   0.328   2.269   6.709
 2580SOL     OW 8638   1.829   2.537   6.543
 2580SOL    HW1 8639   1.779   2.452   6.557
 2580SOL    HW2 8640   1.796   2.581   6.459
 2581SOL     OW 8641   5.286   5.521   2.214
 2581SOL    HW1 8642   5.307   5.598   2.274
 2581SOL    HW2 8643   5.369   5.493   2.166
 2582SOL     OW 8644   0.935   5.442   2.629
 2582SOL    HW1 8645   0.853   5.414   2.680
 2582SOL    HW2 8646   0.940   5.542   2.625
 2583SOL     OW 8647   0.812   0.130   0.686
 2583SOL    HW1 8648   0.852   0.041   0.709
 2583SOL    HW2 8649   0.791   0.134   0.588
 2584SOL     OW 8650   3.264   6.196   1.224
 2584SOL    HW1 8651   3.244   6.222   1.130
 2584SOL    HW2 8652   3.270   6.097   1.231
 2585SOL     OW 8653   3.236   0.023   0.730
 2585SOL    HW1 8654   3.263   0.096   0.794
 2585SOL    HW2 8655   3.163   6.983   0.771
 2586SOL     OW 8656   6.217   1.642   4.527
 2586SOL    HW1 8657   6.276   1.569   4.493
 2586SOL    HW2 8658   6.187   1.700   4.451
 2587SOL     OW 8659   5.968   6.847   4.595
 2587SOL    HW1 8660   5.895   6.849   4.664
 2587SOL    HW2 8661   6.022   6.763   4.606
 2588SOL     OW 8662   5.812   0.685   1.801
 2588SOL    HW1 8663   5.863   0.718   1.881
 2588SOL    HW2 8664   5.864   0.614   1.755
 2589SOL     OW 8665   6.554   6.956   5.545
 2589SOL    HW1 8666   6.491   6.959   5.468
 2589SOL    HW2 8667   6.535   6.875   5.601
 2590SOL     OW 8668   3.924   6.701   2.542
 2590SOL    HW1 8669   3.971   6.617   2.570
 2590SOL    HW2 8670   3.916   6.703   2.443
 2591SOL     OW 8671   5.133   6.146   1.612
 2591SOL    HW1 8672   5.194   6.116   1.539
 2591SOL    HW2 8673   5.049   6.091   1.610
 2592SOL     OW 8674   3.039   5.512   1.071
 2592SOL    HW1 8675   2.994   5.579   1.131
 2592SOL    HW2 8676   3.138   5.530   1.071
 2593SOL     OW 8677   3.535   6.236   3.089
 2593SOL    HW1 8678   3.442   6.213   3.116
 2593SOL    HW2 8679   3.532   6.309   3.021
 2594SOL     OW 8680   0.035   0.287   6.529
 2594SOL    HW1 8681   0.131   0.264   6.515
 2594SOL    HW2 8682   7.012   0.228   6.601
 2595SOL     OW 8683   6.906   3.386   4.662
 2595SOL    HW1 8684   6.821   3.391   4.715
 2595SOL    HW2 8685   6.964   3.465   4.684
 2596SOL     OW 8686   4.285   2.189   2.258
 2596SOL    HW1 8687   4.261   2.256   2.329
 2596SOL    HW2 8688   4.275   2.097   2.295
 2597SOL     OW 8689   2.603   3.247   1.432
 2597SOL    HW1 8690   2.540   3.233   1.509
 2597SOL    HW2 8691   2.697   3.239   1.465
 2598SOL     OW 8692   6.948   2.683   3.812
 2598SOL    HW1 8693   6.983   2.734   3.734
 2598SOL    HW2 8694   6.951   2.741   3.894
 2599SOL     OW 8695   4.312   5.802   6.675
 2599SOL    HW1 8696   4.256   5.877   6.711
 2599SOL    HW2 8697   4.328   5.817   6.578
 2600SOL     OW 8698   5.739   3.820   3.968
 2600SOL    HW1 8699   5.824   3.808   4.019
 2600SOL    HW2 8700   5.736   3.755   3.893
 2601SOL     OW 8701   3.570   3.103   6.155
 2601SOL    HW1 8702   3.525   3.188   6.186
 2601SOL    HW2 8703   3.505   3.027   6.163
 2602SOL     OW 8704   6.860   4.668   4.486
 2602SOL    HW1 8705   6.957   4.692   4.479
 2602SOL    HW2 8706   6.821   4.658   4.395
 2603SOL     OW 8707   2.326   2.278   1.243
 2603SOL    HW1 8708   2.397   2.209   1.253
 2603SOL    HW2 8709   2.247   2.253   1.298
 2604SOL     OW 8710   5.167   0.499   1.046
 2604SOL    HW1 8711   5.194   0.595   1.049
 2604SOL    HW2 8712   5.247   0.441   1.056
 2605SOL     OW 8713   4.076   4.843   3.857
 2605SOL    HW1 8714   4.122   4.932   3.859
 2605SOL    HW2 8715   4.097   4.797   3.771
 2606SOL     OW 8716   6.013   4.295   1.400
 2606SOL    HW1 8717   6.057   4.206   1.388
 2606SOL    HW2 8718   6.006   4.341   1.311
 2607SOL     OW 8719   1.094   1.038   3.284
 2607SOL    HW1 8720   1.084   1.114   3.348
 2607SOL    HW2 8721   1.049   0.957   3.322
 2608SOL     OW 8722   5.671   0.341   1.960
 2608SOL    HW1 8723   5.741   0.311   2.024
 2608SOL    HW2 8724   5.617   0.262   1.930
 2609SOL     OW 8725   0.604   1.866   2.653
 2609SOL    HW1 8726   0.661   1.945   2.677
 2609SOL    HW2 8727   0.529   1.859   2.720
 2610SOL     OW 8728   6.603   5.601   4.842
 2610SOL    HW1 8729   6.686   5.578   4.792
 2610SOL    HW2 8730   6.539   5.647   4.780
 2611SOL     OW 8731   5.164   6.832   0.729
 2611SOL    HW1 8732   5.075   6.876   0.733
 2611SOL    HW2 8733   5.225   6.884   0.670
 2612SOL     OW 8734   5.022   6.425   4.115
 2612SOL    HW1 8735   5.054   6.486   4.187
 2612SOL    HW2 8736   5.058   6.456   4.027
 2613SOL     OW 8737   3.413   7.009   2.285
 2613SOL    HW1 8738   3.417   6.930   2.224
 2613SOL    HW2 8739   3.327   7.007   2.336
 2614SOL     OW 8740   6.450   6.764   5.706
 2614SOL    HW1 8741   6.475   6.668   5.698
 2614SOL    HW2 8742   6.446   6.789   5.803
 2615SOL     OW 8743   5.194   5.791   3.157
 2615SOL    HW1 8744   5.170   5.871   3.101
 2615SOL    HW2 8745   5.278   5.750   3.121
 2616SOL     OW 8746   4.057   3.315   2.939
 2616SOL    HW1 8747   4.128   3.248   2.918
 2616SOL    HW2 8748   3.968   3.281   2.908
 2617SOL     OW 8749   3.794   5.368   0.883
 2617SOL    HW1 8750   3.884   5.404   0.909
 2617SOL    HW2 8751   3.752   5.429   0.816
 2618SOL     OW 8752   0.247   0.223   1.791
 2618SOL    HW1 8753   0.300   0.161   1.848
 2618SOL    HW2 8754   0.168   0.174   1.754
 2619SOL     OW 8755   4.563   1.850   2.007
 2619SOL    HW1 8756   4.663   1.842   2.008
 2619SOL    HW2 8757   4.538   1.946   2.001
 2620SOL     OW 8758   1.187   5.089   3.275
 2620SOL    HW1 8759   1.249   5.023   3.233
 2620SOL    HW2 8760   1.123   5.041   3.335
 2621SOL     OW 8761   0.271   5.417   3.916
 2621SOL    HW1 8762   0.193   5.378   3.868
 2621SOL    HW2 8763   0.242   5.453   4.004
 2622SOL     OW 8764   2.027   3.130   6.094
 2622SOL    HW1 8765   2.105   3.129   6.032
 2622SOL    HW2 8766   2.053   3.094   6.183
 2623SOL     OW 8767   3.547   1.285   4.121
 2623SOL    HW1 8768   3.492   1.368   4.124
 2623SOL    HW2 8769   3.621   1.291   4.189
 2624SOL     OW 8770   5.902   2.727   3.221
 2624SOL    HW1 8771   5.885   2.784   3.301
 2624SOL    HW2 8772   5.834   2.747   3.150
 2625SOL     OW 8773   2.181   2.955   5.440
 2625SOL    HW1 8774   2.100   3.012   5.425
 2625SOL    HW2 8775   2.200   2.950   5.538
 2626SOL     OW 8776   1.620   6.366   3.890
 2626SOL    HW1 8777   1.590   6.312   3.812
 2626SOL    HW2 8778   1.544   6.377   3.954
 2627SOL     OW 8779   0.331   0.721   4.544
 2627SOL    HW1 8780   0.337   0.696   4.641
 2627SOL    HW2 8781   0.394   0.665   4.491
 2628SOL     OW 8782   3.609   6.522   6.374
 2628SOL    HW1 8783   3.686   6.561   6.424
 2628SOL    HW2 8784   3.524   6.563   6.406
 2629SOL     OW 8785   3.799   4.134   1.755
 2629SOL    HW1 8786   3.721   4.073   1.771
 2629SOL    HW2 8787   3.767   4.220   1.715
 2630SOL     OW 8788   3.649   1.689   2.170
 2630SOL    HW1 8789   3.658   1.658   2.075
 2630SOL    HW2 8790   3.556   1.671   2.202
 2631SOL     OW 8791   4.766   6.960   4.513
 2631SOL    HW1 8792   4.765   6.861   4.523
 2631SOL    HW2 8793   4.814   7.001   4.591
 2632SOL     OW 8794   3.486   2.177   0.004
 2632SOL    HW1 8795   3.488   2.110   0.079
 2632SOL    HW2 8796   3.578   2.209   7.001
 2633SOL     OW 8797   5.979   2.348   6.719
 2633SOL    HW1 8798   5.917   2.426   6.716
 2633SOL    HW2 8799   5.949   2.278   6.654
 2634SOL     OW 8800   1.948   4.198   2.166
 2634SOL    HW1 8801   1.915   4.255   2.241
 2634SOL    HW2 8802   1.882   4.200   2.091
 2635SOL     OW 8803   5.830   5.907   4.532
 2635SOL    HW1 8804   5.773   5.985   4.508
 2635SOL    HW2 8805   5.862   5.863   4.448
 2636SOL     OW 8806   5.812   6.896   5.988
 2636SOL    HW1 8807   5.750   6.968   6.020
 2636SOL    HW2 8808   5.801   6.815   6.045
 2637SOL     OW 8809   5.686   0.288   3.411
 2637SOL    HW1 8810   5.742   0.248   3.339
 2637SOL    HW2 8811   5.601   0.323   3.372
 2638SOL     OW 8812   5.059   6.375   1.385
 2638SOL    HW1 8813   5.125   6.448   1.369
 2638SOL    HW2 8814   5.015   6.388   1.474
 2639SOL     OW 8815   6.001   6.654   2.008
 2639SOL    HW1 8816   5.994   6.580   1.940
 2639SOL    HW2 8817   5.928   6.644   2.076
 2640SOL     OW 8818   0.298   6.456   4.981
 2640SOL    HW1 8819   0.326   6.478   5.074
 2640SOL    HW2 8820   0.312   6.535   4.922
 2641SOL     OW 8821   5.369   3.658   0.008
 2641SOL    HW1 8822   5.335   3.617   6.939
 2641SOL    HW2 8823   5.423   3.591   0.059
 2642SOL     OW 8824   5.334   0.390   4.309
 2642SOL    HW1 8825   5.290   0.476   4.336
 2642SOL    HW2 8826   5.264   0.325   4.280
 2643SOL     OW 8827   0.046   5.985   2.773
 2643SOL    HW1 8828   0.115   6.002   2.703
 2643SOL    HW2 8829   6.989   6.053   2.766
 2644SOL     OW 8830   1.185   5.012   5.499
 2644SOL    HW1 8831   1.137   4.925   5.509
 2644SOL    HW2 8832   1.177   5.044   5.405
 2645SOL     OW 8833   5.171   6.745   5.947
 2645SOL    HW1 8834   5.155   6.701   5.859
 2645SOL    HW2 8835   5.244   6.814   5.937
 2646SOL     OW 8836   6.472   0.575   6.105
 2646SOL    HW1 8837   6.418   0.568   6.189
 2646SOL    HW2 8838   6.555   0.627   6.124
 2647SOL     OW 8839   5.011   0.801   0.764
 2647SOL    HW1 8840   5.059   0.714   0.769
 2647SOL    HW2 8841   5.077   0.875   0.755
 2648SOL     OW 8842   6.636   6.897   2.239
 2648SOL    HW1 8843   6.584   6.859   2.315
 2648SOL    HW2 8844   6.649   6.827   2.169
 2649SOL     OW 8845   3.643   1.337   6.053
 2649SOL    HW1 8846   3.581   1.276   6.005
 2649SOL    HW2 8847   3.601   1.428   6.063
 2650SOL     OW 8848   0.590   4.803   3.302
 2650SOL    HW1 8849   0.615   4.720   3.251
 2650SOL    HW2 8850   0.555   4.777   3.392
 2651SOL     OW 8851   0.649   1.372   1.318
 2651SOL    HW1 8852   0.713   1.343   1.247
 2651SOL    HW2 8853   0.700   1.398   1.400
 2652SOL     OW 8854   3.350   3.092   3.534
 2652SOL    HW1 8855   3.276   3.045   3.485
 2652SOL    HW2 8856   3.381   3.170   3.481
 2653SOL     OW 8857   5.527   0.103   6.315
 2653SOL    HW1 8858   5.614   0.116   6.363
 2653SOL    HW2 8859   5.465   0.050   6.372
 2654SOL     OW 8860   5.367   3.051   6.067
 2654SOL    HW1 8861   5.331   3.095   6.150
 2654SOL    HW2 8862   5.311   3.079   5.989
 2655SOL     OW 8863   4.354   5.780   4.563
 2655SOL    HW1 8864   4.264   5.779   4.520
 2655SOL    HW2 8865   4.422   5.813   4.497
 2656SOL     OW 8866   5.052   4.590   3.845
 2656SOL    HW1 8867   5.064   4.675   3.896
 2656SOL    HW2 8868   4.958   4.582   3.814
 2657SOL     OW 8869   2.140   3.934   6.386
 2657SOL    HW1 8870   2.190   3.948   6.471
 2657SOL    HW2 8871   2.048   3.972   6.394
 2658SOL     OW 8872   6.255   4.724   6.409
 2658SOL    HW1 8873   6.329   4.751   6.471
 2658SOL    HW2 8874   6.192   4.801   6.397
 2659SOL     OW 8875   6.611   2.915   4.594
 2659SOL    HW1 8876   6.657   2.846   4.649
 2659SOL    HW2 8877   6.533   2.873   4.546
 2660SOL     OW 8878   6.671   2.375   2.252
 2660SOL    HW1 8879   6.686   2.467   2.217
 2660SOL    HW2 8880   6.723   2.309   2.198
 2661SOL     OW 8881   3.294   5.561   1.003
 2661SOL    HW1 8882   3.318   5.648   1.047
 2661SOL    HW2 8883   3.336   5.558   0.912
 2662SOL     OW 8884   4.801   6.747   4.700
 2662SOL    HW1 8885   4.880   6.805   4.720
 2662SOL    HW2 8886   4.722   6.779   4.752
 2663SOL     OW 8887   1.778   4.693   1.546
 2663SOL    HW1 8888   1.841   4.732   1.614
 2663SOL    HW2 8889   1.808   4.601   1.523
 2664SOL     OW 8890   3.706   4.004   3.285
 2664SOL    HW1 8891   3.726   3.978   3.380
 2664SOL    HW2 8892   3.778   3.970   3.225
 2665SOL     OW 8893   3.050   1.543   4.487
 2665SOL    HW1 8894   3.065   1.449   4.458
 2665SOL    HW2 8895   2.954   1.568   4.474
 2666SOL     OW 8896   5.039   4.920   0.866
 2666SOL    HW1 8897   5.098   4.879   0.935
 2666SOL    HW2 8898   5.069   4.890   0.775
 2667SOL     OW 8899   1.638   6.266   5.512
 2667SOL    HW1 8900   1.712   6.311   5.463
 2667SOL    HW2 8901   1.564   6.331   5.529
 2668SOL     OW 8902   6.764   3.717   4.335
 2668SOL    HW1 8903   6.813   3.718   4.248
 2668SOL    HW2 8904   6.725   3.627   4.351
 2669SOL     OW 8905   3.812   4.755   5.364
 2669SOL    HW1 8906   3.825   4.726   5.459
 2669SOL    HW2 8907   3.717   4.741   5.337
 2670SOL     OW 8908   6.951   0.756   6.662
 2670SOL    HW1 8909   6.976   0.687   6.730
 2670SOL    HW2 8910   7.014   0.751   6.584
 2671SOL     OW 8911   1.931   3.618   6.630
 2671SOL    HW1 8912   1.900   3.701   6.676
 2671SOL    HW2 8913   1.992   3.567   6.690
 2672SOL     OW 8914   1.944   5.173   0.092
 2672SOL    HW1 8915   1.982   5.108   0.157
 2672SOL    HW2 8916   2.004   5.180   0.013
 2673SOL     OW 8917   4.636   2.453   3.087
 2673SOL    HW1 8918   4.677   2.362   3.087
 2673SOL    HW2 8919   4.536   2.445   3.095
 2674SOL     OW 8920   1.374   4.702   4.125
 2674SOL    HW1 8921   1.441   4.629   4.139
 2674SOL    HW2 8922   1.329   4.690   4.036
 2675SOL     OW 8923   0.807   4.375   5.947
 2675SOL    HW1 8924   0.902   4.381   5.916
 2675SOL    HW2 8925   0.756   4.315   5.886
 2676SOL     OW 8926   5.346   1.915   2.565
 2676SOL    HW1 8927   5.402   1.833   2.550
 2676SOL    HW2 8928   5.284   1.899   2.642
 2677SOL     OW 8929   1.973   4.664   1.751
 2677SOL    HW1 8930   2.011   4.755   1.770
 2677SOL    HW2 8931   2.036   4.594   1.785
 2678SOL     OW 8932   1.291   5.047   6.420
 2678SOL    HW1 8933   1.314   4.964   6.472
 2678SOL    HW2 8934   1.234   5.022   6.342
 2679SOL     OW 8935   3.822   5.078   0.915
 2679SOL    HW1 8936   3.812   5.176   0.903
 2679SOL    HW2 8937   3.757   5.046   0.984
 2680SOL     OW 8938   2.178   1.583   0.522
 2680SOL    HW1 8939   2.079   1.597   0.532
 2680SOL    HW2 8940   2.211   1.635   0.444
 2681SOL     OW 8941   1.541   3.461   3.988
 2681SOL    HW1 8942   1.460   3.508   4.024
 2681SOL    HW2 8943   1.616   3.527   3.979
 2682SOL     OW 8944   5.645   2.934   2.172
 2682SOL    HW1 8945   5.614   2.840   2.190
 2682SOL    HW2 8946   5.740   2.933   2.142
 2683SOL     OW 8947   0.728   4.714   1.327
 2683SOL    HW1 8948   0.651   4.772   1.354
 2683SOL    HW2 8949   0.707   4.669   1.240
 2684SOL     OW 8950   4.299   6.481   2.507
 2684SOL    HW1 8951   4.264   6.443   2.421
 2684SOL    HW2 8952   4.229   6.475   2.578
 2685SOL     OW 8953   5.807   6.331   4.152
 2685SOL    HW1 8954   5.780   6.236   4.166
 2685SOL    HW2 8955   5.899   6.335   4.113
 2686SOL     OW 8956   1.771   2.332   4.559
 2686SOL    HW1 8957   1.839   2.322   4.487
 2686SOL    HW2 8958   1.720   2.416   4.545
 2687SOL     OW 8959   3.910   5.012   2.411
 2687SOL    HW1 8960   3.834   5.016   2.476
 2687SOL    HW2 8961   3.973   4.938   2.437
 2688SOL     OW 8962   4.092   5.436   5.865
 2688SOL    HW1 8963   4.175   5.390   5.897
 2688SOL    HW2 8964   4.013   5.402   5.916
 2689SOL     OW 8965   1.389   1.884   3.592
 2689SOL    HW1 8966   1.456   1.832   3.644
 2689SOL    HW2 8967   1.425   1.902   3.500
 2690SOL     OW 8968   4.035   3.149   3.881
 2690SOL    HW1 8969   4.056   3.224   3.944
 2690SOL    HW2 8970   3.985   3.078   3.931
 2691SOL     OW 8971   1.836   5.679   1.799
 2691SOL    HW1 8972   1.840   5.767   1.847
 2691SOL    HW2 8973   1.823   5.695   1.702
 2692SOL     OW 8974   6.679   5.138   3.991
 2692SOL    HW1 8975   6.619   5.091   3.926
 2692SOL    HW2 8976   6.767   5.157   3.948
 2693SOL     OW 8977   2.179   3.836   3.553
 2693SOL    HW1 8978   2.162   3.773   3.628
 2693SOL    HW2 8979   2.200   3.927   3.589
 2694SOL     OW 8980   2.810   0.344   2.989
 2694SOL    HW1 8981   2.825   0.392   3.076
 2694SOL    HW2 8982   2.716   0.358   2.959
 2695SOL     OW 8983   4.854   2.165   2.472
 2695SOL    HW1 8984   4.780   2.206   2.526
 2695SOL    HW2 8985   4.815   2.097   2.410
 2696SOL     OW 8986   4.059   3.753   5.547
 2696SOL    HW1 8987   4.111   3.815   5.487
 2696SOL    HW2 8988   3.983   3.713   5.496
 2697SOL     OW 8989   3.849   2.083   4.045
 2697SOL    HW1 8990   3.935   2.065   3.998
 2697SOL    HW2 8991   3.867   2.123   4.134
 2698SOL     OW 8992   1.204   4.763   0.681
 2698SOL    HW1 8993   1.259   4.839   0.647
 2698SOL    HW2 8994   1.116   4.798   0.715
 2699SOL     OW 8995   3.464   5.649   0.771
 2699SOL    HW1 8996   3.536   5.582   0.753
 2699SOL    HW2 8997   3.453   5.709   0.692
 2700SOL     OW 8998   2.204   3.312   3.002
 2700SOL    HW1 8999   2.250   3.228   3.031
 2700SOL    HW2 9000   2.152   3.350   3.078
 2701SOL     OW 9001   3.577   0.438   6.737
 2701SOL    HW1 9002   3.478   0.447   6.748
 2701SOL    HW2 9003   3.615   0.527   6.712
 2702SOL     OW 9004   6.747   1.934   3.548
 2702SOL    HW1 9005   6.652   1.910   3.529
 2702SOL    HW2 9006   6.757   2.033   3.548
 2703SOL     OW 9007   2.648   1.601   2.840
 2703SOL    HW1 9008   2.743   1.587   2.811
 2703SOL    HW2 9009   2.593   1.629   2.761
 2704SOL     OW 9010   2.072   5.609   2.196
 2704SOL    HW1 9011   2.109   5.699   2.174
 2704SOL    HW2 9012   2.082   5.591   2.294
 2705SOL     OW 9013   0.021   5.542   3.819
 2705SOL    HW1 9014   0.115   5.565   3.795
 2705SOL    HW2 9015   6.973   5.598   3.765
 2706SOL     OW 9016   6.454   1.413   1.678
 2706SOL    HW1 9017   6.535   1.358   1.700
 2706SOL    HW2 9018   6.467   1.457   1.589
 2707SOL     OW 9019   2.393   1.564   6.712
 2707SOL    HW1 9020   2.391   1.653   6.758
 2707SOL    HW2 9021   2.462   1.566   6.640
 2708SOL     OW 9022   2.329   2.727   2.048
 2708SOL    HW1 9023   2.361   2.666   2.120
 2708SOL    HW2 9024   2.308   2.817   2.087
 2709SOL     OW 9025   4.916   5.955   1.650
 2709SOL    HW1 9026   4.854   6.030   1.628
 2709SOL    HW2 9027   4.954   5.967   1.741
 2710SOL     OW 9028   6.935   3.408   2.834
 2710SOL    HW1 9029   6.861   3.392   2.899
 2710SOL    HW2 9030   6.997   3.329   2.834
 2711SOL     OW 9031   1.927   0.064   2.180
 2711SOL    HW1 9032   1.993   0.112   2.121
 2711SOL    HW2 9033   1.835   0.096   2.159
 2712SOL     OW 9034   2.896   4.958   0.400
 2712SOL    HW1 9035   2.973   4.984   0.459
 2712SOL    HW2 9036   2.826   4.913   0.456
 2713SOL     OW 9037   2.273   2.877   4.774
 2713SOL    HW1 9038   2.309   2.916   4.859
 2713SOL    HW2 9039   2.316   2.789   4.757
 2714SOL     OW 9040   5.686   1.619   6.030
 2714SOL    HW1 9041   5.766   1.627   6.089
 2714SOL    HW2 9042   5.710   1.645   5.937
 2715SOL     OW 9043   5.683   0.533   0.038
 2715SOL    HW1 9044   5.752   0.564   6.988
 2715SOL    HW2 9045   5.636   0.453   0.001
 2716SOL     OW 9046   0.050   5.109   1.264
 2716SOL    HW1 9047   6.967   5.106   1.281
 2716SOL    HW2 9048   0.072   5.192   1.212
 2717SOL     OW 9049   0.978   6.120   1.926
 2717SOL    HW1 9050   1.056   6.140   1.866
 2717SOL    HW2 9051   0.905   6.185   1.907
 2718SOL     OW 9052   1.872   3.962   4.432
 2718SOL    HW1 9053   1.814   3.882   4.443
 2718SOL    HW2 9054   1.907   3.965   4.338
 2719SOL     OW 9055   4.170   5.055   2.190
 2719SOL    HW1 9056   4.149   5.070   2.093
 2719SOL    HW2 9057   4.243   5.117   2.218
 2720SOL     OW 9058   1.932   5.924   3.543
 2720SOL    HW1 9059   1.925   6.023   3.558
 2720SOL    HW2 9060   2.028   5.901   3.524
 2721SOL     OW 9061   2.721   0.235   4.456
 2721SOL    HW1 9062   2.794   0.169   4.474
 2721SOL    HW2 9063   2.719   0.304   4.529
 2722SOL     OW 9064   0.272   5.652   2.981
 2722SOL    HW1 9065   0.290   5.612   3.071
 2722SOL    HW2 9066   0.192   5.711   2.987
 2723SOL     OW 9067   2.236   1.180   5.940
 2723SOL    HW1 9068   2.233   1.260   5.880
 2723SOL    HW2 9069   2.172   1.194   6.016
 2724SOL     OW 9070   3.391   5.009   6.070
 2724SOL    HW1 9071   3.462   5.063   6.026
 2724SOL    HW2 9072   3.417   4.989   6.165
 2725SOL     OW 9073   4.903   4.698   3.129
 2725SOL    HW1 9074   4.947   4.612   3.155
 2725SOL    HW2 9075   4.970   4.772   3.131
 2726SOL     OW 9076   4.920   4.987   2.050
 2726SOL    HW1 9077   4.868   4.918   2.000
 2726SOL    HW2 9078   4.877   5.004   2.138
 2727SOL     OW 9079   0.947   5.083   2.630
 2727SOL    HW1 9080   1.024   5.019   2.643
 2727SOL    HW2 9081   0.872   5.036   2.585
 2728SOL     OW 9082   2.972   0.508   5.126
 2728SOL    HW1 9083   2.947   0.461   5.211
 2728SOL    HW2 9084   3.058   0.471   5.092
 2729SOL     OW 9085   6.427   5.565   2.935
 2729SOL    HW1 9086   6.507   5.515   2.902
 2729SOL    HW2 9087   6.381   5.609   2.857
 2730SOL     OW 9088   2.063   7.006   0.243
 2730SOL    HW1 9089   2.006   6.951   0.303
 2730SOL    HW2 9090   2.007   0.059   0.196
 2731SOL     OW 9091   2.884   3.570   1.514
 2731SOL    HW1 9092   2.919   3.661   1.490
 2731SOL    HW2 9093   2.785   3.567   1.499
 2732SOL     OW 9094   5.878   3.092   2.342
 2732SOL    HW1 9095   5.834   3.177   2.373
 2732SOL    HW2 9096   5.920   3.107   2.253
 2733SOL     OW 9097   0.895   0.124   5.946
 2733SOL    HW1 9098   0.931   0.127   5.853
 2733SOL    HW2 9099   0.959   0.170   6.008
 2734SOL     OW 9100   1.720   6.297   3.456
 2734SOL    HW1 9101   1.787   6.256   3.517
 2734SOL    HW2 9102   1.728   6.257   3.365
 2735SOL     OW 9103   1.009   3.857   2.662
 2735SOL    HW1 9104   1.076   3.889   2.596
 2735SOL    HW2 9105   0.963   3.937   2.703
 2736SOL     OW 9106   4.843   0.873   5.937
 2736SOL    HW1 9107   4.810   0.783   5.964
 2736SOL    HW2 9108   4.894   0.915   6.013
 2737SOL     OW 9109   3.492   3.348   6.209
 2737SOL    HW1 9110   3.539   3.414   6.151
 2737SOL    HW2 9111   3.516   3.366   6.305
 2738SOL     OW 9112   5.032   5.559   3.726
 2738SOL    HW1 9113   5.024   5.632   3.659
 2738SOL    HW2 9114   4.943   5.540   3.766
 2739SOL     OW 9115   5.761   4.567   0.979
 2739SOL    HW1 9116   5.674   4.575   0.930
 2739SOL    HW2 9117   5.744   4.560   1.077
 2740SOL     OW 9118   6.256   2.072   2.597
 2740SOL    HW1 9119   6.319   2.056   2.673
 2740SOL    HW2 9120   6.171   2.022   2.612
 2741SOL     OW 9121   0.135   2.147   5.629
 2741SOL    HW1 9122   0.216   2.182   5.583
 2741SOL    HW2 9123   0.150   2.051   5.654
 2742SOL     OW 9124   1.303   5.523   6.309
 2742SOL    HW1 9125   1.275   5.448   6.250
 2742SOL    HW2 9126   1.314   5.490   6.402
 2743SOL     OW 9127   5.629   5.221   1.252
 2743SOL    HW1 9128   5.670   5.150   1.309
 2743SOL    HW2 9129   5.627   5.308   1.302
 2744SOL     OW 9130   4.106   2.330   6.760
 2744SOL    HW1 9131   4.170   2.277   6.815
 2744SOL    HW2 9132   4.154   2.405   6.715
 2745SOL     OW 9133   1.903   6.474   0.628
 2745SOL    HW1 9134   1.890   6.465   0.727
 2745SOL    HW2 9135   1.987   6.524   0.610
 2746SOL     OW 9136   1.923   2.631   4.785
 2746SOL    HW1 9137   1.971   2.548   4.813
 2746SOL    HW2 9138   1.915   2.693   4.864
 2747SOL     OW 9139   5.991   5.327   4.994
 2747SOL    HW1 9140   6.007   5.233   5.024
 2747SOL    HW2 9141   5.971   5.385   5.073
 2748SOL     OW 9142   3.834   1.487   3.418
 2748SOL    HW1 9143   3.830   1.414   3.349
 2748SOL    HW2 9144   3.895   1.459   3.492
 2749SOL     OW 9145   5.059   4.392   4.139
 2749SOL    HW1 9146   5.122   4.427   4.209
 2749SOL    HW2 9147   5.057   4.292   4.143
 2750SOL     OW 9148   0.538   5.588   1.661
 2750SOL    HW1 9149   0.607   5.640   1.710
 2750SOL    HW2 9150   0.577   5.551   1.577
 2751SOL     OW 9151   1.744   0.215   0.354
 2751SOL    HW1 9152   1.775   0.164   0.433
 2751SOL    HW2 9153   1.647   0.237   0.364
 2752SOL     OW 9154   5.057   6.566   5.216
 2752SOL    HW1 9155   5.056   6.637   5.286
 2752SOL    HW2 9156   5.041   6.477   5.259
 2753SOL     OW 9157   3.704   5.928   6.097
 2753SOL    HW1 9158   3.761   6.009   6.099
 2753SOL    HW2 9159   3.640   5.933   6.020
 2754SOL     OW 9160   0.368   0.069   4.132
 2754SOL    HW1 9161   0.331   0.161   4.119
 2754SOL    HW2 9162   0.299   0.011   4.175
 2755SOL     OW 9163   2.638   6.164   2.800
 2755SOL    HW1 9164   2.673   6.099   2.867
 2755SOL    HW2 9165   2.557   6.125   2.755
 2756SOL     OW 9166   5.563   3.820   4.658
 2756SOL    HW1 9167   5.604   3.739   4.700
 2756SOL    HW2 9168   5.571   3.813   4.558
 2757SOL     OW 9169   4.317   1.960   6.840
 2757SOL    HW1 9170   4.259   1.901   6.895
 2757SOL    HW2 9171   4.413   1.932   6.850
 2758SOL     OW 9172   4.953   5.184   3.375
 2758SOL    HW1 9173   4.907   5.105   3.334
 2758SOL    HW2 9174   4.993   5.158   3.462
 2759SOL     OW 9175   3.463   4.568   6.456
 2759SOL    HW1 9176   3.465   4.569   6.356
 2759SOL    HW2 9177   3.474   4.661   6.490
 2760SOL     OW 9178   5.825   6.256   3.334
 2760SOL    HW1 9179   5.811   6.163   3.366
 2760SOL    HW2 9180   5.737   6.299   3.314
 2761SOL     OW 9181   1.866   4.025   2.888
 2761SOL    HW1 9182   1.841   3.983   2.975
 2761SOL    HW2 9183   1.958   3.995   2.862
 2762SOL     OW 9184   1.497   2.129   0.217
 2762SOL    HW1 9185   1.407   2.090   0.238
 2762SOL    HW2 9186   1.565   2.056   0.215
 2763SOL     OW 9187   4.920   1.602   5.824
 2763SOL    HW1 9188   4.893   1.506   5.816
 2763SOL    HW2 9189   4.940   1.622   5.920
 2764SOL     OW 9190   0.741   4.384   2.049
 2764SOL    HW1 9191   0.656   4.351   2.091
 2764SOL    HW2 9192   0.759   4.477   2.080
 2765SOL     OW 9193   6.372   6.760   6.781
 2765SOL    HW1 9194   6.436   6.810   6.839
 2765SOL    HW2 9195   6.280   6.799   6.791
 2766SOL     OW 9196   4.740   1.455   6.859
 2766SOL    HW1 9197   4.712   1.498   6.773
 2766SOL    HW2 9198   4.754   1.357   6.844
 2767SOL     OW 9199   5.952   5.443   6.217
 2767SOL    HW1 9200   5.947   5.532   6.262
 2767SOL    HW2 9201   6.009   5.451   6.135
 2768SOL     OW 9202   4.412   0.541   0.919
 2768SOL    HW1 9203   4.378   0.611   0.983
 2768SOL    HW2 9204   4.512   0.543   0.918
 2769SOL     OW 9205   1.875   4.316   5.622
 2769SOL    HW1 9206   1.929   4.240   5.657
 2769SOL    HW2 9207   1.874   4.313   5.522
 2770SOL     OW 9208   3.025   6.713   6.303
 2770SOL    HW1 9209   2.996   6.618   6.298
 2770SOL    HW2 9210   2.986   6.764   6.227
 2771SOL     OW 9211   4.549   0.266   4.763
 2771SOL    HW1 9212   4.504   0.284   4.850
 2771SOL    HW2 9213   4.496   0.308   4.689
 2772SOL     OW 9214   3.632   0.922   2.972
 2772SOL    HW1 9215   3.673   0.888   2.888
 2772SOL    HW2 9216   3.546   0.970   2.950
 2773SOL     OW 9217   0.242   3.006   4.423
 2773SOL    HW1 9218   0.184   2.946   4.479
 2773SOL    HW2 9219   0.285   3.075   4.481
 2774SOL     OW 9220   4.699   2.093   3.391
 2774SOL    HW1 9221   4.732   2.173   3.340
 2774SOL    HW2 9222   4.658   2.028   3.327
 2775SOL     OW 9223   0.067   3.927   4.499
 2775SOL    HW1 9224   7.010   3.948   4.433
 2775SOL    HW2 9225   0.063   3.992   4.575
 2776SOL     OW 9226   4.873   4.997   6.239
 2776SOL    HW1 9227   4.779   5.028   6.225
 2776SOL    HW2 9228   4.929   5.029   6.163
 2777SOL     OW 9229   3.346   2.379   5.837
 2777SOL    HW1 9230   3.393   2.457   5.795
 2777SOL    HW2 9231   3.280   2.341   5.772
 2778SOL     OW 9232   2.282   5.777   6.566
 2778SOL    HW1 9233   2.346   5.708   6.600
 2778SOL    HW2 9234   2.332   5.858   6.538
 2779SOL     OW 9235   5.833   6.081   1.737
 2779SOL    HW1 9236   5.898   6.092   1.662
 2779SOL    HW2 9237   5.809   5.984   1.745
 2780SOL     OW 9238   0.293   1.160   6.539
 2780SOL    HW1 9239   0.272   1.125   6.630
 2780SOL    HW2 9240   0.365   1.103   6.498
 2781SOL     OW 9241   6.547   0.676   2.225
 2781SOL    HW1 9242   6.565   0.584   2.259
 2781SOL    HW2 9243   6.502   0.729   2.296
 2782SOL     OW 9244   4.244   1.075   6.632
 2782SOL    HW1 9245   4.176   1.147   6.618
 2782SOL    HW2 9246   4.253   1.055   6.730
 2783SOL     OW 9247   5.625   3.808   2.306
 2783SOL    HW1 9248   5.671   3.805   2.217
 2783SOL    HW2 9249   5.640   3.722   2.355
 2784SOL     OW 9250   1.857   1.654   1.409
 2784SOL    HW1 9251   1.878   1.752   1.409
 2784SOL    HW2 9252   1.873   1.617   1.317
 2785SOL     OW 9253   4.953   2.771   1.530
 2785SOL    HW1 9254   4.999   2.698   1.582
 2785SOL    HW2 9255   4.881   2.812   1.586
 2786SOL     OW 9256   6.996   5.384   0.433
 2786SOL    HW1 9257   6.914   5.343   0.394
 2786SOL    HW2 9258   6.973   5.423   0.523
 2787SOL     OW 9259   5.990   5.769   5.832
 2787SOL    HW1 9260   5.997   5.844   5.897
 2787SOL    HW2 9261   6.012   5.802   5.740
 2788SOL     OW 9262   3.276   6.320   5.495
 2788SOL    HW1 9263   3.347   6.357   5.436
 2788SOL    HW2 9264   3.304   6.231   5.529
 2789SOL     OW 9265   0.674   2.528   4.435
 2789SOL    HW1 9266   0.585   2.504   4.396
 2789SOL    HW2 9267   0.669   2.619   4.477
 2790SOL     OW 9268   2.215   5.752   0.780
 2790SOL    HW1 9269   2.287   5.803   0.733
 2790SOL    HW2 9270   2.179   5.807   0.856
 2791SOL     OW 9271   0.004   3.653   2.937
 2791SOL    HW1 9272   6.932   3.697   2.960
 2791SOL    HW2 9273   7.003   3.558   2.911
 2792SOL     OW 9274   3.320   1.219   4.962
 2792SOL    HW1 9275   3.325   1.246   4.866
 2792SOL    HW2 9276   3.240   1.262   5.004
 2793SOL     OW 9277   3.745   4.430   1.236
 2793SOL    HW1 9278   3.738   4.513   1.291
 2793SOL    HW2 9279   3.763   4.454   1.141
 2794SOL     OW 9280   6.792   1.707   6.101
 2794SOL    HW1 9281   6.797   1.650   6.182
 2794SOL    HW2 9282   6.842   1.792   6.117
 2795SOL     OW 9283   0.648   4.556   1.762
 2795SOL    HW1 9284   0.738   4.558   1.807
 2795SOL    HW2 9285   0.633   4.642   1.713
 2796SOL     OW 9286   0.506   6.159   5.860
 2796SOL    HW1 9287   0.495   6.246   5.812
 2796SOL    HW2 9288   0.463   6.164   5.950
 2797SOL     OW 9289   5.392   6.468   4.315
 2797SOL    HW1 9290   5.366   6.534   4.245
 2797SOL    HW2 9291   5.342   6.486   4.399
 2798SOL     OW 9292   6.541   6.586   1.861
 2798SOL    HW1 9293   6.483   6.563   1.939
 2798SOL    HW2 9294   6.499   6.552   1.777
 2799SOL     OW 9295   4.095   6.373   4.849
 2799SOL    HW1 9296   4.084   6.276   4.832
 2799SOL    HW2 9297   4.065   6.425   4.769
 2800SOL     OW 9298   6.338   0.521   0.144
 2800SOL    HW1 9299   6.272   0.520   0.069
 2800SOL    HW2 9300   6.349   0.614   0.178
 2801SOL     OW 9301   0.499   5.029   6.128
 2801SOL    HW1 9302   0.530   5.102   6.190
 2801SOL    HW2 9303   0.575   5.000   6.070
 2802SOL     OW 9304   6.430   6.265   5.301
 2802SOL    HW1 9305   6.336   6.285   5.274
 2802SOL    HW2 9306   6.444   6.292   5.397
 2803SOL     OW 9307   3.378   2.913   6.205
 2803SOL    HW1 9308   3.355   2.849   6.131
 2803SOL    HW2 9309   3.306   2.910   6.274
 2804SOL     OW 9310   0.960   2.680   4.408
 2804SOL    HW1 9311   1.024   2.631   4.467
 2804SOL    HW2 9312   0.866   2.658   4.436
 2805SOL     OW 9313   4.456   3.769   1.710
 2805SOL    HW1 9314   4.434   3.739   1.617
 2805SOL    HW2 9315   4.468   3.868   1.711
 2806SOL     OW 9316   1.092   4.354   5.840
 2806SOL    HW1 9317   1.179   4.380   5.882
 2806SOL    HW2 9318   1.103   4.352   5.740
 2807SOL     OW 9319   2.476   0.393   3.091
 2807SOL    HW1 9320   2.498   0.490   3.082
 2807SOL    HW2 9321   2.466   0.353   2.999
 2808SOL     OW 9322   6.318   5.784   0.448
 2808SOL    HW1 9323   6.305   5.870   0.498
 2808SOL    HW2 9324   6.344   5.803   0.354
 2809SOL     OW 9325   6.677   5.008   2.277
 2809SOL    HW1 9326   6.652   4.931   2.336
 2809SOL    HW2 9327   6.700   4.974   2.186
 2810SOL     OW 9328   2.522   5.789   3.781
 2810SOL    HW1 9329   2.592   5.779   3.852
 2810SOL    HW2 9330   2.562   5.770   3.691
 2811SOL     OW 9331   0.735   0.089   2.442
 2811SOL    HW1 9332   0.652   0.109   2.493
 2811SOL    HW2 9333   0.733   0.139   2.355
 2812SOL     OW 9334   0.660   3.180   1.014
 2812SOL    HW1 9335   0.698   3.224   0.932
 2812SOL    HW2 9336   0.560   3.183   1.010
 2813SOL     OW 9337   0.423   2.113   1.240
 2813SOL    HW1 9338   0.356   2.039   1.251
 2813SOL    HW2 9339   0.453   2.143   1.331
 2814SOL     OW 9340   2.462   3.958   0.247
 2814SOL    HW1 9341   2.430   4.052   0.240
 2814SOL    HW2 9342   2.561   3.956   0.235
 2815SOL     OW 9343   0.407   5.664   4.937
 2815SOL    HW1 9344   0.481   5.675   5.003
 2815SOL    HW2 9345   0.333   5.611   4.977
 2816SOL     OW 9346   0.001   6.397   5.604
 2816SOL    HW1 9347   6.923   6.361   5.598
 2816SOL    HW2 9348   0.049   6.353   5.680
 2817SOL     OW 9349   4.027   0.808   2.030
 2817SOL    HW1 9350   4.105   0.772   2.082
 2817SOL    HW2 9351   3.943   0.789   2.080
 2818SOL     OW 9352   1.565   0.783   1.374
 2818SOL    HW1 9353   1.661   0.766   1.396
 2818SOL    HW2 9354   1.526   0.701   1.331
 2819SOL     OW 9355   0.603   0.153   0.885
 2819SOL    HW1 9356   0.646   0.153   0.795
 2819SOL    HW2 9357   0.518   0.101   0.882
 2820SOL     OW 9358   1.258   2.250   1.912
 2820SOL    HW1 9359   1.294   2.340   1.937
 2820SOL    HW2 9360   1.324   2.203   1.853
 2821SOL     OW 9361   3.272   4.362   6.884
 2821SOL    HW1 9362   3.269   4.393   6.789
 2821SOL    HW2 9363   3.366   4.363   6.917
 2822SOL     OW 9364   4.170   2.583   0.730
 2822SOL    HW1 9365   4.252   2.549   0.683
 2822SOL    HW2 9366   4.112   2.632   0.664
 2823SOL     OW 9367   4.741   1.328   0.583
 2823SOL    HW1 9368   4.659   1.343   0.527
 2823SOL    HW2 9369   4.753   1.406   0.646
 2824SOL     OW 9370   1.008   3.784   5.286
 2824SOL    HW1 9371   1.064   3.838   5.350
 2824SOL    HW2 9372   1.032   3.688   5.296
 2825SOL     OW 9373   5.234   1.750   5.888
 2825SOL    HW1 9374   5.306   1.736   5.956
 2825SOL    HW2 9375   5.211   1.847   5.882
 2826SOL     OW 9376   1.030   3.790   6.111
 2826SOL    HW1 9377   1.034   3.774   6.013
 2826SOL    HW2 9378   1.122   3.802   6.147
 2827SOL     OW 9379   6.732   0.950   6.300
 2827SOL    HW1 9380   6.644   0.987   6.272
 2827SOL    HW2 9381   6.717   0.877   6.367
 2828SOL     OW 9382   1.419   3.692   0.755
 2828SOL    HW1 9383   1.396   3.747   0.674
 2828SOL    HW2 9384   1.423   3.752   0.835
 2829SOL     OW 9385   3.739   3.972   3.554
 2829SOL    HW1 9386   3.807   3.979   3.627
 2829SOL    HW2 9387   3.671   4.044   3.566
 2830SOL     OW 9388   3.856   5.458   6.010
 2830SOL    HW1 9389   3.878   5.468   6.107
 2830SOL    HW2 9390   3.850   5.548   5.968
 2831SOL     OW 9391   6.770   2.267   1.564
 2831SOL    HW1 9392   6.840   2.339   1.562
 2831SOL    HW2 9393   6.739   2.254   1.659
 2832SOL     OW 9394   0.890   3.079   1.376
 2832SOL    HW1 9395   0.874   3.107   1.281
 2832SOL    HW2 9396   0.921   3.158   1.429
 2833SOL     OW 9397   2.099   1.632   2.245
 2833SOL    HW1 9398   2.192   1.620   2.210
 2833SOL    HW2 9399   2.038   1.656   2.170
 2834SOL     OW 9400   4.446   6.025   5.051
 2834SOL    HW1 9401   4.527   5.969   5.071
 2834SOL    HW2 9402   4.366   5.966   5.044
 2835SOL     OW 9403   0.987   6.534   0.541
 2835SOL    HW1 9404   0.909   6.485   0.503
 2835SOL    HW2 9405   1.062   6.470   0.559
 2836SOL     OW 9406   3.370   6.356   3.464
 2836SOL    HW1 9407   3.370   6.283   3.532
 2836SOL    HW2 9408   3.372   6.445   3.511
 2837SOL     OW 9409   5.761   4.087   2.364
 2837SOL    HW1 9410   5.729   4.020   2.298
 2837SOL    HW2 9411   5.758   4.179   2.324
 2838SOL     OW 9412   4.864   3.825   6.121
 2838SOL    HW1 9413   4.903   3.901   6.173
 2838SOL    HW2 9414   4.883   3.838   6.023
 2839SOL     OW 9415   6.170   3.494   4.930
 2839SOL    HW1 9416   6.178   3.578   4.876
 2839SOL    HW2 9417   6.160   3.518   5.027
 2840SOL     OW 9418   0.528   5.940   2.670
 2840SOL    HW1 9419   0.513   5.984   2.758
 2840SOL    HW2 9420   0.467   5.861   2.662
 2841SOL     OW 9421   5.963   2.559   1.464
 2841SOL    HW1 9422   5.909   2.620   1.522
 2841SOL    HW2 9423   6.060   2.570   1.484
 2842SOL     OW 9424   1.865   6.209   3.899
 2842SOL    HW1 9425   1.783   6.255   3.931
 2842SOL    HW2 9426   1.877   6.123   3.948
 2843SOL     OW 9427   2.211   2.963   3.396
 2843SOL    HW1 9428   2.268   2.935   3.473
 2843SOL    HW2 9429   2.150   2.888   3.371
 2844SOL     OW 9430   4.872   4.606   1.056
 2844SOL    HW1 9431   4.818   4.538   1.007
 2844SOL    HW2 9432   4.969   4.584   1.048
 2845SOL     OW 9433   4.117   2.208   2.764
 2845SOL    HW1 9434   4.163   2.120   2.754
 2845SOL    HW2 9435   4.065   2.228   2.681
 2846SOL     OW 9436   4.729   0.784   0.345
 2846SOL    HW1 9437   4.805   0.733   0.305
 2846SOL    HW2 9438   4.704   0.744   0.433
 2847SOL     OW 9439   4.736   4.139   2.345
 2847SOL    HW1 9440   4.648   4.119   2.302
 2847SOL    HW2 9441   4.723   4.207   2.418
 2848SOL     OW 9442   0.781   3.319   4.798
 2848SOL    HW1 9443   0.743   3.227   4.808
 2848SOL    HW2 9444   0.826   3.346   4.883
 2849SOL     OW 9445   3.903   0.490   2.645
 2849SOL    HW1 9446   3.974   0.440   2.695
 2849SOL    HW2 9447   3.851   0.426   2.588
 2850SOL     OW 9448   2.408   0.227   2.880
 2850SOL    HW1 9449   2.419   0.140   2.927
 2850SOL    HW2 9450   2.383   0.210   2.784
 2851SOL     OW 9451   4.510   3.204   1.224
 2851SOL    HW1 9452   4.459   3.283   1.192
 2851SOL    HW2 9453   4.491   3.188   1.321
 2852SOL     OW 9454   6.949   4.337   6.131
 2852SOL    HW1 9455   6.957   4.330   6.231
 2852SOL    HW2 9456   6.961   4.432   6.103
 2853SOL     OW 9457   0.672   3.664   0.254
 2853SOL    HW1 9458   0.599   3.709   0.205
 2853SOL    HW2 9459   0.740   3.630   0.189
 2854SOL     OW 9460   3.257   1.637   5.943
 2854SOL    HW1 9461   3.216   1.660   6.032
 2854SOL    HW2 9462   3.286   1.721   5.898
 2855SOL     OW 9463   1.514   1.561   4.242
 2855SOL    HW1 9464   1.596   1.556   4.300
 2855SOL    HW2 9465   1.460   1.477   4.254
 2856SOL     OW 9466   1.279   4.240   3.022
 2856SOL    HW1 9467   1.290   4.197   3.112
 2856SOL    HW2 9468   1.320   4.181   2.952
 2857SOL     OW 9469   0.264   2.897   1.045
 2857SOL    HW1 9470   0.281   2.814   0.992
 2857SOL    HW2 9471   0.165   2.913   1.050
 2858SOL     OW 9472   4.359   4.730   2.839
 2858SOL    HW1 9473   4.260   4.733   2.843
 2858SOL    HW2 9474   4.394   4.663   2.905
 2859SOL     OW 9475   5.614   5.318   1.664
 2859SOL    HW1 9476   5.690   5.287   1.722
 2859SOL    HW2 9477   5.570   5.397   1.706
 2860SOL     OW 9478   1.694   5.904   1.402
 2860SOL    HW1 9479   1.751   5.961   1.461
 2860SOL    HW2 9480   1.697   5.939   1.308
 2861SOL     OW 9481   4.559   4.766   6.788
 2861SOL    HW1 9482   4.633   4.766   6.856
 2861SOL    HW2 9483   4.472   4.748   6.834
 2862SOL     OW 9484   4.452   3.116   1.474
 2862SOL    HW1 9485   4.461   3.160   1.563
 2862SOL    HW2 9486   4.359   3.081   1.464
 2863SOL     OW 9487   5.791   6.826   5.735
 2863SOL    HW1 9488   5.787   6.860   5.829
 2863SOL    HW2 9489   5.886   6.824   5.704
 2864SOL     OW 9490   3.579   3.490   0.905
 2864SOL    HW1 9491   3.659   3.545   0.932
 2864SOL    HW2 9492   3.496   3.536   0.938
 2865SOL     OW 9493   5.299   6.063   4.405
 2865SOL    HW1 9494   5.375   6.082   4.468
 2865SOL    HW2 9495   5.254   6.148   4.380
 2866SOL     OW 9496   4.930   4.387   6.681
 2866SOL    HW1 9497   4.985   4.308   6.653
 2866SOL    HW2 9498   4.850   4.394   6.622
 2867SOL     OW 9499   6.025   6.462   1.804
 2867SOL    HW1 9500   5.950   6.464   1.739
 2867SOL    HW2 9501   6.064   6.370   1.808
 2868SOL     OW 9502   1.756   0.764   5.943
 2868SOL    HW1 9503   1.737   0.746   6.040
 2868SOL    HW2 9504   1.814   0.845   5.936
 2869SOL     OW 9505   5.349   5.725   3.725
 2869SOL    HW1 9506   5.372   5.775   3.809
 2869SOL    HW2 9507   5.323   5.632   3.748
 2870SOL     OW 9508   0.956   1.573   1.589
 2870SOL    HW1 9509   0.915   1.662   1.570
 2870SOL    HW2 9510   1.055   1.584   1.602
 2871SOL     OW 9511   6.404   2.107   1.495
 2871SOL    HW1 9512   6.427   2.031   1.433
 2871SOL    HW2 9513   6.466   2.183   1.478
 2872SOL     OW 9514   2.542   1.839   2.397
 2872SOL    HW1 9515   2.562   1.750   2.356
 2872SOL    HW2 9516   2.444   1.847   2.414
 2873SOL     OW 9517   0.693   6.419   1.318
 2873SOL    HW1 9518   0.606   6.378   1.346
 2873SOL    HW2 9519   0.728   6.475   1.393
 2874SOL     OW 9520   2.124   0.923   3.314
 2874SOL    HW1 9521   2.024   0.926   3.315
 2874SOL    HW2 9522   2.158   0.955   3.226
 2875SOL     OW 9523   3.231   6.842   2.494
 2875SOL    HW1 9524   3.225   6.801   2.585
 2875SOL    HW2 9525   3.296   6.790   2.439
 2876SOL     OW 9526   1.828   5.999   1.607
 2876SOL    HW1 9527   1.850   6.065   1.679
 2876SOL    HW2 9528   1.896   5.926   1.606
 2877SOL     OW 9529   1.937   0.999   5.946
 2877SOL    HW1 9530   1.969   1.054   6.023
 2877SOL    HW2 9531   2.011   0.990   5.879
 2878SOL     OW 9532   4.028   3.463   4.776
 2878SOL    HW1 9533   3.985   3.431   4.861
 2878SOL    HW2 9534   4.048   3.385   4.717
 2879SOL     OW 9535   3.972   4.617   6.364
 2879SOL    HW1 9536   4.036   4.568   6.305
 2879SOL    HW2 9537   3.953   4.562   6.445
 2880SOL     OW 9538   1.402   1.329   4.519
 2880SOL    HW1 9539   1.401   1.312   4.420
 2880SOL    HW2 9540   1.382   1.244   4.567
 2881SOL     OW 9541   3.290   6.613   6.394
 2881SOL    HW1 9542   3.202   6.658   6.381
 2881SOL    HW2 9543   3.344   6.665   6.461
 2882SOL     OW 9544   4.394   6.028   0.410
 2882SOL    HW1 9545   4.403   6.054   0.314
 2882SOL    HW2 9546   4.319   5.963   0.420
 2883SOL     OW 9547   6.167   6.546   3.251
 2883SOL    HW1 9548   6.069   6.565   3.242
 2883SOL    HW2 9549   6.195   6.563   3.346
 2884SOL     OW 9550   0.280   5.795   2.673
 2884SOL    HW1 9551   0.227   5.722   2.629
 2884SOL    HW2 9552   0.246   5.809   2.767
 2885SOL     OW 9553   1.165   3.497   2.894
 2885SOL    HW1 9554   1.257   3.480   2.928
 2885SOL    HW2 9555   1.099   3.447   2.951
 2886SOL     OW 9556   2.655   4.411   6.389
 2886SOL    HW1 9557   2.632   4.317   6.365
 2886SOL    HW2 9558   2.734   4.412   6.450
 2887SOL     OW 9559   1.140   6.355   4.077
 2887SOL    HW1 9560   1.196   6.333   3.997
 2887SOL    HW2 9561   1.055   6.399   4.047
 2888SOL     OW 9562   6.481   6.535   0.547
 2888SOL    HW1 9563   6.405   6.548   0.484
 2888SOL    HW2 9564   6.567   6.535   0.497
 2889SOL     OW 9565   3.008   6.332   3.215
 2889SOL    HW1 9566   3.099   6.370   3.201
 2889SOL    HW2 9567   2.958   6.389   3.281
 2890SOL     OW 9568   1.976   0.132   0.904
 2890SOL    HW1 9569   2.017   0.091   0.985
 2890SOL    HW2 9570   1.982   0.068   0.827
 2891SOL     OW 9571   0.231   3.249   3.521
 2891SOL    HW1 9572   0.157   3.278   3.582
 2891SOL    HW2 9573   0.194   3.187   3.451
 2892SOL     OW 9574   6.181   3.862   1.186
 2892SOL    HW1 9575   6.221   3.804   1.257
 2892SOL    HW2 9576   6.254   3.905   1.133
 2893SOL     OW 9577   0.043   5.121   4.406
 2893SOL    HW1 9578   7.014   5.173   4.479
 2893SOL    HW2 9579   6.994   5.110   4.330
 2894SOL     OW 9580   1.204   5.133   2.121
 2894SOL    HW1 9581   1.280   5.079   2.085
 2894SOL    HW2 9582   1.179   5.203   2.054
 2895SOL     OW 9583   3.866   6.925   6.011
 2895SOL    HW1 9584   3.772   6.918   6.044
 2895SOL    HW2 9585   3.909   6.835   6.011
 2896SOL     OW 9586   5.340   6.173   4.983
 2896SOL    HW1 9587   5.283   6.102   5.022
 2896SOL    HW2 9588   5.283   6.242   4.938
 2897SOL     OW 9589   3.234   4.955   3.282
 2897SOL    HW1 9590   3.310   5.020   3.272
 2897SOL    HW2 9591   3.171   4.966   3.205
 2898SOL     OW 9592   5.563   4.378   2.653
 2898SOL    HW1 9593   5.601   4.461   2.612
 2898SOL    HW2 9594   5.615   4.298   2.621
 2899SOL     OW 9595   6.681   2.754   0.751
 2899SOL    HW1 9596   6.625   2.779   0.830
 2899SOL    HW2 9597   6.674   2.825   0.681
 2900SOL     OW 9598   3.127   3.808   0.251
 2900SOL    HW1 9599   3.146   3.717   0.213
 2900SOL    HW2 9600   3.047   3.846   0.206
 2901SOL     OW 9601   1.609   3.844   3.426
 2901SOL    HW1 9602   1.695   3.865   3.472
 2901SOL    HW2 9603   1.534   3.892   3.471
 2902SOL     OW 9604   0.813   5.742   4.397
 2902SOL    HW1 9605   0.827   5.760   4.300
 2902SOL    HW2 9606   0.805   5.829   4.446
 2903SOL     OW 9607   4.226   5.924   0.749
 2903SOL    HW1 9608   4.136   5.922   0.793
 2903SOL    HW2 9609   4.258   6.019   0.744
 2904SOL     OW 9610   2.795   4.513   5.427
 2904SOL    HW1 9611   2.696   4.522   5.415
 2904SOL    HW2 9612   2.839   4.507   5.338
 2905SOL     OW 9613   1.021   4.294   1.918
 2905SOL    HW1 9614   0.993   4.274   2.012
 2905SOL    HW2 9615   0.983   4.383   1.891
 2906SOL     OW 9616   5.890   5.739   3.192
 2906SOL    HW1 9617   5.836   5.664   3.228
 2906SOL    HW2 9618   5.830   5.803   3.143
 2907SOL     OW 9619   0.915   0.147   3.428
 2907SOL    HW1 9620   0.859   0.065   3.441
 2907SOL    HW2 9621   0.855   0.226   3.418
 2908SOL     OW 9622   4.881   6.871   2.923
 2908SOL    HW1 9623   4.796   6.866   2.872
 2908SOL    HW2 9624   4.861   6.881   3.021
 2909SOL     OW 9625   1.435   5.848   1.917
 2909SOL    HW1 9626   1.488   5.764   1.905
 2909SOL    HW2 9627   1.387   5.844   2.005
 2910SOL     OW 9628   0.206   0.780   3.476
 2910SOL    HW1 9629   0.192   0.694   3.426
 2910SOL    HW2 9630   0.117   0.816   3.505
 2911SOL     OW 9631   6.444   4.010   3.973
 2911SOL    HW1 9632   6.416   3.962   4.056
 2911SOL    HW2 9633   6.543   4.020   3.971
 2912SOL     OW 9634   6.721   6.404   0.758
 2912SOL    HW1 9635   6.799   6.416   0.820
 2912SOL    HW2 9636   6.741   6.447   0.670
 2913SOL     OW 9637   2.407   5.872   1.419
 2913SOL    HW1 9638   2.408   5.829   1.509
 2913SOL    HW2 9639   2.409   5.802   1.347
 2914SOL     OW 9640   5.389   5.237   0.468
 2914SOL    HW1 9641   5.429   5.204   0.554
 2914SOL    HW2 9642   5.446   5.206   0.392
 2915SOL     OW 9643   3.211   1.588   3.252
 2915SOL    HW1 9644   3.218   1.657   3.324
 2915SOL    HW2 9645   3.293   1.532   3.252
 2916SOL     OW 9646   1.699   6.101   0.313
 2916SOL    HW1 9647   1.747   6.145   0.389
 2916SOL    HW2 9648   1.679   6.169   0.243
 2917SOL     OW 9649   2.336   0.164   3.204
 2917SOL    HW1 9650   2.396   0.242   3.186
 2917SOL    HW2 9651   2.241   0.189   3.186
 2918SOL     OW 9652   6.075   3.582   0.897
 2918SOL    HW1 9653   6.026   3.576   0.810
 2918SOL    HW2 9654   6.110   3.675   0.909
 2919SOL     OW 9655   0.877   6.222   4.678
 2919SOL    HW1 9656   0.891   6.277   4.760
 2919SOL    HW2 9657   0.827   6.139   4.701
 2920SOL     OW 9658   1.515   0.834   1.650
 2920SOL    HW1 9659   1.511   0.808   1.553
 2920SOL    HW2 9660   1.480   0.760   1.706
 2921SOL     OW 9661   0.496   0.215   5.646
 2921SOL    HW1 9662   0.547   0.159   5.581
 2921SOL    HW2 9663   0.420   0.260   5.599
 2922SOL     OW 9664   4.056   0.786   3.525
 2922SOL    HW1 9665   4.137   0.844   3.533
 2922SOL    HW2 9666   4.076   0.694   3.560
 2923SOL     OW 9667   6.285   4.736   5.355
 2923SOL    HW1 9668   6.220   4.812   5.348
 2923SOL    HW2 9669   6.317   4.711   5.263
 2924SOL     OW 9670   6.593   2.596   5.495
 2924SOL    HW1 9671   6.592   2.571   5.399
 2924SOL    HW2 9672   6.651   2.677   5.508
 2925SOL     OW 9673   5.321   0.925   5.788
 2925SOL    HW1 9674   5.299   0.961   5.878
 2925SOL    HW2 9675   5.242   0.876   5.751
 2926SOL     OW 9676   0.324   1.493   4.906
 2926SOL    HW1 9677   0.371   1.411   4.940
 2926SOL    HW2 9678   0.245   1.466   4.852
 2927SOL     OW 9679   1.777   2.620   1.757
 2927SOL    HW1 9680   1.855   2.672   1.790
 2927SOL    HW2 9681   1.700   2.682   1.740
 2928SOL     OW 9682   6.326   2.278   6.824
 2928SOL    HW1 9683   6.280   2.192   6.802
 2928SOL    HW2 9684   6.424   2.261   6.839
 2929SOL     OW 9685   1.784   2.173   4.781
 2929SOL    HW1 9686   1.758   2.224   4.863
 2929SOL    HW2 9687   1.776   2.232   4.701
 2930SOL     OW 9688   0.096   5.567   4.516
 2930SOL    HW1 9689   0.152   5.600   4.440
 2930SOL    HW2 9690   0.004   5.546   4.483
 2931SOL     OW 9691   3.828   4.151   6.293
 2931SOL    HW1 9692   3.869   4.060   6.301
 2931SOL    HW2 9693   3.773   4.170   6.374
 2932SOL     OW 9694   6.647   5.387   0.780
 2932SOL    HW1 9695   6.635   5.475   0.825
 2932SOL    HW2 9696   6.565   5.331   0.794
 2933SOL     OW 9697   0.998   0.081   0.942
 2933SOL    HW1 9698   0.959   0.173   0.943
 2933SOL    HW2 9699   0.925   0.013   0.954
 2934SOL     OW 9700   4.044   3.681   0.529
 2934SOL    HW1 9701   3.969   3.740   0.498
 2934SOL    HW2 9702   4.041   3.674   0.629
 2935SOL     OW 9703   0.417   2.768   6.198
 2935SOL    HW1 9704   0.476   2.845   6.172
 2935SOL    HW2 9705   0.410   2.705   6.121
 2936SOL     OW 9706   4.627   0.263   0.771
 2936SOL    HW1 9707   4.588   0.247   0.680
 2936SOL    HW2 9708   4.710   0.317   0.763
 2937SOL     OW 9709   4.099   5.824   1.917
 2937SOL    HW1 9710   4.002   5.824   1.891
 2937SOL    HW2 9711   4.109   5.776   2.005
 2938SOL     OW 9712   6.644   5.750   6.043
 2938SOL    HW1 9713   6.564   5.742   6.102
 2938SOL    HW2 9714   6.679   5.844   6.045
 2939SOL     OW 9715   0.296   5.429   1.291
 2939SOL    HW1 9716   0.233   5.450   1.216
 2939SOL    HW2 9717   0.266   5.477   1.374
 2940SOL     OW 9718   5.548   5.777   3.459
 2940SOL    HW1 9719   5.532   5.695   3.514
 2940SOL    HW2 9720   5.490   5.851   3.494
 2941SOL     OW 9721   2.047   3.182   3.935
 2941SOL    HW1 9722   1.957   3.201   3.896
 2941SOL    HW2 9723   2.096   3.267   3.951
 2942SOL     OW 9724   2.994   1.727   0.731
 2942SOL    HW1 9725   2.936   1.741   0.652
 2942SOL    HW2 9726   2.969   1.641   0.776
 2943SOL     OW 9727   5.935   4.167   3.264
 2943SOL    HW1 9728   5.935   4.252   3.316
 2943SOL    HW2 9729   5.937   4.089   3.327
 2944SOL     OW 9730   2.230   5.896   3.875
 2944SOL    HW1 9731   2.228   5.980   3.929
 2944SOL    HW2 9732   2.322   5.883   3.838
 2945SOL     OW 9733   5.242   4.535   1.566
 2945SOL    HW1 9734   5.194   4.475   1.630
 2945SOL    HW2 9735   5.190   4.542   1.481
 2946SOL     OW 9736   2.838   4.089   6.091
 2946SOL    HW1 9737   2.854   3.999   6.052
 2946SOL    HW2 9738   2.822   4.081   6.189
 2947SOL     OW 9739   5.937   6.436   0.530
 2947SOL    HW1 9740   5.965   6.483   0.446
 2947SOL    HW2 9741   5.963   6.339   0.524
 2948SOL     OW 9742   5.702   4.168   2.603
 2948SOL    HW1 9743   5.722   4.138   2.509
 2948SOL    HW2 9744   5.776   4.140   2.664
 2949SOL     OW 9745   1.711   0.238   0.894
 2949SOL    HW1 9746   1.723   0.295   0.813
 2949SOL    HW2 9747   1.797   0.189   0.913
 2950SOL     OW 9748   4.953   4.628   2.617
 2950SOL    HW1 9749   4.856   4.605   2.628
 2950SOL    HW2 9750   5.004   4.593   2.696
 2951SOL     OW 9751   5.918   1.007   1.362
 2951SOL    HW1 9752   5.905   0.918   1.405
 2951SOL    HW2 9753   5.955   1.071   1.430
 2952SOL     OW 9754   5.252   1.041   4.134
 2952SOL    HW1 9755   5.313   1.120   4.126
 2952SOL    HW2 9756   5.302   0.965   4.177
 2953SOL     OW 9757   0.995   6.073   3.264
 2953SOL    HW1 9758   0.966   6.166   3.285
 2953SOL    HW2 9759   1.019   6.026   3.349
 2954SOL     OW 9760   0.437   4.523   6.411
 2954SOL    HW1 9761   0.482   4.497   6.326
 2954SOL    HW2 9762   0.339   4.500   6.405
 2955SOL     OW 9763   1.904   3.811   6.835
 2955SOL    HW1 9764   1.992   3.847   6.866
 2955SOL    HW2 9765   1.859   3.762   6.909
 2956SOL     OW 9766   6.307   4.273   3.351
 2956SOL    HW1 9767   6.272   4.283   3.444
 2956SOL    HW2 9768   6.268   4.191   3.310
 2957SOL     OW 9769   2.840   5.298   1.647
 2957SOL    HW1 9770   2.807   5.254   1.730
 2957SOL    HW2 9771   2.822   5.238   1.568
 2958SOL     OW 9772   2.409   4.697   3.098
 2958SOL    HW1 9773   2.352   4.671   3.176
 2958SOL    HW2 9774   2.449   4.615   3.057
 2959SOL     OW 9775   6.469   1.986   2.767
 2959SOL    HW1 9776   6.476   2.062   2.832
 2959SOL    HW2 9777   6.561   1.956   2.742
 2960SOL     OW 9778   4.394   0.574   0.613
 2960SOL    HW1 9779   4.306   0.564   0.568
 2960SOL    HW2 9780   4.386   0.544   0.708
 2961SOL     OW 9781   5.279   4.224   2.540
 2961SOL    HW1 9782   5.301   4.195   2.633
 2961SOL    HW2 9783   5.190   4.187   2.513
 2962SOL     OW 9784   6.591   6.292   2.155
 2962SOL    HW1 9785   6.559   6.197   2.150
 2962SOL    HW2 9786   6.667   6.299   2.220
 2963SOL     OW 9787   1.541   1.073   5.110
 2963SOL    HW1 9788   1.499   1.020   5.184
 2963SOL    HW2 9789   1.483   1.153   5.090
 2964SOL     OW 9790   0.900   2.727   6.746
 2964SOL    HW1 9791   0.990   2.692   6.773
 2964SOL    HW2 9792   0.893   2.727   6.646
 2965SOL     OW 9793   0.347   0.597   5.202
 2965SOL    HW1 9794   0.353   0.674   5.265
 2965SOL    HW2 9795   0.305   0.519   5.249
 2966SOL     OW 9796   4.380   5.696   3.761
 2966SOL    HW1 9797   4.398   5.787   3.797
 2966SOL    HW2 9798   4.327   5.703   3.677
 2967SOL     OW 9799   6.147   1.167   5.683
 2967SOL    HW1 9800   6.158   1.223   5.766
 2967SOL    HW2 9801   6.180   1.074   5.701
 2968SOL     OW 9802   1.611   1.897   0.924
 2968SOL    HW1 9803   1.554   1.818   0.901
 2968SOL    HW2 9804   1.586   1.974   0.864
 2969SOL     OW 9805   5.654   3.553   4.443
 2969SOL    HW1 9806   5.683   3.559   4.539
 2969SOL    HW2 9807   5.664   3.642   4.399
 2970SOL     OW 9808   2.253   2.825   4.246
 2970SOL    HW1 9809   2.309   2.743   4.245
 2970SOL    HW2 9810   2.262   2.870   4.335
 2971SOL     OW 9811   5.740   3.901   6.659
 2971SOL    HW1 9812   5.667   3.860   6.713
 2971SOL    HW2 9813   5.814   3.930   6.720
 2972SOL     OW 9814   5.829   5.002   6.483
 2972SOL    HW1 9815   5.829   4.950   6.569
 2972SOL    HW2 9816   5.893   5.079   6.491
 2973SOL     OW 9817   5.025   0.150   2.061
 2973SOL    HW1 9818   5.033   0.224   2.128
 2973SOL    HW2 9819   4.983   0.070   2.104
 2974SOL     OW 9820   5.178   5.336   3.640
 2974SOL    HW1 9821   5.253   5.375   3.588
 2974SOL    HW2 9822   5.115   5.409   3.668
 2975SOL     OW 9823   4.361   4.939   4.335
 2975SOL    HW1 9824   4.366   4.844   4.304
 2975SOL    HW2 9825   4.444   4.987   4.306
 2976SOL     OW 9826   4.711   2.038   2.232
 2976SOL    HW1 9827   4.770   1.978   2.179
 2976SOL    HW2 9828   4.695   2.123   2.182
 2977SOL     OW 9829   0.635   0.386   1.426
 2977SOL    HW1 9830   0.550   0.346   1.462
 2977SOL    HW2 9831   0.667   0.457   1.489
 2978SOL     OW 9832   3.954   4.744   6.023
 2978SOL    HW1 9833   4.012   4.723   6.102
 2978SOL    HW2 9834   3.867   4.782   6.055
 2979SOL     OW 9835   2.400   1.699   4.561
 2979SOL    HW1 9836   2.370   1.635   4.632
 2979SOL    HW2 9837   2.494   1.727   4.580
 2980SOL     OW 9838   3.892   3.788   6.129
 2980SOL    HW1 9839   3.925   3.699   6.098
 2980SOL    HW2 9840   3.818   3.819   6.069
 2981SOL     OW 9841   2.122   1.037   0.464
 2981SOL    HW1 9842   2.120   1.104   0.538
 2981SOL    HW2 9843   2.038   0.984   0.466
 2982SOL     OW 9844   1.222   0.074   2.044
 2982SOL    HW1 9845   1.236   0.086   2.142
 2982SOL    HW2 9846   1.197   0.161   2.003
 2983SOL     OW 9847   6.329   3.160   6.856
 2983SOL    HW1 9848   6.276   3.078   6.837
 2983SOL    HW2 9849   6.303   3.232   6.792
 2984SOL     OW 9850   6.532   5.019   0.135
 2984SOL    HW1 9851   6.576   5.094   0.085
 2984SOL    HW2 9852   6.570   4.932   0.105
 2985SOL     OW 9853   0.061   0.539   4.960
 2985SOL    HW1 9854   6.987   0.557   4.918
 2985SOL    HW2 9855   0.061   0.448   5.003
 2986SOL     OW 9856   3.649   4.053   2.932
 2986SOL    HW1 9857   3.706   3.993   2.876
 2986SOL    HW2 9858   3.687   4.058   3.024
 2987SOL     OW 9859   1.148   1.291   4.163
 2987SOL    HW1 9860   1.105   1.340   4.087
 2987SOL    HW2 9861   1.159   1.353   4.240
 2988SOL     OW 9862   0.686   1.649   0.467
 2988SOL    HW1 9863   0.639   1.573   0.513
 2988SOL    HW2 9864   0.774   1.667   0.511
 2989SOL     OW 9865   5.258   2.921   4.910
 2989SOL    HW1 9866   5.321   2.872   4.850
 2989SOL    HW2 9867   5.296   3.011   4.932
 2990SOL     OW 9868   5.052   1.897   4.601
 2990SOL    HW1 9869   5.094   1.957   4.533
 2990SOL    HW2 9870   5.078   1.927   4.693
 2991SOL     OW 9871   5.466   2.885   0.802
 2991SOL    HW1 9872   5.458   2.951   0.727
 2991SOL    HW2 9873   5.380   2.837   0.814
 2992SOL     OW 9874   0.473   3.716   5.612
 2992SOL    HW1 9875   0.555   3.709   5.669
 2992SOL    HW2 9876   0.441   3.811   5.612
 2993SOL     OW 9877   1.036   4.511   0.170
 2993SOL    HW1 9878   1.123   4.550   0.199
 2993SOL    HW2 9879   0.966   4.582   0.170
 2994SOL     OW 9880   4.459   6.134   0.171
 2994SOL    HW1 9881   4.546   6.113   0.128
 2994SOL    HW2 9882   4.401   6.183   0.106
 2995SOL     OW 9883   4.822   0.045   0.493
 2995SOL    HW1 9884   4.853   0.026   0.586
 2995SOL    HW2 9885   4.872   7.003   0.428
 2996SOL     OW 9886   1.243   1.934   4.586
 2996SOL    HW1 9887   1.221   1.906   4.680
 2996SOL    HW2 9888   1.342   1.948   4.578
 2997SOL     OW 9889   5.078   0.432   4.028
 2997SOL    HW1 9890   5.026   0.466   3.950
 2997SOL    HW2 9891   5.056   0.487   4.109
 2998SOL     OW 9892   2.676   1.100   3.021
 2998SOL    HW1 9893   2.643   1.186   2.981
 2998SOL    HW2 9894   2.609   1.067   3.087
 2999SOL     OW 9895   2.475   4.327   0.538
 2999SOL    HW1 9896   2.425   4.244   0.561
 2999SOL    HW2 9897   2.549   4.341   0.603
 3000SOL     OW 9898   2.859   3.796   5.228
 3000SOL    HW1 9899   2.900   3.713   5.191
 3000SOL    HW2 9900   2.926   3.843   5.287
 3001SOL     OW 9901   6.285   1.828   6.262
 3001SOL    HW1 9902   6.210   1.857   6.321
 3001SOL    HW2 9903   6.261   1.846   6.166
 3002SOL     OW 9904   2.662   1.001   2.016
 3002SOL    HW1 9905   2.618   1.086   1.989
 3002SOL    HW2 9906   2.620   0.966   2.100
 3003SOL     OW 9907   1.296   5.984   0.316
 3003SOL    HW1 9908   1.362   5.987   0.241
 3003SOL    HW2 9909   1.341   6.011   0.401
 3004SOL     OW 9910   2.350   5.449   4.385
 3004SOL    HW1 9911   2.250   5.444   4.387
 3004SOL    HW2 9912   2.387   5.361   4.355
 3005SOL     OW 9913   1.208   2.749   5.767
 3005SOL    HW1 9914   1.218   2.847   5.747
 3005SOL    HW2 9915   1.291   2.701   5.738
 3006SOL     OW 9916   5.141   2.025   5.219
 3006SOL    HW1 9917   5.075   2.051   5.290
 3006SOL    HW2 9918   5.164   2.105   5.164
 3007SOL     OW 9919   5.532   5.188   6.957
 3007SOL    HW1 9920   5.575   5.244   6.886
 3007SOL    HW2 9921   5.442   5.224   6.978
 3008SOL     OW 9922   4.303   2.570   5.908
 3008SOL    HW1 9923   4.249   2.512   5.846
 3008SOL    HW2 9924   4.246   2.646   5.941
 3009SOL     OW 9925   0.611   2.910   2.760
 3009SOL    HW1 9926   0.597   2.995   2.708
 3009SOL    HW2 9927   0.534   2.849   2.746
 3010SOL     OW 9928   4.024   6.056   5.960
 3010SOL    HW1 9929   4.039   6.073   5.862
 3010SOL    HW2 9930   3.945   6.108   5.991
 3011SOL     OW 9931   5.583   0.016   1.018
 3011SOL    HW1 9932   5.612   0.089   0.955
 3011SOL    HW2 9933   5.602   0.044   1.112
 3012SOL     OW 9934   3.013   2.808   5.989
 3012SOL    HW1 9935   3.022   2.844   5.896
 3012SOL    HW2 9936   3.000   2.883   6.053
 3013SOL     OW 9937   0.749   5.983   4.161
 3013SOL    HW1 9938   0.793   5.993   4.251
 3013SOL    HW2 9939   0.790   5.905   4.113
 3014SOL     OW 9940   4.842   0.986   5.145
 3014SOL    HW1 9941   4.846   1.086   5.143
 3014SOL    HW2 9942   4.845   0.955   5.240
 3015SOL     OW 9943   1.303   1.293   0.591
 3015SOL    HW1 9944   1.220   1.240   0.572
 3015SOL    HW2 9945   1.286   1.389   0.567
 3016SOL     OW 9946   2.752   6.273   4.723
 3016SOL    HW1 9947   2.678   6.304   4.664
 3016SOL    HW2 9948   2.787   6.350   4.776
 3017SOL     OW 9949   6.737   5.926   1.602
 3017SOL    HW1 9950   6.654   5.979   1.624
 3017SOL    HW2 9951   6.793   5.979   1.538
 3018SOL     OW 9952   3.452   0.359   0.426
 3018SOL    HW1 9953   3.446   0.435   0.491
 3018SOL    HW2 9954   3.548   0.343   0.404
 3019SOL     OW 9955   1.489   6.990   5.933
 3019SOL    HW1 9956   1.448   0.061   5.963
 3019SOL    HW2 9957   1.517   6.937   6.012
 3020SOL     OW 9958   5.154   3.409   0.308
 3020SOL    HW1 9959   5.128   3.440   0.217
 3020SOL    HW2 9960   5.146   3.485   0.373
 3021SOL     OW 9961   3.670   6.416   4.732
 3021SOL    HW1 9962   3.683   6.509   4.697
 3021SOL    HW2 9963   3.708   6.350   4.668
 3022SOL     OW 9964   4.449   6.241   3.630
 3022SOL    HW1 9965   4.484   6.288   3.712
 3022SOL    HW2 9966   4.503   6.268   3.551
 3023SOL     OW 9967   4.076   6.959   2.745
 3023SOL    HW1 9968   4.010   7.014   2.694
 3023SOL    HW2 9969   4.142   6.919   2.682
 3024SOL     OW 9970   0.391   6.507   6.101
 3024SOL    HW1 9971   0.479   6.460   6.099
 3024SOL    HW2 9972   0.331   6.468   6.031
 3025SOL     OW 9973   3.668   6.076   0.982
 3025SOL    HW1 9974   3.638   6.012   0.911
 3025SOL    HW2 9975   3.677   6.168   0.943
 3026SOL     OW 9976   5.788   1.422   0.119
 3026SOL    HW1 9977   5.694   1.398   0.094
 3026SOL    HW2 9978   5.832   1.344   0.164
 3027SOL     OW 9979   5.287   1.341   1.496
 3027SOL    HW1 9980   5.262   1.437   1.508
 3027SOL    HW2 9981   5.323   1.327   1.403
 3028SOL     OW 9982   2.529   4.295   5.984
 3028SOL    HW1 9983   2.460   4.241   5.936
 3028SOL    HW2 9984   2.613   4.297   5.930
 3029SOL     OW 9985   0.958   1.905   4.199
 3029SOL    HW1 9986   0.899   1.944   4.128
 3029SOL    HW2 9987   1.021   1.975   4.232
 3030SOL     OW 9988   1.445   3.557   1.462
 3030SOL    HW1 9989   1.417   3.593   1.373
 3030SOL    HW2 9990   1.386   3.594   1.534
 3031SOL     OW 9991   1.413   5.572   0.897
 3031SOL    HW1 9992   1.364   5.496   0.854
 3031SOL    HW2 9993   1.378   5.659   0.861
 3032SOL     OW 9994   1.459   0.448   2.707
 3032SOL    HW1 9995   1.542   0.407   2.745
 3032SOL    HW2 9996   1.446   0.539   2.746
 3033SOL     OW 9997   6.805   2.367   4.224
 3033SOL    HW1 9998   6.810   2.317   4.310
 3033SOL    HW2 9999   6.753   2.314   4.158
 3034SOL     OW10000   0.611   6.055   3.785
 3034SOL    HW110001   0.590   6.068   3.688
 3034SOL    HW210002   0.540   6.098   3.840
 3035SOL     OW10003   1.328   2.465   6.446
 3035SOL    HW110004   1.239   2.500   6.416
 3035SOL    HW210005   1.396   2.480   6.375
 3036SOL     OW10006   2.387   1.949   6.464
 3036SOL    HW110007   2.315   1.943   6.533
 3036SOL    HW210008   2.472   1.980   6.506
 3037SOL     OW10009   0.680   5.522   6.599
 3037SOL    HW110010   0.664   5.527   6.500
 3037SOL    HW210011   0.603   5.565   6.647
 3038SOL     OW10012   5.184   4.995   6.198
 3038SOL    HW110013   5.173   5.059   6.122
 3038SOL    HW210014   5.146   4.906   6.173
 3039SOL     OW10015   6.541   4.032   6.942
 3039SOL    HW110016   6.484   3.950   6.934
 3039SOL    HW210017   6.551   4.073   6.851
 3040SOL     OW10018   3.524   4.588   6.169
 3040SOL    HW110019   3.525   4.561   6.073
 3040SOL    HW210020   3.610   4.635   6.191
 3041SOL     OW10021   2.197   4.263   5.016
 3041SOL    HW110022   2.153   4.311   4.941
 3041SOL    HW210023   2.244   4.182   4.981
 3042SOL     OW10024   0.228   5.246   2.970
 3042SOL    HW110025   0.295   5.253   3.044
 3042SOL    HW210026   0.152   5.308   2.988
 3043SOL     OW10027   3.028   4.351   0.846
 3043SOL    HW110028   3.074   4.353   0.935
 3043SOL    HW210029   3.000   4.444   0.821
 3044SOL     OW10030   3.437   3.689   5.145
 3044SOL    HW110031   3.464   3.786   5.147
 3044SOL    HW210032   3.483   3.643   5.069
 3045SOL     OW10033   5.051   1.765   2.841
 3045SOL    HW110034   5.142   1.767   2.883
 3045SOL    HW210035   5.001   1.686   2.875
 3046SOL     OW10036   5.687   5.558   0.418
 3046SOL    HW110037   5.687   5.479   0.479
 3046SOL    HW210038   5.658   5.639   0.469
 3047SOL     OW10039   6.015   0.811   6.635
 3047SOL    HW110040   6.021   0.739   6.565
 3047SOL    HW210041   6.058   0.779   6.720
 3048SOL     OW10042   4.088   3.475   1.383
 3048SOL    HW110043   4.115   3.567   1.413
 3048SOL    HW210044   4.076   3.416   1.463
 3049SOL     OW10045   0.878   0.359   4.374
 3049SOL    HW110046   0.818   0.392   4.301
 3049SOL    HW210047   0.973   0.383   4.353
 3050SOL     OW10048   2.982   2.534   1.442
 3050SOL    HW110049   3.020   2.623   1.415
 3050SOL    HW210050   2.888   2.527   1.410
 3051SOL     OW10051   2.599   6.665   4.596
 3051SOL    HW110052   2.528   6.597   4.616
 3051SOL    HW210053   2.605   6.730   4.672
 3052SOL     OW10054   5.823   6.121   2.418
 3052SOL    HW110055   5.730   6.101   2.448
 3052SOL    HW210056   5.824   6.206   2.366
 3053SOL     OW10057   1.637   4.027   0.541
 3053SOL    HW110058   1.648   4.082   0.624
 3053SOL    HW210059   1.709   3.958   0.536
 3054SOL     OW10060   5.575   1.533   3.008
 3054SOL    HW110061   5.610   1.459   3.064
 3054SOL    HW210062   5.646   1.602   2.994
 3055SOL     OW10063   6.363   6.038   6.523
 3055SOL    HW110064   6.280   6.000   6.484
 3055SOL    HW210065   6.416   6.085   6.452
 3056SOL     OW10066   5.045   1.670   6.070
 3056SOL    HW110067   5.042   1.574   6.097
 3056SOL    HW210068   5.122   1.685   6.008
 3057SOL     OW10069   6.124   5.778   3.024
 3057SOL    HW110070   6.206   5.825   3.058
 3057SOL    HW210071   6.063   5.758   3.101
 3058SOL     OW10072   6.435   4.283   0.046
 3058SOL    HW110073   6.506   4.336   0.093
 3058SOL    HW210074   6.458   4.186   0.051
 3059SOL     OW10075   2.364   2.592   4.468
 3059SOL    HW110076   2.393   2.578   4.374
 3059SOL    HW210077   2.282   2.537   4.486
 3060SOL     OW10078   4.229   5.083   5.584
 3060SOL    HW110079   4.171   5.005   5.558
 3060SOL    HW210080   4.305   5.090   5.521
 3061SOL     OW10081   4.782   4.794   5.438
 3061SOL    HW110082   4.836   4.727   5.387
 3061SOL    HW210083   4.721   4.843   5.375
 3062SOL     OW10084   4.680   4.353   1.782
 3062SOL    HW110085   4.628   4.377   1.700
 3062SOL    HW210086   4.623   4.300   1.844
 3063SOL     OW10087   6.976   4.272   1.207
 3063SOL    HW110088   6.943   4.227   1.290
 3063SOL    HW210089   0.056   4.245   1.191
 3064SOL     OW10090   4.044   1.934   6.964
 3064SOL    HW110091   3.955   1.965   6.997
 3064SOL    HW210092   4.104   1.915   0.026
 3065SOL     OW10093   1.041   0.836   0.185
 3065SOL    HW110094   1.015   0.914   0.128
 3065SOL    HW210095   1.109   0.781   0.138
 3066SOL     OW10096   5.059   6.157   6.296
 3066SOL    HW110097   5.158   6.155   6.310
 3066SOL    HW210098   5.014   6.190   6.379
 3067SOL     OW10099   2.920   2.400   0.013
 3067SOL    HW110100   2.968   2.319   0.048
 3067SOL    HW210101   2.988   2.466   6.994
 3068SOL     OW10102   0.757   0.629   0.726
 3068SOL    HW110103   0.798   0.538   0.719
 3068SOL    HW210104   0.717   0.640   0.817
 3069SOL     OW10105   4.962   6.906   2.560
 3069SOL    HW110106   4.925   6.923   2.469
 3069SOL    HW210107   4.943   6.985   2.619
 3070SOL     OW10108   3.088   1.654   1.091
 3070SOL    HW110109   3.141   1.688   1.169
 3070SOL    HW210110   3.033   1.728   1.053
 3071SOL     OW10111   0.126   3.076   3.350
 3071SOL    HW110112   0.047   3.017   3.359
 3071SOL    HW210113   0.141   3.097   3.253
 3072SOL     OW10114   2.468   6.495   6.712
 3072SOL    HW110115   2.424   6.482   6.801
 3072SOL    HW210116   2.398   6.510   6.642
 3073SOL     OW10117   5.855   4.722   0.552
 3073SOL    HW110118   5.788   4.782   0.595
 3073SOL    HW210119   5.946   4.741   0.589
 3074SOL     OW10120   1.592   3.797   1.258
 3074SOL    HW110121   1.656   3.743   1.312
 3074SOL    HW210122   1.582   3.757   1.167
 3075SOL     OW10123   2.137   5.084   3.221
 3075SOL    HW110124   2.078   5.162   3.201
 3075SOL    HW210125   2.163   5.039   3.135
 3076SOL     OW10126   6.942   0.870   4.629
 3076SOL    HW110127   0.016   0.878   4.672
 3076SOL    HW210128   6.931   0.942   4.560
 3077SOL     OW10129   6.498   4.126   1.356
 3077SOL    HW110130   6.441   4.145   1.276
 3077SOL    HW210131   6.445   4.143   1.439
 3078SOL     OW10132   6.550   2.886   1.480
 3078SOL    HW110133   6.612   2.964   1.473
 3078SOL    HW210134   6.595   2.811   1.528
 3079SOL     OW10135   2.141   2.889   5.146
 3079SOL    HW110136   2.160   2.929   5.236
 3079SOL    HW210137   2.227   2.879   5.096
 3080SOL     OW10138   4.478   4.998   1.035
 3080SOL    HW110139   4.548   4.931   1.059
 3080SOL    HW210140   4.391   4.973   1.079
 3081SOL     OW10141   1.510   4.140   0.819
 3081SOL    HW110142   1.571   4.062   0.834
 3081SOL    HW210143   1.434   4.136   0.884
 3082SOL     OW10144   3.883   4.877   4.561
 3082SOL    HW110145   3.958   4.835   4.613
 3082SOL    HW210146   3.900   4.865   4.463
 3083SOL     OW10147   2.085   5.667   2.722
 3083SOL    HW110148   2.007   5.675   2.784
 3083SOL    HW210149   2.150   5.600   2.758
 3084SOL     OW10150   0.838   3.559   3.488
 3084SOL    HW110151   0.767   3.628   3.474
 3084SOL    HW210152   0.904   3.592   3.555
 3085SOL     OW10153   4.712   4.833   1.059
 3085SOL    HW110154   4.740   4.881   0.975
 3085SOL    HW210155   4.769   4.753   1.072
 3086SOL     OW10156   6.642   1.287   6.362
 3086SOL    HW110157   6.599   1.326   6.280
 3086SOL    HW210158   6.741   1.289   6.352
 3087SOL     OW10159   3.181   6.744   1.957
 3087SOL    HW110160   3.095   6.794   1.959
 3087SOL    HW210161   3.223   6.752   1.867
 3088SOL     OW10162   0.575   3.093   5.333
 3088SOL    HW110163   0.547   2.997   5.331
 3088SOL    HW210164   0.598   3.123   5.241
 3089SOL     OW10165   5.086   0.072   5.547
 3089SOL    HW110166   5.047   0.071   5.455
 3089SOL    HW210167   5.113   6.995   5.573
 3090SOL     OW10168   0.813   1.823   1.586
 3090SOL    HW110169   0.809   1.845   1.489
 3090SOL    HW210170   0.738   1.762   1.610
 3091SOL     OW10171   1.314   1.775   0.652
 3091SOL    HW110172   1.334   1.865   0.614
 3091SOL    HW210173   1.305   1.782   0.752
 3092SOL     OW10174   6.255   6.968   2.339
 3092SOL    HW110175   6.338   6.991   2.389
 3092SOL    HW210176   6.278   6.940   2.246
 3093SOL     OW10177   5.532   5.281   6.221
 3093SOL    HW110178   5.534   5.227   6.305
 3093SOL    HW210179   5.626   5.296   6.190
 3094SOL     OW10180   2.538   1.220   5.908
 3094SOL    HW110181   2.452   1.180   5.941
 3094SOL    HW210182   2.540   1.218   5.808
 3095SOL     OW10183   2.030   3.275   5.023
 3095SOL    HW110184   2.060   3.240   5.112
 3095SOL    HW210185   2.097   3.251   4.953
 3096SOL     OW10186   1.091   3.332   4.705
 3096SOL    HW110187   1.081   3.376   4.794
 3096SOL    HW210188   1.042   3.385   4.636
 3097SOL     OW10189   5.381   2.756   6.402
 3097SOL    HW110190   5.395   2.801   6.490
 3097SOL    HW210191   5.330   2.670   6.416
 3098SOL     OW10192   1.665   1.810   1.987
 3098SOL    HW110193   1.585   1.827   1.929
 3098SOL    HW210194   1.735   1.763   1.933
 3099SOL     OW10195   0.904   6.675   3.793
 3099SOL    HW110196   0.944   6.755   3.838
 3099SOL    HW210197   0.961   6.648   3.716
 3100SOL     OW10198   6.012   5.944   2.221
 3100SOL    HW110199   5.974   5.950   2.314
 3100SOL    HW210200   6.099   5.992   2.218
 3101SOL     OW10201   4.021   6.682   5.991
 3101SOL    HW110202   4.116   6.714   5.995
 3101SOL    HW210203   4.004   6.639   5.902
 3102SOL     OW10204   0.357   4.809   0.574
 3102SOL    HW110205   0.360   4.843   0.668
 3102SOL    HW210206   0.277   4.750   0.562
 3103SOL     OW10207   3.106   0.444   1.255
 3103SOL    HW110208   3.059   0.520   1.209
 3103SOL    HW210209   3.040   0.391   1.307
 3104SOL     OW10210   4.746   0.603   6.014
 3104SOL    HW110211   4.715   0.533   5.949
 3104SOL    HW210212   4.674   0.619   6.082
 3105SOL     OW10213   5.074   3.115   0.326
 3105SOL    HW110214   5.077   3.139   0.229
 3105SOL    HW210215   5.056   3.197   0.380
 3106SOL     OW10216   5.991   0.896   4.890
 3106SOL    HW110217   5.918   0.868   4.829
 3106SOL    HW210218   5.995   0.834   4.969
 3107SOL     OW10219   4.032   1.242   4.985
 3107SOL    HW110220   4.068   1.248   4.892
 3107SOL    HW210221   4.065   1.319   5.039
 3108SOL     OW10222   1.866   4.387   4.297
 3108SOL    HW110223   1.790   4.399   4.361
 3108SOL    HW210224   1.937   4.455   4.316
 3109SOL     OW10225   6.514   6.474   3.754
 3109SOL    HW110226   6.437   6.460   3.816
 3109SOL    HW210227   6.585   6.529   3.800
 3110SOL     OW10228   2.006   4.691   3.701
 3110SOL    HW110229   1.942   4.679   3.777
 3110SOL    HW210230   1.955   4.697   3.615
 3111SOL     OW10231   6.432   4.279   4.845
 3111SOL    HW110232   6.396   4.349   4.906
 3111SOL    HW210233   6.501   4.318   4.784
 3112SOL     OW10234   3.788   2.281   0.000
 3112SOL    HW110235   3.761   2.340   6.939
 3112SOL    HW210236   3.887   2.287   0.013
 3113SOL     OW10237   1.910   5.514   3.263
 3113SOL    HW110238   1.978   5.568   3.314
 3113SOL    HW210239   1.826   5.567   3.252
 3114SOL     OW10240   4.187   1.342   0.381
 3114SOL    HW110241   4.256   1.269   0.382
 3114SOL    HW210242   4.209   1.408   0.309
 3115SOL     OW10243   4.047   4.654   5.773
 3115SOL    HW110244   4.018   4.684   5.864
 3115SOL    HW210245   3.985   4.694   5.704
 3116SOL     OW10246   0.331   2.396   0.941
 3116SOL    HW110247   0.248   2.341   0.939
 3116SOL    HW210248   0.399   2.358   0.879
 3117SOL     OW10249   4.967   2.156   5.510
 3117SOL    HW110250   4.988   2.105   5.593
 3117SOL    HW210251   4.872   2.137   5.483
 3118SOL     OW10252   1.791   1.218   2.742
 3118SOL    HW110253   1.758   1.132   2.781
 3118SOL    HW210254   1.883   1.238   2.777
 3119SOL     OW10255   4.080   3.586   6.006
 3119SOL    HW110256   4.136   3.520   6.057
 3119SOL    HW210257   4.113   3.591   5.911
 3120SOL     OW10258   2.658   6.436   5.399
 3120SOL    HW110259   2.685   6.437   5.495
 3120SOL    HW210260   2.684   6.522   5.356
 3121SOL     OW10261   4.930   1.706   4.418
 3121SOL    HW110262   4.964   1.778   4.479
 3121SOL    HW210263   4.922   1.743   4.325
 3122SOL     OW10264   4.179   5.092   4.212
 3122SOL    HW110265   4.232   5.136   4.138
 3122SOL    HW210266   4.241   5.038   4.269
 3123SOL     OW10267   2.515   2.043   3.211
 3123SOL    HW110268   2.605   2.006   3.233
 3123SOL    HW210269   2.499   2.034   3.112
 3124SOL     OW10270   5.107   6.597   4.334
 3124SOL    HW110271   5.011   6.602   4.362
 3124SOL    HW210272   5.151   6.686   4.349
 3125SOL     OW10273   1.472   2.867   5.084
 3125SOL    HW110274   1.421   2.818   5.014
 3125SOL    HW210275   1.547   2.918   5.042
 3126SOL     OW10276   5.585   5.193   4.252
 3126SOL    HW110277   5.527   5.251   4.195
 3126SOL    HW210278   5.560   5.097   4.239
 3127SOL     OW10279   0.540   2.112   4.394
 3127SOL    HW110280   0.445   2.096   4.421
 3127SOL    HW210281   0.592   2.146   4.473
 3128SOL     OW10282   4.212   0.012   0.167
 3128SOL    HW110283   4.289   6.982   0.213
 3128SOL    HW210284   4.152   6.957   0.127
 3129SOL     OW10285   4.934   3.466   1.182
 3129SOL    HW110286   4.918   3.368   1.198
 3129SOL    HW210287   4.850   3.517   1.203
 3130SOL     OW10288   1.812   4.336   1.162
 3130SOL    HW110289   1.791   4.377   1.251
 3130SOL    HW210290   1.727   4.324   1.111
 3131SOL     OW10291   6.577   3.894   2.139
 3131SOL    HW110292   6.511   3.964   2.112
 3131SOL    HW210293   6.669   3.926   2.119
 3132SOL     OW10294   4.042   4.109   0.258
 3132SOL    HW110295   4.000   4.179   0.200
 3132SOL    HW210296   4.141   4.121   0.259
 3133SOL     OW10297   4.285   0.537   3.341
 3133SOL    HW110298   4.323   0.625   3.313
 3133SOL    HW210299   4.335   0.463   3.295
 3134SOL     OW10300   3.369   4.906   2.663
 3134SOL    HW110301   3.422   4.974   2.713
 3134SOL    HW210302   3.400   4.902   2.569
 3135SOL     OW10303   5.450   6.700   6.043
 3135SOL    HW110304   5.369   6.685   6.101
 3135SOL    HW210305   5.426   6.760   5.967
 3136SOL     OW10306   6.365   1.507   2.881
 3136SOL    HW110307   6.349   1.510   2.783
 3136SOL    HW210308   6.369   1.411   2.911
 3137SOL     OW10309   6.440   6.842   0.372
 3137SOL    HW110310   6.449   6.894   0.457
 3137SOL    HW210311   6.384   6.761   0.388
 3138SOL     OW10312   5.436   4.988   4.166
 3138SOL    HW110313   5.358   4.989   4.229
 3138SOL    HW210314   5.404   5.006   4.073
 3139SOL     OW10315   2.540   5.745   1.037
 3139SOL    HW110316   2.519   5.842   1.041
 3139SOL    HW210317   2.505   5.700   1.120
 3140SOL     OW10318   6.721   6.536   5.707
 3140SOL    HW110319   6.760   6.609   5.650
 3140SOL    HW210320   6.717   6.451   5.654
 3141SOL     OW10321   6.911   2.674   6.632
 3141SOL    HW110322   6.856   2.653   6.551
 3141SOL    HW210323   6.856   2.724   6.698
 3142SOL     OW10324   5.306   0.794   2.161
 3142SOL    HW110325   5.211   0.769   2.181
 3142SOL    HW210326   5.308   0.857   2.083
 3143SOL     OW10327   5.866   1.376   6.868
 3143SOL    HW110328   5.846   1.399   6.963
 3143SOL    HW210329   5.817   1.440   6.808
 3144SOL     OW10330   4.182   3.919   6.529
 3144SOL    HW110331   4.100   3.929   6.473
 3144SOL    HW210332   4.167   3.961   6.618
 3145SOL     OW10333   2.293   5.982   1.869
 3145SOL    HW110334   2.355   5.979   1.947
 3145SOL    HW210335   2.288   6.076   1.834
 3146SOL     OW10336   0.292   0.869   5.255
 3146SOL    HW110337   0.300   0.918   5.342
 3146SOL    HW210338   0.301   0.933   5.179
 3147SOL     OW10339   3.533   4.799   6.652
 3147SOL    HW110340   3.623   4.812   6.610
 3147SOL    HW210341   3.487   4.887   6.658
 3148SOL     OW10342   0.877   5.839   2.951
 3148SOL    HW110343   0.819   5.858   3.030
 3148SOL    HW210344   0.934   5.759   2.970
 3149SOL     OW10345   2.919   1.435   1.171
 3149SOL    HW110346   2.923   1.396   1.263
 3149SOL    HW210347   3.005   1.483   1.151
 3150SOL     OW10348   6.438   6.635   4.953
 3150SOL    HW110349   6.505   6.561   4.941
 3150SOL    HW210350   6.477   6.707   5.009
 3151SOL     OW10351   5.776   1.955   6.023
 3151SOL    HW110352   5.806   1.874   5.974
 3151SOL    HW210353   5.712   2.008   5.967
 3152SOL     OW10354   1.581   3.575   6.495
 3152SOL    HW110355   1.606   3.585   6.399
 3152SOL    HW210356   1.594   3.662   6.542
 3153SOL     OW10357   6.923   5.451   0.706
 3153SOL    HW110358   6.828   5.443   0.738
 3153SOL    HW210359   6.982   5.395   0.764
 3154SOL     OW10360   5.653   1.629   1.434
 3154SOL    HW110361   5.659   1.709   1.494
 3154SOL    HW210362   5.644   1.546   1.489
 3155SOL     OW10363   6.718   4.791   0.168
 3155SOL    HW110364   6.779   4.849   0.222
 3155SOL    HW210365   6.657   4.741   0.230
 3156SOL     OW10366   3.605   4.141   2.099
 3156SOL    HW110367   3.683   4.092   2.137
 3156SOL    HW210368   3.637   4.224   2.054
 3157SOL     OW10369   0.815   2.129   5.309
 3157SOL    HW110370   0.876   2.094   5.380
 3157SOL    HW210371   0.787   2.222   5.332
 3158SOL     OW10372   3.009   1.549   5.755
 3158SOL    HW110373   3.031   1.452   5.765
 3158SOL    HW210374   3.093   1.601   5.739
 3159SOL     OW10375   4.929   6.853   0.335
 3159SOL    HW110376   4.846   6.808   0.370
 3159SOL    HW210377   4.910   6.891   0.244
 3160SOL     OW10378   2.532   6.636   6.379
 3160SOL    HW110379   2.588   6.568   6.331
 3160SOL    HW210380   2.591   6.708   6.415
 3161SOL     OW10381   1.494   2.673   3.324
 3161SOL    HW110382   1.446   2.759   3.306
 3161SOL    HW210383   1.444   2.597   3.282
 3162SOL     OW10384   1.923   5.608   0.605
 3162SOL    HW110385   1.872   5.582   0.523
 3162SOL    HW210386   1.990   5.537   0.628
 3163SOL     OW10387   4.430   3.838   0.446
 3163SOL    HW110388   4.523   3.808   0.468
 3163SOL    HW210389   4.364   3.773   0.484
 3164SOL     OW10390   3.045   5.572   3.586
 3164SOL    HW110391   2.970   5.587   3.651
 3164SOL    HW210392   3.049   5.475   3.564
 3165SOL     OW10393   0.820   5.203   0.085
 3165SOL    HW110394   0.830   5.143   0.165
 3165SOL    HW210395   0.740   5.174   0.032
 3166SOL     OW10396   4.077   0.997   5.090
 3166SOL    HW110397   4.045   1.083   5.050
 3166SOL    HW210398   4.006   0.960   5.150
 3167SOL     OW10399   4.722   4.435   0.919
 3167SOL    HW110400   4.653   4.406   0.985
 3167SOL    HW210401   4.678   4.480   0.842
 3168SOL     OW10402   4.480   2.247   0.698
 3168SOL    HW110403   4.402   2.189   0.723
 3168SOL    HW210404   4.534   2.269   0.779
 3169SOL     OW10405   1.444   4.707   2.319
 3169SOL    HW110406   1.360   4.652   2.317
 3169SOL    HW210407   1.421   4.803   2.302
 3170SOL     OW10408   3.699   5.589   3.248
 3170SOL    HW110409   3.622   5.526   3.249
 3170SOL    HW210410   3.696   5.648   3.329
 3171SOL     OW10411   5.645   2.687   3.035
 3171SOL    HW110412   5.617   2.648   3.122
 3171SOL    HW210413   5.580   2.661   2.964
 3172SOL     OW10414   6.842   4.924   0.358
 3172SOL    HW110415   6.801   5.015   0.365
 3172SOL    HW210416   6.914   4.915   0.427
 3173SOL     OW10417   3.237   1.514   0.129
 3173SOL    HW110418   3.293   1.594   0.108
 3173SOL    HW210419   3.293   1.431   0.122
 3174SOL     OW10420   2.378   3.432   5.674
 3174SOL    HW110421   2.449   3.495   5.705
 3174SOL    HW210422   2.292   3.455   5.719
 3175SOL     OW10423   6.367   1.301   3.628
 3175SOL    HW110424   6.322   1.293   3.717
 3175SOL    HW210425   6.301   1.289   3.555
 3176SOL     OW10426   0.392   4.273   4.911
 3176SOL    HW110427   0.458   4.208   4.947
 3176SOL    HW210428   0.361   4.245   4.820
 3177SOL     OW10429   5.713   3.744   3.443
 3177SOL    HW110430   5.654   3.700   3.511
 3177SOL    HW210431   5.749   3.675   3.380
 3178SOL     OW10432   5.879   1.189   0.249
 3178SOL    HW110433   5.867   1.094   0.280
 3178SOL    HW210434   5.976   1.208   0.237
 3179SOL     OW10435   0.777   1.808   1.987
 3179SOL    HW110436   0.690   1.815   2.036
 3179SOL    HW210437   0.852   1.831   2.049
 3180SOL     OW10438   6.472   6.121   6.289
 3180SOL    HW110439   6.420   6.065   6.224
 3180SOL    HW210440   6.504   6.204   6.243
 3181SOL     OW10441   0.563   1.422   4.674
 3181SOL    HW110442   0.585   1.443   4.769
 3181SOL    HW210443   0.508   1.496   4.635
 3182SOL     OW10444   3.183   0.443   0.648
 3182SOL    HW110445   3.192   0.361   0.592
 3182SOL    HW210446   3.138   0.420   0.734
 3183SOL     OW10447   4.614   4.457   2.345
 3183SOL    HW110448   4.660   4.424   2.427
 3183SOL    HW210449   4.602   4.381   2.281
 3184SOL     OW10450   0.806   2.386   3.986
 3184SOL    HW110451   0.798   2.374   4.085
 3184SOL    HW210452   0.850   2.305   3.946
 3185SOL     OW10453   6.999   6.862   5.684
 3185SOL    HW110454   6.924   6.893   5.742
 3185SOL    HW210455   0.007   6.767   5.708
 3186SOL     OW10456   1.439   1.068   6.598
 3186SOL    HW110457   1.431   1.052   6.696
 3186SOL    HW210458   1.386   1.000   6.548
 3187SOL     OW10459   3.882   5.969   2.568
 3187SOL    HW110460   3.969   6.014   2.589
 3187SOL    HW210461   3.822   5.974   2.648
 3188SOL     OW10462   2.207   4.866   5.424
 3188SOL    HW110463   2.149   4.794   5.461
 3188SOL    HW210464   2.276   4.827   5.363
 3189SOL     OW10465   2.482   1.312   0.053
 3189SOL    HW110466   2.386   1.285   0.046
 3189SOL    HW210467   2.520   1.323   6.977
 3190SOL     OW10468   6.337   6.223   4.998
 3190SOL    HW110469   6.304   6.241   4.905
 3190SOL    HW210470   6.274   6.262   5.064
 3191SOL     OW10471   4.397   5.566   2.220
 3191SOL    HW110472   4.342   5.501   2.168
 3191SOL    HW210473   4.484   5.522   2.245
 3192SOL     OW10474   6.507   2.319   1.227
 3192SOL    HW110475   6.467   2.299   1.138
 3192SOL    HW210476   6.584   2.257   1.244
 3193SOL     OW10477   4.314   1.287   4.920
 3193SOL    HW110478   4.327   1.306   4.823
 3193SOL    HW210479   4.341   1.193   4.940
 3194SOL     OW10480   1.257   1.063   5.679
 3194SOL    HW110481   1.332   1.025   5.732
 3194SOL    HW210482   1.279   1.157   5.653
 3195SOL     OW10483   0.233   1.096   1.917
 3195SOL    HW110484   0.134   1.097   1.902
 3195SOL    HW210485   0.267   1.003   1.904
 3196SOL     OW10486   6.479   0.759   5.334
 3196SOL    HW110487   6.558   0.699   5.331
 3196SOL    HW210488   6.504   0.848   5.296
 3197SOL     OW10489   2.190   6.998   6.348
 3197SOL    HW110490   2.246   6.996   6.430
 3197SOL    HW210491   2.094   6.989   6.373
 3198SOL     OW10492   6.672   2.597   3.820
 3198SOL    HW110493   6.610   2.675   3.806
 3198SOL    HW210494   6.766   2.630   3.826
 3199SOL     OW10495   5.528   4.801   2.775
 3199SOL    HW110496   5.463   4.877   2.785
 3199SOL    HW210497   5.614   4.836   2.737
 3200SOL     OW10498   6.161   3.055   3.901
 3200SOL    HW110499   6.107   2.980   3.863
 3200SOL    HW210500   6.121   3.143   3.873
 3201SOL     OW10501   5.977   4.583   2.673
 3201SOL    HW110502   5.988   4.609   2.768
 3201SOL    HW210503   6.061   4.601   2.623
 3202SOL     OW10504   1.248   5.010   0.308
 3202SOL    HW110505   1.334   4.961   0.290
 3202SOL    HW210506   1.195   5.015   0.224
 3203SOL     OW10507   4.261   0.015   1.415
 3203SOL    HW110508   4.199   6.987   1.480
 3203SOL    HW210509   4.228   0.107   1.394
 3204SOL     OW10510   2.661   1.140   3.549
 3204SOL    HW110511   2.620   1.143   3.640
 3204SOL    HW210512   2.688   1.047   3.526
 3205SOL     OW10513   5.664   3.686   5.835
 3205SOL    HW110514   5.598   3.753   5.803
 3205SOL    HW210515   5.618   3.617   5.891
 3206SOL     OW10516   2.581   2.848   1.635
 3206SOL    HW110517   2.631   2.767   1.666
 3206SOL    HW210518   2.494   2.854   1.683
 3207SOL     OW10519   0.592   0.644   5.951
 3207SOL    HW110520   0.648   0.615   6.029
 3207SOL    HW210521   0.496   0.622   5.968
 3208SOL     OW10522   6.158   5.727   5.341
 3208SOL    HW110523   6.188   5.637   5.310
 3208SOL    HW210524   6.148   5.789   5.263
 3209SOL     OW10525   4.631   5.106   5.698
 3209SOL    HW110526   4.541   5.113   5.740
 3209SOL    HW210527   4.700   5.142   5.761
 3210SOL     OW10528   0.209   5.278   1.803
 3210SOL    HW110529   0.193   5.376   1.795
 3210SOL    HW210530   0.155   5.229   1.733
 3211SOL     OW10531   1.728   5.233   0.694
 3211SOL    HW110532   1.699   5.325   0.720
 3211SOL    HW210533   1.751   5.231   0.597
 3212SOL     OW10534   3.367   0.157   2.551
 3212SOL    HW110535   3.328   0.237   2.504
 3212SOL    HW210536   3.298   0.119   2.613
 3213SOL     OW10537   2.253   0.339   6.450
 3213SOL    HW110538   2.216   0.428   6.425
 3213SOL    HW210539   2.253   0.280   6.369
 3214SOL     OW10540   3.764   0.252   3.279
 3214SOL    HW110541   3.667   0.234   3.260
 3214SOL    HW210542   3.784   0.348   3.262
 3215SOL     OW10543   1.045   3.311   0.406
 3215SOL    HW110544   1.028   3.365   0.323
 3215SOL    HW210545   1.110   3.360   0.464
 3216SOL     OW10546   5.111   4.621   1.365
 3216SOL    HW110547   5.062   4.542   1.330
 3216SOL    HW210548   5.082   4.703   1.315
 3217SOL     OW10549   0.065   5.229   2.736
 3217SOL    HW110550   0.100   5.237   2.829
 3217SOL    HW210551   0.126   5.277   2.673
 3218SOL     OW10552   6.450   2.249   3.147
 3218SOL    HW110553   6.489   2.282   3.233
 3218SOL    HW210554   6.395   2.167   3.164
 3219SOL     OW10555   6.632   0.818   4.869
 3219SOL    HW110556   6.538   0.826   4.900
 3219SOL    HW210557   6.650   0.888   4.799
 3220SOL     OW10558   0.079   5.988   6.322
 3220SOL    HW110559   0.164   5.972   6.272
 3220SOL    HW210560   0.038   6.074   6.291
 3221SOL     OW10561   3.896   0.894   2.419
 3221SOL    HW110562   3.951   0.818   2.386
 3221SOL    HW210563   3.802   0.863   2.434
 3222SOL     OW10564   2.965   1.514   3.328
 3222SOL    HW110565   3.048   1.531   3.276
 3222SOL    HW210566   2.978   1.435   3.388
 3223SOL     OW10567   1.819   6.580   0.401
 3223SOL    HW110568   1.831   6.518   0.478
 3223SOL    HW210569   1.801   6.672   0.435
 3224SOL     OW10570   4.790   2.947   5.009
 3224SOL    HW110571   4.818   3.019   4.945
 3224SOL    HW210572   4.867   2.885   5.024
 3225SOL     OW10573   4.131   1.226   3.938
 3225SOL    HW110574   4.058   1.160   3.956
 3225SOL    HW210575   4.100   1.318   3.963
 3226SOL     OW10576   1.444   6.998   1.903
 3226SOL    HW110577   1.365   0.017   1.953
 3226SOL    HW210578   1.416   6.972   1.810
 3227SOL     OW10579   3.864   2.429   6.645
 3227SOL    HW110580   3.954   2.405   6.683
 3227SOL    HW210581   3.876   2.460   6.551
 3228SOL     OW10582   0.641   3.865   0.647
 3228SOL    HW110583   0.683   3.775   0.647
 3228SOL    HW210584   0.709   3.933   0.676
 3229SOL     OW10585   2.952   0.861   5.828
 3229SOL    HW110586   2.896   0.881   5.748
 3229SOL    HW210587   2.968   0.762   5.834
 3230SOL     OW10588   2.699   5.364   5.861
 3230SOL    HW110589   2.599   5.370   5.857
 3230SOL    HW210590   2.730   5.385   5.954
 3231SOL     OW10591   3.210   1.247   2.653
 3231SOL    HW110592   3.276   1.318   2.629
 3231SOL    HW210593   3.230   1.213   2.745
 3232SOL     OW10594   4.113   6.119   4.161
 3232SOL    HW110595   4.190   6.076   4.208
 3232SOL    HW210596   4.129   6.218   4.156
 3233SOL     OW10597   0.085   2.411   6.941
 3233SOL    HW110598   0.097   2.458   0.013
 3233SOL    HW210599   7.011   2.434   6.902
 3234SOL     OW10600   1.604   3.022   0.307
 3234SOL    HW110601   1.564   3.068   0.387
 3234SOL    HW210602   1.675   3.080   0.268
 3235SOL     OW10603   6.216   5.608   2.024
 3235SOL    HW110604   6.177   5.552   2.096
 3235SOL    HW210605   6.223   5.555   1.939
 3236SOL     OW10606   2.660   3.709   0.516
 3236SOL    HW110607   2.743   3.730   0.567
 3236SOL    HW210608   2.642   3.611   0.520
 3237SOL     OW10609   6.570   1.629   4.289
 3237SOL    HW110610   6.503   1.563   4.324
 3237SOL    HW210611   6.641   1.645   4.358
 3238SOL     OW10612   6.194   5.319   0.399
 3238SOL    HW110613   6.191   5.413   0.367
 3238SOL    HW210614   6.276   5.304   0.454
 3239SOL     OW10615   0.301   0.058   3.592
 3239SOL    HW110616   0.231   7.005   3.613
 3239SOL    HW210617   0.354   0.079   3.674
 3240SOL     OW10618   0.197   0.552   6.338
 3240SOL    HW110619   0.122   0.507   6.386
 3240SOL    HW210620   0.236   0.488   6.271
 3241SOL     OW10621   4.791   1.597   6.635
 3241SOL    HW110622   4.885   1.622   6.658
 3241SOL    HW210623   4.733   1.678   6.637
 3242SOL     OW10624   5.256   4.182   5.503
 3242SOL    HW110625   5.166   4.218   5.480
 3242SOL    HW210626   5.316   4.185   5.422
 3243SOL     OW10627   3.692   5.645   6.436
 3243SOL    HW110628   3.753   5.637   6.357
 3243SOL    HW210629   3.677   5.554   6.475
 3244SOL     OW10630   5.781   6.244   6.908
 3244SOL    HW110631   5.740   6.198   6.829
 3244SOL    HW210632   5.877   6.220   6.915
 3245SOL     OW10633   4.514   2.158   4.188
 3245SOL    HW110634   4.552   2.080   4.138
 3245SOL    HW210635   4.587   2.224   4.206
 3246SOL     OW10636   0.183   0.040   2.063
 3246SOL    HW110637   0.102   0.094   2.086
 3246SOL    HW210638   0.260   0.102   2.045
 3247SOL     OW10639   0.193   4.345   2.516
 3247SOL    HW110640   0.169   4.293   2.434
 3247SOL    HW210641   0.135   4.315   2.592
 3248SOL     OW10642   5.396   2.627   2.882
 3248SOL    HW110643   5.360   2.538   2.856
 3248SOL    HW210644   5.349   2.660   2.964
 3249SOL     OW10645   3.925   3.144   3.343
 3249SOL    HW110646   3.885   3.118   3.431
 3249SOL    HW210647   4.022   3.166   3.356
 3250SOL     OW10648   4.861   6.186   3.117
 3250SOL    HW110649   4.871   6.125   3.038
 3250SOL    HW210650   4.771   6.174   3.158
 3251SOL     OW10651   2.513   0.792   4.662
 3251SOL    HW110652   2.530   0.702   4.623
 3251SOL    HW210653   2.472   0.781   4.753
 3252SOL     OW10654   2.600   1.377   3.418
 3252SOL    HW110655   2.648   1.465   3.411
 3252SOL    HW210656   2.663   1.308   3.454
 3253SOL     OW10657   5.482   3.480   1.107
 3253SOL    HW110658   5.491   3.387   1.073
 3253SOL    HW210659   5.558   3.501   1.169
 3254SOL     OW10660   5.114   0.331   6.944
 3254SOL    HW110661   5.168   0.414   6.950
 3254SOL    HW210662   5.047   0.339   6.869
 3255SOL     OW10663   5.910   5.637   0.880
 3255SOL    HW110664   5.878   5.555   0.833
 3255SOL    HW210665   6.010   5.633   0.889
 3256SOL     OW10666   4.542   2.193   1.169
 3256SOL    HW110667   4.457   2.187   1.117
 3256SOL    HW210668   4.573   2.101   1.192
 3257SOL     OW10669   2.990   2.058   1.944
 3257SOL    HW110670   3.077   2.030   1.985
 3257SOL    HW210671   2.964   2.148   1.980
 3258SOL     OW10672   3.407   5.596   4.118
 3258SOL    HW110673   3.416   5.548   4.030
 3258SOL    HW210674   3.446   5.539   4.191
 3259SOL     OW10675   5.519   4.691   4.090
 3259SOL    HW110676   5.572   4.765   4.048
 3259SOL    HW210677   5.442   4.668   4.031
 3260SOL     OW10678   1.598   4.158   2.277
 3260SOL    HW110679   1.518   4.207   2.309
 3260SOL    HW210680   1.578   4.060   2.272
 3261SOL     OW10681   5.574   0.846   2.606
 3261SOL    HW110682   5.560   0.807   2.516
 3261SOL    HW210683   5.672   0.855   2.624
 3262SOL     OW10684   4.284   1.955   2.385
 3262SOL    HW110685   4.299   1.898   2.465
 3262SOL    HW210686   4.270   1.897   2.304
 3263SOL     OW10687   3.043   0.951   3.291
 3263SOL    HW110688   2.994   0.962   3.205
 3263SOL    HW210689   3.142   0.951   3.274
 3264SOL     OW10690   2.021   4.869   0.506
 3264SOL    HW110691   2.092   4.894   0.441
 3264SOL    HW210692   1.952   4.813   0.461
 3265SOL     OW10693   5.958   6.392   5.636
 3265SOL    HW110694   5.937   6.458   5.709
 3265SOL    HW210695   5.951   6.299   5.672
 3266SOL     OW10696   2.674   4.145   0.377
 3266SOL    HW110697   2.642   4.222   0.432
 3266SOL    HW210698   2.699   4.177   0.286
 3267SOL     OW10699   4.244   0.889   1.621
 3267SOL    HW110700   4.308   0.914   1.694
 3267SOL    HW210701   4.155   0.868   1.660
 3268SOL     OW10702   1.084   4.738   1.577
 3268SOL    HW110703   1.071   4.837   1.581
 3268SOL    HW210704   1.129   4.707   1.661
 3269SOL     OW10705   0.359   5.461   2.079
 3269SOL    HW110706   0.286   5.414   2.028
 3269SOL    HW210707   0.339   5.559   2.083
 3270SOL     OW10708   0.959   3.024   6.080
 3270SOL    HW110709   0.995   3.055   5.992
 3270SOL    HW210710   1.001   3.076   6.153
 3271SOL     OW10711   6.632   3.498   1.809
 3271SOL    HW110712   6.539   3.535   1.815
 3271SOL    HW210713   6.672   3.523   1.722
 3272SOL     OW10714   3.924   5.537   6.821
 3272SOL    HW110715   3.945   5.622   6.869
 3272SOL    HW210716   4.002   5.475   6.826
 3273SOL     OW10717   4.648   4.127   6.055
 3273SOL    HW110718   4.555   4.128   6.020
 3273SOL    HW210719   4.708   4.178   5.993
 3274SOL     OW10720   6.139   0.745   6.882
 3274SOL    HW110721   6.229   0.787   6.869
 3274SOL    HW210722   6.150   0.647   6.895
 3275SOL     OW10723   4.759   0.791   0.838
 3275SOL    HW110724   4.794   0.780   0.931
 3275SOL    HW210725   4.835   0.797   0.774
 3276SOL     OW10726   4.593   6.319   6.882
 3276SOL    HW110727   4.508   6.367   6.859
 3276SOL    HW210728   4.578   6.221   6.875
 3277SOL     OW10729   3.095   1.626   1.418
 3277SOL    HW110730   2.998   1.647   1.403
 3277SOL    HW210731   3.151   1.700   1.381
 3278SOL     OW10732   0.093   0.842   6.121
 3278SOL    HW110733   0.057   0.866   6.211
 3278SOL    HW210734   0.063   0.750   6.097
 3279SOL     OW10735   4.450   6.487   1.023
 3279SOL    HW110736   4.489   6.485   0.931
 3279SOL    HW210737   4.489   6.564   1.074
 3280SOL     OW10738   5.497   3.786   4.139
 3280SOL    HW110739   5.529   3.723   4.068
 3280SOL    HW210740   5.412   3.830   4.108
 3281SOL     OW10741   6.864   4.579   1.339
 3281SOL    HW110742   6.955   4.549   1.368
 3281SOL    HW210743   6.808   4.599   1.419
 3282SOL     OW10744   0.514   3.719   5.026
 3282SOL    HW110745   0.610   3.698   5.041
 3282SOL    HW210746   0.500   3.748   4.931
 3283SOL     OW10747   3.631   1.525   1.493
 3283SOL    HW110748   3.579   1.610   1.491
 3283SOL    HW210749   3.620   1.481   1.582
 3284SOL     OW10750   1.364   5.399   4.477
 3284SOL    HW110751   1.300   5.476   4.478
 3284SOL    HW210752   1.453   5.430   4.509
 3285SOL     OW10753   5.717   1.951   4.685
 3285SOL    HW110754   5.790   1.903   4.636
 3285SOL    HW210755   5.629   1.922   4.650
 3286SOL     OW10756   3.567   2.033   1.579
 3286SOL    HW110757   3.625   2.035   1.661
 3286SOL    HW210758   3.515   2.118   1.573
 3287SOL     OW10759   0.898   0.357   6.489
 3287SOL    HW110760   0.994   0.330   6.495
 3287SOL    HW210761   0.841   0.284   6.527
 3288SOL     OW10762   1.843   6.555   0.099
 3288SOL    HW110763   1.866   6.471   0.149
 3288SOL    HW210764   1.746   6.575   0.110
 3289SOL     OW10765   3.359   1.727   0.027
 3289SOL    HW110766   3.288   1.798   0.019
 3289SOL    HW210767   3.435   1.748   6.980
 3290SOL     OW10768   6.675   5.551   0.279
 3290SOL    HW110769   6.757   5.601   0.303
 3290SOL    HW210770   6.622   5.531   0.361
 3291SOL     OW10771   3.916   0.557   6.327
 3291SOL    HW110772   3.949   0.645   6.292
 3291SOL    HW210773   3.993   0.504   6.361
 3292SOL     OW10774   0.376   1.349   0.831
 3292SOL    HW110775   0.468   1.387   0.816
 3292SOL    HW210776   0.312   1.393   0.768
 3293SOL     OW10777   6.799   4.380   2.555
 3293SOL    HW110778   6.865   4.316   2.594
 3293SOL    HW210779   6.758   4.434   2.629
 3294SOL     OW10780   5.322   2.622   5.689
 3294SOL    HW110781   5.222   2.624   5.688
 3294SOL    HW210782   5.354   2.602   5.781
 3295SOL     OW10783   1.813   2.995   0.561
 3295SOL    HW110784   1.838   2.941   0.480
 3295SOL    HW210785   1.737   2.951   0.608
 3296SOL     OW10786   6.424   6.974   5.290
 3296SOL    HW110787   6.485   6.981   5.211
 3296SOL    HW210788   6.329   6.987   5.260
 3297SOL     OW10789   3.446   1.633   5.315
 3297SOL    HW110790   3.379   1.707   5.317
 3297SOL    HW210791   3.538   1.671   5.324
 3298SOL     OW10792   6.230   3.738   5.173
 3298SOL    HW110793   6.297   3.670   5.145
 3298SOL    HW210794   6.259   3.829   5.143
 3299SOL     OW10795   4.198   5.393   3.467
 3299SOL    HW110796   4.169   5.458   3.398
 3299SOL    HW210797   4.137   5.398   3.546
 3300SOL     OW10798   2.186   0.276   5.528
 3300SOL    HW110799   2.115   0.331   5.483
 3300SOL    HW210800   2.144   0.195   5.570
 3301SOL     OW10801   1.243   3.110   2.962
 3301SOL    HW110802   1.342   3.117   2.947
 3301SOL    HW210803   1.211   3.020   2.930
 3302SOL     OW10804   0.988   4.624   6.563
 3302SOL    HW110805   1.080   4.592   6.541
 3302SOL    HW210806   0.964   4.597   6.656
 3303SOL     OW10807   3.573   2.890   0.414
 3303SOL    HW110808   3.643   2.962   0.412
 3303SOL    HW210809   3.485   2.930   0.442
 3304SOL     OW10810   1.931   4.139   6.326
 3304SOL    HW110811   1.884   4.087   6.397
 3304SOL    HW210812   1.883   4.225   6.311
 3305SOL     OW10813   3.471   0.786   1.050
 3305SOL    HW110814   3.391   0.830   1.090
 3305SOL    HW210815   3.442   0.718   0.983
 3306SOL     OW10816   1.409   5.971   6.691
 3306SOL    HW110817   1.446   5.916   6.615
 3306SOL    HW210818   1.359   6.049   6.654
 3307SOL     OW10819   1.113   0.132   6.103
 3307SOL    HW110820   1.209   0.156   6.093
 3307SOL    HW210821   1.085   0.072   6.028
 3308SOL     OW10822   4.022   4.584   1.399
 3308SOL    HW110823   3.959   4.563   1.473
 3308SOL    HW210824   4.111   4.540   1.418
 3309SOL     OW10825   4.852   4.582   4.097
 3309SOL    HW110826   4.842   4.646   4.172
 3309SOL    HW210827   4.925   4.516   4.119
 3310SOL     OW10828   1.013   4.465   4.678
 3310SOL    HW110829   0.971   4.552   4.649
 3310SOL    HW210830   1.063   4.480   4.763
 3311SOL     OW10831   3.680   3.579   1.208
 3311SOL    HW110832   3.736   3.497   1.195
 3311SOL    HW210833   3.672   3.599   1.305
 3312SOL     OW10834   4.136   3.116   5.911
 3312SOL    HW110835   4.166   3.130   6.005
 3312SOL    HW210836   4.216   3.100   5.852
 3313SOL     OW10837   1.060   0.480   3.476
 3313SOL    HW110838   1.076   0.540   3.554
 3313SOL    HW210839   0.978   0.425   3.493
 3314SOL     OW10840   2.154   0.415   3.110
 3314SOL    HW110841   2.222   0.461   3.169
 3314SOL    HW210842   2.162   0.450   3.017
 3315SOL     OW10843   0.905   4.405   5.186
 3315SOL    HW110844   0.909   4.312   5.150
 3315SOL    HW210845   0.997   4.440   5.198
 3316SOL     OW10846   3.427   0.588   6.178
 3316SOL    HW110847   3.343   0.628   6.142
 3316SOL    HW210848   3.474   0.538   6.105
 3317SOL     OW10849   5.624   2.288   2.484
 3317SOL    HW110850   5.722   2.296   2.504
 3317SOL    HW210851   5.612   2.266   2.387
 3318SOL     OW10852   2.689   1.815   6.647
 3318SOL    HW110853   2.615   1.828   6.581
 3318SOL    HW210854   2.682   1.885   6.718
 3319SOL     OW10855   0.153   0.139   2.595
 3319SOL    HW110856   0.119   0.048   2.574
 3319SOL    HW210857   0.219   0.167   2.525
 3320SOL     OW10858   6.377   0.248   0.004
 3320SOL    HW110859   6.317   0.174   0.035
 3320SOL    HW210860   6.347   0.334   0.045
 3321SOL     OW10861   5.529   1.667   0.850
 3321SOL    HW110862   5.564   1.755   0.883
 3321SOL    HW210863   5.442   1.682   0.802
 3322SOL     OW10864   6.776   3.288   0.870
 3322SOL    HW110865   6.770   3.189   0.885
 3322SOL    HW210866   6.845   3.327   0.931
 3323SOL     OW10867   2.968   1.432   1.640
 3323SOL    HW110868   2.870   1.450   1.643
 3323SOL    HW210869   3.016   1.514   1.609
 3324SOL     OW10870   4.493   5.633   5.820
 3324SOL    HW110871   4.469   5.560   5.756
 3324SOL    HW210872   4.574   5.681   5.786
 3325SOL     OW10873   0.402   3.280   6.695
 3325SOL    HW110874   0.400   3.218   6.773
 3325SOL    HW210875   0.495   3.314   6.681
 3326SOL     OW10876   4.934   0.998   2.687
 3326SOL    HW110877   4.941   1.093   2.717
 3326SOL    HW210878   4.839   0.967   2.694
 3327SOL     OW10879   2.211   5.927   2.221
 3327SOL    HW110880   2.253   5.903   2.308
 3327SOL    HW210881   2.225   6.024   2.202
 3328SOL     OW10882   3.913   1.774   1.367
 3328SOL    HW110883   3.907   1.731   1.457
 3328SOL    HW210884   3.989   1.839   1.366
 3329SOL     OW10885   5.938   6.932   5.446
 3329SOL    HW110886   6.013   6.907   5.507
 3329SOL    HW210887   5.877   6.854   5.434
 3330SOL     OW10888   0.001   3.558   2.107
 3330SOL    HW110889   6.956   3.504   2.165
 3330SOL    HW210890   0.085   3.579   2.156
 3331SOL     OW10891   2.018   2.416   1.335
 3331SOL    HW110892   2.075   2.495   1.312
 3331SOL    HW210893   2.014   2.406   1.435
 3332SOL     OW10894   5.494   5.570   0.236
 3332SOL    HW110895   5.421   5.592   0.300
 3332SOL    HW210896   5.579   5.553   0.287
 3333SOL     OW10897   4.257   5.083   6.606
 3333SOL    HW110898   4.180   5.068   6.544
 3333SOL    HW210899   4.245   5.169   6.655
 3334SOL     OW10900   3.255   3.545   1.303
 3334SOL    HW110901   3.165   3.515   1.271
 3334SOL    HW210902   3.296   3.472   1.357
 3335SOL     OW10903   4.714   5.188   5.447
 3335SOL    HW110904   4.805   5.188   5.406
 3335SOL    HW210905   4.723   5.176   5.546
 3336SOL     OW10906   3.094   5.356   5.735
 3336SOL    HW110907   3.070   5.259   5.725
 3336SOL    HW210908   3.022   5.412   5.693
 3337SOL     OW10909   3.755   2.416   1.498
 3337SOL    HW110910   3.677   2.396   1.438
 3337SOL    HW210911   3.727   2.482   1.568
 3338SOL     OW10912   5.967   3.674   1.282
 3338SOL    HW110913   5.893   3.659   1.217
 3338SOL    HW210914   6.029   3.744   1.246
 3339SOL     OW10915   6.752   6.476   6.629
 3339SOL    HW110916   6.749   6.510   6.535
 3339SOL    HW210917   6.847   6.468   6.659
 3340SOL     OW10918   3.410   6.827   2.065
 3340SOL    HW110919   3.331   6.768   2.052
 3340SOL    HW210920   3.422   6.884   1.983
 3341SOL     OW10921   0.402   6.878   3.090
 3341SOL    HW110922   0.458   6.800   3.065
 3341SOL    HW210923   0.458   6.961   3.089
 3342SOL     OW10924   2.079   0.037   4.082
 3342SOL    HW110925   2.161   0.019   4.027
 3342SOL    HW210926   2.094   0.008   4.176
 3343SOL     OW10927   4.732   3.373   0.694
 3343SOL    HW110928   4.710   3.306   0.622
 3343SOL    HW210929   4.824   3.408   0.680
 3344SOL     OW10930   5.248   3.560   4.998
 3344SOL    HW110931   5.345   3.536   4.998
 3344SOL    HW210932   5.197   3.491   5.050
 3345SOL     OW10933   2.953   3.323   6.054
 3345SOL    HW110934   2.903   3.358   5.975
 3345SOL    HW210935   3.020   3.255   6.023
 3346SOL     OW10936   0.570   1.163   2.069
 3346SOL    HW110937   0.537   1.204   2.154
 3346SOL    HW210938   0.668   1.144   2.077
 3347SOL     OW10939   7.008   4.370   3.165
 3347SOL    HW110940   7.003   4.272   3.185
 3347SOL    HW210941   0.036   4.383   3.075
 3348SOL     OW10942   3.622   3.131   3.624
 3348SOL    HW110943   3.569   3.046   3.625
 3348SOL    HW210944   3.719   3.109   3.632
 3349SOL     OW10945   6.739   4.735   4.252
 3349SOL    HW110946   6.640   4.747   4.250
 3349SOL    HW210947   6.776   4.746   4.159
 3350SOL     OW10948   1.972   1.345   6.761
 3350SOL    HW110949   1.886   1.368   6.715
 3350SOL    HW210950   1.953   1.315   6.854
 3351SOL     OW10951   5.604   0.293   1.205
 3351SOL    HW110952   5.594   0.323   1.110
 3351SOL    HW210953   5.633   0.370   1.261
 3352SOL     OW10954   0.489   3.799   0.116
 3352SOL    HW110955   0.433   3.866   0.165
 3352SOL    HW210956   0.473   3.808   0.018
 3353SOL     OW10957   1.756   0.052   0.607
 3353SOL    HW110958   1.766   0.116   0.684
 3353SOL    HW210959   1.673   7.013   0.620
 3354SOL     OW10960   6.539   2.393   3.370
 3354SOL    HW110961   6.599   2.419   3.446
 3354SOL    HW210962   6.524   2.472   3.311
 3355SOL     OW10963   0.505   2.073   0.564
 3355SOL    HW110964   0.487   2.110   0.655
 3355SOL    HW210965   0.513   1.974   0.569
 3356SOL     OW10966   2.809   2.952   0.148
 3356SOL    HW110967   2.899   2.996   0.147
 3356SOL    HW210968   2.764   2.971   0.235
 3357SOL     OW10969   2.188   4.673   1.330
 3357SOL    HW110970   2.202   4.764   1.370
 3357SOL    HW210971   2.099   4.669   1.286
 3358SOL     OW10972   4.964   6.354   2.191
 3358SOL    HW110973   4.926   6.334   2.101
 3358SOL    HW210974   4.907   6.421   2.238
 3359SOL     OW10975   0.112   0.435   3.115
 3359SOL    HW110976   0.173   0.499   3.068
 3359SOL    HW210977   0.066   0.377   3.049
 3360SOL     OW10978   0.299   0.810   0.262
 3360SOL    HW110979   0.285   0.906   0.238
 3360SOL    HW210980   0.397   0.793   0.276
 3361SOL     OW10981   6.438   5.928   3.070
 3361SOL    HW110982   6.459   5.878   3.154
 3361SOL    HW210983   6.501   5.899   2.998
 3362SOL     OW10984   2.895   1.395   4.926
 3362SOL    HW110985   2.847   1.332   4.865
 3362SOL    HW210986   2.883   1.489   4.893
 3363SOL     OW10987   0.461   0.957   6.193
 3363SOL    HW110988   0.492   0.948   6.288
 3363SOL    HW210989   0.523   1.016   6.143
 3364SOL     OW10990   1.152   5.988   5.734
 3364SOL    HW110991   1.185   5.943   5.650
 3364SOL    HW210992   1.105   6.073   5.710
 3365SOL     OW10993   0.843   1.831   4.594
 3365SOL    HW110994   0.748   1.806   4.578
 3365SOL    HW210995   0.885   1.861   4.509
 3366SOL     OW10996   5.492   1.250   4.690
 3366SOL    HW110997   5.476   1.259   4.788
 3366SOL    HW210998   5.467   1.158   4.660
 3367SOL     OW10999   1.944   2.345   1.614
 3367SOL    HW111000   1.892   2.428   1.633
 3367SOL    HW211001   2.013   2.332   1.686
 3368SOL     OW11002   6.673   5.250   5.989
 3368SOL    HW111003   6.696   5.284   5.897
 3368SOL    HW211004   6.724   5.301   6.057
 3369SOL     OW11005   3.431   1.306   0.145
 3369SOL    HW111006   3.399   1.222   0.189
 3369SOL    HW211007   3.515   1.336   0.190
 3370SOL     OW11008   6.558   0.084   4.683
 3370SOL    HW111009   6.520   7.007   4.690
 3370SOL    HW211010   6.555   0.114   4.588
 3371SOL     OW11011   1.507   4.141   1.983
 3371SOL    HW111012   1.594   4.190   1.978
 3371SOL    HW211013   1.517   4.063   2.046
 3372SOL     OW11014   0.306   1.499   2.182
 3372SOL    HW111015   0.387   1.510   2.239
 3372SOL    HW211016   0.323   1.428   2.113
 3373SOL     OW11017   6.083   1.068   4.115
 3373SOL    HW111018   6.051   0.987   4.065
 3373SOL    HW211019   6.164   1.045   4.168
 3374SOL     OW11020   3.854   5.911   5.068
 3374SOL    HW111021   3.934   5.877   5.019
 3374SOL    HW211022   3.862   6.010   5.080
 3375SOL     OW11023   4.363   4.833   4.924
 3375SOL    HW111024   4.278   4.885   4.938
 3375SOL    HW211025   4.350   4.739   4.957
 3376SOL     OW11026   4.116   3.574   2.890
 3376SOL    HW111027   4.208   3.586   2.852
 3376SOL    HW211028   4.104   3.478   2.916
 3377SOL     OW11029   1.267   6.419   4.872
 3377SOL    HW111030   1.217   6.503   4.890
 3377SOL    HW211031   1.332   6.402   4.946
 3378SOL     OW11032   6.804   1.037   0.716
 3378SOL    HW111033   6.777   1.007   0.807
 3378SOL    HW211034   6.852   0.962   0.669
 3379SOL     OW11035   0.497   4.358   6.207
 3379SOL    HW111036   0.425   4.299   6.171
 3379SOL    HW211037   0.553   4.393   6.131
 3380SOL     OW11038   6.955   5.222   5.791
 3380SOL    HW111039   6.874   5.281   5.785
 3380SOL    HW211040   7.015   5.256   5.863
 3381SOL     OW11041   2.387   2.031   0.553
 3381SOL    HW111042   2.436   2.091   0.490
 3381SOL    HW211043   2.449   1.998   0.624
 3382SOL     OW11044   0.019   1.514   0.176
 3382SOL    HW111045   0.116   1.494   0.183
 3382SOL    HW211046   6.997   1.469   0.094
 3383SOL     OW11047   6.018   5.168   2.662
 3383SOL    HW111048   5.928   5.128   2.679
 3383SOL    HW211049   6.086   5.094   2.654
 3384SOL     OW11050   3.017   3.079   4.902
 3384SOL    HW111051   3.015   3.135   4.985
 3384SOL    HW211052   2.938   3.018   4.902
 3385SOL     OW11053   6.963   4.097   3.928
 3385SOL    HW111054   6.953   4.197   3.924
 3385SOL    HW211055   0.039   4.074   3.959
 3386SOL     OW11056   6.001   3.905   5.285
 3386SOL    HW111057   6.068   3.834   5.304
 3386SOL    HW211058   5.945   3.921   5.366
 3387SOL     OW11059   2.548   2.305   2.536
 3387SOL    HW111060   2.549   2.380   2.603
 3387SOL    HW211061   2.620   2.321   2.469
 3388SOL     OW11062   5.679   3.155   0.770
 3388SOL    HW111063   5.655   3.118   0.680
 3388SOL    HW211064   5.747   3.227   0.759
 3389SOL     OW11065   4.812   4.349   4.372
 3389SOL    HW111066   4.751   4.400   4.433
 3389SOL    HW211067   4.764   4.325   4.288
 3390SOL     OW11068   5.101   3.398   6.053
 3390SOL    HW111069   5.131   3.474   5.996
 3390SOL    HW211070   5.057   3.329   5.996
 3391SOL     OW11071   3.838   1.714   4.716
 3391SOL    HW111072   3.822   1.762   4.630
 3391SOL    HW211073   3.818   1.775   4.792
 3392SOL     OW11074   2.478   0.777   4.181
 3392SOL    HW111075   2.437   0.839   4.248
 3392SOL    HW211076   2.406   0.722   4.139
 3393SOL     OW11077   6.335   6.667   0.749
 3393SOL    HW111078   6.255   6.704   0.703
 3393SOL    HW211079   6.379   6.599   0.691
 3394SOL     OW11080   5.509   3.260   0.946
 3394SOL    HW111081   5.494   3.169   0.984
 3394SOL    HW211082   5.547   3.251   0.854
 3395SOL     OW11083   6.133   3.636   3.928
 3395SOL    HW111084   6.161   3.648   4.023
 3395SOL    HW211085   6.038   3.667   3.917
 3396SOL     OW11086   0.373   3.040   3.591
 3396SOL    HW111087   0.331   3.130   3.580
 3396SOL    HW211088   0.422   3.015   3.508
 3397SOL     OW11089   3.701   1.173   5.522
 3397SOL    HW111090   3.797   1.197   5.505
 3397SOL    HW211091   3.690   1.074   5.511
 3398SOL     OW11092   0.619   0.150   4.201
 3398SOL    HW111093   0.545   0.085   4.182
 3398SOL    HW211094   0.684   0.149   4.125
 3399SOL     OW11095   4.400   4.695   4.178
 3399SOL    HW111096   4.434   4.707   4.084
 3399SOL    HW211097   4.301   4.709   4.180
 3400SOL     OW11098   4.278   1.620   6.135
 3400SOL    HW111099   4.367   1.575   6.140
 3400SOL    HW211100   4.237   1.625   6.226
 3401SOL     OW11101   6.864   4.205   0.541
 3401SOL    HW111102   6.957   4.173   0.558
 3401SOL    HW211103   6.815   4.214   0.627
 3402SOL     OW11104   5.388   5.786   1.374
 3402SOL    HW111105   5.364   5.699   1.416
 3402SOL    HW211106   5.417   5.770   1.279
 3403SOL     OW11107   3.951   0.509   5.144
 3403SOL    HW111108   3.978   0.540   5.052
 3403SOL    HW211109   4.033   0.499   5.201
 3404SOL     OW11110   4.258   1.726   0.404
 3404SOL    HW111111   4.297   1.795   0.342
 3404SOL    HW211112   4.185   1.769   0.458
 3405SOL     OW11113   6.276   3.680   5.450
 3405SOL    HW111114   6.235   3.676   5.359
 3405SOL    HW211115   6.371   3.709   5.443
 3406SOL     OW11116   1.953   4.473   2.018
 3406SOL    HW111117   1.948   4.472   2.118
 3406SOL    HW211118   2.048   4.488   1.989
 3407SOL     OW11119   1.620   5.507   1.690
 3407SOL    HW111120   1.679   5.584   1.666
 3407SOL    HW211121   1.580   5.522   1.781
 3408SOL     OW11122   4.848   4.028   3.988
 3408SOL    HW111123   4.873   3.974   3.908
 3408SOL    HW211124   4.897   3.994   4.068
 3409SOL     OW11125   4.105   6.869   5.595
 3409SOL    HW111126   4.091   6.844   5.499
 3409SOL    HW211127   4.199   6.847   5.622
 3410SOL     OW11128   6.244   6.169   6.728
 3410SOL    HW111129   6.184   6.247   6.712
 3410SOL    HW211130   6.270   6.128   6.640
 3411SOL     OW11131   6.282   2.459   2.272
 3411SOL    HW111132   6.205   2.515   2.303
 3411SOL    HW211133   6.324   2.413   2.350
 3412SOL     OW11134   4.256   3.082   0.155
 3412SOL    HW111135   4.290   3.135   0.078
 3412SOL    HW211136   4.156   3.086   0.156
 3413SOL     OW11137   4.098   1.341   2.732
 3413SOL    HW111138   4.026   1.287   2.690
 3413SOL    HW211139   4.096   1.434   2.694
 3414SOL     OW11140   3.029   1.722   5.066
 3414SOL    HW111141   3.000   1.709   4.972
 3414SOL    HW211142   3.109   1.667   5.085
 3415SOL     OW11143   1.306   4.593   4.457
 3415SOL    HW111144   1.358   4.583   4.542
 3415SOL    HW211145   1.244   4.516   4.447
 3416SOL     OW11146   0.068   4.566   6.014
 3416SOL    HW111147   0.155   4.589   6.059
 3416SOL    HW211148   0.086   4.506   5.936
 3417SOL     OW11149   6.324   5.898   2.607
 3417SOL    HW111150   6.370   5.976   2.564
 3417SOL    HW211151   6.261   5.931   2.678
 3418SOL     OW11152   4.607   1.147   4.181
 3418SOL    HW111153   4.665   1.170   4.103
 3418SOL    HW211154   4.534   1.215   4.188
 3419SOL     OW11155   3.597   5.378   6.224
 3419SOL    HW111156   3.547   5.367   6.138
 3419SOL    HW211157   3.534   5.405   6.297
 3420SOL     OW11158   4.515   1.867   3.566
 3420SOL    HW111159   4.595   1.920   3.597
 3420SOL    HW211160   4.537   1.821   3.480
 3421SOL     OW11161   6.318   0.711   5.613
 3421SOL    HW111162   6.381   0.735   5.539
 3421SOL    HW211163   6.243   0.656   5.575
 3422SOL     OW11164   3.580   0.378   1.126
 3422SOL    HW111165   3.613   0.309   1.061
 3422SOL    HW211166   3.614   0.357   1.217
 3423SOL     OW11167   2.132   0.768   0.418
 3423SOL    HW111168   2.135   0.673   0.451
 3423SOL    HW211169   2.043   0.786   0.377
 3424SOL     OW11170   3.656   0.895   2.711
 3424SOL    HW111171   3.603   0.966   2.665
 3424SOL    HW211172   3.754   0.911   2.696
 3425SOL     OW11173   5.022   4.237   2.336
 3425SOL    HW111174   4.935   4.248   2.289
 3425SOL    HW211175   5.009   4.175   2.414
 3426SOL     OW11176   3.395   3.506   0.303
 3426SOL    HW111177   3.314   3.535   0.354
 3426SOL    HW211178   3.368   3.443   0.231
 3427SOL     OW11179   6.527   6.636   0.062
 3427SOL    HW111180   6.579   6.666   6.998
 3427SOL    HW211181   6.562   6.548   0.093
 3428SOL     OW11182   3.811   5.099   1.628
 3428SOL    HW111183   3.757   5.085   1.545
 3428SOL    HW211184   3.762   5.160   1.690
 3429SOL     OW11185   0.645   2.137   6.707
 3429SOL    HW111186   0.655   2.237   6.711
 3429SOL    HW211187   0.672   2.098   6.794
 3430SOL     OW11188   1.092   6.477   6.310
 3430SOL    HW111189   1.082   6.576   6.300
 3430SOL    HW211190   1.029   6.444   6.380
 3431SOL     OW11191   2.466   6.646   0.990
 3431SOL    HW111192   2.514   6.732   0.972
 3431SOL    HW211193   2.509   6.573   0.938
 3432SOL     OW11194   2.730   2.304   5.306
 3432SOL    HW111195   2.787   2.255   5.239
 3432SOL    HW211196   2.718   2.398   5.275
 3433SOL     OW11197   2.205   0.754   6.804
 3433SOL    HW111198   2.262   0.676   6.832
 3433SOL    HW211199   2.218   0.829   6.868
 3434SOL     OW11200   3.246   2.744   0.738
 3434SOL    HW111201   3.344   2.738   0.719
 3434SOL    HW211202   3.206   2.652   0.740
 3435SOL     OW11203   7.002   2.052   1.530
 3435SOL    HW111204   6.913   2.095   1.542
 3435SOL    HW211205   0.051   2.089   1.597
 3436SOL     OW11206   4.543   7.003   5.457
 3436SOL    HW111207   4.621   6.946   5.430
 3436SOL    HW211208   4.482   7.015   5.378
 3437SOL     OW11209   4.444   0.957   6.252
 3437SOL    HW111210   4.416   0.927   6.344
 3437SOL    HW211211   4.515   1.027   6.260
 3438SOL     OW11212   1.666   2.921   6.315
 3438SOL    HW111213   1.662   2.901   6.217
 3438SOL    HW211214   1.577   2.955   6.346
 3439SOL     OW11215   2.682   6.880   5.246
 3439SOL    HW111216   2.673   6.917   5.339
 3439SOL    HW211217   2.761   6.920   5.201
 3440SOL     OW11218   4.871   3.489   1.770
 3440SOL    HW111219   4.879   3.533   1.680
 3440SOL    HW211220   4.885   3.391   1.760
 3441SOL     OW11221   4.886   0.324   2.912
 3441SOL    HW111222   4.909   0.328   3.009
 3441SOL    HW211223   4.892   0.416   2.873
 3442SOL     OW11224   2.349   4.364   3.238
 3442SOL    HW111225   2.327   4.362   3.141
 3442SOL    HW211226   2.429   4.423   3.253
 3443SOL     OW11227   5.419   1.074   3.208
 3443SOL    HW111228   5.343   1.116   3.258
 3443SOL    HW211229   5.450   1.138   3.137
 3444SOL     OW11230   5.052   5.478   6.835
 3444SOL    HW111231   4.968   5.430   6.860
 3444SOL    HW211232   5.041   5.519   6.744
 3445SOL     OW11233   6.233   4.143   4.110
 3445SOL    HW111234   6.294   4.171   4.184
 3445SOL    HW211235   6.138   4.149   4.142
 3446SOL     OW11236   5.386   0.309   2.801
 3446SOL    HW111237   5.450   0.233   2.815
 3446SOL    HW211238   5.307   0.296   2.861
 3447SOL     OW11239   5.316   5.038   0.108
 3447SOL    HW111240   5.373   4.987   0.171
 3447SOL    HW211241   5.326   5.001   0.016
 3448SOL     OW11242   3.784   6.592   1.164
 3448SOL    HW111243   3.695   6.547   1.158
 3448SOL    HW211244   3.856   6.522   1.164
 3449SOL     OW11245   6.027   6.359   2.869
 3449SOL    HW111246   6.002   6.317   2.782
 3449SOL    HW211247   6.102   6.423   2.854
 3450SOL     OW11248   0.760   2.520   0.846
 3450SOL    HW111249   0.833   2.455   0.868
 3450SOL    HW211250   0.770   2.602   0.903
 3451SOL     OW11251   0.730   5.566   3.223
 3451SOL    HW111252   0.753   5.656   3.260
 3451SOL    HW211253   0.797   5.499   3.253
 3452SOL     OW11254   6.350   1.107   0.220
 3452SOL    HW111255   6.413   1.062   0.157
 3452SOL    HW211256   6.402   1.155   0.290
 3453SOL     OW11257   5.713   5.712   5.634
 3453SOL    HW111258   5.783   5.669   5.690
 3453SOL    HW211259   5.737   5.703   5.537
 3454SOL     OW11260   2.120   0.555   6.394
 3454SOL    HW111261   2.066   0.579   6.474
 3454SOL    HW211262   2.181   0.631   6.371
 3455SOL     OW11263   0.942   2.699   4.767
 3455SOL    HW111264   0.960   2.674   4.862
 3455SOL    HW211265   1.027   2.696   4.714
 3456SOL     OW11266   6.080   5.736   1.763
 3456SOL    HW111267   6.001   5.706   1.709
 3456SOL    HW211268   6.059   5.730   1.860
 3457SOL     OW11269   2.532   5.212   4.300
 3457SOL    HW111270   2.603   5.282   4.303
 3457SOL    HW211271   2.569   5.124   4.330
 3458SOL     OW11272   5.512   6.678   6.820
 3458SOL    HW111273   5.571   6.621   6.763
 3458SOL    HW211274   5.462   6.619   6.884
 3459SOL     OW11275   0.701   3.939   3.191
 3459SOL    HW111276   0.786   3.988   3.174
 3459SOL    HW211277   0.625   3.986   3.146
 3460SOL     OW11278   3.364   3.205   0.559
 3460SOL    HW111279   3.331   3.299   0.568
 3460SOL    HW211280   3.312   3.159   0.487
 3461SOL     OW11281   4.198   5.292   4.439
 3461SOL    HW111282   4.219   5.210   4.385
 3461SOL    HW211283   4.159   5.362   4.379
 3462SOL     OW11284   6.018   3.524   2.138
 3462SOL    HW111285   6.017   3.458   2.063
 3462SOL    HW211286   6.110   3.527   2.178
 3463SOL     OW11287   0.772   3.456   2.773
 3463SOL    HW111288   0.753   3.396   2.850
 3463SOL    HW211289   0.848   3.419   2.719
 3464SOL     OW11290   5.574   2.312   6.958
 3464SOL    HW111291   5.673   2.306   6.961
 3464SOL    HW211292   5.535   2.283   0.030
 3465SOL     OW11293   1.864   3.115   2.196
 3465SOL    HW111294   1.932   3.172   2.149
 3465SOL    HW211295   1.789   3.173   2.228
 3466SOL     OW11296   5.773   5.307   5.792
 3466SOL    HW111297   5.700   5.368   5.824
 3466SOL    HW211298   5.747   5.212   5.810
 3467SOL     OW11299   2.775   1.570   0.837
 3467SOL    HW111300   2.745   1.479   0.865
 3467SOL    HW211301   2.710   1.606   0.770
 3468SOL     OW11302   5.699   2.041   2.849
 3468SOL    HW111303   5.702   2.086   2.938
 3468SOL    HW211304   5.619   2.074   2.798
 3469SOL     OW11305   5.255   0.991   6.032
 3469SOL    HW111306   5.161   0.967   6.056
 3469SOL    HW211307   5.268   1.090   6.044
 3470SOL     OW11308   0.693   2.988   2.049
 3470SOL    HW111309   0.624   2.988   1.977
 3470SOL    HW211310   0.654   3.028   2.132
 3471SOL     OW11311   4.499   4.448   3.811
 3471SOL    HW111312   4.473   4.394   3.731
 3471SOL    HW211313   4.535   4.387   3.882
 3472SOL     OW11314   3.724   1.324   2.021
 3472SOL    HW111315   3.748   1.239   1.975
 3472SOL    HW211316   3.808   1.367   2.056
 3473SOL     OW11317   6.600   3.317   3.665
 3473SOL    HW111318   6.550   3.381   3.723
 3473SOL    HW211319   6.699   3.332   3.677
 3474SOL     OW11320   0.717   4.333   3.678
 3474SOL    HW111321   0.642   4.397   3.659
 3474SOL    HW211322   0.747   4.344   3.773
 3475SOL     OW11323   1.125   4.795   4.334
 3475SOL    HW111324   1.051   4.788   4.401
 3475SOL    HW211325   1.205   4.744   4.366
 3476SOL     OW11326   0.967   1.547   3.042
 3476SOL    HW111327   0.873   1.566   3.067
 3476SOL    HW211328   1.003   1.474   3.099
 3477SOL     OW11329   0.725   3.957   0.377
 3477SOL    HW111330   0.657   3.922   0.442
 3477SOL    HW211331   0.814   3.918   0.397
 3478SOL     OW11332   2.992   6.563   6.903
 3478SOL    HW111333   2.893   6.577   6.903
 3478SOL    HW211334   3.037   6.646   6.934
 3479SOL     OW11335   0.913   1.105   3.599
 3479SOL    HW111336   0.877   1.046   3.528
 3479SOL    HW211337   0.873   1.080   3.687
 3480SOL     OW11338   1.113   6.360   5.893
 3480SOL    HW111339   1.210   6.353   5.917
 3480SOL    HW211340   1.074   6.442   5.934
 3481SOL     OW11341   5.104   0.479   0.480
 3481SOL    HW111342   5.033   0.411   0.464
 3481SOL    HW211343   5.084   0.561   0.427
 3482SOL     OW11344   5.996   1.651   2.657
 3482SOL    HW111345   6.053   1.578   2.695
 3482SOL    HW211346   6.051   1.705   2.593
 3483SOL     OW11347   5.674   2.179   3.062
 3483SOL    HW111348   5.591   2.215   3.105
 3483SOL    HW211349   5.744   2.164   3.132
 3484SOL     OW11350   1.521   3.043   6.686
 3484SOL    HW111351   1.613   3.010   6.666
 3484SOL    HW211352   1.468   3.048   6.602
 3485SOL     OW11353   1.249   2.046   5.109
 3485SOL    HW111354   1.233   2.144   5.095
 3485SOL    HW211355   1.271   2.030   5.206
 3486SOL     OW11356   1.854   0.096   3.464
 3486SOL    HW111357   1.900   0.045   3.392
 3486SOL    HW211358   1.835   0.036   3.542
 3487SOL     OW11359   6.432   2.520   6.970
 3487SOL    HW111360   6.449   2.452   6.899
 3487SOL    HW211361   6.333   2.530   6.983
 3488SOL     OW11362   5.537   0.927   4.959
 3488SOL    HW111363   5.449   0.893   4.924
 3488SOL    HW211364   5.547   0.901   5.055
 3489SOL     OW11365   3.611   0.594   1.718
 3489SOL    HW111366   3.604   0.690   1.748
 3489SOL    HW211367   3.581   0.586   1.623
 3490SOL     OW11368   3.290   4.441   1.666
 3490SOL    HW111369   3.202   4.437   1.619
 3490SOL    HW211370   3.304   4.533   1.703
 3491SOL     OW11371   3.861   3.146   6.147
 3491SOL    HW111372   3.852   3.205   6.067
 3491SOL    HW211373   3.771   3.135   6.190
 3492SOL     OW11374   6.022   4.007   1.467
 3492SOL    HW111375   6.066   3.934   1.414
 3492SOL    HW211376   6.068   4.016   1.555
 3493SOL     OW11377   5.969   3.842   4.101
 3493SOL    HW111378   6.019   3.802   4.178
 3493SOL    HW211379   6.024   3.914   4.059
 3494SOL     OW11380   2.881   0.739   1.844
 3494SOL    HW111381   2.873   0.836   1.826
 3494SOL    HW211382   2.853   0.687   1.763
 3495SOL     OW11383   0.595   3.658   2.680
 3495SOL    HW111384   0.653   3.584   2.713
 3495SOL    HW211385   0.618   3.679   2.585
 3496SOL     OW11386   6.010   5.052   1.123
 3496SOL    HW111387   5.916   5.051   1.155
 3496SOL    HW211388   6.024   5.131   1.062
 3497SOL     OW11389   2.575   1.319   4.140
 3497SOL    HW111390   2.547   1.226   4.115
 3497SOL    HW211391   2.495   1.371   4.170
 3498SOL     OW11392   2.939   1.379   2.575
 3498SOL    HW111393   3.035   1.361   2.596
 3498SOL    HW211394   2.897   1.296   2.537
 3499SOL     OW11395   6.452   4.732   4.275
 3499SOL    HW111396   6.426   4.824   4.243
 3499SOL    HW211397   6.410   4.663   4.216
 3500SOL     OW11398   1.732   3.046   3.372
 3500SOL    HW111399   1.649   3.009   3.415
 3500SOL    HW211400   1.792   3.084   3.443
 3501SOL     OW11401   3.151   6.747   6.702
 3501SOL    HW111402   3.147   6.779   6.796
 3501SOL    HW211403   3.241   6.766   6.663
 3502SOL     OW11404   6.688   2.981   1.195
 3502SOL    HW111405   6.664   3.076   1.216
 3502SOL    HW211406   6.748   2.945   1.266
 3503SOL     OW11407   0.035   6.598   5.186
 3503SOL    HW111408   0.030   6.590   5.285
 3503SOL    HW211409   0.121   6.642   5.161
 3504SOL     OW11410   1.928   0.913   2.160
 3504SOL    HW111411   1.928   0.961   2.249
 3504SOL    HW211412   2.010   0.938   2.109
 3505SOL     OW11413   5.791   5.076   4.807
 3505SOL    HW111414   5.734   5.034   4.736
 3505SOL    HW211415   5.739   5.146   4.855
 3506SOL     OW11416   5.701   4.766   4.992
 3506SOL    HW111417   5.703   4.820   4.908
 3506SOL    HW211418   5.792   4.763   5.033
 3507SOL     OW11419   2.920   0.571   0.388
 3507SOL    HW111420   2.992   0.567   0.319
 3507SOL    HW211421   2.905   0.480   0.427
 3508SOL     OW11422   2.876   1.905   6.382
 3508SOL    HW111423   2.908   2.000   6.376
 3508SOL    HW211424   2.800   1.892   6.318
 3509SOL     OW11425   5.889   0.031   6.823
 3509SOL    HW111426   5.818   0.079   6.875
 3509SOL    HW211427   5.847   6.972   6.770
 3510SOL     OW11428   1.420   0.621   1.819
 3510SOL    HW111429   1.496   0.568   1.854
 3510SOL    HW211430   1.372   0.666   1.895
 3511SOL     OW11431   2.132   4.076   1.835
 3511SOL    HW111432   2.119   4.174   1.819
 3511SOL    HW211433   2.141   4.059   1.933
 3512SOL     OW11434   0.487   3.800   0.878
 3512SOL    HW111435   0.549   3.821   0.803
 3512SOL    HW211436   0.539   3.787   0.963
 3513SOL     OW11437   5.777   2.088   1.049
 3513SOL    HW111438   5.708   2.037   0.996
 3513SOL    HW211439   5.782   2.051   1.142
 3514SOL     OW11440   6.265   1.030   1.837
 3514SOL    HW111441   6.202   0.960   1.803
 3514SOL    HW211442   6.358   0.993   1.838
 3515SOL     OW11443   5.349   6.407   3.241
 3515SOL    HW111444   5.250   6.396   3.252
 3515SOL    HW211445   5.367   6.483   3.179
 3516SOL     OW11446   4.439   6.240   1.490
 3516SOL    HW111447   4.501   6.176   1.535
 3516SOL    HW211448   4.364   6.190   1.447
 3517SOL     OW11449   0.464   1.574   1.104
 3517SOL    HW111450   0.522   1.493   1.103
 3517SOL    HW211451   0.420   1.583   1.194
 3518SOL     OW11452   5.029   2.820   5.020
 3518SOL    HW111453   5.107   2.846   4.963
 3518SOL    HW211454   5.059   2.755   5.089
 3519SOL     OW11455   2.047   0.551   5.759
 3519SOL    HW111456   2.081   0.458   5.753
 3519SOL    HW211457   2.124   0.615   5.764
 3520SOL     OW11458   3.230   6.500   0.288
 3520SOL    HW111459   3.209   6.477   0.193
 3520SOL    HW211460   3.322   6.538   0.294
 3521SOL     OW11461   4.245   3.042   0.625
 3521SOL    HW111462   4.306   3.121   0.639
 3521SOL    HW211463   4.274   2.967   0.684
 3522SOL     OW11464   6.741   5.864   6.485
 3522SOL    HW111465   6.646   5.835   6.488
 3522SOL    HW211466   6.761   5.905   6.397
 3523SOL     OW11467   1.909   4.784   5.132
 3523SOL    HW111468   1.847   4.832   5.194
 3523SOL    HW211469   1.856   4.736   5.063
 3524SOL     OW11470   5.093   2.058   1.830
 3524SOL    HW111471   5.118   2.146   1.869
 3524SOL    HW211472   5.143   1.985   1.877
 3525SOL     OW11473   6.482   3.363   4.109
 3525SOL    HW111474   6.559   3.410   4.066
 3525SOL    HW211475   6.405   3.359   4.046
 3526SOL     OW11476   1.893   6.674   3.619
 3526SOL    HW111477   1.801   6.639   3.632
 3526SOL    HW211478   1.951   6.601   3.583
 3527SOL     OW11479   5.391   3.768   6.405
 3527SOL    HW111480   5.404   3.681   6.358
 3527SOL    HW211481   5.407   3.843   6.341
 3528SOL     OW11482   2.392   6.480   4.846
 3528SOL    HW111483   2.333   6.558   4.867
 3528SOL    HW211484   2.465   6.474   4.914
 3529SOL     OW11485   4.126   6.409   0.722
 3529SOL    HW111486   4.034   6.427   0.686
 3529SOL    HW211487   4.175   6.348   0.660
 3530SOL     OW11488   6.811   5.303   1.391
 3530SOL    HW111489   6.895   5.336   1.348
 3530SOL    HW211490   6.783   5.368   1.462
 3531SOL     OW11491   5.211   2.418   0.583
 3531SOL    HW111492   5.257   2.406   0.495
 3531SOL    HW211493   5.123   2.463   0.568
 3532SOL     OW11494   2.857   0.702   1.562
 3532SOL    HW111495   2.906   0.656   1.488
 3532SOL    HW211496   2.776   0.747   1.526
 3533SOL     OW11497   0.355   1.032   2.572
 3533SOL    HW111498   0.276   1.092   2.565
 3533SOL    HW211499   0.326   0.941   2.602
 3534SOL     OW11500   0.465   2.131   0.820
 3534SOL    HW111501   0.502   2.070   0.891
 3534SOL    HW211502   0.516   2.217   0.821
 3535SOL     OW11503   2.261   5.412   6.006
 3535SOL    HW111504   2.191   5.477   6.035
 3535SOL    HW211505   2.261   5.333   6.067
 3536SOL     OW11506   3.357   1.948   3.017
 3536SOL    HW111507   3.399   2.012   2.953
 3536SOL    HW211508   3.260   1.968   3.026
 3537SOL     OW11509   2.401   5.256   2.719
 3537SOL    HW111510   2.408   5.242   2.818
 3537SOL    HW211511   2.454   5.337   2.693
 3538SOL     OW11512   2.277   5.923   5.522
 3538SOL    HW111513   2.308   5.873   5.440
 3538SOL    HW211514   2.179   5.909   5.534
 3539SOL     OW11515   3.740   3.695   4.867
 3539SOL    HW111516   3.801   3.664   4.939
 3539SOL    HW211517   3.722   3.793   4.879
 3540SOL     OW11518   2.114   2.469   4.576
 3540SOL    HW111519   2.017   2.481   4.596
 3540SOL    HW211520   2.149   2.389   4.624
 3541SOL     OW11521   2.768   2.746   5.843
 3541SOL    HW111522   2.706   2.691   5.898
 3541SOL    HW211523   2.847   2.774   5.898
 3542SOL     OW11524   1.216   5.332   3.229
 3542SOL    HW111525   1.308   5.346   3.192
 3542SOL    HW211526   1.207   5.237   3.258
 3543SOL     OW11527   0.039   2.567   4.667
 3543SOL    HW111528   0.134   2.567   4.636
 3543SOL    HW211529   0.005   2.473   4.668
 3544SOL     OW11530   1.348   4.152   6.142
 3544SOL    HW111531   1.285   4.142   6.219
 3544SOL    HW211532   1.334   4.076   6.078
 3545SOL     OW11533   3.798   6.039   6.628
 3545SOL    HW111534   3.699   6.047   6.613
 3545SOL    HW211535   3.825   5.943   6.624
 3546SOL     OW11536   0.874   4.587   3.520
 3546SOL    HW111537   0.884   4.627   3.611
 3546SOL    HW211538   0.783   4.608   3.484
 3547SOL     OW11539   5.205   4.400   3.731
 3547SOL    HW111540   5.288   4.449   3.701
 3547SOL    HW211541   5.137   4.466   3.761
 3548SOL     OW11542   5.598   1.284   5.886
 3548SOL    HW111543   5.639   1.282   5.794
 3548SOL    HW211544   5.554   1.373   5.900
 3549SOL     OW11545   6.639   4.389   4.702
 3549SOL    HW111546   6.594   4.410   4.615
 3549SOL    HW211547   6.698   4.465   4.728
 3550SOL     OW11548   5.382   2.631   2.355
 3550SOL    HW111549   5.341   2.721   2.344
 3550SOL    HW211550   5.378   2.603   2.451
 3551SOL     OW11551   4.075   6.175   2.726
 3551SOL    HW111552   4.017   6.145   2.802
 3551SOL    HW211553   4.158   6.120   2.723
 3552SOL     OW11554   5.053   6.147   1.966
 3552SOL    HW111555   5.141   6.196   1.965
 3552SOL    HW211556   5.036   6.113   2.058
 3553SOL     OW11557   5.717   2.972   1.291
 3553SOL    HW111558   5.752   2.911   1.219
 3553SOL    HW211559   5.639   3.023   1.256
 3554SOL     OW11560   3.846   3.370   1.206
 3554SOL    HW111561   3.933   3.396   1.249
 3554SOL    HW211562   3.860   3.290   1.148
 3555SOL     OW11563   1.314   3.471   3.318
 3555SOL    HW111564   1.220   3.506   3.319
 3555SOL    HW211565   1.371   3.532   3.263
 3556SOL     OW11566   4.129   0.674   4.727
 3556SOL    HW111567   4.187   0.608   4.775
 3556SOL    HW211568   4.170   0.765   4.733
 3557SOL     OW11569   0.555   0.284   3.299
 3557SOL    HW111570   0.479   0.298   3.363
 3557SOL    HW211571   0.635   0.336   3.330
 3558SOL     OW11572   0.817   5.999   1.034
 3558SOL    HW111573   0.743   6.034   1.091
 3558SOL    HW211574   0.805   6.032   0.940
 3559SOL     OW11575   0.327   6.623   4.749
 3559SOL    HW111576   0.377   6.698   4.706
 3559SOL    HW211577   0.322   6.546   4.686
 3560SOL     OW11578   1.450   5.149   0.734
 3560SOL    HW111579   1.421   5.075   0.674
 3560SOL    HW211580   1.548   5.164   0.724
 3561SOL     OW11581   3.949   4.972   5.519
 3561SOL    HW111582   4.011   4.897   5.543
 3561SOL    HW211583   3.860   4.935   5.494
 3562SOL     OW11584   4.816   1.148   4.371
 3562SOL    HW111585   4.802   1.197   4.457
 3562SOL    HW211586   4.730   1.145   4.320
 3563SOL     OW11587   5.299   0.676   1.478
 3563SOL    HW111588   5.378   0.691   1.419
 3563SOL    HW211589   5.245   0.600   1.442
 3564SOL     OW11590   1.269   4.901   3.897
 3564SOL    HW111591   1.203   4.860   3.960
 3564SOL    HW211592   1.246   4.998   3.883
 3565SOL     OW11593   3.970   6.716   4.659
 3565SOL    HW111594   4.009   6.624   4.657
 3565SOL    HW211595   3.981   6.760   4.570
 3566SOL     OW11596   6.898   3.082   6.505
 3566SOL    HW111597   6.984   3.032   6.515
 3566SOL    HW211598   6.892   3.153   6.575
 3567SOL     OW11599   1.065   2.637   0.153
 3567SOL    HW111600   1.163   2.631   0.135
 3567SOL    HW211601   1.019   2.556   0.117
 3568SOL     OW11602   5.073   5.382   2.923
 3568SOL    HW111603   5.051   5.397   3.020
 3568SOL    HW211604   5.036   5.294   2.895
 3569SOL     OW11605   2.664   2.660   5.487
 3569SOL    HW111606   2.587   2.717   5.514
 3569SOL    HW211607   2.688   2.599   5.562
 3570SOL     OW11608   5.336   0.340   5.037
 3570SOL    HW111609   5.353   0.396   4.956
 3570SOL    HW211610   5.419   0.289   5.060
 3571SOL     OW11611   2.158   1.110   5.241
 3571SOL    HW111612   2.062   1.081   5.241
 3571SOL    HW211613   2.171   1.183   5.174
 3572SOL     OW11614   5.497   3.669   2.606
 3572SOL    HW111615   5.464   3.620   2.687
 3572SOL    HW211616   5.493   3.609   2.526
 3573SOL     OW11617   6.639   4.563   2.437
 3573SOL    HW111618   6.704   4.496   2.472
 3573SOL    HW211619   6.619   4.544   2.341
 3574SOL     OW11620   1.648   3.660   6.993
 3574SOL    HW111621   1.636   3.630   6.898
 3574SOL    HW211622   1.585   3.610   0.037
 3575SOL     OW11623   5.149   5.651   1.749
 3575SOL    HW111624   5.087   5.705   1.806
 3575SOL    HW211625   5.204   5.591   1.807
 3576SOL     OW11626   0.085   2.174   6.808
 3576SOL    HW111627   0.072   2.225   6.723
 3576SOL    HW211628   0.092   2.238   6.884
 3577SOL     OW11629   2.592   2.914   5.700
 3577SOL    HW111630   2.502   2.872   5.692
 3577SOL    HW211631   2.656   2.849   5.741
 3578SOL     OW11632   4.330   2.777   1.343
 3578SOL    HW111633   4.284   2.848   1.395
 3578SOL    HW211634   4.395   2.819   1.280
 3579SOL     OW11635   0.093   2.984   3.035
 3579SOL    HW111636   0.001   2.950   3.015
 3579SOL    HW211637   0.110   3.068   2.983
 3580SOL     OW11638   6.610   3.561   1.110
 3580SOL    HW111639   6.552   3.539   1.031
 3580SOL    HW211640   6.700   3.591   1.078
 3581SOL     OW11641   0.545   6.254   2.824
 3581SOL    HW111642   0.624   6.213   2.779
 3581SOL    HW211643   0.504   6.323   2.764
 3582SOL     OW11644   2.981   5.113   5.670
 3582SOL    HW111645   2.894   5.157   5.647
 3582SOL    HW211646   2.966   5.046   5.742
 3583SOL     OW11647   1.422   4.287   0.129
 3583SOL    HW111648   1.325   4.281   0.155
 3583SOL    HW211649   1.479   4.268   0.209
 3584SOL     OW11650   5.435   5.081   5.662
 3584SOL    HW111651   5.402   4.991   5.690
 3584SOL    HW211652   5.534   5.083   5.668
 3585SOL     OW11653   3.259   1.860   4.714
 3585SOL    HW111654   3.161   1.880   4.710
 3585SOL    HW211655   3.307   1.908   4.641
 3586SOL     OW11656   6.847   2.632   4.945
 3586SOL    HW111657   6.889   2.546   4.914
 3586SOL    HW211658   6.762   2.648   4.894
 3587SOL     OW11659   3.490   5.152   6.557
 3587SOL    HW111660   3.553   5.126   6.631
 3587SOL    HW211661   3.465   5.249   6.567
 3588SOL     OW11662   6.912   4.009   4.311
 3588SOL    HW111663   6.907   3.930   4.250
 3588SOL    HW211664   6.839   4.073   4.289
 3589SOL     OW11665   6.069   6.631   6.321
 3589SOL    HW111666   6.083   6.620   6.223
 3589SOL    HW211667   6.024   6.549   6.358
 3590SOL     OW11668   0.188   3.529   1.145
 3590SOL    HW111669   0.163   3.548   1.050
 3590SOL    HW211670   0.217   3.613   1.190
 3591SOL     OW11671   5.732   2.888   0.800
 3591SOL    HW111672   5.756   2.984   0.810
 3591SOL    HW211673   5.635   2.875   0.820
 3592SOL     OW11674   0.357   0.184   2.392
 3592SOL    HW111675   0.437   0.185   2.454
 3592SOL    HW211676   0.353   0.096   2.346
 3593SOL     OW11677   0.529   4.532   5.992
 3593SOL    HW111678   0.613   4.580   6.019
 3593SOL    HW211679   0.452   4.567   6.047
 3594SOL     OW11680   4.862   0.316   4.783
 3594SOL    HW111681   4.856   0.378   4.862
 3594SOL    HW211682   4.776   0.268   4.772
 3595SOL     OW11683   6.368   6.278   0.127
 3595SOL    HW111684   6.392   6.223   0.047
 3595SOL    HW211685   6.272   6.306   0.121
 3596SOL     OW11686   4.349   2.201   3.383
 3596SOL    HW111687   4.344   2.186   3.481
 3596SOL    HW211688   4.282   2.143   3.336
 3597SOL     OW11689   1.977   3.455   5.557
 3597SOL    HW111690   2.020   3.541   5.584
 3597SOL    HW211691   1.906   3.472   5.490
 3598SOL     OW11692   2.031   6.152   5.610
 3598SOL    HW111693   2.068   6.122   5.522
 3598SOL    HW211694   2.005   6.072   5.664
 3599SOL     OW11695   5.000   1.894   6.432
 3599SOL    HW111696   4.907   1.920   6.459
 3599SOL    HW211697   5.022   1.803   6.469
 3600SOL     OW11698   1.595   3.283   1.333
 3600SOL    HW111699   1.595   3.208   1.267
 3600SOL    HW211700   1.554   3.364   1.292
 3601SOL     OW11701   5.353   2.081   5.525
 3601SOL    HW111702   5.423   2.067   5.595
 3601SOL    HW211703   5.311   1.994   5.502
 3602SOL     OW11704   2.059   3.117   0.790
 3602SOL    HW111705   2.053   3.022   0.757
 3602SOL    HW211706   2.009   3.177   0.728
 3603SOL     OW11707   3.550   0.949   6.023
 3603SOL    HW111708   3.490   1.022   5.990
 3603SOL    HW211709   3.547   0.872   5.959
 3604SOL     OW11710   5.986   0.769   3.604
 3604SOL    HW111711   6.062   0.785   3.667
 3604SOL    HW211712   6.014   0.703   3.534
 3605SOL     OW11713   0.813   5.173   4.105
 3605SOL    HW111714   0.736   5.229   4.075
 3605SOL    HW211715   0.782   5.109   4.175
 3606SOL     OW11716   1.682   6.217   2.240
 3606SOL    HW111717   1.730   6.132   2.218
 3606SOL    HW211718   1.649   6.260   2.156
 3607SOL     OW11719   4.831   2.617   2.563
 3607SOL    HW111720   4.780   2.651   2.484
 3607SOL    HW211721   4.888   2.540   2.535
 3608SOL     OW11722   5.337   1.763   4.174
 3608SOL    HW111723   5.254   1.817   4.161
 3608SOL    HW211724   5.314   1.667   4.190
 3609SOL     OW11725   2.048   6.259   4.256
 3609SOL    HW111726   2.062   6.273   4.353
 3609SOL    HW211727   2.090   6.334   4.204
 3610SOL     OW11728   1.908   0.361   5.547
 3610SOL    HW111729   1.878   0.443   5.596
 3610SOL    HW211730   1.864   0.358   5.457
 3611SOL     OW11731   4.576   4.519   4.297
 3611SOL    HW111732   4.494   4.568   4.267
 3611SOL    HW211733   4.641   4.585   4.335
 3612SOL     OW11734   6.428   1.657   6.604
 3612SOL    HW111735   6.432   1.568   6.649
 3612SOL    HW211736   6.506   1.667   6.542
 3613SOL     OW11737   4.348   5.353   2.034
 3613SOL    HW111738   4.296   5.372   1.951
 3613SOL    HW211739   4.425   5.293   2.013
 3614SOL     OW11740   3.252   3.372   6.815
 3614SOL    HW111741   3.330   3.433   6.802
 3614SOL    HW211742   3.189   3.412   6.882
 3615SOL     OW11743   6.207   3.095   5.932
 3615SOL    HW111744   6.275   3.030   5.964
 3615SOL    HW211745   6.207   3.097   5.832
 3616SOL     OW11746   1.719   1.391   6.260
 3616SOL    HW111747   1.704   1.375   6.162
 3616SOL    HW211748   1.811   1.362   6.285
 3617SOL     OW11749   4.662   6.918   5.734
 3617SOL    HW111750   4.645   6.975   5.814
 3617SOL    HW211751   4.593   6.936   5.665
 3618SOL     OW11752   2.177   3.623   5.253
 3618SOL    HW111753   2.096   3.580   5.212
 3618SOL    HW211754   2.250   3.555   5.262
 3619SOL     OW11755   5.292   3.339   0.717
 3619SOL    HW111756   5.272   3.381   0.805
 3619SOL    HW211757   5.252   3.247   0.714
 3620SOL     OW11758   6.257   5.861   4.398
 3620SOL    HW111759   6.343   5.889   4.440
 3620SOL    HW211760   6.192   5.835   4.469
 3621SOL     OW11761   3.549   2.892   4.116
 3621SOL    HW111762   3.465   2.946   4.114
 3621SOL    HW211763   3.571   2.867   4.210
 3622SOL     OW11764   0.925   0.536   1.263
 3622SOL    HW111765   0.968   0.527   1.173
 3622SOL    HW211766   0.841   0.589   1.254
 3623SOL     OW11767   0.788   6.038   5.050
 3623SOL    HW111768   0.697   6.065   5.081
 3623SOL    HW211769   0.789   5.940   5.032
 3624SOL     OW11770   1.798   6.938   1.564
 3624SOL    HW111771   1.897   6.954   1.564
 3624SOL    HW211772   1.780   6.842   1.543
 3625SOL     OW11773   0.086   3.030   6.918
 3625SOL    HW111774   0.072   3.039   0.002
 3625SOL    HW211775   0.061   3.115   6.873
 3626SOL     OW11776   0.523   3.649   4.564
 3626SOL    HW111777   0.568   3.738   4.556
 3626SOL    HW211778   0.586   3.577   4.534
 3627SOL     OW11779   5.080   3.029   1.635
 3627SOL    HW111780   5.026   3.014   1.552
 3627SOL    HW211781   5.089   2.942   1.684
 3628SOL     OW11782   1.502   1.337   1.960
 3628SOL    HW111783   1.538   1.368   1.872
 3628SOL    HW211784   1.490   1.415   2.021
 3629SOL     OW11785   1.243   0.197   3.673
 3629SOL    HW111786   1.334   0.181   3.712
 3629SOL    HW211787   1.248   0.275   3.610
 3630SOL     OW11788   6.884   2.839   2.944
 3630SOL    HW111789   6.872   2.740   2.947
 3630SOL    HW211790   6.865   2.877   3.035
 3631SOL     OW11791   2.007   6.771   3.854
 3631SOL    HW111792   1.957   6.726   3.780
 3631SOL    HW211793   1.943   6.819   3.914
 3632SOL     OW11794   4.370   3.831   1.109
 3632SOL    HW111795   4.365   3.809   1.011
 3632SOL    HW211796   4.458   3.801   1.145
 3633SOL     OW11797   3.482   2.644   5.450
 3633SOL    HW111798   3.562   2.627   5.393
 3633SOL    HW211799   3.400   2.646   5.392
 3634SOL     OW11800   2.491   6.106   6.168
 3634SOL    HW111801   2.425   6.101   6.093
 3634SOL    HW211802   2.493   6.019   6.216
 3635SOL     OW11803   2.501   1.376   1.310
 3635SOL    HW111804   2.403   1.352   1.310
 3635SOL    HW211805   2.512   1.471   1.284
 3636SOL     OW11806   0.014   5.253   0.859
 3636SOL    HW111807   6.951   5.193   0.877
 3636SOL    HW211808   0.083   5.238   0.929
 3637SOL     OW11809   1.168   2.867   0.266
 3637SOL    HW111810   1.130   2.776   0.249
 3637SOL    HW211811   1.097   2.926   0.305
 3638SOL     OW11812   6.888   4.237   2.941
 3638SOL    HW111813   6.840   4.170   2.997
 3638SOL    HW211814   6.855   4.329   2.962
 3639SOL     OW11815   3.805   4.129   5.184
 3639SOL    HW111816   3.733   4.123   5.253
 3639SOL    HW211817   3.797   4.217   5.135
 3640SOL     OW11818   5.429   2.557   0.685
 3640SOL    HW111819   5.362   2.489   0.656
 3640SOL    HW211820   5.416   2.578   0.781
 3641SOL     OW11821   5.522   4.268   1.217
 3641SOL    HW111822   5.434   4.221   1.233
 3641SOL    HW211823   5.597   4.207   1.244
 3642SOL     OW11824   5.502   2.392   6.374
 3642SOL    HW111825   5.412   2.421   6.342
 3642SOL    HW211826   5.568   2.467   6.360
 3643SOL     OW11827   3.852   6.764   6.298
 3643SOL    HW111828   3.909   6.846   6.304
 3643SOL    HW211829   3.887   6.704   6.226
 3644SOL     OW11830   3.169   0.957   1.605
 3644SOL    HW111831   3.233   1.033   1.598
 3644SOL    HW211832   3.217   0.876   1.640
 3645SOL     OW11833   1.735   3.625   4.029
 3645SOL    HW111834   1.801   3.575   4.085
 3645SOL    HW211835   1.690   3.694   4.085
 3646SOL     OW11836   3.035   4.865   4.725
 3646SOL    HW111837   3.102   4.939   4.730
 3646SOL    HW211838   3.070   4.793   4.664
 3647SOL     OW11839   2.452   6.994   0.027
 3647SOL    HW111840   2.464   0.041   0.104
 3647SOL    HW211841   2.501   0.016   6.962
 3648SOL     OW11842   5.074   6.186   3.280
 3648SOL    HW111843   5.092   6.276   3.320
 3648SOL    HW211844   4.988   6.189   3.228
 3649SOL     OW11845   5.556   3.847   6.863
 3649SOL    HW111846   5.562   3.945   6.844
 3649SOL    HW211847   5.462   3.823   6.884
 3650SOL     OW11848   5.260   3.933   0.602
 3650SOL    HW111849   5.318   4.006   0.639
 3650SOL    HW211850   5.300   3.844   0.623
 3651SOL     OW11851   2.393   2.005   5.715
 3651SOL    HW111852   2.337   2.082   5.684
 3651SOL    HW211853   2.340   1.921   5.709
 3652SOL     OW11854   5.365   1.019   2.439
 3652SOL    HW111855   5.284   0.960   2.437
 3652SOL    HW211856   5.410   1.011   2.528
 3653SOL     OW11857   0.926   0.577   2.517
 3653SOL    HW111858   0.864   0.656   2.512
 3653SOL    HW211859   0.937   0.549   2.612
 3654SOL     OW11860   4.492   5.952   1.174
 3654SOL    HW111861   4.500   5.903   1.087
 3654SOL    HW211862   4.459   6.045   1.157
 3655SOL     OW11863   3.008   0.960   3.977
 3655SOL    HW111864   3.066   1.038   3.998
 3655SOL    HW211865   2.914   0.991   3.962
 3656SOL     OW11866   1.021   5.643   2.018
 3656SOL    HW111867   1.099   5.588   1.989
 3656SOL    HW211868   0.937   5.592   2.005
 3657SOL     OW11869   4.593   5.953   5.513
 3657SOL    HW111870   4.642   6.024   5.462
 3657SOL    HW211871   4.495   5.964   5.496
 3658SOL     OW11872   1.615   5.468   6.643
 3658SOL    HW111873   1.621   5.368   6.641
 3658SOL    HW211874   1.696   5.507   6.599
 3659SOL     OW11875   0.281   1.417   6.516
 3659SOL    HW111876   0.288   1.318   6.508
 3659SOL    HW211877   0.199   1.441   6.567
 3660SOL     OW11878   5.782   6.189   6.050
 3660SOL    HW111879   5.845   6.113   6.035
 3660SOL    HW211880   5.710   6.186   5.981
 3661SOL     OW11881   6.893   0.525   4.087
 3661SOL    HW111882   6.912   0.567   4.176
 3661SOL    HW211883   6.862   0.595   4.023
 3662SOL     OW11884   3.969   0.707   5.508
 3662SOL    HW111885   3.950   0.647   5.429
 3662SOL    HW211886   4.034   0.662   5.569
 3663SOL     OW11887   2.154   2.526   6.810
 3663SOL    HW111888   2.182   2.430   6.813
 3663SOL    HW211889   2.071   2.537   6.866
 3664SOL     OW11890   4.741   1.592   2.499
 3664SOL    HW111891   4.664   1.652   2.476
 3664SOL    HW211892   4.821   1.649   2.522
 3665SOL     OW11893   0.670   6.261   5.337
 3665SOL    HW111894   0.687   6.175   5.384
 3665SOL    HW211895   0.645   6.244   5.242
 3666SOL     OW11896   1.647   2.591   3.549
 3666SOL    HW111897   1.608   2.638   3.470
 3666SOL    HW211898   1.733   2.635   3.575
 3667SOL     OW11899   1.245   1.432   2.832
 3667SOL    HW111900   1.321   1.387   2.878
 3667SOL    HW211901   1.275   1.520   2.796
 3668SOL     OW11902   1.212   0.299   1.905
 3668SOL    HW111903   1.310   0.300   1.921
 3668SOL    HW211904   1.194   0.311   1.807
 3669SOL     OW11905   6.354   2.011   4.574
 3669SOL    HW111906   6.413   1.953   4.518
 3669SOL    HW211907   6.335   1.966   4.661
 3670SOL     OW11908   3.318   5.114   1.721
 3670SOL    HW111909   3.381   5.171   1.668
 3670SOL    HW211910   3.307   5.152   1.812
 3671SOL     OW11911   6.218   1.003   3.321
 3671SOL    HW111912   6.129   0.974   3.285
 3671SOL    HW211913   6.218   1.102   3.332
 3672SOL     OW11914   5.355   1.393   2.639
 3672SOL    HW111915   5.343   1.463   2.709
 3672SOL    HW211916   5.321   1.305   2.673
 3673SOL     OW11917   4.988   5.992   0.317
 3673SOL    HW111918   5.082   5.968   0.342
 3673SOL    HW211919   4.961   6.075   0.366
 3674SOL     OW11920   1.468   5.998   6.082
 3674SOL    HW111921   1.408   5.943   6.023
 3674SOL    HW211922   1.432   5.998   6.175
 3675SOL     OW11923   0.455   2.158   3.826
 3675SOL    HW111924   0.530   2.121   3.772
 3675SOL    HW211925   0.433   2.250   3.794
 3676SOL     OW11926   4.994   3.100   3.309
 3676SOL    HW111927   4.914   3.093   3.249
 3676SOL    HW211928   4.971   3.155   3.389
 3677SOL     OW11929   2.127   0.855   4.323
 3677SOL    HW111930   2.140   0.759   4.347
 3677SOL    HW211931   2.186   0.912   4.381
 3678SOL     OW11932   1.540   6.951   3.638
 3678SOL    HW111933   1.530   0.024   3.684
 3678SOL    HW211934   1.511   6.960   3.543
 3679SOL     OW11935   5.912   0.320   3.052
 3679SOL    HW111936   6.004   0.334   3.016
 3679SOL    HW211937   5.856   0.273   2.984
 3680SOL     OW11938   4.471   1.375   3.168
 3680SOL    HW111939   4.537   1.301   3.153
 3680SOL    HW211940   4.384   1.336   3.199
 3681SOL     OW11941   1.216   0.824   5.468
 3681SOL    HW111942   1.125   0.865   5.463
 3681SOL    HW211943   1.220   0.761   5.546
 3682SOL     OW11944   5.285   2.259   1.347
 3682SOL    HW111945   5.354   2.309   1.294
 3682SOL    HW211946   5.283   2.164   1.317
 3683SOL     OW11947   0.027   0.433   4.520
 3683SOL    HW111948   0.009   0.483   4.435
 3683SOL    HW211949   0.090   0.486   4.577
 3684SOL     OW11950   2.101   6.673   6.047
 3684SOL    HW111951   2.054   6.756   6.075
 3684SOL    HW211952   2.199   6.683   6.062
 3685SOL     OW11953   2.461   5.880   5.226
 3685SOL    HW111954   2.487   5.804   5.286
 3685SOL    HW211955   2.484   5.858   5.132
 3686SOL     OW11956   6.856   3.624   3.650
 3686SOL    HW111957   6.823   3.670   3.733
 3686SOL    HW211958   6.897   3.691   3.589
 3687SOL     OW11959   4.733   6.567   3.238
 3687SOL    HW111960   4.805   6.597   3.176
 3687SOL    HW211961   4.672   6.504   3.191
 3688SOL     OW11962   6.121   3.292   0.001
 3688SOL    HW111963   6.169   3.212   6.980
 3688SOL    HW211964   6.130   3.295   0.100
 3689SOL     OW11965   2.245   1.572   5.375
 3689SOL    HW111966   2.302   1.531   5.304
 3689SOL    HW211967   2.164   1.612   5.334
 3690SOL     OW11968   4.992   5.372   1.032
 3690SOL    HW111969   5.066   5.433   1.060
 3690SOL    HW211970   5.019   5.322   0.949
 3691SOL     OW11971   3.249   1.951   5.983
 3691SOL    HW111972   3.158   1.930   6.021
 3691SOL    HW211973   3.253   1.920   5.888
 3692SOL     OW11974   6.923   4.084   6.113
 3692SOL    HW111975   6.958   4.178   6.110
 3692SOL    HW211976   6.961   4.037   6.193
 3693SOL     OW11977   0.497   1.578   2.796
 3693SOL    HW111978   0.449   1.650   2.846
 3693SOL    HW211979   0.596   1.593   2.803
 3694SOL     OW11980   1.005   0.956   1.457
 3694SOL    HW111981   0.983   0.890   1.386
 3694SOL    HW211982   0.936   1.029   1.458
 3695SOL     OW11983   6.926   2.659   2.604
 3695SOL    HW111984   0.008   2.682   2.600
 3695SOL    HW211985   6.896   2.658   2.699
 3696SOL     OW11986   5.116   1.196   4.858
 3696SOL    HW111987   5.110   1.132   4.935
 3696SOL    HW211988   5.054   1.166   4.785
 3697SOL     OW11989   6.810   6.018   3.083
 3697SOL    HW111990   6.781   5.959   3.008
 3697SOL    HW211991   6.742   6.017   3.155
 3698SOL     OW11992   1.820   0.922   3.545
 3698SOL    HW111993   1.758   0.874   3.483
 3698SOL    HW211994   1.783   0.919   3.638
 3699SOL     OW11995   2.314   2.311   4.258
 3699SOL    HW111996   2.333   2.274   4.349
 3699SOL    HW211997   2.320   2.237   4.191
 3700SOL     OW11998   1.700   5.202   5.088
 3700SOL    HW111999   1.797   5.226   5.084
 3700SOL    HW212000   1.680   5.131   5.021
 3701SOL     OW12001   1.167   6.337   2.104
 3701SOL    HW112002   1.144   6.243   2.130
 3701SOL    HW212003   1.134   6.354   2.011
 3702SOL     OW12004   5.957   6.059   4.002
 3702SOL    HW112005   5.864   6.069   4.038
 3702SOL    HW212006   6.004   5.984   4.049
 3703SOL     OW12007   1.070   1.074   6.074
 3703SOL    HW112008   1.046   1.166   6.104
 3703SOL    HW212009   1.165   1.054   6.100
 3704SOL     OW12010   5.743   2.778   1.086
 3704SOL    HW112011   5.817   2.726   1.130
 3704SOL    HW212012   5.776   2.815   0.999
 3705SOL     OW12013   5.119   5.084   3.582
 3705SOL    HW112014   5.141   5.174   3.619
 3705SOL    HW212015   5.202   5.028   3.580
 3706SOL     OW12016   0.858   3.660   0.611
 3706SOL    HW112017   0.916   3.629   0.686
 3706SOL    HW212018   0.796   3.587   0.584
 3707SOL     OW12019   3.418   4.930   4.005
 3707SOL    HW112020   3.483   4.973   3.943
 3707SOL    HW212021   3.360   5.001   4.046
 3708SOL     OW12022   3.843   6.734   1.389
 3708SOL    HW112023   3.839   6.670   1.312
 3708SOL    HW212024   3.871   6.824   1.356
 3709SOL     OW12025   1.992   0.346   1.664
 3709SOL    HW112026   2.045   0.376   1.585
 3709SOL    HW212027   1.898   0.327   1.635
 3710SOL     OW12028   0.562   5.092   4.915
 3710SOL    HW112029   0.578   5.146   4.833
 3710SOL    HW212030   0.632   5.021   4.922
 3711SOL     OW12031   1.659   6.269   5.169
 3711SOL    HW112032   1.632   6.215   5.249
 3711SOL    HW212033   1.740   6.227   5.127
 3712SOL     OW12034   2.372   5.497   6.613
 3712SOL    HW112035   2.276   5.474   6.595
 3712SOL    HW212036   2.431   5.422   6.582
 3713SOL     OW12037   6.908   7.008   4.544
 3713SOL    HW112038   6.922   6.910   4.559
 3713SOL    HW212039   6.924   0.042   4.629
 3714SOL     OW12040   0.929   4.805   6.981
 3714SOL    HW112041   0.881   4.733   0.018
 3714SOL    HW212042   0.867   4.841   6.911
 3715SOL     OW12043   0.038   5.906   3.492
 3715SOL    HW112044   0.051   5.896   3.393
 3715SOL    HW212045   0.101   5.976   3.527
 3716SOL     OW12046   6.285   5.723   3.911
 3716SOL    HW112047   6.204   5.731   3.853
 3716SOL    HW212048   6.339   5.644   3.882
 3717SOL     OW12049   5.008   1.252   0.364
 3717SOL    HW112050   5.030   1.159   0.394
 3717SOL    HW212051   4.911   1.256   0.339
 3718SOL     OW12052   0.384   6.917   6.720
 3718SOL    HW112053   0.344   6.893   6.631
 3718SOL    HW212054   0.354   6.851   6.789
 3719SOL     OW12055   3.948   3.224   6.453
 3719SOL    HW112056   4.027   3.184   6.501
 3719SOL    HW212057   3.890   3.150   6.419
 3720SOL     OW12058   5.861   3.281   1.316
 3720SOL    HW112059   5.782   3.260   1.373
 3720SOL    HW212060   5.830   3.314   1.227
 3721SOL     OW12061   6.376   5.481   6.933
 3721SOL    HW112062   6.429   5.427   6.998
 3721SOL    HW212063   6.279   5.472   6.954
 3722SOL     OW12064   4.551   6.986   1.701
 3722SOL    HW112065   4.467   6.944   1.734
 3722SOL    HW212066   4.528   0.050   1.644
 3723SOL     OW12067   4.372   5.450   0.487
 3723SOL    HW112068   4.442   5.380   0.500
 3723SOL    HW212069   4.412   5.529   0.440
 3724SOL     OW12070   1.614   5.157   5.531
 3724SOL    HW112071   1.684   5.089   5.510
 3724SOL    HW212072   1.652   5.249   5.518
 3725SOL     OW12073   0.367   6.641   0.207
 3725SOL    HW112074   0.294   6.590   0.163
 3725SOL    HW212075   0.455   6.613   0.171
 3726SOL     OW12076   5.247   4.486   4.314
 3726SOL    HW112077   5.319   4.419   4.334
 3726SOL    HW212078   5.285   4.578   4.318
 3727SOL     OW12079   0.282   3.249   4.530
 3727SOL    HW112080   0.302   3.340   4.566
 3727SOL    HW212081   0.200   3.251   4.474
 3728SOL     OW12082   3.049   3.122   0.412
 3728SOL    HW112083   2.974   3.179   0.446
 3728SOL    HW212084   3.082   3.064   0.486
 3729SOL     OW12085   0.511   0.726   5.005
 3729SOL    HW112086   0.475   0.681   5.087
 3729SOL    HW212087   0.610   0.737   5.014
 3730SOL     OW12088   4.703   6.663   5.608
 3730SOL    HW112089   4.728   6.592   5.674
 3730SOL    HW212090   4.668   6.743   5.657
 3731SOL     OW12091   0.396   1.332   6.803
 3731SOL    HW112092   0.466   1.294   6.863
 3731SOL    HW212093   0.369   1.265   6.735
 3732SOL     OW12094   1.774   1.826   0.515
 3732SOL    HW112095   1.857   1.855   0.468
 3732SOL    HW212096   1.710   1.787   0.449
 3733SOL     OW12097   1.601   3.090   3.746
 3733SOL    HW112098   1.594   3.066   3.650
 3733SOL    HW212099   1.666   3.029   3.791
 3734SOL     OW12100   4.023   0.588   1.417
 3734SOL    HW112101   4.077   0.665   1.384
 3734SOL    HW212102   4.070   0.543   1.493
 3735SOL     OW12103   4.263   6.837   2.550
 3735SOL    HW112104   4.219   6.887   2.476
 3735SOL    HW212105   4.253   6.739   2.534
 3736SOL     OW12106   6.488   0.583   0.760
 3736SOL    HW112107   6.569   0.641   0.750
 3736SOL    HW212108   6.411   0.625   0.712
 3737SOL     OW12109   6.124   2.508   3.753
 3737SOL    HW112110   6.165   2.585   3.801
 3737SOL    HW212111   6.166   2.423   3.786
 3738SOL     OW12112   6.719   5.755   0.837
 3738SOL    HW112113   6.813   5.758   0.872
 3738SOL    HW212114   6.658   5.723   0.909
 3739SOL     OW12115   2.905   4.743   1.681
 3739SOL    HW112116   3.001   4.769   1.672
 3739SOL    HW212117   2.899   4.650   1.718
 3740SOL     OW12118   6.166   5.761   6.676
 3740SOL    HW112119   6.206   5.762   6.768
 3740SOL    HW212120   6.090   5.696   6.673
 3741SOL     OW12121   5.425   2.588   0.247
 3741SOL    HW112122   5.416   2.648   0.326
 3741SOL    HW212123   5.513   2.542   0.250
 3742SOL     OW12124   4.750   5.810   0.462
 3742SOL    HW112125   4.788   5.785   0.373
 3742SOL    HW212126   4.695   5.893   0.453
 3743SOL     OW12127   4.400   4.073   1.414
 3743SOL    HW112128   4.339   4.130   1.469
 3743SOL    HW212129   4.384   4.091   1.317
 3744SOL     OW12130   1.555   6.589   1.802
 3744SOL    HW112131   1.631   6.647   1.834
 3744SOL    HW212132   1.473   6.609   1.855
 3745SOL     OW12133   4.965   3.632   2.407
 3745SOL    HW112134   4.901   3.688   2.355
 3745SOL    HW212135   4.983   3.547   2.358
 3746SOL     OW12136   6.527   0.134   3.263
 3746SOL    HW112137   6.595   0.112   3.334
 3746SOL    HW212138   6.442   0.084   3.282
 3747SOL     OW12139   4.246   6.823   6.010
 3747SOL    HW112140   4.232   6.917   6.041
 3747SOL    HW212141   4.340   6.795   6.030
 3748SOL     OW12142   5.823   1.212   2.479
 3748SOL    HW112143   5.774   1.280   2.534
 3748SOL    HW212144   5.760   1.169   2.415
 3749SOL     OW12145   1.258   5.315   2.666
 3749SOL    HW112146   1.322   5.385   2.635
 3749SOL    HW212147   1.307   5.248   2.722
 3750SOL     OW12148   5.627   4.530   0.647
 3750SOL    HW112149   5.679   4.599   0.596
 3750SOL    HW212150   5.606   4.453   0.586
 3751SOL     OW12151   1.266   3.059   1.343
 3751SOL    HW112152   1.255   3.135   1.406
 3751SOL    HW212153   1.277   2.974   1.395
 3752SOL     OW12154   0.427   0.747   6.617
 3752SOL    HW112155   0.461   0.653   6.617
 3752SOL    HW212156   0.342   0.752   6.563
 3753SOL     OW12157   0.691   6.668   4.699
 3753SOL    HW112158   0.634   6.605   4.645
 3753SOL    HW212159   0.772   6.693   4.646
 3754SOL     OW12160   5.315   6.241   1.214
 3754SOL    HW112161   5.248   6.300   1.170
 3754SOL    HW212162   5.269   6.176   1.274
 3755SOL     OW12163   5.395   5.418   4.162
 3755SOL    HW112164   5.357   5.500   4.205
 3755SOL    HW212165   5.493   5.430   4.149
 3756SOL     OW12166   2.051   1.115   6.154
 3756SOL    HW112167   2.136   1.065   6.171
 3756SOL    HW212168   2.021   1.158   6.239
 3757SOL     OW12169   3.739   5.876   5.578
 3757SOL    HW112170   3.728   5.971   5.551
 3757SOL    HW212171   3.837   5.855   5.589
 3758SOL     OW12172   2.129   1.367   4.629
 3758SOL    HW112173   2.167   1.441   4.684
 3758SOL    HW212174   2.085   1.405   4.548
 3759SOL     OW12175   4.905   5.439   5.433
 3759SOL    HW112176   4.882   5.535   5.443
 3759SOL    HW212177   4.906   5.395   5.523
 3760SOL     OW12178   1.335   3.526   3.598
 3760SOL    HW112179   1.341   3.449   3.661
 3760SOL    HW212180   1.351   3.493   3.504
 3761SOL     OW12181   0.723   6.957   5.082
 3761SOL    HW112182   0.720   6.867   5.039
 3761SOL    HW212183   0.684   0.010   5.020
 3762SOL     OW12184   1.049   4.270   0.018
 3762SOL    HW112185   1.088   4.288   6.943
 3762SOL    HW212186   1.078   4.341   0.082
 3763SOL     OW12187   6.758   4.234   6.908
 3763SOL    HW112188   6.707   4.301   6.855
 3763SOL    HW212189   6.710   4.146   6.906
 3764SOL     OW12190   2.034   0.651   4.587
 3764SOL    HW112191   2.072   0.703   4.664
 3764SOL    HW212192   1.963   0.589   4.621
 3765SOL     OW12193   4.766   1.059   3.365
 3765SOL    HW112194   4.711   0.983   3.331
 3765SOL    HW212195   4.820   1.028   3.444
 3766SOL     OW12196   0.482   0.602   3.758
 3766SOL    HW112197   0.446   0.692   3.733
 3766SOL    HW212198   0.577   0.594   3.726
 3767SOL     OW12199   1.823   4.720   0.364
 3767SOL    HW112200   1.857   4.761   0.279
 3767SOL    HW212201   1.759   4.647   0.342
 3768SOL     OW12202   3.771   6.581   6.601
 3768SOL    HW112203   3.863   6.561   6.568
 3768SOL    HW212204   3.724   6.495   6.623
 3769SOL     OW12205   5.458   5.901   5.276
 3769SOL    HW112206   5.495   5.812   5.302
 3769SOL    HW212207   5.526   5.972   5.294
 3770SOL     OW12208   2.516   0.689   6.181
 3770SOL    HW112209   2.515   0.593   6.210
 3770SOL    HW212210   2.423   0.723   6.177
 3771SOL     OW12211   5.348   2.099   0.466
 3771SOL    HW112212   5.327   2.186   0.421
 3771SOL    HW212213   5.434   2.063   0.430
 3772SOL     OW12214   6.286   1.053   0.955
 3772SOL    HW112215   6.213   1.001   1.000
 3772SOL    HW212216   6.312   1.130   1.013
 3773SOL     OW12217   5.608   3.106   5.963
 3773SOL    HW112218   5.686   3.044   5.974
 3773SOL    HW212219   5.537   3.082   6.029
 3774SOL     OW12220   1.486   6.940   6.375
 3774SOL    HW112221   1.493   0.025   6.366
 3774SOL    HW212222   1.425   6.904   6.304
 3775SOL     OW12223   5.431   3.962   2.898
 3775SOL    HW112224   5.516   3.942   2.848
 3775SOL    HW212225   5.364   3.891   2.878
 3776SOL     OW12226   2.346   1.561   2.141
 3776SOL    HW112227   2.431   1.557   2.194
 3776SOL    HW212228   2.368   1.576   2.044
 3777SOL     OW12229   3.408   4.977   4.872
 3777SOL    HW112230   3.468   4.909   4.915
 3777SOL    HW212231   3.368   5.036   4.942
 3778SOL     OW12232   2.529   5.466   2.669
 3778SOL    HW112233   2.628   5.452   2.671
 3778SOL    HW212234   2.509   5.564   2.672
 3779SOL     OW12235   2.766   4.734   0.100
 3779SOL    HW112236   2.842   4.799   0.111
 3779SOL    HW212237   2.786   4.672   0.024
 3780SOL     OW12238   3.876   5.283   4.709
 3780SOL    HW112239   3.873   5.270   4.610
 3780SOL    HW212240   3.854   5.196   4.754
 3781SOL     OW12241   2.027   6.479   3.947
 3781SOL    HW112242   1.995   6.384   3.940
 3781SOL    HW212243   1.949   6.540   3.962
 3782SOL     OW12244   2.670   2.298   4.542
 3782SOL    HW112245   2.661   2.321   4.445
 3782SOL    HW212246   2.623   2.367   4.597
 3783SOL     OW12247   6.632   0.084   4.938
 3783SOL    HW112248   6.596   0.158   4.994
 3783SOL    HW212249   6.611   0.101   4.841
 3784SOL     OW12250   5.436   1.701   3.729
 3784SOL    HW112251   5.469   1.662   3.814
 3784SOL    HW212252   5.414   1.798   3.744
 3785SOL     OW12253   2.556   1.641   0.704
 3785SOL    HW112254   2.528   1.547   0.722
 3785SOL    HW212255   2.501   1.703   0.760
 3786SOL     OW12256   3.126   4.857   4.044
 3786SOL    HW112257   3.204   4.800   4.017
 3786SOL    HW212258   3.137   4.949   4.007
 3787SOL     OW12259   5.545   0.667   4.238
 3787SOL    HW112260   5.516   0.603   4.167
 3787SOL    HW212261   5.610   0.622   4.299
 3788SOL     OW12262   6.328   3.330   3.857
 3788SOL    HW112263   6.318   3.255   3.791
 3788SOL    HW212264   6.325   3.417   3.808
 3789SOL     OW12265   1.472   4.214   4.334
 3789SOL    HW112266   1.401   4.145   4.325
 3789SOL    HW212267   1.545   4.196   4.268
 3790SOL     OW12268   2.138   3.772   4.545
 3790SOL    HW112269   2.106   3.787   4.452
 3790SOL    HW212270   2.147   3.674   4.562
 3791SOL     OW12271   5.234   6.590   1.305
 3791SOL    HW112272   5.299   6.602   1.380
 3791SOL    HW212273   5.214   6.679   1.264
 3792SOL     OW12274   6.546   0.509   4.964
 3792SOL    HW112275   6.646   0.514   4.960
 3792SOL    HW212276   6.512   0.585   5.020
 3793SOL     OW12277   2.102   1.094   2.655
 3793SOL    HW112278   2.093   1.116   2.752
 3793SOL    HW212279   2.083   1.176   2.601
 3794SOL     OW12280   3.944   5.452   1.868
 3794SOL    HW112281   3.955   5.454   1.968
 3794SOL    HW212282   3.884   5.376   1.843
 3795SOL     OW12283   4.533   6.731   6.620
 3795SOL    HW112284   4.612   6.781   6.583
 3795SOL    HW212285   4.452   6.789   6.616
 3796SOL     OW12286   1.599   1.623   1.527
 3796SOL    HW112287   1.689   1.646   1.490
 3796SOL    HW212288   1.540   1.703   1.524
 3797SOL     OW12289   6.599   5.325   2.113
 3797SOL    HW112290   6.606   5.265   2.193
 3797SOL    HW212291   6.644   5.281   2.035
 3798SOL     OW12292   2.799   4.794   3.241
 3798SOL    HW112293   2.788   4.737   3.159
 3798SOL    HW212294   2.891   4.782   3.277
 3799SOL     OW12295   1.109   1.458   4.560
 3799SOL    HW112296   1.066   1.367   4.558
 3799SOL    HW212297   1.127   1.488   4.466
 3800SOL     OW12298   5.019   2.549   4.891
 3800SOL    HW112299   5.033   2.608   4.971
 3800SOL    HW212300   4.992   2.605   4.813
 3801SOL     OW12301   6.346   5.814   5.521
 3801SOL    HW112302   6.441   5.802   5.492
 3801SOL    HW212303   6.285   5.794   5.445
 3802SOL     OW12304   1.357   2.463   5.210
 3802SOL    HW112305   1.296   2.414   5.148
 3802SOL    HW212306   1.307   2.537   5.256
 3803SOL     OW12307   4.417   0.843   2.356
 3803SOL    HW112308   4.515   0.854   2.371
 3803SOL    HW212309   4.383   0.765   2.408
 3804SOL     OW12310   4.482   2.033   4.746
 3804SOL    HW112311   4.499   2.061   4.651
 3804SOL    HW212312   4.384   2.031   4.763
 3805SOL     OW12313   3.319   4.174   1.717
 3805SOL    HW112314   3.353   4.136   1.803
 3805SOL    HW212315   3.304   4.273   1.728
 3806SOL     OW12316   3.106   2.515   6.871
 3806SOL    HW112317   3.178   2.576   6.904
 3806SOL    HW212318   3.148   2.439   6.822
 3807SOL     OW12319   1.158   0.426   4.305
 3807SOL    HW112320   1.229   0.447   4.372
 3807SOL    HW212321   1.136   0.508   4.252
 3808SOL     OW12322   3.354   0.395   2.421
 3808SOL    HW112323   3.390   0.349   2.340
 3808SOL    HW212324   3.337   0.492   2.400
 3809SOL     OW12325   5.920   2.017   6.752
 3809SOL    HW112326   5.956   1.955   6.821
 3809SOL    HW212327   5.832   2.054   6.783
 3810SOL     OW12328   3.824   3.591   5.543
 3810SOL    HW112329   3.765   3.512   5.523
 3810SOL    HW212330   3.802   3.666   5.481
 3811SOL     OW12331   0.279   3.960   4.332
 3811SOL    HW112332   0.199   3.955   4.392
 3811SOL    HW212333   0.292   3.872   4.287
 3812SOL     OW12334   5.920   1.738   5.921
 3812SOL    HW112335   5.951   1.660   5.976
 3812SOL    HW212336   5.982   1.752   5.844
 3813SOL     OW12337   4.033   5.006   1.301
 3813SOL    HW112338   4.040   4.983   1.398
 3813SOL    HW212339   4.008   4.925   1.248
 3814SOL     OW12340   0.165   5.590   1.072
 3814SOL    HW112341   0.136   5.638   0.989
 3814SOL    HW212342   0.175   5.656   1.147
 3815SOL     OW12343   4.828   2.150   0.866
 3815SOL    HW112344   4.919   2.190   0.876
 3815SOL    HW212345   4.760   2.224   0.857
 3816SOL     OW12346   6.934   6.206   1.926
 3816SOL    HW112347   0.009   6.175   1.894
 3816SOL    HW212348   6.888   6.256   1.853
 3817SOL     OW12349   4.505   2.561   4.249
 3817SOL    HW112350   4.418   2.572   4.201
 3817SOL    HW212351   4.490   2.569   4.348
 3818SOL     OW12352   4.520   6.498   2.340
 3818SOL    HW112353   4.453   6.481   2.412
 3818SOL    HW212354   4.492   6.577   2.286
 3819SOL     OW12355   5.897   5.590   0.257
 3819SOL    HW112356   5.828   5.587   0.329
 3819SOL    HW212357   5.870   5.529   0.183
 3820SOL     OW12358   5.971   5.826   3.469
 3820SOL    HW112359   5.908   5.903   3.476
 3820SOL    HW212360   5.973   5.792   3.375
 3821SOL     OW12361   1.866   3.469   1.701
 3821SOL    HW112362   1.841   3.374   1.680
 3821SOL    HW212363   1.963   3.483   1.683
 3822SOL     OW12364   1.830   5.679   2.111
 3822SOL    HW112365   1.825   5.663   2.012
 3822SOL    HW212366   1.906   5.627   2.149
 3823SOL     OW12367   4.040   2.182   5.003
 3823SOL    HW112368   3.964   2.154   5.063
 3823SOL    HW212369   4.061   2.278   5.019
 3824SOL     OW12370   6.039   2.084   5.837
 3824SOL    HW112371   6.091   2.153   5.887
 3824SOL    HW212372   6.087   2.063   5.751
 3825SOL     OW12373   6.497   0.145   6.801
 3825SOL    HW112374   6.528   0.055   6.832
 3825SOL    HW212375   6.457   0.194   6.878
 3826SOL     OW12376   7.007   3.717   0.461
 3826SOL    HW112377   0.051   3.734   0.539
 3826SOL    HW212378   0.046   3.707   0.378
 3827SOL     OW12379   3.792   4.479   0.958
 3827SOL    HW112380   3.739   4.411   0.907
 3827SOL    HW212381   3.756   4.571   0.938
 3828SOL     OW12382   4.470   1.862   0.784
 3828SOL    HW112383   4.413   1.940   0.760
 3828SOL    HW212384   4.460   1.790   0.715
 3829SOL     OW12385   2.375   5.079   3.461
 3829SOL    HW112386   2.305   5.065   3.391
 3829SOL    HW212387   2.451   5.016   3.444
 3830SOL     OW12388   1.760   0.278   5.276
 3830SOL    HW112389   1.722   0.295   5.186
 3830SOL    HW212390   1.694   0.226   5.331
 3831SOL     OW12391   3.918   1.799   2.234
 3831SOL    HW112392   3.848   1.756   2.177
 3831SOL    HW212393   3.979   1.853   2.177
 3832SOL     OW12394   6.608   1.080   1.553
 3832SOL    HW112395   6.655   1.167   1.570
 3832SOL    HW212396   6.558   1.052   1.635
 3833SOL     OW12397   0.687   4.784   0.648
 3833SOL    HW112398   0.588   4.782   0.635
 3833SOL    HW212399   0.713   4.869   0.695
 3834SOL     OW12400   2.799   2.130   0.748
 3834SOL    HW112401   2.787   2.230   0.744
 3834SOL    HW212402   2.857   2.107   0.826
 3835SOL     OW12403   3.782   5.581   5.470
 3835SOL    HW112404   3.758   5.648   5.400
 3835SOL    HW212405   3.857   5.524   5.437
 3836SOL     OW12406   1.828   3.847   5.704
 3836SOL    HW112407   1.868   3.765   5.662
 3836SOL    HW212408   1.739   3.866   5.661
 3837SOL     OW12409   4.558   3.761   0.081
 3837SOL    HW112410   4.537   3.703   0.159
 3837SOL    HW212411   4.535   3.856   0.103
 3838SOL     OW12412   4.980   2.676   4.309
 3838SOL    HW112413   5.079   2.670   4.310
 3838SOL    HW212414   4.950   2.743   4.378
 3839SOL     OW12415   5.816   6.833   5.144
 3839SOL    HW112416   5.789   6.739   5.163
 3839SOL    HW212417   5.885   6.835   5.072
 3840SOL     OW12418   1.460   0.750   4.807
 3840SOL    HW112419   1.443   0.847   4.792
 3840SOL    HW212420   1.394   0.695   4.756
 3841SOL     OW12421   0.965   4.093   4.801
 3841SOL    HW112422   1.046   4.141   4.767
 3841SOL    HW212423   0.952   4.008   4.749
 3842SOL     OW12424   0.592   5.412   6.961
 3842SOL    HW112425   0.507   5.434   6.914
 3842SOL    HW212426   0.605   5.313   6.962
 3843SOL     OW12427   6.610   3.227   0.654
 3843SOL    HW112428   6.686   3.269   0.705
 3843SOL    HW212429   6.587   3.285   0.576
 3844SOL     OW12430   1.654   5.519   5.714
 3844SOL    HW112431   1.563   5.498   5.680
 3844SOL    HW212432   1.716   5.443   5.691
 3845SOL     OW12433   3.688   2.982   2.972
 3845SOL    HW112434   3.778   2.965   3.011
 3845SOL    HW212435   3.687   2.952   2.876
 3846SOL     OW12436   6.507   4.468   3.901
 3846SOL    HW112437   6.449   4.389   3.880
 3846SOL    HW212438   6.590   4.464   3.845
 3847SOL     OW12439   6.467   0.844   6.503
 3847SOL    HW112440   6.543   0.791   6.467
 3847SOL    HW212441   6.416   0.885   6.427
 3848SOL     OW12442   2.226   5.117   2.557
 3848SOL    HW112443   2.285   5.160   2.626
 3848SOL    HW212444   2.204   5.184   2.486
 3849SOL     OW12445   0.675   1.417   5.347
 3849SOL    HW112446   0.607   1.487   5.367
 3849SOL    HW212447   0.635   1.347   5.288
 3850SOL     OW12448   2.995   3.914   1.891
 3850SOL    HW112449   3.013   3.837   1.829
 3850SOL    HW212450   2.982   3.879   1.984
 3851SOL     OW12451   2.132   3.713   3.297
 3851SOL    HW112452   2.190   3.755   3.227
 3851SOL    HW212453   2.143   3.763   3.383
 3852SOL     OW12454   4.828   1.310   4.885
 3852SOL    HW112455   4.802   1.300   4.981
 3852SOL    HW212456   4.928   1.307   4.878
 3853SOL     OW12457   1.158   3.278   2.377
 3853SOL    HW112458   1.100   3.346   2.424
 3853SOL    HW212459   1.237   3.257   2.435
 3854SOL     OW12460   0.898   3.286   3.999
 3854SOL    HW112461   0.928   3.191   4.010
 3854SOL    HW212462   0.801   3.287   3.973
 3855SOL     OW12463   6.228   4.542   5.905
 3855SOL    HW112464   6.207   4.563   6.000
 3855SOL    HW212465   6.202   4.619   5.847
 3856SOL     OW12466   6.585   0.461   5.884
 3856SOL    HW112467   6.558   0.477   5.979
 3856SOL    HW212468   6.503   0.454   5.827
 3857SOL     OW12469   0.958   6.524   5.072
 3857SOL    HW112470   0.989   6.594   5.008
 3857SOL    HW212471   0.965   6.434   5.028
 3858SOL     OW12472   1.132   5.736   6.262
 3858SOL    HW112473   1.074   5.699   6.189
 3858SOL    HW212474   1.196   5.665   6.292
 3859SOL     OW12475   6.960   2.866   3.413
 3859SOL    HW112476   6.970   2.767   3.424
 3859SOL    HW212477   6.916   2.886   3.326
 3860SOL     OW12478   2.039   5.575   5.609
 3860SOL    HW112479   2.104   5.532   5.547
 3860SOL    HW212480   2.010   5.508   5.678
 3861SOL     OW12481   4.965   4.740   1.780
 3861SOL    HW112482   5.048   4.748   1.836
 3861SOL    HW212483   4.948   4.643   1.760
 3862SOL     OW12484   0.797   6.851   5.953
 3862SOL    HW112485   0.748   6.889   6.031
 3862SOL    HW212486   0.815   6.923   5.886
 3863SOL     OW12487   3.378   3.599   1.029
 3863SOL    HW112488   3.299   3.592   0.968
 3863SOL    HW212489   3.346   3.604   1.124
 3864SOL     OW12490   3.786   1.828   6.795
 3864SOL    HW112491   3.868   1.881   6.773
 3864SOL    HW212492   3.806   1.730   6.783
 3865SOL     OW12493   3.880   0.531   2.096
 3865SOL    HW112494   3.969   0.575   2.092
 3865SOL    HW212495   3.880   0.462   2.169
 3866SOL     OW12496   3.969   6.811   1.055
 3866SOL    HW112497   4.051   6.762   1.023
 3866SOL    HW212498   3.900   6.744   1.084
 3867SOL     OW12499   2.083   3.442   3.210
 3867SOL    HW112500   2.125   3.523   3.252
 3867SOL    HW212501   2.082   3.367   3.277
 3868SOL     OW12502   2.931   6.832   1.984
 3868SOL    HW112503   2.883   6.760   1.935
 3868SOL    HW212504   2.875   6.864   2.060
 3869SOL     OW12505   0.326   2.808   3.402
 3869SOL    HW112506   0.271   2.884   3.436
 3869SOL    HW212507   0.303   2.791   3.306
 3870SOL     OW12508   2.842   5.357   0.212
 3870SOL    HW112509   2.923   5.342   0.269
 3870SOL    HW212510   2.850   5.446   0.166
 3871SOL     OW12511   3.202   0.106   2.761
 3871SOL    HW112512   3.102   0.102   2.757
 3871SOL    HW212513   3.230   0.152   2.845
 3872SOL     OW12514   4.122   3.920   1.182
 3872SOL    HW112515   4.210   3.916   1.134
 3872SOL    HW212516   4.052   3.956   1.121
 3873SOL     OW12517   5.493   5.086   1.533
 3873SOL    HW112518   5.513   5.181   1.557
 3873SOL    HW212519   5.574   5.030   1.546
 3874SOL     OW12520   3.833   6.497   0.274
 3874SOL    HW112521   3.924   6.535   0.258
 3874SOL    HW212522   3.835   6.398   0.255
 3875SOL     OW12523   1.684   4.476   1.345
 3875SOL    HW112524   1.597   4.434   1.318
 3875SOL    HW212525   1.690   4.479   1.444
 3876SOL     OW12526   5.641   4.459   4.660
 3876SOL    HW112527   5.679   4.445   4.751
 3876SOL    HW212528   5.564   4.523   4.665
 3877SOL     OW12529   6.242   1.456   2.644
 3877SOL    HW112530   6.226   1.492   2.553
 3877SOL    HW212531   6.254   1.357   2.639
 3878SOL     OW12532   3.707   6.842   6.613
 3878SOL    HW112533   3.720   6.855   6.515
 3878SOL    HW212534   3.753   6.758   6.642
 3879SOL     OW12535   4.046   5.620   1.642
 3879SOL    HW112536   4.016   5.547   1.704
 3879SOL    HW212537   4.109   5.681   1.689
 3880SOL     OW12538   5.795   3.248   3.133
 3880SOL    HW112539   5.839   3.176   3.079
 3880SOL    HW212540   5.787   3.217   3.228
 3881SOL     OW12541   1.062   4.498   0.647
 3881SOL    HW112542   0.980   4.544   0.614
 3881SOL    HW212543   1.139   4.562   0.648
 3882SOL     OW12544   6.471   1.525   5.569
 3882SOL    HW112545   6.537   1.574   5.625
 3882SOL    HW212546   6.385   1.515   5.619
 3883SOL     OW12547   4.175   0.845   4.062
 3883SOL    HW112548   4.114   0.853   3.983
 3883SOL    HW212549   4.132   0.885   4.142
 3884SOL     OW12550   1.716   5.942   5.319
 3884SOL    HW112551   1.709   5.982   5.410
 3884SOL    HW212552   1.625   5.939   5.277
 3885SOL     OW12553   6.428   1.029   3.575
 3885SOL    HW112554   6.383   1.109   3.615
 3885SOL    HW212555   6.391   1.013   3.483
 3886SOL     OW12556   6.909   0.028   4.971
 3886SOL    HW112557   6.813   0.055   4.978
 3886SOL    HW212558   6.919   6.949   5.004
 3887SOL     OW12559   4.433   1.936   5.679
 3887SOL    HW112560   4.349   1.899   5.719
 3887SOL    HW212561   4.489   1.977   5.750
 3888SOL     OW12562   6.645   1.470   0.755
 3888SOL    HW112563   6.675   1.403   0.687
 3888SOL    HW212564   6.650   1.429   0.846
 3889SOL     OW12565   0.723   6.062   6.815
 3889SOL    HW112566   0.706   6.037   6.720
 3889SOL    HW212567   0.809   6.020   6.846
 3890SOL     OW12568   5.731   4.964   3.225
 3890SOL    HW112569   5.819   4.966   3.272
 3890SOL    HW212570   5.718   4.875   3.183
 3891SOL     OW12571   5.403   5.103   5.050
 3891SOL    HW112572   5.463   5.062   5.120
 3891SOL    HW212573   5.406   5.046   4.968
 3892SOL     OW12574   5.864   6.660   2.812
 3892SOL    HW112575   5.872   6.624   2.720
 3892SOL    HW212576   5.926   6.739   2.823
 3893SOL     OW12577   3.258   5.778   4.608
 3893SOL    HW112578   3.162   5.763   4.584
 3893SOL    HW212579   3.311   5.795   4.525
 3894SOL     OW12580   4.483   3.993   0.209
 3894SOL    HW112581   4.563   4.052   0.209
 3894SOL    HW212582   4.494   3.921   0.277
 3895SOL     OW12583   2.580   1.509   5.929
 3895SOL    HW112584   2.565   1.411   5.919
 3895SOL    HW212585   2.547   1.556   5.847
 3896SOL     OW12586   6.949   3.139   5.352
 3896SOL    HW112587   0.029   3.128   5.325
 3896SOL    HW212588   6.944   3.174   5.446
 3897SOL     OW12589   3.665   0.221   2.019
 3897SOL    HW112590   3.578   0.184   1.986
 3897SOL    HW212591   3.695   0.295   1.959
 3898SOL     OW12592   4.086   3.627   3.892
 3898SOL    HW112593   4.091   3.690   3.815
 3898SOL    HW212594   4.120   3.672   3.974
 3899SOL     OW12595   4.692   2.013   5.814
 3899SOL    HW112596   4.684   1.918   5.783
 3899SOL    HW212597   4.725   2.015   5.908
 3900SOL     OW12598   6.391   2.705   2.960
 3900SOL    HW112599   6.373   2.796   2.998
 3900SOL    HW212600   6.305   2.661   2.935
 3901SOL     OW12601   1.738   6.935   5.316
 3901SOL    HW112602   1.692   0.006   5.333
 3901SOL    HW212603   1.827   6.952   5.275
 3902SOL     OW12604   4.607   5.097   1.408
 3902SOL    HW112605   4.648   5.123   1.495
 3902SOL    HW212606   4.679   5.083   1.340
 3903SOL     OW12607   4.364   2.913   6.789
 3903SOL    HW112608   4.347   2.830   6.843
 3903SOL    HW212609   4.445   2.960   6.824
 3904SOL     OW12610   1.160   6.291   0.580
 3904SOL    HW112611   1.122   6.229   0.512
 3904SOL    HW212612   1.156   6.248   0.670
 3905SOL     OW12613   6.685   0.544   5.296
 3905SOL    HW112614   6.738   0.624   5.323
 3905SOL    HW212615   6.703   0.469   5.361
 3906SOL     OW12616   2.044   4.759   4.026
 3906SOL    HW112617   2.115   4.701   3.986
 3906SOL    HW212618   2.062   4.855   4.002
 3907SOL     OW12619   6.671   1.150   3.741
 3907SOL    HW112620   6.650   1.171   3.836
 3907SOL    HW212621   6.606   1.198   3.681
 3908SOL     OW12622   1.071   0.468   5.011
 3908SOL    HW112623   1.161   0.512   5.001
 3908SOL    HW212624   1.083   0.368   5.012
 3909SOL     OW12625   5.656   3.071   6.300
 3909SOL    HW112626   5.706   3.019   6.231
 3909SOL    HW212627   5.683   3.041   6.391
 3910SOL     OW12628   3.428   1.992   0.241
 3910SOL    HW112629   3.481   2.041   0.310
 3910SOL    HW212630   3.448   1.894   0.246
 3911SOL     OW12631   6.702   0.910   0.943
 3911SOL    HW112632   6.760   0.834   0.973
 3911SOL    HW212633   6.607   0.892   0.970
 3912SOL     OW12634   4.429   1.463   0.672
 3912SOL    HW112635   4.460   1.402   0.745
 3912SOL    HW212636   4.432   1.415   0.585
 3913SOL     OW12637   5.081   5.250   0.468
 3913SOL    HW112638   5.065   5.324   0.534
 3913SOL    HW212639   5.179   5.233   0.461
 3914SOL     OW12640   5.828   1.122   0.694
 3914SOL    HW112641   5.782   1.209   0.677
 3914SOL    HW212642   5.922   1.127   0.662
 3915SOL     OW12643   4.475   5.260   6.790
 3915SOL    HW112644   4.502   5.334   6.728
 3915SOL    HW212645   4.510   5.173   6.756
 3916SOL     OW12646   1.922   1.513   2.027
 3916SOL    HW112647   2.017   1.482   2.027
 3916SOL    HW212648   1.861   1.435   2.017
 3917SOL     OW12649   2.859   5.439   0.865
 3917SOL    HW112650   2.766   5.421   0.898
 3917SOL    HW212651   2.914   5.475   0.940
 3918SOL     OW12652   5.406   0.378   0.707
 3918SOL    HW112653   5.449   0.408   0.793
 3918SOL    HW212654   5.402   0.455   0.643
 3919SOL     OW12655   3.500   0.510   1.985
 3919SOL    HW112656   3.552   0.513   1.900
 3919SOL    HW212657   3.434   0.435   1.981
 3920SOL     OW12658   3.130   1.259   5.662
 3920SOL    HW112659   3.158   1.167   5.688
 3920SOL    HW212660   3.204   1.323   5.682
 3921SOL     OW12661   0.573   3.029   6.011
 3921SOL    HW112662   0.631   3.067   6.084
 3921SOL    HW212663   0.629   2.970   5.953
 3922SOL     OW12664   5.175   4.839   2.966
 3922SOL    HW112665   5.187   4.906   2.893
 3922SOL    HW212666   5.173   4.747   2.927
 3923SOL     OW12667   5.566   1.146   1.104
 3923SOL    HW112668   5.610   1.057   1.121
 3923SOL    HW212669   5.629   1.206   1.055
 3924SOL     OW12670   5.581   4.985   4.599
 3924SOL    HW112671   5.585   4.906   4.537
 3924SOL    HW212672   5.586   5.069   4.546
 3925SOL     OW12673   4.644   3.528   0.943
 3925SOL    HW112674   4.717   3.467   0.912
 3925SOL    HW212675   4.670   3.623   0.928
 3926SOL     OW12676   0.477   6.879   5.977
 3926SOL    HW112677   0.508   6.876   6.072
 3926SOL    HW212678   0.408   6.808   5.962
 3927SOL     OW12679   5.955   3.131   5.004
 3927SOL    HW112680   5.920   3.223   5.022
 3927SOL    HW212681   5.881   3.074   4.968
 3928SOL     OW12682   2.505   6.335   2.471
 3928SOL    HW112683   2.516   6.314   2.373
 3928SOL    HW212684   2.496   6.249   2.522
 3929SOL     OW12685   0.474   2.129   5.156
 3929SOL    HW112686   0.407   2.145   5.083
 3929SOL    HW212687   0.558   2.092   5.116
 3930SOL     OW12688   0.698   4.165   3.470
 3930SOL    HW112689   0.701   4.212   3.558
 3930SOL    HW212690   0.785   4.120   3.453
 3931SOL     OW12691   1.825   2.108   1.575
 3931SOL    HW112692   1.843   2.206   1.578
 3931SOL    HW212693   1.730   2.092   1.551
 3932SOL     OW12694   2.167   5.335   3.912
 3932SOL    HW112695   2.252   5.332   3.964
 3932SOL    HW212696   2.177   5.281   3.828
 3933SOL     OW12697   2.157   5.493   1.144
 3933SOL    HW112698   2.105   5.441   1.211
 3933SOL    HW212699   2.190   5.431   1.072
 3934SOL     OW12700   0.820   1.292   1.107
 3934SOL    HW112701   0.891   1.221   1.108
 3934SOL    HW212702   0.846   1.364   1.042
 3935SOL     OW12703   5.921   3.647   6.790
 3935SOL    HW112704   5.832   3.616   6.823
 3935SOL    HW212705   5.929   3.627   6.692
 3936SOL     OW12706   0.634   5.167   5.306
 3936SOL    HW112707   0.721   5.129   5.275
 3936SOL    HW212708   0.602   5.115   5.386
 3937SOL     OW12709   6.911   0.162   1.912
 3937SOL    HW112710   6.914   0.070   1.951
 3937SOL    HW212711   6.964   0.224   1.969
 3938SOL     OW12712   0.375   4.531   2.453
 3938SOL    HW112713   0.301   4.471   2.484
 3938SOL    HW212714   0.398   4.509   2.358
 3939SOL     OW12715   1.465   1.137   2.352
 3939SOL    HW112716   1.526   1.100   2.281
 3939SOL    HW212717   1.378   1.088   2.350
 3940SOL     OW12718   3.468   5.511   1.834
 3940SOL    HW112719   3.516   5.598   1.823
 3940SOL    HW212720   3.373   5.521   1.805
 3941SOL     OW12721   5.340   6.692   3.531
 3941SOL    HW112722   5.350   6.595   3.550
 3941SOL    HW212723   5.356   6.745   3.614
 3942SOL     OW12724   6.879   5.800   5.526
 3942SOL    HW112725   6.964   5.789   5.475
 3942SOL    HW212726   6.878   5.735   5.602
 3943SOL     OW12727   1.334   2.549   0.054
 3943SOL    HW112728   1.397   2.624   0.038
 3943SOL    HW212729   1.383   2.473   0.098
 3944SOL     OW12730   5.821   2.331   0.061
 3944SOL    HW112731   5.916   2.306   0.078
 3944SOL    HW212732   5.790   2.394   0.133
 3945SOL     OW12733   6.248   0.364   3.461
 3945SOL    HW112734   6.277   0.359   3.556
 3945SOL    HW212735   6.280   0.450   3.420
 3946SOL     OW12736   1.210   3.084   0.738
 3946SOL    HW112737   1.287   3.063   0.799
 3946SOL    HW212738   1.151   3.153   0.781
 3947SOL     OW12739   5.713   5.025   1.954
 3947SOL    HW112740   5.727   5.009   1.857
 3947SOL    HW212741   5.701   4.938   2.001
 3948SOL     OW12742   1.297   2.745   6.064
 3948SOL    HW112743   1.319   2.649   6.081
 3948SOL    HW212744   1.278   2.759   5.966
 3949SOL     OW12745   6.026   6.571   2.372
 3949SOL    HW112746   5.973   6.497   2.330
 3949SOL    HW212747   5.971   6.615   2.442
 3950SOL     OW12748   3.053   4.467   1.561
 3950SOL    HW112749   3.036   4.469   1.659
 3950SOL    HW212750   2.967   4.479   1.511
 3951SOL     OW12751   0.872   2.718   5.562
 3951SOL    HW112752   0.774   2.712   5.579
 3951SOL    HW212753   0.920   2.729   5.649
 3952SOL     OW12754   5.939   3.714   5.794
 3952SOL    HW112755   5.846   3.718   5.831
 3952SOL    HW212756   5.992   3.645   5.843
 3953SOL     OW12757   3.298   3.990   6.590
 3953SOL    HW112758   3.391   3.967   6.563
 3953SOL    HW212759   3.276   4.082   6.559
 3954SOL     OW12760   0.795   3.300   5.421
 3954SOL    HW112761   0.780   3.225   5.485
 3954SOL    HW212762   0.706   3.341   5.397
 3955SOL     OW12763   6.400   4.778   7.000
 3955SOL    HW112764   6.387   4.727   0.070
 3955SOL    HW212765   6.434   4.716   6.929
 3956SOL     OW12766   1.292   3.014   5.711
 3956SOL    HW112767   1.263   3.096   5.760
 3956SOL    HW212768   1.290   3.032   5.613
 3957SOL     OW12769   1.118   0.840   2.740
 3957SOL    HW112770   1.020   0.841   2.718
 3957SOL    HW212771   1.145   0.929   2.776
 3958SOL     OW12772   5.322   6.476   5.290
 3958SOL    HW112773   5.393   6.546   5.285
 3958SOL    HW212774   5.238   6.510   5.249
 3959SOL     OW12775   2.491   4.914   0.671
 3959SOL    HW112776   2.529   4.963   0.750
 3959SOL    HW212777   2.472   4.979   0.598
 3960SOL     OW12778   4.427   3.267   0.320
 3960SOL    HW112779   4.376   3.181   0.320
 3960SOL    HW212780   4.403   3.320   0.401
 3961SOL     OW12781   5.671   0.842   2.109
 3961SOL    HW112782   5.619   0.759   2.128
 3961SOL    HW212783   5.630   0.920   2.156
 3962SOL     OW12784   0.380   0.164   6.211
 3962SOL    HW112785   0.328   0.247   6.193
 3962SOL    HW212786   0.464   0.164   6.156
 3963SOL     OW12787   5.270   6.046   2.982
 3963SOL    HW112788   5.238   6.141   2.975
 3963SOL    HW212789   5.324   6.036   3.065
 3964SOL     OW12790   5.507   6.246   5.198
 3964SOL    HW112791   5.455   6.317   5.245
 3964SOL    HW212792   5.461   6.221   5.113
 3965SOL     OW12793   4.137   3.593   0.277
 3965SOL    HW112794   4.099   3.623   0.364
 3965SOL    HW212795   4.072   3.611   0.204
 3966SOL     OW12796   5.472   3.825   5.086
 3966SOL    HW112797   5.387   3.836   5.035
 3966SOL    HW212798   5.471   3.738   5.134
 3967SOL     OW12799   0.633   5.564   6.328
 3967SOL    HW112800   0.652   5.633   6.258
 3967SOL    HW212801   0.539   5.532   6.319
 3968SOL     OW12802   6.062   0.257   1.664
 3968SOL    HW112803   6.120   0.193   1.716
 3968SOL    HW212804   5.995   0.205   1.611
 3969SOL     OW12805   0.395   5.133   1.935
 3969SOL    HW112806   0.324   5.162   1.871
 3969SOL    HW212807   0.381   5.178   2.023
 3970SOL     OW12808   5.113   4.678   3.361
 3970SOL    HW112809   5.198   4.731   3.358
 3970SOL    HW212810   5.071   4.686   3.451
 3971SOL     OW12811   1.315   5.498   3.547
 3971SOL    HW112812   1.295   5.530   3.455
 3971SOL    HW212813   1.412   5.512   3.567
 3972SOL     OW12814   1.650   6.891   0.296
 3972SOL    HW112815   1.675   6.822   0.363
 3972SOL    HW212816   1.717   6.889   0.220
 3973SOL     OW12817   2.875   3.567   3.931
 3973SOL    HW112818   2.821   3.635   3.880
 3973SOL    HW212819   2.895   3.489   3.872
 3974SOL     OW12820   6.132   1.695   6.598
 3974SOL    HW112821   6.108   1.792   6.596
 3974SOL    HW212822   6.231   1.685   6.588
 3975SOL     OW12823   6.982   1.294   5.838
 3975SOL    HW112824   6.925   1.298   5.920
 3975SOL    HW212825   0.024   1.212   5.842
 3976SOL     OW12826   0.994   3.466   0.174
 3976SOL    HW112827   1.035   3.419   0.095
 3976SOL    HW212828   0.903   3.499   0.150
 3977SOL     OW12829   3.968   6.169   6.285
 3977SOL    HW112830   3.979   6.131   6.378
 3977SOL    HW212831   4.052   6.152   6.233
 3978SOL     OW12832   5.899   3.377   6.269
 3978SOL    HW112833   5.968   3.310   6.241
 3978SOL    HW212834   5.845   3.404   6.190
 3979SOL     OW12835   0.894   6.753   2.989
 3979SOL    HW112836   0.797   6.732   2.974
 3979SOL    HW212837   0.949   6.673   2.969
 3980SOL     OW12838   5.192   2.847   4.080
 3980SOL    HW112839   5.239   2.910   4.143
 3980SOL    HW212840   5.105   2.888   4.052
 3981SOL     OW12841   6.553   2.287   6.421
 3981SOL    HW112842   6.629   2.301   6.357
 3981SOL    HW212843   6.582   2.226   6.495
 3982SOL     OW12844   2.426   1.839   3.863
 3982SOL    HW112845   2.374   1.800   3.939
 3982SOL    HW212846   2.509   1.786   3.849
 3983SOL     OW12847   3.577   6.290   4.308
 3983SOL    HW112848   3.525   6.332   4.382
 3983SOL    HW212849   3.640   6.357   4.268
 3984SOL     OW12850   1.862   6.590   1.689
 3984SOL    HW112851   1.809   6.620   1.610
 3984SOL    HW212852   1.843   6.651   1.767
 3985SOL     OW12853   1.996   2.749   1.883
 3985SOL    HW112854   2.011   2.672   1.946
 3985SOL    HW212855   2.048   2.828   1.915
 3986SOL     OW12856   0.701   2.450   1.843
 3986SOL    HW112857   0.759   2.394   1.783
 3986SOL    HW212858   0.606   2.423   1.832
 3987SOL     OW12859   2.793   4.658   6.631
 3987SOL    HW112860   2.701   4.690   6.611
 3987SOL    HW212861   2.801   4.560   6.609
 3988SOL     OW12862   3.760   2.772   0.636
 3988SOL    HW112863   3.728   2.706   0.569
 3988SOL    HW212864   3.750   2.864   0.599
 3989SOL     OW12865   4.983   6.858   6.528
 3989SOL    HW112866   4.890   6.831   6.501
 3989SOL    HW212867   5.041   6.777   6.530
 3990SOL     OW12868   0.942   3.067   3.541
 3990SOL    HW112869   0.843   3.077   3.551
 3990SOL    HW212870   0.987   3.153   3.563
 3991SOL     OW12871   0.615   1.884   4.304
 3991SOL    HW112872   0.596   1.976   4.339
 3991SOL    HW212873   0.584   1.877   4.209
 3992SOL     OW12874   4.395   3.752   6.651
 3992SOL    HW112875   4.325   3.822   6.655
 3992SOL    HW212876   4.397   3.713   6.559
 3993SOL     OW12877   2.522   2.516   2.736
 3993SOL    HW112878   2.454   2.546   2.804
 3993SOL    HW212879   2.501   2.556   2.648
 3994SOL     OW12880   2.314   2.822   3.652
 3994SOL    HW112881   2.394   2.768   3.679
 3994SOL    HW212882   2.244   2.815   3.723
 3995SOL     OW12883   2.089   3.583   2.393
 3995SOL    HW112884   2.043   3.495   2.407
 3995SOL    HW212885   2.134   3.610   2.478
 3996SOL     OW12886   6.130   0.616   3.041
 3996SOL    HW112887   6.161   0.521   3.034
 3996SOL    HW212888   6.182   0.662   3.112
 3997SOL     OW12889   5.792   3.991   2.914
 3997SOL    HW112890   5.752   3.958   2.999
 3997SOL    HW212891   5.740   3.954   2.837
 3998SOL     OW12892   6.455   1.761   2.950
 3998SOL    HW112893   6.442   1.678   2.896
 3998SOL    HW212894   6.460   1.840   2.889
 3999SOL     OW12895   5.602   3.285   2.567
 3999SOL    HW112896   5.594   3.215   2.497
 3999SOL    HW212897   5.636   3.370   2.526
 4000SOL     OW12898   2.800   5.836   2.043
 4000SOL    HW112899   2.814   5.917   1.987
 4000SOL    HW212900   2.725   5.851   2.107
 4001SOL     OW12901   2.384   4.206   5.277
 4001SOL    HW112902   2.444   4.276   5.238
 4001SOL    HW212903   2.376   4.130   5.212
 4002SOL     OW12904   3.245   3.361   4.335
 4002SOL    HW112905   3.203   3.276   4.302
 4002SOL    HW212906   3.176   3.432   4.340
 4003SOL     OW12907   2.178   0.803   5.289
 4003SOL    HW112908   2.097   0.744   5.290
 4003SOL    HW212909   2.149   0.898   5.277
 4004SOL     OW12910   0.447   4.015   3.535
 4004SOL    HW112911   0.532   4.066   3.543
 4004SOL    HW212912   0.408   4.001   3.626
 4005SOL     OW12913   4.390   3.719   1.466
 4005SOL    HW112914   4.291   3.718   1.454
 4005SOL    HW212915   4.433   3.751   1.381
 4006SOL     OW12916   4.840   5.403   3.270
 4006SOL    HW112917   4.862   5.325   3.330
 4006SOL    HW212918   4.922   5.460   3.260
 4007SOL     OW12919   6.973   1.464   2.555
 4007SOL    HW112920   0.015   1.398   2.505
 4007SOL    HW212921   6.893   1.416   2.592
 4008SOL     OW12922   2.346   0.014   0.666
 4008SOL    HW112923   2.361   0.103   0.708
 4008SOL    HW212924   2.344   6.958   0.737
 4009SOL     OW12925   4.238   2.064   0.691
 4009SOL    HW112926   4.143   2.078   0.720
 4009SOL    HW212927   4.242   2.067   0.591
 4010SOL     OW12928   2.540   4.982   1.432
 4010SOL    HW112929   2.489   4.929   1.363
 4010SOL    HW212930   2.480   5.051   1.472
 4011SOL     OW12931   6.316   6.205   0.414
 4011SOL    HW112932   6.337   6.113   0.381
 4011SOL    HW212933   6.331   6.271   0.341
 4012SOL     OW12934   3.941   6.768   2.274
 4012SOL    HW112935   4.007   6.738   2.205
 4012SOL    HW212936   3.854   6.789   2.229
 4013SOL     OW12937   1.267   1.285   0.907
 4013SOL    HW112938   1.316   1.256   0.989
 4013SOL    HW212939   1.310   1.243   0.827
 4014SOL     OW12940   2.586   5.342   3.839
 4014SOL    HW112941   2.620   5.354   3.746
 4014SOL    HW212942   2.647   5.282   3.891
 4015SOL     OW12943   4.550   5.114   6.445
 4015SOL    HW112944   4.609   5.059   6.505
 4015SOL    HW212945   4.457   5.114   6.482
 4016SOL     OW12946   3.803   6.199   6.011
 4016SOL    HW112947   3.782   6.252   6.093
 4016SOL    HW212948   3.770   6.247   5.930
 4017SOL     OW12949   0.625   5.669   5.435
 4017SOL    HW112950   0.670   5.757   5.447
 4017SOL    HW212951   0.536   5.681   5.392
 4018SOL     OW12952   3.951   6.200   2.096
 4018SOL    HW112953   3.916   6.293   2.087
 4018SOL    HW212954   3.912   6.158   2.178
 4019SOL     OW12955   5.217   3.427   2.779
 4019SOL    HW112956   5.209   3.328   2.781
 4019SOL    HW212957   5.210   3.459   2.685
 4020SOL     OW12958   6.747   4.133   4.566
 4020SOL    HW112959   6.674   4.169   4.624
 4020SOL    HW212960   6.812   4.082   4.621
 4021SOL     OW12961   3.353   3.538   5.925
 4021SOL    HW112962   3.298   3.606   5.876
 4021SOL    HW212963   3.419   3.585   5.983
 4022SOL     OW12964   2.679   0.260   0.712
 4022SOL    HW112965   2.630   0.211   0.640
 4022SOL    HW212966   2.725   0.194   0.772
 4023SOL     OW12967   0.287   2.414   5.719
 4023SOL    HW112968   0.340   2.330   5.730
 4023SOL    HW212969   0.304   2.452   5.628
 4024SOL     OW12970   0.801   5.035   3.697
 4024SOL    HW112971   0.714   5.001   3.662
 4024SOL    HW212972   0.811   5.009   3.793
 4025SOL     OW12973   1.252   6.039   4.206
 4025SOL    HW112974   1.179   6.093   4.249
 4025SOL    HW212975   1.271   6.075   4.115
 4026SOL     OW12976   6.701   6.279   3.906
 4026SOL    HW112977   6.669   6.345   3.974
 4026SOL    HW212978   6.623   6.226   3.872
 4027SOL     OW12979   2.639   2.927   6.112
 4027SOL    HW112980   2.615   2.845   6.060
 4027SOL    HW212981   2.738   2.938   6.113
 4028SOL     OW12982   4.906   1.689   3.199
 4028SOL    HW112983   4.993   1.713   3.241
 4028SOL    HW212984   4.923   1.631   3.119
 4029SOL     OW12985   3.005   4.046   6.738
 4029SOL    HW112986   3.076   4.048   6.809
 4029SOL    HW212987   3.036   3.987   6.663
 4030SOL     OW12988   6.783   0.963   1.841
 4030SOL    HW112989   6.825   1.044   1.883
 4030SOL    HW212990   6.854   0.897   1.817
 4031SOL     OW12991   5.500   0.140   1.804
 4031SOL    HW112992   5.495   0.101   1.712
 4031SOL    HW212993   5.408   0.153   1.840
 4032SOL     OW12994   6.214   6.556   1.444
 4032SOL    HW112995   6.144   6.628   1.445
 4032SOL    HW212996   6.185   6.482   1.384
 4033SOL     OW12997   3.215   2.078   2.370
 4033SOL    HW112998   3.257   2.076   2.279
 4033SOL    HW212999   3.126   2.123   2.365
 4034SOL     OW13000   0.151   2.827   5.048
 4034SOL    HW113001   0.072   2.799   5.102
 4034SOL    HW213002   0.122   2.846   4.954
 4035SOL     OW13003   6.543   2.450   0.924
 4035SOL    HW113004   6.497   2.367   0.955
 4035SOL    HW213005   6.600   2.485   0.998
 4036SOL     OW13006   3.549   5.057   3.228
 4036SOL    HW113007   3.517   5.114   3.153
 4036SOL    HW213008   3.642   5.082   3.253
 4037SOL     OW13009   3.009   0.935   6.095
 4037SOL    HW113010   2.982   0.911   6.002
 4037SOL    HW213011   2.928   0.938   6.154
 4038SOL     OW13012   4.054   3.664   6.678
 4038SOL    HW113013   3.968   3.615   6.669
 4038SOL    HW213014   4.091   3.683   6.587
 4039SOL     OW13015   5.260   5.459   1.926
 4039SOL    HW113016   5.208   5.490   2.006
 4039SOL    HW213017   5.250   5.360   1.916
 4040SOL     OW13018   3.708   5.261   5.096
 4040SOL    HW113019   3.647   5.184   5.114
 4040SOL    HW213020   3.802   5.233   5.114
 4041SOL     OW13021   2.216   6.662   1.543
 4041SOL    HW113022   2.187   6.580   1.495
 4041SOL    HW213023   2.274   6.637   1.620
 4042SOL     OW13024   6.112   6.986   2.680
 4042SOL    HW113025   6.022   7.002   2.720
 4042SOL    HW213026   6.112   0.002   2.585
 4043SOL     OW13027   6.343   2.896   0.148
 4043SOL    HW113028   6.382   2.814   0.189
 4043SOL    HW213029   6.417   2.960   0.126
 4044SOL     OW13030   4.098   4.775   2.824
 4044SOL    HW113031   4.114   4.871   2.847
 4044SOL    HW213032   4.076   4.724   2.908
 4045SOL     OW13033   5.156   0.037   6.420
 4045SOL    HW113034   5.097   6.977   6.448
 4045SOL    HW213035   5.137   0.061   6.325
 4046SOL     OW13036   0.612   0.993   3.305
 4046SOL    HW113037   0.591   1.077   3.356
 4046SOL    HW213038   0.665   1.016   3.224
 4047SOL     OW13039   2.131   3.173   6.852
 4047SOL    HW113040   2.166   3.098   6.908
 4047SOL    HW213041   2.177   3.172   6.763
 4048SOL     OW13042   4.903   1.150   2.383
 4048SOL    HW113043   4.844   1.080   2.424
 4048SOL    HW213044   4.847   1.217   2.336
 4049SOL     OW13045   3.865   5.758   6.644
 4049SOL    HW113046   3.858   5.672   6.695
 4049SOL    HW213047   3.793   5.762   6.575
 4050SOL     OW13048   1.001   5.558   2.337
 4050SOL    HW113049   0.917   5.511   2.364
 4050SOL    HW213050   1.003   5.569   2.238
 4051SOL     OW13051   5.151   1.286   6.330
 4051SOL    HW113052   5.104   1.329   6.253
 4051SOL    HW213053   5.112   1.321   6.416
 4052SOL     OW13054   6.831   2.046   2.694
 4052SOL    HW113055   6.810   2.012   2.786
 4052SOL    HW213056   6.867   2.139   2.701
 4053SOL     OW13057   1.274   6.114   4.841
 4053SOL    HW113058   1.256   6.211   4.851
 4053SOL    HW213059   1.309   6.096   4.749
 4054SOL     OW13060   4.942   4.007   1.217
 4054SOL    HW113061   4.972   3.916   1.189
 4054SOL    HW213062   4.845   4.003   1.242
 4055SOL     OW13063   1.573   3.688   2.025
 4055SOL    HW113064   1.657   3.660   1.978
 4055SOL    HW213065   1.540   3.614   2.083
 4056SOL     OW13066   5.676   3.690   0.865
 4056SOL    HW113067   5.623   3.767   0.901
 4056SOL    HW213068   5.740   3.658   0.934
 4057SOL     OW13069   6.370   3.115   6.455
 4057SOL    HW113070   6.338   3.102   6.549
 4057SOL    HW213071   6.457   3.067   6.442
 4058SOL     OW13072   2.558   5.792   4.979
 4058SOL    HW113073   2.506   5.718   4.937
 4058SOL    HW213074   2.627   5.825   4.916
 4059SOL     OW13075   0.690   2.829   3.998
 4059SOL    HW113076   0.720   2.906   3.943
 4059SOL    HW213077   0.703   2.744   3.947
 4060SOL     OW13078   6.086   5.873   4.612
 4060SOL    HW113079   6.077   5.800   4.680
 4060SOL    HW213080   6.004   5.931   4.615
 4061SOL     OW13081   2.223   4.769   2.133
 4061SOL    HW113082   2.225   4.818   2.220
 4061SOL    HW213083   2.192   4.830   2.061
 4062SOL     OW13084   2.780   1.290   1.917
 4062SOL    HW113085   2.833   1.213   1.880
 4062SOL    HW213086   2.683   1.273   1.902
 4063SOL     OW13087   5.528   6.468   0.948
 4063SOL    HW113088   5.618   6.452   0.989
 4063SOL    HW213089   5.503   6.390   0.890
 4064SOL     OW13090   2.002   1.779   4.893
 4064SOL    HW113091   2.102   1.782   4.883
 4064SOL    HW213092   1.974   1.685   4.915
 4065SOL     OW13093   1.162   6.934   0.228
 4065SOL    HW113094   1.259   6.950   0.209
 4065SOL    HW213095   1.131   6.854   0.177
 4066SOL     OW13096   6.420   4.268   2.745
 4066SOL    HW113097   6.325   4.289   2.720
 4066SOL    HW213098   6.444   4.178   2.708
 4067SOL     OW13099   6.121   4.326   2.735
 4067SOL    HW113100   6.048   4.393   2.748
 4067SOL    HW213101   6.116   4.257   2.807
 4068SOL     OW13102   1.687   2.606   4.473
 4068SOL    HW113103   1.683   2.616   4.573
 4068SOL    HW213104   1.762   2.662   4.438
 4069SOL     OW13105   3.530   6.008   6.579
 4069SOL    HW113106   3.482   6.095   6.573
 4069SOL    HW213107   3.548   5.973   6.487
 4070SOL     OW13108   1.064   3.291   3.072
 4070SOL    HW113109   1.068   3.301   3.172
 4070SOL    HW213110   1.132   3.225   3.042
 4071SOL     OW13111   1.642   0.158   4.458
 4071SOL    HW113112   1.583   0.141   4.379
 4071SOL    HW213113   1.735   0.127   4.438
 4072SOL     OW13114   1.529   5.135   4.459
 4072SOL    HW113115   1.540   5.057   4.397
 4072SOL    HW213116   1.462   5.199   4.420
 4073SOL     OW13117   2.183   5.137   6.485
 4073SOL    HW113118   2.094   5.104   6.516
 4073SOL    HW213119   2.252   5.065   6.501
 4074SOL     OW13120   1.251   4.550   1.415
 4074SOL    HW113121   1.211   4.642   1.423
 4074SOL    HW213122   1.286   4.521   1.504
 4075SOL     OW13123   5.291   1.721   0.736
 4075SOL    HW113124   5.275   1.811   0.776
 4075SOL    HW213125   5.204   1.677   0.715
 4076SOL     OW13126   3.568   3.586   5.721
 4076SOL    HW113127   3.649   3.621   5.767
 4076SOL    HW213128   3.592   3.504   5.668
 4077SOL     OW13129   4.885   0.930   1.566
 4077SOL    HW113130   4.932   1.018   1.567
 4077SOL    HW213131   4.930   0.867   1.629
 4078SOL     OW13132   2.737   4.902   2.549
 4078SOL    HW113133   2.729   4.817   2.496
 4078SOL    HW213134   2.657   4.912   2.607
 4079SOL     OW13135   1.780   1.836   4.326
 4079SOL    HW113136   1.695   1.836   4.273
 4079SOL    HW213137   1.761   1.806   4.420
 4080SOL     OW13138   5.022   2.284   4.889
 4080SOL    HW113139   4.951   2.263   4.821
 4080SOL    HW213140   5.030   2.383   4.899
 4081SOL     OW13141   1.509   2.914   4.390
 4081SOL    HW113142   1.531   2.891   4.485
 4081SOL    HW213143   1.502   3.013   4.380
 4082SOL     OW13144   1.633   2.863   0.723
 4082SOL    HW113145   1.691   2.850   0.803
 4082SOL    HW213146   1.541   2.891   0.752
 4083SOL     OW13147   6.009   3.245   3.482
 4083SOL    HW113148   6.066   3.164   3.496
 4083SOL    HW213149   6.028   3.284   3.392
 4084SOL     OW13150   6.118   1.889   3.945
 4084SOL    HW113151   6.195   1.827   3.927
 4084SOL    HW213152   6.045   1.873   3.879
 4085SOL     OW13153   4.230   6.257   0.923
 4085SOL    HW113154   4.165   6.200   0.973
 4085SOL    HW213155   4.180   6.326   0.871
 4086SOL     OW13156   2.042   5.820   1.546
 4086SOL    HW113157   2.090   5.820   1.634
 4086SOL    HW213158   2.060   5.733   1.499
 4087SOL     OW13159   2.356   2.535   3.143
 4087SOL    HW113160   2.348   2.591   3.226
 4087SOL    HW213161   2.353   2.438   3.168
 4088SOL     OW13162   6.763   1.698   0.741
 4088SOL    HW113163   6.712   1.766   0.793
 4088SOL    HW213164   6.728   1.607   0.763
 4089SOL     OW13165   0.114   6.490   3.154
 4089SOL    HW113166   0.049   6.487   3.078
 4089SOL    HW213167   0.080   6.434   3.229
 4090SOL     OW13168   2.616   3.946   5.813
 4090SOL    HW113169   2.669   3.972   5.732
 4090SOL    HW213170   2.677   3.916   5.886
 4091SOL     OW13171   6.057   6.647   6.951
 4091SOL    HW113172   5.988   6.579   6.974
 4091SOL    HW213173   6.121   6.657   0.012
 4092SOL     OW13174   6.963   2.693   5.198
 4092SOL    HW113175   6.914   2.688   5.111
 4092SOL    HW213176   6.921   2.763   5.255
 4093SOL     OW13177   4.767   0.222   3.847
 4093SOL    HW113178   4.699   0.287   3.812
 4093SOL    HW213179   4.729   0.130   3.848
 4094SOL     OW13180   2.473   5.272   5.160
 4094SOL    HW113181   2.498   5.360   5.201
 4094SOL    HW213182   2.556   5.224   5.132
 4095SOL     OW13183   0.736   3.766   6.301
 4095SOL    HW113184   0.725   3.679   6.350
 4095SOL    HW213185   0.823   3.809   6.329
 4096SOL     OW13186   4.688   5.680   0.776
 4096SOL    HW113187   4.763   5.689   0.842
 4096SOL    HW213188   4.694   5.754   0.709
 4097SOL     OW13189   3.306   4.147   6.086
 4097SOL    HW113190   3.211   4.175   6.072
 4097SOL    HW213191   3.367   4.219   6.053
 4098SOL     OW13192   0.290   3.169   2.444
 4098SOL    HW113193   0.204   3.173   2.495
 4098SOL    HW213194   0.340   3.255   2.455
 4099SOL     OW13195   2.909   5.059   1.173
 4099SOL    HW113196   2.964   5.137   1.144
 4099SOL    HW213197   2.949   5.020   1.256
 4100SOL     OW13198   5.866   5.820   4.260
 4100SOL    HW113199   5.952   5.811   4.210
 4100SOL    HW213200   5.851   5.739   4.316
 4101SOL     OW13201   5.883   0.714   6.980
 4101SOL    HW113202   5.975   0.741   6.951
 4101SOL    HW213203   5.838   0.792   0.008
 4102SOL     OW13204   6.771   0.542   1.364
 4102SOL    HW113205   6.783   0.571   1.459
 4102SOL    HW213206   6.710   0.606   1.318
 4103SOL     OW13207   0.715   0.779   1.894
 4103SOL    HW113208   0.708   0.779   1.795
 4103SOL    HW213209   0.722   0.873   1.927
 4104SOL     OW13210   1.236   4.524   2.315
 4104SOL    HW113211   1.285   4.481   2.240
 4104SOL    HW213212   1.209   4.454   2.381
 4105SOL     OW13213   4.092   5.601   1.048
 4105SOL    HW113214   4.021   5.530   1.048
 4105SOL    HW213215   4.064   5.675   1.109
 4106SOL     OW13216   0.386   3.422   4.852
 4106SOL    HW113217   0.302   3.383   4.814
 4106SOL    HW213218   0.380   3.423   4.952
 4107SOL     OW13219   0.887   6.650   0.801
 4107SOL    HW113220   0.825   6.573   0.817
 4107SOL    HW213221   0.981   6.617   0.800
 4108SOL     OW13222   0.315   4.625   6.128
 4108SOL    HW113223   0.316   4.723   6.148
 4108SOL    HW213224   0.304   4.574   6.214
 4109SOL     OW13225   4.505   6.403   4.622
 4109SOL    HW113226   4.451   6.453   4.690
 4109SOL    HW213227   4.597   6.442   4.617
 4110SOL     OW13228   4.270   3.729   6.901
 4110SOL    HW113229   4.171   3.724   6.890
 4110SOL    HW213230   4.313   3.747   6.813
 4111SOL     OW13231   3.207   2.796   6.900
 4111SOL    HW113232   3.286   2.858   6.897
 4111SOL    HW213233   3.174   2.789   6.995
 4112SOL     OW13234   5.066   1.824   5.527
 4112SOL    HW113235   5.164   1.833   5.509
 4112SOL    HW213236   5.043   1.874   5.610
 4113SOL     OW13237   4.076   6.048   4.713
 4113SOL    HW113238   3.984   6.082   4.735
 4113SOL    HW213239   4.092   5.961   4.758
 4114SOL     OW13240   3.442   1.988   3.882
 4114SOL    HW113241   3.419   2.026   3.793
 4114SOL    HW213242   3.539   1.962   3.884
 4115SOL     OW13243   4.905   5.916   2.129
 4115SOL    HW113244   4.833   5.985   2.133
 4115SOL    HW213245   4.901   5.858   2.211
 4116SOL     OW13246   4.467   2.245   1.420
 4116SOL    HW113247   4.403   2.314   1.387
 4116SOL    HW213248   4.516   2.205   1.343
 4117SOL     OW13249   0.596   4.824   1.681
 4117SOL    HW113250   0.600   4.861   1.588
 4117SOL    HW213251   0.510   4.852   1.724
 4118SOL     OW13252   1.324   6.621   0.786
 4118SOL    HW113253   1.345   6.525   0.766
 4118SOL    HW213254   1.280   6.662   0.707
 4119SOL     OW13255   4.015   1.323   3.648
 4119SOL    HW113256   4.005   1.397   3.715
 4119SOL    HW213257   4.088   1.346   3.583
 4120SOL     OW13258   4.611   6.337   1.812
 4120SOL    HW113259   4.574   6.409   1.872
 4120SOL    HW213260   4.557   6.253   1.824
 4121SOL     OW13261   6.675   1.778   4.790
 4121SOL    HW113262   6.691   1.857   4.848
 4121SOL    HW213263   6.588   1.735   4.816
 4122SOL     OW13264   1.040   6.244   5.388
 4122SOL    HW113265   1.045   6.227   5.486
 4122SOL    HW213266   1.007   6.337   5.372
 4123SOL     OW13267   5.093   4.845   5.574
 4123SOL    HW113268   5.166   4.861   5.508
 4123SOL    HW213269   5.005   4.871   5.533
 4124SOL     OW13270   6.298   5.450   5.236
 4124SOL    HW113271   6.303   5.468   5.138
 4124SOL    HW213272   6.203   5.433   5.262
 4125SOL     OW13273   4.802   0.574   1.731
 4125SOL    HW113274   4.892   0.597   1.694
 4125SOL    HW213275   4.752   0.518   1.665
 4126SOL     OW13276   1.338   4.473   3.945
 4126SOL    HW113277   1.393   4.496   3.865
 4126SOL    HW213278   1.321   4.375   3.947
 4127SOL     OW13279   5.223   3.866   4.115
 4127SOL    HW113280   5.153   3.796   4.101
 4127SOL    HW213281   5.247   3.870   4.212
 4128SOL     OW13282   1.921   3.939   2.451
 4128SOL    HW113283   1.888   3.892   2.369
 4128SOL    HW213284   2.021   3.943   2.449
 4129SOL     OW13285   5.422   1.980   6.154
 4129SOL    HW113286   5.346   2.004   6.215
 4129SOL    HW213287   5.491   2.053   6.156
 4130SOL     OW13288   0.066   3.643   5.806
 4130SOL    HW113289   0.157   3.612   5.777
 4130SOL    HW213290   0.062   3.743   5.801
 4131SOL     OW13291   0.868   5.898   3.781
 4131SOL    HW113292   0.879   5.814   3.728
 4131SOL    HW213293   0.782   5.942   3.757
 4132SOL     OW13294   5.923   4.114   3.834
 4132SOL    HW113295   5.902   4.186   3.768
 4132SOL    HW213296   5.876   4.030   3.807
 4133SOL     OW13297   2.955   6.742   1.520
 4133SOL    HW113298   3.013   6.708   1.446
 4133SOL    HW213299   2.942   6.841   1.509
 4134SOL     OW13300   1.589   2.334   0.387
 4134SOL    HW113301   1.508   2.386   0.416
 4134SOL    HW213302   1.560   2.255   0.334
 4135SOL     OW13303   2.128   0.661   2.419
 4135SOL    HW113304   2.121   0.679   2.321
 4135SOL    HW213305   2.039   0.679   2.462
 4136SOL     OW13306   0.772   2.000   4.032
 4136SOL    HW113307   0.689   1.946   4.017
 4136SOL    HW213308   0.757   2.064   4.107
 4137SOL     OW13309   2.307   3.806   1.109
 4137SOL    HW113310   2.376   3.791   1.180
 4137SOL    HW213311   2.330   3.750   1.029
 4138SOL     OW13312   3.632   4.898   4.193
 4138SOL    HW113313   3.714   4.886   4.137
 4138SOL    HW213314   3.551   4.872   4.140
 4139SOL     OW13315   2.152   2.277   6.118
 4139SOL    HW113316   2.227   2.221   6.155
 4139SOL    HW213317   2.166   2.290   6.020
 4140SOL     OW13318   3.329   0.645   5.347
 4140SOL    HW113319   3.395   0.698   5.400
 4140SOL    HW213320   3.303   0.696   5.265
 4141SOL     OW13321   5.344   5.295   1.308
 4141SOL    HW113322   5.439   5.266   1.313
 4141SOL    HW213323   5.285   5.215   1.302
 4142SOL     OW13324   6.609   5.555   1.020
 4142SOL    HW113325   6.704   5.533   1.042
 4142SOL    HW213326   6.549   5.514   1.089
 4143SOL     OW13327   0.020   3.521   0.903
 4143SOL    HW113328   0.025   3.481   0.811
 4143SOL    HW213329   6.966   3.593   0.905
 4144SOL     OW13330   5.777   2.382   1.103
 4144SOL    HW113331   5.783   2.286   1.078
 4144SOL    HW213332   5.744   2.435   1.025
 4145SOL     OW13333   6.968   5.848   1.745
 4145SOL    HW113334   6.884   5.864   1.693
 4145SOL    HW213335   6.994   5.752   1.739
 4146SOL     OW13336   5.990   0.769   5.706
 4146SOL    HW113337   6.078   0.722   5.708
 4146SOL    HW213338   5.966   0.801   5.798
 4147SOL     OW13339   3.661   1.780   5.345
 4147SOL    HW113340   3.756   1.761   5.320
 4147SOL    HW213341   3.636   1.873   5.315
 4148SOL     OW13342   0.534   6.870   3.909
 4148SOL    HW113343   0.453   6.812   3.920
 4148SOL    HW213344   0.512   6.947   3.848
 4149SOL     OW13345   0.457   3.508   0.332
 4149SOL    HW113346   0.413   3.531   0.419
 4149SOL    HW213347   0.536   3.567   0.317
 4150SOL     OW13348   5.963   0.802   6.001
 4150SOL    HW113349   6.044   0.742   5.998
 4150SOL    HW213350   5.984   0.883   6.055
 4151SOL     OW13351   5.440   5.850   0.185
 4151SOL    HW113352   5.391   5.865   0.100
 4151SOL    HW213353   5.432   5.754   0.211
 4152SOL     OW13354   3.142   4.894   1.615
 4152SOL    HW113355   3.190   4.975   1.650
 4152SOL    HW213356   3.209   4.823   1.592
 4153SOL     OW13357   5.313   5.653   6.539
 4153SOL    HW113358   5.329   5.582   6.471
 4153SOL    HW213359   5.348   5.740   6.506
 4154SOL     OW13360   6.532   3.768   5.510
 4154SOL    HW113361   6.609   3.791   5.569
 4154SOL    HW213362   6.566   3.732   5.424
 4155SOL     OW13363   0.274   3.400   3.226
 4155SOL    HW113364   0.222   3.435   3.303
 4155SOL    HW213365   0.366   3.439   3.226
 4156SOL     OW13366   5.612   0.208   5.021
 4156SOL    HW113367   5.600   0.143   5.096
 4156SOL    HW213368   5.618   0.158   4.935
 4157SOL     OW13369   3.596   0.293   3.763
 4157SOL    HW113370   3.561   0.379   3.801
 4157SOL    HW213371   3.695   0.293   3.769
 4158SOL     OW13372   1.245   5.168   3.829
 4158SOL    HW113373   1.168   5.227   3.805
 4158SOL    HW213374   1.325   5.224   3.847
 4159SOL     OW13375   1.697   3.101   4.161
 4159SOL    HW113376   1.625   3.080   4.095
 4159SOL    HW213377   1.656   3.145   4.242
 4160SOL     OW13378   6.261   0.666   1.117
 4160SOL    HW113379   6.263   0.727   1.196
 4160SOL    HW213380   6.175   0.680   1.066
 4161SOL     OW13381   2.071   0.291   6.661
 4161SOL    HW113382   2.140   0.329   6.599
 4161SOL    HW213383   1.980   0.317   6.628
 4162SOL     OW13384   6.086   0.480   4.862
 4162SOL    HW113385   6.165   0.492   4.802
 4162SOL    HW213386   6.077   0.384   4.887
 4163SOL     OW13387   6.174   1.666   3.039
 4163SOL    HW113388   6.249   1.625   2.987
 4163SOL    HW213389   6.167   1.763   3.016
 4164SOL     OW13390   1.779   0.241   6.845
 4164SOL    HW113391   1.687   0.266   6.815
 4164SOL    HW213392   1.786   0.141   6.849
 4165SOL     OW13393   4.582   6.771   0.862
 4165SOL    HW113394   4.520   6.762   0.785
 4165SOL    HW213395   4.590   6.867   0.888
 4166SOL     OW13396   4.908   2.630   1.316
 4166SOL    HW113397   4.989   2.587   1.275
 4166SOL    HW213398   4.935   2.681   1.397
 4167SOL     OW13399   2.482   3.267   1.194
 4167SOL    HW113400   2.518   3.253   1.286
 4167SOL    HW213401   2.496   3.363   1.167
 4168SOL     OW13402   0.428   4.458   1.216
 4168SOL    HW113403   0.444   4.476   1.313
 4168SOL    HW213404   0.515   4.456   1.168
 4169SOL     OW13405   5.079   3.848   4.623
 4169SOL    HW113406   5.170   3.814   4.649
 4169SOL    HW213407   5.010   3.805   4.681
 4170SOL     OW13408   3.927   3.192   5.236
 4170SOL    HW113409   3.960   3.121   5.299
 4170SOL    HW213410   3.858   3.152   5.176
 4171SOL     OW13411   5.215   3.932   0.911
 4171SOL    HW113412   5.269   3.851   0.934
 4171SOL    HW213413   5.248   3.972   0.826
 4172SOL     OW13414   6.903   2.406   6.675
 4172SOL    HW113415   6.918   2.491   6.625
 4172SOL    HW213416   6.811   2.407   6.715
 4173SOL     OW13417   5.497   3.196   5.311
 4173SOL    HW113418   5.443   3.267   5.357
 4173SOL    HW213419   5.568   3.163   5.373
 4174SOL     OW13420   4.878   0.951   4.134
 4174SOL    HW113421   4.835   1.005   4.206
 4174SOL    HW213422   4.832   0.862   4.128
 4175SOL     OW13423   3.151   6.628   4.667
 4175SOL    HW113424   3.166   6.653   4.571
 4175SOL    HW213425   3.136   6.529   4.674
 4176SOL     OW13426   3.901   0.332   2.294
 4176SOL    HW113427   3.832   0.317   2.364
 4176SOL    HW213428   3.940   0.245   2.265
 4177SOL     OW13429   0.344   4.913   4.981
 4177SOL    HW113430   0.400   4.990   4.949
 4177SOL    HW213431   0.402   4.850   5.033
 4178SOL     OW13432   3.691   0.995   5.102
 4178SOL    HW113433   3.718   1.091   5.091
 4178SOL    HW213434   3.752   0.951   5.168
 4179SOL     OW13435   5.827   3.371   4.027
 4179SOL    HW113436   5.895   3.342   3.959
 4179SOL    HW213437   5.811   3.296   4.091
 4180SOL     OW13438   5.326   4.453   1.923
 4180SOL    HW113439   5.252   4.407   1.874
 4180SOL    HW213440   5.336   4.412   2.014
 4181SOL     OW13441   1.529   2.202   6.077
 4181SOL    HW113442   1.509   2.162   5.988
 4181SOL    HW213443   1.475   2.156   6.147
 4182SOL     OW13444   0.260   0.778   2.599
 4182SOL    HW113445   0.186   0.744   2.657
 4182SOL    HW213446   0.223   0.844   2.533
 4183SOL     OW13447   2.510   1.273   1.899
 4183SOL    HW113448   2.481   1.368   1.886
 4183SOL    HW213449   2.436   1.221   1.941
 4184SOL     OW13450   3.787   5.114   1.203
 4184SOL    HW113451   3.875   5.083   1.238
 4184SOL    HW213452   3.716   5.098   1.272
 4185SOL     OW13453   0.233   5.454   3.496
 4185SOL    HW113454   0.221   5.530   3.559
 4185SOL    HW213455   0.286   5.382   3.541
 4186SOL     OW13456   1.990   4.095   0.094
 4186SOL    HW113457   1.934   4.046   0.160
 4186SOL    HW213458   1.932   4.155   0.039
 4187SOL     OW13459   3.712   3.346   5.910
 4187SOL    HW113460   3.748   3.268   5.860
 4187SOL    HW213461   3.621   3.369   5.876
 4188SOL     OW13462   4.502   0.856   4.243
 4188SOL    HW113463   4.556   0.772   4.247
 4188SOL    HW213464   4.437   0.858   4.319
 4189SOL     OW13465   2.937   1.859   4.112
 4189SOL    HW113466   3.021   1.863   4.166
 4189SOL    HW213467   2.870   1.923   4.149
 4190SOL     OW13468   2.936   0.056   6.376
 4190SOL    HW113469   3.004   7.008   6.411
 4190SOL    HW213470   2.942   0.143   6.426
 4191SOL     OW13471   5.518   3.268   3.048
 4191SOL    HW113472   5.535   3.308   2.958
 4191SOL    HW213473   5.603   3.232   3.085
 4192SOL     OW13474   6.657   1.745   3.141
 4192SOL    HW113475   6.648   1.787   3.231
 4192SOL    HW213476   6.566   1.732   3.101
 4193SOL     OW13477   2.434   6.571   2.205
 4193SOL    HW113478   2.447   6.670   2.198
 4193SOL    HW213479   2.392   6.550   2.293
 4194SOL     OW13480   6.774   1.997   4.532
 4194SOL    HW113481   6.851   1.938   4.556
 4194SOL    HW213482   6.711   2.002   4.609
 4195SOL     OW13483   3.974   0.318   1.203
 4195SOL    HW113484   3.923   0.403   1.193
 4195SOL    HW213485   4.009   0.311   1.296
 4196SOL     OW13486   5.880   2.649   3.929
 4196SOL    HW113487   5.925   2.574   3.977
 4196SOL    HW213488   5.781   2.634   3.929
 4197SOL     OW13489   5.359   4.174   4.125
 4197SOL    HW113490   5.261   4.183   4.106
 4197SOL    HW213491   5.372   4.145   4.219
 4198SOL     OW13492   6.213   3.738   0.108
 4198SOL    HW113493   6.276   3.796   0.057
 4198SOL    HW213494   6.209   3.648   0.064
 4199SOL     OW13495   2.942   3.270   5.077
 4199SOL    HW113496   2.885   3.294   5.155
 4199SOL    HW213497   3.028   3.321   5.081
 4200SOL     OW13498   2.308   6.540   6.473
 4200SOL    HW113499   2.393   6.584   6.445
 4200SOL    HW213500   2.301   6.451   6.428
 4201SOL     OW13501   6.278   6.739   3.102
 4201SOL    HW113502   6.219   6.678   3.155
 4201SOL    HW213503   6.328   6.686   3.034
 4202SOL     OW13504   4.941   4.540   6.052
 4202SOL    HW113505   4.870   4.515   5.986
 4202SOL    HW213506   4.943   4.474   6.127
 4203SOL     OW13507   4.636   6.098   3.252
 4203SOL    HW113508   4.663   6.030   3.185
 4203SOL    HW213509   4.549   6.139   3.225
 4204SOL     OW13510   3.243   2.892   2.050
 4204SOL    HW113511   3.162   2.835   2.063
 4204SOL    HW213512   3.319   2.853   2.102
 4205SOL     OW13513   3.158   4.895   4.417
 4205SOL    HW113514   3.196   4.972   4.468
 4205SOL    HW213515   3.229   4.825   4.405
 4206SOL     OW13516   4.715   1.095   5.846
 4206SOL    HW113517   4.759   1.008   5.869
 4206SOL    HW213518   4.627   1.076   5.802
 4207SOL     OW13519   1.883   1.115   1.799
 4207SOL    HW113520   1.861   1.160   1.713
 4207SOL    HW213521   1.843   1.166   1.875
 4208SOL     OW13522   1.742   2.465   0.997
 4208SOL    HW113523   1.723   2.442   1.092
 4208SOL    HW213524   1.739   2.382   0.941
 4209SOL     OW13525   1.752   0.736   4.888
 4209SOL    HW113526   1.661   0.694   4.886
 4209SOL    HW213527   1.749   0.824   4.839
 4210SOL     OW13528   3.445   3.484   1.718
 4210SOL    HW113529   3.430   3.507   1.814
 4210SOL    HW213530   3.414   3.560   1.661
 4211SOL     OW13531   4.691   5.039   5.131
 4211SOL    HW113532   4.608   4.990   5.159
 4211SOL    HW213533   4.757   4.973   5.096
 4212SOL     OW13534   6.520   1.510   2.181
 4212SOL    HW113535   6.547   1.579   2.249
 4212SOL    HW213536   6.596   1.447   2.166
 4213SOL     OW13537   2.229   0.995   2.443
 4213SOL    HW113538   2.182   1.029   2.525
 4213SOL    HW213539   2.309   0.942   2.470
 4214SOL     OW13540   0.713   3.527   6.447
 4214SOL    HW113541   0.666   3.464   6.508
 4214SOL    HW213542   0.810   3.507   6.446
 4215SOL     OW13543   0.666   5.513   4.335
 4215SOL    HW113544   0.704   5.440   4.392
 4215SOL    HW213545   0.709   5.601   4.360
 4216SOL     OW13546   1.239   1.985   3.887
 4216SOL    HW113547   1.272   1.896   3.856
 4216SOL    HW213548   1.311   2.053   3.876
 4217SOL     OW13549   0.261   6.964   2.302
 4217SOL    HW113550   0.211   6.974   2.216
 4217SOL    HW213551   0.223   6.888   2.354
 4218SOL     OW13552   4.755   0.278   1.591
 4218SOL    HW113553   4.793   0.230   1.670
 4218SOL    HW213554   4.679   0.226   1.552
 4219SOL     OW13555   3.530   4.742   5.305
 4219SOL    HW113556   3.532   4.654   5.353
 4219SOL    HW213557   3.471   4.806   5.356
 4220SOL     OW13558   6.615   3.612   3.295
 4220SOL    HW113559   6.653   3.703   3.306
 4220SOL    HW213560   6.516   3.619   3.283
 4221SOL     OW13561   5.326   5.943   6.787
 4221SOL    HW113562   5.352   6.030   6.830
 4221SOL    HW213563   5.367   5.867   6.838
 4222SOL     OW13564   6.096   2.177   2.327
 4222SOL    HW113565   6.162   2.240   2.286
 4222SOL    HW213566   6.135   2.138   2.410
 4223SOL     OW13567   3.014   3.507   2.888
 4223SOL    HW113568   2.959   3.546   2.815
 4223SOL    HW213569   3.095   3.463   2.850
 4224SOL     OW13570   4.705   2.789   4.741
 4224SOL    HW113571   4.732   2.862   4.803
 4224SOL    HW213572   4.620   2.747   4.774
 4225SOL     OW13573   5.731   0.817   4.801
 4225SOL    HW113574   5.675   0.885   4.850
 4225SOL    HW213575   5.671   0.756   4.749
 4226SOL     OW13576   1.825   0.701   3.780
 4226SOL    HW113577   1.737   0.742   3.800
 4226SOL    HW213578   1.820   0.649   3.695
 4227SOL     OW13579   4.059   4.727   0.395
 4227SOL    HW113580   4.137   4.783   0.370
 4227SOL    HW213581   4.056   4.646   0.337
 4228SOL     OW13582   5.699   6.528   3.985
 4228SOL    HW113583   5.767   6.484   4.042
 4228SOL    HW213584   5.661   6.608   4.033
 4229SOL     OW13585   3.807   4.807   6.562
 4229SOL    HW113586   3.805   4.882   6.496
 4229SOL    HW213587   3.845   4.726   6.517
 4230SOL     OW13588   2.761   0.226   5.216
 4230SOL    HW113589   2.671   0.210   5.255
 4230SOL    HW213590   2.825   0.249   5.290
 4231SOL     OW13591   4.925   6.361   5.404
 4231SOL    HW113592   4.914   6.415   5.487
 4231SOL    HW213593   4.976   6.278   5.426
 4232SOL     OW13594   1.233   5.664   1.630
 4232SOL    HW113595   1.292   5.601   1.579
 4232SOL    HW213596   1.280   5.751   1.642
 4233SOL     OW13597   6.014   0.586   6.520
 4233SOL    HW113598   5.979   0.526   6.592
 4233SOL    HW213599   6.074   0.534   6.459
 4234SOL     OW13600   2.652   4.972   5.980
 4234SOL    HW113601   2.648   5.007   6.073
 4234SOL    HW213602   2.734   5.007   5.935
 4235SOL     OW13603   6.457   4.571   5.688
 4235SOL    HW113604   6.406   4.504   5.742
 4235SOL    HW213605   6.517   4.623   5.748
 4236SOL     OW13606   0.433   2.430   3.705
 4236SOL    HW113607   0.502   2.501   3.714
 4236SOL    HW213608   0.347   2.470   3.672
 4237SOL     OW13609   5.745   4.146   4.595
 4237SOL    HW113610   5.772   4.087   4.519
 4237SOL    HW213611   5.773   4.240   4.576
 4238SOL     OW13612   4.250   5.306   3.884
 4238SOL    HW113613   4.276   5.211   3.865
 4238SOL    HW213614   4.231   5.316   3.982
 4239SOL     OW13615   4.705   6.839   5.009
 4239SOL    HW113616   4.701   6.910   4.938
 4239SOL    HW213617   4.700   6.882   5.099
 4240SOL     OW13618   2.562   5.106   6.835
 4240SOL    HW113619   2.580   5.153   6.922
 4240SOL    HW213620   2.598   5.013   6.840
 4241SOL     OW13621   5.144   0.040   1.383
 4241SOL    HW113622   5.235   0.076   1.363
 4241SOL    HW213623   5.113   0.075   1.472
 4242SOL     OW13624   2.324   0.080   2.622
 4242SOL    HW113625   2.264   0.048   2.695
 4242SOL    HW213626   2.392   0.009   2.601
 4243SOL     OW13627   0.929   3.571   1.888
 4243SOL    HW113628   0.957   3.495   1.947
 4243SOL    HW213629   0.980   3.653   1.914
 4244SOL     OW13630   4.914   5.989   1.330
 4244SOL    HW113631   4.849   5.914   1.342
 4244SOL    HW213632   4.866   6.076   1.337
 4245SOL     OW13633   6.582   3.008   0.302
 4245SOL    HW113634   6.566   3.102   0.331
 4245SOL    HW213635   6.607   2.951   0.380
 4246SOL     OW13636   5.307   2.389   2.793
 4246SOL    HW113637   5.208   2.379   2.808
 4246SOL    HW213638   5.327   2.379   2.695
 4247SOL     OW13639   2.069   5.198   4.657
 4247SOL    HW113640   2.109   5.135   4.724
 4247SOL    HW213641   1.979   5.227   4.688
 4248SOL     OW13642   1.872   0.705   2.502
 4248SOL    HW113643   1.812   0.785   2.496
 4248SOL    HW213644   1.817   0.624   2.524
 4249SOL     OW13645   0.324   1.185   4.447
 4249SOL    HW113646   0.226   1.199   4.433
 4249SOL    HW213647   0.339   1.143   4.537
 4250SOL     OW13648   0.692   5.531   4.069
 4250SOL    HW113649   0.766   5.472   4.038
 4250SOL    HW213650   0.667   5.507   4.163
 4251SOL     OW13651   5.791   2.544   6.670
 4251SOL    HW113652   5.784   2.613   6.598
 4251SOL    HW213653   5.720   2.560   6.739
 4252SOL     OW13654   6.118   6.355   5.435
 4252SOL    HW113655   6.193   6.417   5.458
 4252SOL    HW213656   6.050   6.357   5.508
 4253SOL     OW13657   3.779   6.104   2.328
 4253SOL    HW113658   3.805   6.081   2.422
 4253SOL    HW213659   3.743   6.022   2.283
 4254SOL     OW13660   2.402   3.259   6.935
 4254SOL    HW113661   2.327   3.302   6.986
 4254SOL    HW213662   2.390   3.160   6.935
 4255SOL     OW13663   0.852   4.457   2.576
 4255SOL    HW113664   0.756   4.437   2.593
 4255SOL    HW213665   0.886   4.521   2.644
 4256SOL     OW13666   0.947   4.525   1.769
 4256SOL    HW113667   1.035   4.566   1.792
 4256SOL    HW213668   0.944   4.504   1.671
 4257SOL     OW13669   6.049   1.323   4.708
 4257SOL    HW113670   6.004   1.237   4.686
 4257SOL    HW213671   6.055   1.334   4.807
 4258SOL     OW13672   3.185   5.784   0.768
 4258SOL    HW113673   3.135   5.704   0.734
 4258SOL    HW213674   3.154   5.806   0.860
 4259SOL     OW13675   1.506   6.473   1.425
 4259SOL    HW113676   1.498   6.473   1.524
 4259SOL    HW213677   1.565   6.397   1.396
 4260SOL     OW13678   4.942   6.934   4.806
 4260SOL    HW113679   4.885   6.986   4.870
 4260SOL    HW213680   5.028   6.910   4.851
 4261SOL     OW13681   2.573   0.128   4.813
 4261SOL    HW113682   2.635   0.050   4.802
 4261SOL    HW213683   2.619   0.200   4.865
 4262SOL     OW13684   1.068   5.004   6.226
 4262SOL    HW113685   1.084   4.970   6.133
 4262SOL    HW213686   0.977   4.978   6.256
 4263SOL     OW13687   2.711   2.351   3.551
 4263SOL    HW113688   2.742   2.360   3.457
 4263SOL    HW213689   2.734   2.260   3.586
 4264SOL     OW13690   5.451   1.433   4.445
 4264SOL    HW113691   5.526   1.416   4.381
 4264SOL    HW213692   5.470   1.385   4.531
 4265SOL     OW13693   2.730   0.342   1.286
 4265SOL    HW113694   2.767   0.434   1.274
 4265SOL    HW213695   2.802   0.281   1.319
 4266SOL     OW13696   1.081   0.053   6.989
 4266SOL    HW113697   1.019   0.130   7.002
 4266SOL    HW213698   1.126   0.061   6.900
 4267SOL     OW13699   2.191   3.955   3.878
 4267SOL    HW113700   2.209   4.018   3.802
 4267SOL    HW213701   2.184   3.862   3.842
 4268SOL     OW13702   1.463   5.067   6.214
 4268SOL    HW113703   1.544   5.125   6.218
 4268SOL    HW213704   1.405   5.085   6.294
 4269SOL     OW13705   3.132   1.914   4.348
 4269SOL    HW113706   3.195   1.989   4.328
 4269SOL    HW213707   3.184   1.829   4.360
 4270SOL     OW13708   3.626   3.049   1.144
 4270SOL    HW113709   3.570   3.129   1.123
 4270SOL    HW213710   3.697   3.039   1.074
 4271SOL     OW13711   6.261   0.465   0.946
 4271SOL    HW113712   6.258   0.505   0.855
 4271SOL    HW213713   6.275   0.537   1.014
 4272SOL     OW13714   6.836   3.273   5.567
 4272SOL    HW113715   6.845   3.354   5.625
 4272SOL    HW213716   6.779   3.294   5.488
 4273SOL     OW13717   4.668   6.154   4.624
 4273SOL    HW113718   4.603   6.229   4.624
 4273SOL    HW213719   4.704   6.141   4.716
 4274SOL     OW13720   6.927   6.652   1.525
 4274SOL    HW113721   6.848   6.623   1.472
 4274SOL    HW213722   6.899   6.720   1.594
 4275SOL     OW13723   0.950   2.500   3.779
 4275SOL    HW113724   1.032   2.452   3.810
 4275SOL    HW213725   0.871   2.470   3.832
 4276SOL     OW13726   2.699   5.458   4.318
 4276SOL    HW113727   2.663   5.524   4.384
 4276SOL    HW213728   2.688   5.494   4.226
 4277SOL     OW13729   6.462   5.531   4.473
 4277SOL    HW113730   6.538   5.596   4.472
 4277SOL    HW213731   6.435   5.509   4.379
 4278SOL     OW13732   0.493   6.637   2.267
 4278SOL    HW113733   0.489   6.546   2.307
 4278SOL    HW213734   0.569   6.688   2.306
 4279SOL     OW13735   1.405   1.809   2.356
 4279SOL    HW113736   1.396   1.787   2.259
 4279SOL    HW213737   1.354   1.742   2.411
 4280SOL     OW13738   6.673   0.180   6.600
 4280SOL    HW113739   6.659   0.270   6.558
 4280SOL    HW213740   6.601   0.161   6.666
 4281SOL     OW13741   4.620   5.622   4.115
 4281SOL    HW113742   4.654   5.712   4.088
 4281SOL    HW213743   4.554   5.589   4.046
 4282SOL     OW13744   2.975   4.109   1.118
 4282SOL    HW113745   2.922   4.026   1.139
 4282SOL    HW213746   3.014   4.101   1.027
 4283SOL     OW13747   4.850   0.802   3.755
 4283SOL    HW113748   4.890   0.887   3.789
 4283SOL    HW213749   4.779   0.771   3.818
 4284SOL     OW13750   5.084   5.472   0.090
 4284SOL    HW113751   5.109   5.389   0.141
 4284SOL    HW213752   5.117   5.464   7.011
 4285SOL     OW13753   3.358   0.855   6.346
 4285SOL    HW113754   3.316   0.808   6.424
 4285SOL    HW213755   3.397   0.787   6.283
 4286SOL     OW13756   6.471   1.134   6.510
 4286SOL    HW113757   6.519   1.203   6.458
 4286SOL    HW213758   6.507   1.043   6.487
 4287SOL     OW13759   4.460   0.896   0.115
 4287SOL    HW113760   4.472   0.831   0.190
 4287SOL    HW213761   4.517   0.868   0.037
 4288SOL     OW13762   6.689   5.962   1.870
 4288SOL    HW113763   6.741   6.040   1.837
 4288SOL    HW213764   6.602   5.957   1.821
 4289SOL     OW13765   0.892   2.948   5.418
 4289SOL    HW113766   0.887   2.857   5.459
 4289SOL    HW213767   0.866   3.017   5.486
 4290SOL     OW13768   0.228   0.682   3.085
 4290SOL    HW113769   0.174   0.741   3.025
 4290SOL    HW213770   0.298   0.737   3.131
 4291SOL     OW13771   4.799   3.447   6.064
 4291SOL    HW113772   4.891   3.484   6.047
 4291SOL    HW213773   4.744   3.457   5.982
 4292SOL     OW13774   5.175   1.884   0.507
 4292SOL    HW113775   5.190   1.851   0.600
 4292SOL    HW213776   5.234   1.963   0.490
 4293SOL     OW13777   4.822   4.125   6.583
 4293SOL    HW113778   4.743   4.120   6.522
 4293SOL    HW213779   4.792   4.120   6.678
 4294SOL     OW13780   3.181   2.074   6.378
 4294SOL    HW113781   3.099   2.122   6.348
 4294SOL    HW213782   3.196   1.994   6.319
 4295SOL     OW13783   4.361   6.684   2.180
 4295SOL    HW113784   4.420   6.763   2.161
 4295SOL    HW213785   4.268   6.716   2.200
 4296SOL     OW13786   2.743   6.559   0.821
 4296SOL    HW113787   2.807   6.596   0.754
 4296SOL    HW213788   2.649   6.567   0.785
 4297SOL     OW13789   6.527   5.146   1.046
 4297SOL    HW113790   6.569   5.057   1.028
 4297SOL    HW213791   6.476   5.142   1.131
 4298SOL     OW13792   3.296   6.387   1.442
 4298SOL    HW113793   3.272   6.304   1.391
 4298SOL    HW213794   3.215   6.420   1.490
 4299SOL     OW13795   0.292   2.567   6.817
 4299SOL    HW113796   0.240   2.502   6.872
 4299SOL    HW213797   0.333   2.636   6.877
 4300SOL     OW13798   4.025   0.753   0.980
 4300SOL    HW113799   3.927   0.754   1.000
 4300SOL    HW213800   4.069   0.681   1.034
 4301SOL     OW13801   3.176   6.407   1.820
 4301SOL    HW113802   3.131   6.432   1.734
 4301SOL    HW213803   3.273   6.430   1.815
 4302SOL     OW13804   1.521   6.338   6.526
 4302SOL    HW113805   1.571   6.258   6.493
 4302SOL    HW213806   1.477   6.384   6.449
 4303SOL     OW13807   6.317   4.343   4.532
 4303SOL    HW113808   6.279   4.255   4.561
 4303SOL    HW213809   6.270   4.417   4.582
 4304SOL     OW13810   3.073   3.678   1.762
 4304SOL    HW113811   3.111   3.628   1.684
 4304SOL    HW213812   3.052   3.613   1.835
 4305SOL     OW13813   6.832   0.173   5.768
 4305SOL    HW113814   6.825   0.109   5.692
 4305SOL    HW213815   6.790   0.260   5.743
 4306SOL     OW13816   4.938   3.714   4.439
 4306SOL    HW113817   4.994   3.767   4.502
 4306SOL    HW213818   4.900   3.634   4.487
 4307SOL     OW13819   6.223   2.523   5.317
 4307SOL    HW113820   6.243   2.583   5.240
 4307SOL    HW213821   6.133   2.545   5.354
 4308SOL     OW13822   5.260   4.702   1.841
 4308SOL    HW113823   5.277   4.614   1.885
 4308SOL    HW213824   5.312   4.708   1.756
 4309SOL     OW13825   0.987   3.257   0.755
 4309SOL    HW113826   0.940   3.283   0.670
 4309SOL    HW213827   0.945   3.174   0.792
 4310SOL     OW13828   0.250   1.702   2.412
 4310SOL    HW113829   0.270   1.765   2.337
 4310SOL    HW213830   0.302   1.728   2.493
 4311SOL     OW13831   0.878   6.176   2.230
 4311SOL    HW113832   0.915   6.099   2.178
 4311SOL    HW213833   0.791   6.150   2.271
 4312SOL     OW13834   0.873   5.243   2.076
 4312SOL    HW113835   0.883   5.292   1.989
 4312SOL    HW213836   0.826   5.156   2.060
 4313SOL     OW13837   5.739   1.790   0.631
 4313SOL    HW113838   5.802   1.725   0.591
 4313SOL    HW213839   5.658   1.800   0.573
 4314SOL     OW13840   6.860   2.863   5.367
 4314SOL    HW113841   6.867   2.962   5.363
 4314SOL    HW213842   6.823   2.836   5.456
 4315SOL     OW13843   2.217   1.361   3.902
 4315SOL    HW113844   2.149   1.432   3.918
 4315SOL    HW213845   2.299   1.401   3.862
 4316SOL     OW13846   5.716   7.007   2.309
 4316SOL    HW113847   5.619   7.009   2.332
 4316SOL    HW213848   5.726   6.999   2.210
 4317SOL     OW13849   4.832   1.331   5.827
 4317SOL    HW113850   4.758   1.264   5.831
 4317SOL    HW213851   4.919   1.284   5.841
 4318SOL     OW13852   0.381   0.833   3.696
 4318SOL    HW113853   0.395   0.928   3.724
 4318SOL    HW213854   0.338   0.830   3.606
 4319SOL     OW13855   1.459   3.492   2.169
 4319SOL    HW113856   1.398   3.504   2.247
 4319SOL    HW213857   1.503   3.402   2.174
 4320SOL     OW13858   3.538   6.386   0.582
 4320SOL    HW113859   3.507   6.389   0.677
 4320SOL    HW213860   3.472   6.333   0.528
 4321SOL     OW13861   6.283   6.093   2.236
 4321SOL    HW113862   6.364   6.086   2.179
 4321SOL    HW213863   6.310   6.100   2.332
 4322SOL     OW13864   0.528   2.381   5.331
 4322SOL    HW113865   0.577   2.435   5.263
 4322SOL    HW213866   0.495   2.296   5.289
 4323SOL     OW13867   4.215   5.333   6.943
 4323SOL    HW113868   4.246   5.428   6.937
 4323SOL    HW213869   4.284   5.273   6.902
 4324SOL     OW13870   0.021   3.940   5.864
 4324SOL    HW113871   6.995   4.004   5.799
 4324SOL    HW213872   7.001   3.957   5.956
 4325SOL     OW13873   2.946   0.745   2.883
 4325SOL    HW113874   2.920   0.722   2.977
 4325SOL    HW213875   3.002   0.671   2.846
 4326SOL     OW13876   5.159   2.465   2.246
 4326SOL    HW113877   5.244   2.510   2.275
 4326SOL    HW213878   5.105   2.442   2.326
 4327SOL     OW13879   3.839   5.481   4.367
 4327SOL    HW113880   3.895   5.504   4.447
 4327SOL    HW213881   3.786   5.561   4.339
 4328SOL     OW13882   6.551   5.639   5.334
 4328SOL    HW113883   6.603   5.673   5.255
 4328SOL    HW213884   6.474   5.584   5.301
 4329SOL     OW13885   5.686   2.760   5.813
 4329SOL    HW113886   5.762   2.819   5.785
 4329SOL    HW213887   5.603   2.815   5.822
 4330SOL     OW13888   2.567   5.669   5.382
 4330SOL    HW113889   2.481   5.635   5.420
 4330SOL    HW213890   2.631   5.592   5.370
 4331SOL     OW13891   5.976   0.523   1.669
 4331SOL    HW113892   6.026   0.584   1.609
 4331SOL    HW213893   6.022   0.434   1.672
 4332SOL     OW13894   0.006   3.987   2.503
 4332SOL    HW113895   0.018   3.943   2.592
 4332SOL    HW213896   6.952   3.938   2.450
 4333SOL     OW13897   4.229   2.018   4.858
 4333SOL    HW113898   4.186   2.097   4.900
 4333SOL    HW213899   4.167   1.939   4.864
 4334SOL     OW13900   1.233   2.757   3.127
 4334SOL    HW113901   1.300   2.733   3.057
 4334SOL    HW213902   1.162   2.816   3.088
 4335SOL     OW13903   3.379   3.162   0.863
 4335SOL    HW113904   3.357   3.177   0.767
 4335SOL    HW213905   3.324   3.085   0.898
 4336SOL     OW13906   2.075   5.587   6.087
 4336SOL    HW113907   1.987   5.579   6.039
 4336SOL    HW213908   2.097   5.684   6.099
 4337SOL     OW13909   1.276   5.833   2.166
 4337SOL    HW113910   1.184   5.871   2.160
 4337SOL    HW213911   1.276   5.757   2.231
 4338SOL     OW13912   5.648   0.670   5.324
 4338SOL    HW113913   5.713   0.699   5.394
 4338SOL    HW213914   5.622   0.574   5.339
 4339SOL     OW13915   4.340   2.558   6.345
 4339SOL    HW113916   4.393   2.539   6.262
 4339SOL    HW213917   4.319   2.656   6.348
 4340SOL     OW13918   6.446   3.946   0.982
 4340SOL    HW113919   6.542   3.954   1.007
 4340SOL    HW213920   6.430   3.855   0.943
 4341SOL     OW13921   1.020   5.914   2.105
 4341SOL    HW113922   1.002   5.987   2.039
 4341SOL    HW213923   1.037   5.828   2.057
 4342SOL     OW13924   5.137   3.817   2.537
 4342SOL    HW113925   5.054   3.781   2.493
 4342SOL    HW213926   5.215   3.804   2.476
 4343SOL     OW13927   4.632   0.618   5.535
 4343SOL    HW113928   4.535   0.636   5.518
 4343SOL    HW213929   4.669   0.563   5.460
 4344SOL     OW13930   0.399   2.885   3.981
 4344SOL    HW113931   0.357   2.967   4.020
 4344SOL    HW213932   0.498   2.895   3.982
 4345SOL     OW13933   2.921   3.357   2.481
 4345SOL    HW113934   3.015   3.378   2.455
 4345SOL    HW213935   2.913   3.260   2.505
 4346SOL     OW13936   2.444   2.597   2.472
 4346SOL    HW113937   2.470   2.550   2.388
 4346SOL    HW213938   2.375   2.666   2.451
 4347SOL     OW13939   6.004   5.263   1.517
 4347SOL    HW113940   5.972   5.206   1.441
 4347SOL    HW213941   6.099   5.240   1.539
 4348SOL     OW13942   6.904   5.921   3.889
 4348SOL    HW113943   6.894   5.865   3.972
 4348SOL    HW213944   7.001   5.940   3.873
 4349SOL     OW13945   0.157   4.000   3.703
 4349SOL    HW113946   0.129   3.912   3.664
 4349SOL    HW213947   0.176   3.989   3.800
 4350SOL     OW13948   5.329   1.679   4.516
 4350SOL    HW113949   5.259   1.631   4.569
 4350SOL    HW213950   5.393   1.612   4.478
 4351SOL     OW13951   1.443   0.184   1.116
 4351SOL    HW113952   1.526   0.207   1.065
 4351SOL    HW213953   1.399   0.267   1.148
 4352SOL     OW13954   4.207   3.798   0.844
 4352SOL    HW113955   4.252   3.729   0.787
 4352SOL    HW213956   4.119   3.763   0.876
 4353SOL     OW13957   3.093   3.557   0.090
 4353SOL    HW113958   3.000   3.574   0.057
 4353SOL    HW213959   3.096   3.469   0.138
 4354SOL     OW13960   6.553   0.113   3.634
 4354SOL    HW113961   6.642   0.127   3.677
 4354SOL    HW213962   6.498   0.196   3.642
 4355SOL     OW13963   1.144   6.949   3.612
 4355SOL    HW113964   1.051   6.984   3.625
 4355SOL    HW213965   1.209   7.014   3.653
 4356SOL     OW13966   5.012   2.910   6.247
 4356SOL    HW113967   5.000   2.962   6.162
 4356SOL    HW213968   5.056   2.967   6.315
 4357SOL     OW13969   6.543   0.451   1.961
 4357SOL    HW113970   6.453   0.419   1.989
 4357SOL    HW213971   6.592   0.377   1.916
 4358SOL     OW13972   0.590   0.765   0.351
 4358SOL    HW113973   0.566   0.738   0.258
 4358SOL    HW213974   0.690   0.768   0.359
 4359SOL     OW13975   2.595   0.747   7.006
 4359SOL    HW113976   2.583   0.778   0.085
 4359SOL    HW213977   2.578   0.649   7.001
 4360SOL     OW13978   1.420   2.926   3.235
 4360SOL    HW113979   1.474   2.975   3.167
 4360SOL    HW213980   1.339   2.886   3.190
 4361SOL     OW13981   1.227   1.938   1.129
 4361SOL    HW113982   1.311   1.961   1.178
 4361SOL    HW213983   1.163   2.015   1.136
 4362SOL     OW13984   0.834   6.065   4.396
 4362SOL    HW113985   0.889   6.041   4.477
 4362SOL    HW213986   0.882   6.134   4.343
 4363SOL     OW13987   4.504   0.714   2.669
 4363SOL    HW113988   4.585   0.770   2.656
 4363SOL    HW213989   4.523   0.620   2.640
 4364SOL     OW13990   3.287   3.719   2.627
 4364SOL    HW113991   3.380   3.754   2.642
 4364SOL    HW213992   3.221   3.786   2.659
 4365SOL     OW13993   2.788   2.230   1.741
 4365SOL    HW113994   2.819   2.302   1.803
 4365SOL    HW213995   2.836   2.145   1.761
 4366SOL     OW13996   5.001   5.791   5.292
 4366SOL    HW113997   5.060   5.866   5.263
 4366SOL    HW213998   5.051   5.732   5.356
 4367SOL     OW13999   2.945   5.559   3.894
 4367SOL    HW114000   2.880   5.604   3.955
 4367SOL    HW214001   3.038   5.571   3.928
 4368SOL     OW14002   4.826   5.385   2.671
 4368SOL    HW114003   4.840   5.286   2.679
 4368SOL    HW214004   4.729   5.406   2.681
 4369SOL     OW14005   4.460   5.488   2.965
 4369SOL    HW114006   4.552   5.524   2.945
 4369SOL    HW214007   4.466   5.392   2.990
 4370SOL     OW14008   4.055   4.731   1.720
 4370SOL    HW114009   4.011   4.645   1.696
 4370SOL    HW214010   4.073   4.734   1.819
 4371SOL     OW14011   2.381   0.736   1.438
 4371SOL    HW114012   2.318   0.675   1.486
 4371SOL    HW214013   2.458   0.758   1.497
 4372SOL     OW14014   2.055   2.756   4.578
 4372SOL    HW114015   2.142   2.708   4.573
 4372SOL    HW214016   2.011   2.736   4.666
 4373SOL     OW14017   4.562   1.218   6.059
 4373SOL    HW114018   4.588   1.202   6.154
 4373SOL    HW214019   4.635   1.186   5.998
 4374SOL     OW14020   2.715   2.107   1.073
 4374SOL    HW114021   2.724   2.017   1.031
 4374SOL    HW214022   2.686   2.097   1.168
 4375SOL     OW14023   3.447   0.441   3.447
 4375SOL    HW114024   3.389   0.519   3.470
 4375SOL    HW214025   3.415   0.360   3.495
 4376SOL     OW14026   6.710   6.593   1.369
 4376SOL    HW114027   6.703   6.636   1.279
 4376SOL    HW214028   6.644   6.636   1.432
 4377SOL     OW14029   5.946   6.388   6.471
 4377SOL    HW114030   5.850   6.393   6.499
 4377SOL    HW214031   6.004   6.379   6.552
 4378SOL     OW14032   1.916   5.868   2.844
 4378SOL    HW114033   1.992   5.890   2.782
 4378SOL    HW214034   1.945   5.884   2.939
 4379SOL     OW14035   1.225   0.711   1.643
 4379SOL    HW114036   1.313   0.682   1.679
 4379SOL    HW214037   1.229   0.807   1.616
 4380SOL     OW14038   1.999   5.846   5.626
 4380SOL    HW114039   2.002   5.746   5.626
 4380SOL    HW214040   1.989   5.879   5.532
 4381SOL     OW14041   4.308   6.439   4.446
 4381SOL    HW114042   4.371   6.410   4.517
 4381SOL    HW214043   4.309   6.374   4.370
 4382SOL     OW14044   4.957   3.938   4.237
 4382SOL    HW114045   4.969   4.002   4.314
 4382SOL    HW214046   4.947   3.845   4.273
 4383SOL     OW14047   1.866   2.298   5.797
 4383SOL    HW114048   1.966   2.292   5.805
 4383SOL    HW214049   1.828   2.338   5.880
 4384SOL     OW14050   3.554   6.457   1.177
 4384SOL    HW114051   3.512   6.470   1.087
 4384SOL    HW214052   3.513   6.377   1.221
 4385SOL     OW14053   0.013   1.477   3.896
 4385SOL    HW114054   6.994   1.411   3.963
 4385SOL    HW214055   6.974   1.561   3.902
 4386SOL     OW14056   0.474   3.824   6.842
 4386SOL    HW114057   0.390   3.877   6.851
 4386SOL    HW214058   0.452   3.726   6.843
 4387SOL     OW14059   6.594   3.245   1.279
 4387SOL    HW114060   6.587   3.338   1.244
 4387SOL    HW214061   6.504   3.202   1.280
 4388SOL     OW14062   3.293   0.389   6.024
 4388SOL    HW114063   3.358   0.339   6.081
 4388SOL    HW214064   3.200   0.359   6.045
 4389SOL     OW14065   5.584   2.748   1.804
 4389SOL    HW114066   5.679   2.727   1.826
 4389SOL    HW214067   5.581   2.799   1.718
 4390SOL     OW14068   5.139   2.085   1.515
 4390SOL    HW114069   5.170   2.008   1.571
 4390SOL    HW214070   5.142   2.169   1.568
 4391SOL     OW14071   1.062   5.886   0.390
 4391SOL    HW114072   1.004   5.848   0.318
 4391SOL    HW214073   1.146   5.921   0.349
 4392SOL     OW14074   5.256   3.077   4.211
 4392SOL    HW114075   5.290   3.139   4.140
 4392SOL    HW214076   5.189   3.125   4.268
 4393SOL     OW14077   5.177   0.232   3.246
 4393SOL    HW114078   5.173   0.171   3.325
 4393SOL    HW214079   5.257   0.292   3.255
 4394SOL     OW14080   5.899   6.259   2.659
 4394SOL    HW114081   5.808   6.278   2.695
 4394SOL    HW214082   5.893   6.234   2.563
 4395SOL     OW14083   4.549   1.274   2.095
 4395SOL    HW114084   4.472   1.217   2.065
 4395SOL    HW214085   4.514   1.353   2.146
 4396SOL     OW14086   1.124   1.005   4.237
 4396SOL    HW114087   1.170   1.093   4.231
 4396SOL    HW214088   1.067   0.991   4.155
 4397SOL     OW14089   6.846   1.176   4.611
 4397SOL    HW114090   6.855   1.182   4.710
 4397SOL    HW214091   6.935   1.194   4.568
 4398SOL     OW14092   1.068   4.068   4.451
 4398SOL    HW114093   1.100   4.118   4.532
 4398SOL    HW214094   1.102   4.113   4.369
 4399SOL     OW14095   2.252   1.005   0.239
 4399SOL    HW114096   2.276   0.908   0.232
 4399SOL    HW214097   2.211   1.023   0.328
 4400SOL     OW14098   2.712   6.517   4.397
 4400SOL    HW114099   2.623   6.499   4.354
 4400SOL    HW214100   2.698   6.540   4.493
 4401SOL     OW14101   5.710   5.901   4.816
 4401SOL    HW114102   5.743   5.818   4.770
 4401SOL    HW214103   5.761   5.980   4.783
 4402SOL     OW14104   1.031   5.641   3.026
 4402SOL    HW114105   1.048   5.566   2.962
 4402SOL    HW214106   1.013   5.604   3.117
 4403SOL     OW14107   6.763   6.942   3.021
 4403SOL    HW114108   6.854   6.922   2.985
 4403SOL    HW214109   6.754   0.025   3.036
 4404SOL     OW14110   0.989   4.359   3.541
 4404SOL    HW114111   0.915   4.308   3.585
 4404SOL    HW214112   0.969   4.457   3.544
 4405SOL     OW14113   3.035   4.468   6.096
 4405SOL    HW114114   2.942   4.484   6.127
 4405SOL    HW214115   3.076   4.555   6.066
 4406SOL     OW14116   4.905   4.484   1.719
 4406SOL    HW114117   4.982   4.420   1.721
 4406SOL    HW214118   4.833   4.451   1.782
 4407SOL     OW14119   6.869   6.090   0.349
 4407SOL    HW114120   6.787   6.146   0.356
 4407SOL    HW214121   6.903   6.067   0.440
 4408SOL     OW14122   4.833   0.333   0.491
 4408SOL    HW114123   4.824   0.374   0.400
 4408SOL    HW214124   4.832   0.233   0.483
 4409SOL     OW14125   4.000   1.870   1.980
 4409SOL    HW114126   4.096   1.896   1.967
 4409SOL    HW214127   3.946   1.950   2.007
 4410SOL     OW14128   2.427   4.755   1.243
 4410SOL    HW114129   2.462   4.738   1.152
 4410SOL    HW214130   2.327   4.746   1.243
 4411SOL     OW14131   3.473   3.299   2.732
 4411SOL    HW114132   3.496   3.223   2.792
 4411SOL    HW214133   3.513   3.284   2.642
 4412SOL     OW14134   3.785   1.115   6.073
 4412SOL    HW114135   3.702   1.060   6.066
 4412SOL    HW214136   3.761   1.212   6.084
 4413SOL     OW14137   3.710   5.591   3.964
 4413SOL    HW114138   3.732   5.503   4.006
 4413SOL    HW214139   3.709   5.662   4.034
 4414SOL     OW14140   4.114   4.797   2.225
 4414SOL    HW114141   4.157   4.888   2.222
 4414SOL    HW214142   4.015   4.807   2.235
 4415SOL     OW14143   5.298   4.141   6.126
 4415SOL    HW114144   5.368   4.132   6.198
 4415SOL    HW214145   5.316   4.223   6.073
 4416SOL     OW14146   2.785   1.566   4.406
 4416SOL    HW114147   2.767   1.469   4.391
 4416SOL    HW214148   2.786   1.614   4.318
 4417SOL     OW14149   0.364   4.915   1.767
 4417SOL    HW114150   0.301   4.918   1.689
 4417SOL    HW214151   0.379   5.008   1.800
 4418SOL     OW14152   4.316   6.502   3.725
 4418SOL    HW114153   4.229   6.540   3.696
 4418SOL    HW214154   4.328   6.412   3.683
 4419SOL     OW14155   6.393   5.249   0.590
 4419SOL    HW114156   6.384   5.272   0.686
 4419SOL    HW214157   6.461   5.175   0.579
 4420SOL     OW14158   4.610   0.971   0.939
 4420SOL    HW114159   4.638   1.063   0.910
 4420SOL    HW214160   4.667   0.903   0.894
 4421SOL     OW14161   1.696   1.681   2.520
 4421SOL    HW114162   1.786   1.716   2.546
 4421SOL    HW214163   1.642   1.665   2.603
 4422SOL     OW14164   2.756   3.729   6.360
 4422SOL    HW114165   2.828   3.682   6.308
 4422SOL    HW214166   2.673   3.675   6.357
 4423SOL     OW14167   1.179   1.929   6.164
 4423SOL    HW114168   1.175   1.855   6.231
 4423SOL    HW214169   1.171   1.891   6.072
 4424SOL     OW14170   5.369   6.071   3.396
 4424SOL    HW114171   5.290   6.091   3.338
 4424SOL    HW214172   5.451   6.065   3.340
 4425SOL     OW14173   3.651   5.671   5.831
 4425SOL    HW114174   3.641   5.769   5.851
 4425SOL    HW214175   3.611   5.652   5.741
 4426SOL     OW14176   6.729   0.966   5.098
 4426SOL    HW114177   6.808   0.932   5.149
 4426SOL    HW214178   6.707   0.902   5.025
 4427SOL     OW14179   0.513   0.445   3.076
 4427SOL    HW114180   0.455   0.508   3.127
 4427SOL    HW214181   0.539   0.368   3.135
 4428SOL     OW14182   2.823   4.749   4.285
 4428SOL    HW114183   2.781   4.685   4.350
 4428SOL    HW214184   2.917   4.767   4.313
 4429SOL     OW14185   2.908   6.483   3.395
 4429SOL    HW114186   2.813   6.485   3.364
 4429SOL    HW214187   2.911   6.464   3.493
 4430SOL     OW14188   3.931   1.810   2.498
 4430SOL    HW114189   3.951   1.900   2.538
 4430SOL    HW214190   3.937   1.816   2.399
 4431SOL     OW14191   2.742   1.698   3.571
 4431SOL    HW114192   2.829   1.660   3.605
 4431SOL    HW214193   2.719   1.654   3.484
 4432SOL     OW14194   3.271   3.291   3.064
 4432SOL    HW114195   3.334   3.225   3.023
 4432SOL    HW214196   3.193   3.242   3.102
 4433SOL     OW14197   5.458   6.607   3.019
 4433SOL    HW114198   5.496   6.691   3.057
 4433SOL    HW214199   5.506   6.585   2.933
 4434SOL     OW14200   5.136   1.859   3.698
 4434SOL    HW114201   5.131   1.914   3.781
 4434SOL    HW214202   5.089   1.772   3.713
 4435SOL     OW14203   3.392   3.294   1.349
 4435SOL    HW114204   3.433   3.308   1.258
 4435SOL    HW214205   3.465   3.285   1.417
 4436SOL     OW14206   3.155   2.032   0.258
 4436SOL    HW114207   3.253   2.021   0.277
 4436SOL    HW214208   3.105   2.029   0.344
 4437SOL     OW14209   4.322   0.840   4.456
 4437SOL    HW114210   4.234   0.846   4.409
 4437SOL    HW214211   4.310   0.867   4.552
 4438SOL     OW14212   4.274   2.204   6.954
 4438SOL    HW114213   4.183   2.206   6.997
 4438SOL    HW214214   4.287   2.115   6.909
 4439SOL     OW14215   0.607   5.346   1.829
 4439SOL    HW114216   0.534   5.282   1.852
 4439SOL    HW214217   0.573   5.412   1.761
 4440SOL     OW14218   1.936   6.126   6.999
 4440SOL    HW114219   1.962   6.057   0.051
 4440SOL    HW214220   2.002   6.125   6.924
 4441SOL     OW14221   6.612   2.804   2.534
 4441SOL    HW114222   6.673   2.771   2.606
 4441SOL    HW214223   6.519   2.813   2.571
 4442SOL     OW14224   4.033   6.358   3.629
 4442SOL    HW114225   3.985   6.288   3.683
 4442SOL    HW214226   4.071   6.315   3.547
 4443SOL     OW14227   2.374   2.152   6.249
 4443SOL    HW114228   2.367   2.070   6.306
 4443SOL    HW214229   2.429   2.221   6.296
 4444SOL     OW14230   4.610   6.388   1.315
 4444SOL    HW114231   4.550   6.354   1.388
 4444SOL    HW214232   4.598   6.487   1.306
 4445SOL     OW14233   1.610   0.997   6.249
 4445SOL    HW114234   1.580   0.912   6.291
 4445SOL    HW214235   1.626   1.065   6.321
 4446SOL     OW14236   6.012   0.090   2.315
 4446SOL    HW114237   6.106   0.056   2.321
 4446SOL    HW214238   6.014   0.188   2.298
 4447SOL     OW14239   5.664   3.415   6.065
 4447SOL    HW114240   5.704   3.354   5.996
 4447SOL    HW214241   5.565   3.407   6.063
 4448SOL     OW14242   2.897   3.410   0.719
 4448SOL    HW114243   2.840   3.422   0.801
 4448SOL    HW214244   2.969   3.479   0.718
 4449SOL     OW14245   2.719   0.626   5.161
 4449SOL    HW114246   2.707   0.642   5.260
 4449SOL    HW214247   2.801   0.572   5.145
 4450SOL     OW14248   3.299   2.989   3.133
 4450SOL    HW114249   3.257   3.000   3.223
 4450SOL    HW214250   3.368   2.916   3.137
 4451SOL     OW14251   6.671   4.113   2.412
 4451SOL    HW114252   6.707   4.203   2.435
 4451SOL    HW214253   6.662   4.059   2.496
 4452SOL     OW14254   5.766   6.558   5.783
 4452SOL    HW114255   5.674   6.538   5.751
 4452SOL    HW214256   5.790   6.652   5.759
 4453SOL     OW14257   5.855   2.710   1.720
 4453SOL    HW114258   5.937   2.727   1.775
 4453SOL    HW214259   5.850   2.778   1.647
 4454SOL     OW14260   5.427   2.334   1.130
 4454SOL    HW114261   5.381   2.310   1.044
 4454SOL    HW214262   5.477   2.420   1.118
 4455SOL     OW14263   3.424   6.686   2.371
 4455SOL    HW114264   3.509   6.699   2.321
 4455SOL    HW214265   3.439   6.626   2.450
 4456SOL     OW14266   2.062   5.548   2.459
 4456SOL    HW114267   1.968   5.512   2.460
 4456SOL    HW214268   2.072   5.616   2.531
 4457SOL     OW14269   4.321   2.284   6.440
 4457SOL    HW114270   4.349   2.378   6.418
 4457SOL    HW214271   4.393   2.221   6.411
 4458SOL     OW14272   2.503   2.981   6.590
 4458SOL    HW114273   2.550   2.933   6.515
 4458SOL    HW214274   2.569   3.003   6.662
 4459SOL     OW14275   4.598   7.000   4.813
 4459SOL    HW114276   4.511   6.967   4.850
 4459SOL    HW214277   4.586   0.079   4.781
 4460SOL     OW14278   2.631   3.417   6.884
 4460SOL    HW114279   2.554   3.354   6.873
 4460SOL    HW214280   2.668   3.440   6.794
 4461SOL     OW14281   1.209   0.109   2.294
 4461SOL    HW114282   1.287   0.107   2.357
 4461SOL    HW214283   1.144   0.179   2.323
 4462SOL     OW14284   6.389   4.760   0.808
 4462SOL    HW114285   6.301   4.805   0.818
 4462SOL    HW214286   6.457   4.827   0.777
 4463SOL     OW14287   2.048   3.260   6.405
 4463SOL    HW114288   1.961   3.253   6.355
 4463SOL    HW214289   2.036   3.224   6.497
 4464SOL     OW14290   5.947   4.551   6.167
 4464SOL    HW114291   6.030   4.540   6.222
 4464SOL    HW214292   5.887   4.473   6.183
 4465SOL     OW14293   2.167   6.190   2.239
 4465SOL    HW114294   2.118   6.190   2.326
 4465SOL    HW214295   2.102   6.184   2.163
 4466SOL     OW14296   0.860   1.594   2.384
 4466SOL    HW114297   0.825   1.521   2.325
 4466SOL    HW214298   0.926   1.650   2.332
 4467SOL     OW14299   1.278   6.410   3.108
 4467SOL    HW114300   1.281   6.501   3.067
 4467SOL    HW214301   1.363   6.360   3.088
 4468SOL     OW14302   1.097   2.298   6.729
 4468SOL    HW114303   1.196   2.288   6.724
 4468SOL    HW214304   1.053   2.209   6.717
 4469SOL     OW14305   3.098   0.317   1.621
 4469SOL    HW114306   3.019   0.334   1.680
 4469SOL    HW214307   3.182   0.333   1.672
 4470SOL     OW14308   5.112   3.770   1.839
 4470SOL    HW114309   5.113   3.681   1.794
 4470SOL    HW214310   5.141   3.759   1.934
 4471SOL     OW14311   0.641   2.470   1.214
 4471SOL    HW114312   0.591   2.421   1.143
 4471SOL    HW214313   0.577   2.523   1.271
 4472SOL     OW14314   1.835   4.234   2.470
 4472SOL    HW114315   1.896   4.154   2.469
 4472SOL    HW214316   1.742   4.205   2.447
 4473SOL     OW14317   0.262   0.216   4.698
 4473SOL    HW114318   0.266   0.310   4.730
 4473SOL    HW214319   0.168   0.184   4.697
 4474SOL     OW14320   3.843   0.075   2.202
 4474SOL    HW114321   3.798   0.045   2.287
 4474SOL    HW214322   3.776   0.121   2.144
 4475SOL     OW14323   1.618   3.899   0.907
 4475SOL    HW114324   1.628   3.941   0.998
 4475SOL    HW214325   1.708   3.870   0.874
 4476SOL     OW14326   5.193   6.684   2.431
 4476SOL    HW114327   5.283   6.700   2.472
 4476SOL    HW214328   5.174   6.586   2.432
 4477SOL     OW14329   1.950   0.949   6.811
 4477SOL    HW114330   1.967   1.011   6.734
 4477SOL    HW214331   2.036   0.911   6.843
 4478SOL     OW14332   2.353   6.777   2.593
 4478SOL    HW114333   2.448   6.807   2.588
 4478SOL    HW214334   2.343   6.689   2.546
 4479SOL     OW14335   1.075   0.663   6.121
 4479SOL    HW114336   1.029   0.723   6.186
 4479SOL    HW214337   1.154   0.710   6.082
 4480SOL     OW14338   1.443   4.238   4.749
 4480SOL    HW114339   1.446   4.228   4.849
 4480SOL    HW214340   1.532   4.215   4.710
 4481SOL     OW14341   1.395   6.419   4.098
 4481SOL    HW114342   1.300   6.417   4.126
 4481SOL    HW214343   1.449   6.472   4.164
 4482SOL     OW14344   1.137   4.399   4.352
 4482SOL    HW114345   1.041   4.405   4.327
 4482SOL    HW214346   1.187   4.350   4.281
 4483SOL     OW14347   6.510   2.766   0.967
 4483SOL    HW114348   6.481   2.859   0.944
 4483SOL    HW214349   6.446   2.701   0.926
 4484SOL     OW14350   3.756   2.624   5.301
 4484SOL    HW114351   3.769   2.703   5.242
 4484SOL    HW214352   3.840   2.605   5.352
 4485SOL     OW14353   4.888   1.923   6.729
 4485SOL    HW114354   4.964   1.987   6.719
 4485SOL    HW214355   4.919   1.840   6.776
 4486SOL     OW14356   0.150   4.368   5.070
 4486SOL    HW114357   0.102   4.284   5.095
 4486SOL    HW214358   0.208   4.351   4.991
 4487SOL     OW14359   2.657   3.531   6.652
 4487SOL    HW114360   2.568   3.575   6.638
 4487SOL    HW214361   2.729   3.596   6.627
 4488SOL     OW14362   5.960   2.622   5.391
 4488SOL    HW114363   5.941   2.561   5.314
 4488SOL    HW214364   5.958   2.717   5.360
 4489SOL     OW14365   5.660   5.473   4.575
 4489SOL    HW114366   5.563   5.491   4.562
 4489SOL    HW214367   5.675   5.375   4.586
 4490SOL     OW14368   5.992   1.262   1.507
 4490SOL    HW114369   6.045   1.258   1.592
 4490SOL    HW214370   5.915   1.324   1.518
 4491SOL     OW14371   1.855   3.603   2.752
 4491SOL    HW114372   1.780   3.654   2.711
 4491SOL    HW214373   1.825   3.562   2.839
 4492SOL     OW14374   5.276   2.167   0.099
 4492SOL    HW114375   5.360   2.117   0.118
 4492SOL    HW214376   5.232   2.128   0.018
 4493SOL     OW14377   4.909   5.331   4.938
 4493SOL    HW114378   4.909   5.425   4.903
 4493SOL    HW214379   4.947   5.270   4.869
 4494SOL     OW14380   0.127   3.427   5.523
 4494SOL    HW114381   0.039   3.396   5.557
 4494SOL    HW214382   0.121   3.443   5.424
 4495SOL     OW14383   5.606   6.551   2.378
 4495SOL    HW114384   5.541   6.626   2.374
 4495SOL    HW214385   5.645   6.535   2.287
 4496SOL     OW14386   5.816   4.499   6.442
 4496SOL    HW114387   5.907   4.528   6.473
 4496SOL    HW214388   5.746   4.548   6.494
 4497SOL     OW14389   5.248   6.256   6.608
 4497SOL    HW114390   5.247   6.309   6.693
 4497SOL    HW214391   5.257   6.318   6.530
 4498SOL     OW14392   0.316   4.168   6.636
 4498SOL    HW114393   0.231   4.146   6.685
 4498SOL    HW214394   0.334   4.266   6.644
 4499SOL     OW14395   6.994   3.100   4.792
 4499SOL    HW114396   6.946   3.165   4.733
 4499SOL    HW214397   6.927   3.040   4.836
 4500SOL     OW14398   3.016   3.782   4.037
 4500SOL    HW114399   2.965   3.709   3.991
 4500SOL    HW214400   3.056   3.843   3.969
 4501SOL     OW14401   1.086   3.866   5.678
 4501SOL    HW114402   1.004   3.879   5.623
 4501SOL    HW214403   1.089   3.936   5.750
 4502SOL     OW14404   1.729   2.626   6.284
 4502SOL    HW114405   1.722   2.724   6.264
 4502SOL    HW214406   1.812   2.589   6.241
 4503SOL     OW14407   2.299   1.075   3.471
 4503SOL    HW114408   2.232   1.012   3.432
 4503SOL    HW214409   2.341   1.034   3.552
 4504SOL     OW14410   5.949   2.653   5.677
 4504SOL    HW114411   5.942   2.659   5.578
 4504SOL    HW214412   5.883   2.587   5.712
 4505SOL     OW14413   0.559   6.217   4.778
 4505SOL    HW114414   0.563   6.277   4.698
 4505SOL    HW214415   0.647   6.172   4.790
 4506SOL     OW14416   3.587   1.373   4.685
 4506SOL    HW114417   3.508   1.374   4.747
 4506SOL    HW214418   3.590   1.459   4.634
 4507SOL     OW14419   4.815   5.029   1.229
 4507SOL    HW114420   4.788   4.979   1.147
 4507SOL    HW214421   4.909   5.061   1.220
 4508SOL     OW14422   2.131   3.685   0.156
 4508SOL    HW114423   2.042   3.725   0.136
 4508SOL    HW214424   2.203   3.736   0.108
 4509SOL     OW14425   4.154   1.962   4.542
 4509SOL    HW114426   4.221   1.989   4.473
 4509SOL    HW214427   4.128   2.042   4.596
 4510SOL     OW14428   5.778   0.828   5.127
 4510SOL    HW114429   5.846   0.760   5.100
 4510SOL    HW214430   5.704   0.782   5.178
 4511SOL     OW14431   0.101   3.161   0.570
 4511SOL    HW114432   0.047   3.078   0.554
 4511SOL    HW214433   0.042   3.233   0.608
 4512SOL     OW14434   2.692   6.870   7.002
 4512SOL    HW114435   2.599   6.899   0.009
 4512SOL    HW214436   2.727   6.812   0.060
 4513SOL     OW14437   4.279   6.443   1.628
 4513SOL    HW114438   4.341   6.386   1.573
 4513SOL    HW214439   4.252   6.523   1.576
 4514SOL     OW14440   3.664   0.913   4.468
 4514SOL    HW114441   3.734   0.984   4.470
 4514SOL    HW214442   3.588   0.939   4.528
 4515SOL     OW14443   6.651   4.471   6.795
 4515SOL    HW114444   6.557   4.498   6.774
 4515SOL    HW214445   6.702   4.551   6.826
 4516SOL     OW14446   1.476   1.080   5.833
 4516SOL    HW114447   1.498   1.153   5.768
 4516SOL    HW214448   1.549   1.072   5.900
 4517SOL     OW14449   3.136   0.188   6.967
 4517SOL    HW114450   3.112   0.117   6.900
 4517SOL    HW214451   3.233   0.212   6.957
 4518SOL     OW14452   0.938   1.906   3.843
 4518SOL    HW114453   0.854   1.935   3.889
 4518SOL    HW214454   1.010   1.974   3.859
 4519SOL     OW14455   0.574   1.906   3.701
 4519SOL    HW114456   0.564   1.808   3.716
 4519SOL    HW214457   0.668   1.926   3.675
 4520SOL     OW14458   6.207   4.594   2.510
 4520SOL    HW114459   6.262   4.672   2.482
 4520SOL    HW214460   6.202   4.528   2.436
 4521SOL     OW14461   5.029   2.453   5.731
 4521SOL    HW114462   5.065   2.378   5.675
 4521SOL    HW214463   4.954   2.419   5.787
 4522SOL     OW14464   5.369   6.773   4.077
 4522SOL    HW114465   5.410   6.714   4.147
 4522SOL    HW214466   5.425   6.855   4.066
 4523SOL     OW14467   2.713   5.256   0.422
 4523SOL    HW114468   2.743   5.276   0.329
 4523SOL    HW214469   2.625   5.210   0.420
 4524SOL     OW14470   5.334   1.819   5.499
 4524SOL    HW114471   5.334   1.722   5.523
 4524SOL    HW214472   5.415   1.840   5.444
 4525SOL     OW14473   6.478   1.830   4.148
 4525SOL    HW114474   6.512   1.747   4.192
 4525SOL    HW214475   6.543   1.904   4.161
 4526SOL     OW14476   4.799   6.679   1.389
 4526SOL    HW114477   4.864   6.605   1.372
 4526SOL    HW214478   4.781   6.685   1.487
 4527SOL     OW14479   3.845   0.866   3.330
 4527SOL    HW114480   3.745   0.868   3.319
 4527SOL    HW214481   3.868   0.829   3.420
 4528SOL     OW14482   5.128   6.847   6.989
 4528SOL    HW114483   5.099   6.779   0.040
 4528SOL    HW214484   5.228   6.857   6.993
 4529SOL     OW14485   2.530   0.745   3.303
 4529SOL    HW114486   2.451   0.738   3.363
 4529SOL    HW214487   2.500   0.766   3.210
 4530SOL     OW14488   0.709   3.103   5.597
 4530SOL    HW114489   0.673   3.085   5.506
 4530SOL    HW214490   0.634   3.125   5.659
 4531SOL     OW14491   1.096   3.858   3.230
 4531SOL    HW114492   1.168   3.831   3.294
 4531SOL    HW214493   1.073   3.781   3.171
 4532SOL     OW14494   6.841   1.120   1.028
 4532SOL    HW114495   6.818   1.023   1.019
 4532SOL    HW214496   6.761   1.176   1.004
 4533SOL     OW14497   1.851   6.616   3.050
 4533SOL    HW114498   1.757   6.651   3.047
 4533SOL    HW214499   1.888   6.610   2.958
 4534SOL     OW14500   6.030   3.561   5.178
 4534SOL    HW114501   5.969   3.582   5.254
 4534SOL    HW214502   6.106   3.626   5.177
 4535SOL     OW14503   4.668   2.665   1.991
 4535SOL    HW114504   4.726   2.633   1.915
 4535SOL    HW214505   4.676   2.764   1.999
 4536SOL     OW14506   4.953   1.081   4.695
 4536SOL    HW114507   4.874   1.057   4.752
 4536SOL    HW214508   4.955   1.020   4.615
 4537SOL     OW14509   3.843   3.238   6.788
 4537SOL    HW114510   3.880   3.240   6.881
 4537SOL    HW214511   3.903   3.184   6.730
 4538SOL     OW14512   3.564   1.441   3.469
 4538SOL    HW114513   3.657   1.473   3.486
 4538SOL    HW214514   3.534   1.384   3.546
 4539SOL     OW14515   2.930   2.171   3.648
 4539SOL    HW114516   2.861   2.099   3.644
 4539SOL    HW214517   2.989   2.165   3.567
 4540SOL     OW14518   3.691   3.759   4.419
 4540SOL    HW114519   3.754   3.815   4.474
 4540SOL    HW214520   3.723   3.756   4.325
 4541SOL     OW14521   5.320   0.850   0.213
 4541SOL    HW114522   5.347   0.891   0.300
 4541SOL    HW214523   5.377   0.770   0.194
 4542SOL     OW14524   6.473   6.018   1.664
 4542SOL    HW114525   6.448   6.068   1.581
 4542SOL    HW214526   6.398   5.958   1.691
 4543SOL     OW14527   5.052   1.636   0.670
 4543SOL    HW114528   5.018   1.554   0.624
 4543SOL    HW214529   4.979   1.676   0.725
 4544SOL     OW14530   2.342   6.193   6.823
 4544SOL    HW114531   2.431   6.148   6.833
 4544SOL    HW214532   2.344   6.281   6.871
 4545SOL     OW14533   4.060   2.252   5.418
 4545SOL    HW114534   4.000   2.248   5.337
 4545SOL    HW214535   4.019   2.199   5.492
 4546SOL     OW14536   0.969   6.579   5.972
 4546SOL    HW114537   1.015   6.583   6.061
 4546SOL    HW214538   0.937   6.671   5.948
 4547SOL     OW14539   5.615   2.441   1.333
 4547SOL    HW114540   5.609   2.374   1.407
 4547SOL    HW214541   5.689   2.416   1.271
 4548SOL     OW14542   0.507   4.663   3.857
 4548SOL    HW114543   0.489   4.596   3.929
 4548SOL    HW214544   0.512   4.754   3.897
 4549SOL     OW14545   6.860   3.215   3.080
 4549SOL    HW114546   6.924   3.159   3.028
 4549SOL    HW214547   6.787   3.247   3.019
 4550SOL     OW14548   1.094   6.230   3.570
 4550SOL    HW114549   1.062   6.253   3.662
 4550SOL    HW214550   1.075   6.134   3.550
 4551SOL     OW14551   0.672   2.811   5.114
 4551SOL    HW114552   0.631   2.842   5.199
 4551SOL    HW214553   0.687   2.712   5.118
 4552SOL     OW14554   0.417   3.319   5.370
 4552SOL    HW114555   0.456   3.227   5.361
 4552SOL    HW214556   0.326   3.312   5.410
 4553SOL     OW14557   4.678   5.025   0.392
 4553SOL    HW114558   4.755   5.080   0.360
 4553SOL    HW214559   4.644   4.969   0.317
 4554SOL     OW14560   4.254   0.598   2.552
 4554SOL    HW114561   4.198   0.525   2.591
 4554SOL    HW214562   4.295   0.652   2.625
 4555SOL     OW14563   4.659   2.261   6.569
 4555SOL    HW114564   4.581   2.236   6.626
 4555SOL    HW214565   4.634   2.338   6.510
 4556SOL     OW14566   3.985   0.806   3.837
 4556SOL    HW114567   4.037   0.764   3.762
 4556SOL    HW214568   3.889   0.814   3.810
 4557SOL     OW14569   5.097   0.374   5.174
 4557SOL    HW114570   5.119   0.463   5.215
 4557SOL    HW214571   5.179   0.335   5.134
 4558SOL     OW14572   6.340   3.558   6.407
 4558SOL    HW114573   6.419   3.573   6.348
 4558SOL    HW214574   6.257   3.591   6.361
 4559SOL     OW14575   1.330   5.881   1.098
 4559SOL    HW114576   1.294   5.903   1.188
 4559SOL    HW214577   1.423   5.845   1.108
 4560SOL     OW14578   4.900   3.470   3.258
 4560SOL    HW114579   4.930   3.418   3.338
 4560SOL    HW214580   4.849   3.551   3.288
 4561SOL     OW14581   3.027   1.395   0.276
 4561SOL    HW114582   2.954   1.462   0.293
 4561SOL    HW214583   3.099   1.437   0.221
 4562SOL     OW14584   3.298   5.859   5.705
 4562SOL    HW114585   3.258   5.773   5.736
 4562SOL    HW214586   3.383   5.841   5.655
 4563SOL     OW14587   5.738   2.502   0.262
 4563SOL    HW114588   5.791   2.586   0.257
 4563SOL    HW214589   5.742   2.466   0.355
 4564SOL     OW14590   0.867   5.269   0.594
 4564SOL    HW114591   0.843   5.364   0.614
 4564SOL    HW214592   0.791   5.225   0.546
 4565SOL     OW14593   0.568   1.819   4.929
 4565SOL    HW114594   0.536   1.754   4.998
 4565SOL    HW214595   0.639   1.877   4.969
 4566SOL     OW14596   0.005   6.928   6.920
 4566SOL    HW114597   0.032   7.012   6.872
 4566SOL    HW214598   6.957   6.951   6.993
 4567SOL     OW14599   0.093   0.531   0.791
 4567SOL    HW114600   0.143   0.616   0.778
 4567SOL    HW214601   0.009   0.548   0.843
 4568SOL     OW14602   2.634   4.964   5.286
 4568SOL    HW114603   2.670   4.996   5.374
 4568SOL    HW214604   2.632   4.864   5.285
 4569SOL     OW14605   1.097   1.542   4.288
 4569SOL    HW114606   1.000   1.567   4.286
 4569SOL    HW214607   1.152   1.626   4.293
 4570SOL     OW14608   0.086   5.855   3.234
 4570SOL    HW114609   0.068   5.757   3.236
 4570SOL    HW214610   0.030   5.897   3.162
 4571SOL     OW14611   2.940   3.333   4.785
 4571SOL    HW114612   2.917   3.261   4.719
 4571SOL    HW214613   2.915   3.303   4.877
 4572SOL     OW14614   0.082   6.817   0.788
 4572SOL    HW114615   6.999   6.806   0.772
 4572SOL    HW214616   0.098   6.835   0.885
 4573SOL     OW14617   5.882   6.108   1.259
 4573SOL    HW114618   5.783   6.095   1.266
 4573SOL    HW214619   5.906   6.126   1.164
 4574SOL     OW14620   0.169   4.563   1.173
 4574SOL    HW114621   0.114   4.481   1.157
 4574SOL    HW214622   0.266   4.538   1.172
 4575SOL     OW14623   6.098   1.901   0.473
 4575SOL    HW114624   6.189   1.900   0.515
 4575SOL    HW214625   6.039   1.965   0.523
 4576SOL     OW14626   2.969   5.784   6.902
 4576SOL    HW114627   2.993   5.778   6.805
 4576SOL    HW214628   2.870   5.782   6.912
 4577SOL     OW14629   1.009   3.516   3.303
 4577SOL    HW114630   0.970   3.543   3.215
 4577SOL    HW214631   0.944   3.535   3.376
 4578SOL     OW14632   0.714   3.600   3.750
 4578SOL    HW114633   0.715   3.696   3.777
 4578SOL    HW214634   0.773   3.588   3.670
 4579SOL     OW14635   4.561   1.878   2.779
 4579SOL    HW114636   4.660   1.878   2.766
 4579SOL    HW214637   4.540   1.871   2.876
 4580SOL     OW14638   5.904   5.350   0.774
 4580SOL    HW114639   5.980   5.379   0.716
 4580SOL    HW214640   5.937   5.329   0.866
 4581SOL     OW14641   3.036   4.816   3.369
 4581SOL    HW114642   3.115   4.853   3.320
 4581SOL    HW214643   3.055   4.814   3.467
 4582SOL     OW14644   5.150   6.496   3.879
 4582SOL    HW114645   5.198   6.583   3.874
 4582SOL    HW214646   5.212   6.421   3.853
 4583SOL     OW14647   3.164   2.036   5.126
 4583SOL    HW114648   3.180   2.134   5.115
 4583SOL    HW214649   3.073   2.020   5.165
 4584SOL     OW14650   0.168   5.984   5.588
 4584SOL    HW114651   0.174   5.889   5.619
 4584SOL    HW214652   0.150   5.985   5.490
 4585SOL     OW14653   3.100   6.315   2.889
 4585SOL    HW114654   3.100   6.400   2.835
 4585SOL    HW214655   3.006   6.286   2.905
 4586SOL     OW14656   3.064   5.242   1.054
 4586SOL    HW114657   3.028   5.333   1.034
 4586SOL    HW214658   3.162   5.239   1.032
 4587SOL     OW14659   4.125   3.337   1.746
 4587SOL    HW114660   4.127   3.354   1.845
 4587SOL    HW214661   4.177   3.408   1.699
 4588SOL     OW14662   3.886   3.940   4.582
 4588SOL    HW114663   3.931   3.852   4.570
 4588SOL    HW214664   3.875   3.960   4.679
 4589SOL     OW14665   6.135   2.445   2.738
 4589SOL    HW114666   6.058   2.381   2.735
 4589SOL    HW214667   6.111   2.524   2.795
 4590SOL     OW14668   4.212   5.993   2.885
 4590SOL    HW114669   4.179   5.961   2.974
 4590SOL    HW214670   4.245   5.916   2.831
 4591SOL     OW14671   6.389   5.790   5.793
 4591SOL    HW114672   6.342   5.818   5.710
 4591SOL    HW214673   6.439   5.868   5.831
 4592SOL     OW14674   4.139   3.180   0.871
 4592SOL    HW114675   4.079   3.179   0.791
 4592SOL    HW214676   4.124   3.098   0.925
 4593SOL     OW14677   4.121   5.570   3.294
 4593SOL    HW114678   4.053   5.528   3.234
 4593SOL    HW214679   4.194   5.609   3.238
 4594SOL     OW14680   3.666   1.957   2.337
 4594SOL    HW114681   3.622   1.992   2.254
 4594SOL    HW214682   3.741   1.896   2.312
 4595SOL     OW14683   3.713   3.044   6.511
 4595SOL    HW114684   3.769   3.001   6.582
 4595SOL    HW214685   3.671   2.973   6.454
 4596SOL     OW14686   5.838   6.133   2.038
 4596SOL    HW114687   5.834   6.097   1.945
 4596SOL    HW214688   5.886   6.067   2.096
 4597SOL     OW14689   5.603   5.355   6.725
 4597SOL    HW114690   5.651   5.321   6.644
 4597SOL    HW214691   5.505   5.355   6.709
 4598SOL     OW14692   1.742   5.153   6.473
 4598SOL    HW114693   1.702   5.165   6.564
 4598SOL    HW214694   1.734   5.057   6.445
 4599SOL     OW14695   0.998   3.750   1.225
 4599SOL    HW114696   1.086   3.704   1.209
 4599SOL    HW214697   0.986   3.823   1.158
 4600SOL     OW14698   2.853   4.791   6.342
 4600SOL    HW114699   2.865   4.774   6.440
 4600SOL    HW214700   2.922   4.858   6.312
 4601SOL     OW14701   1.490   0.720   5.112
 4601SOL    HW114702   1.513   0.783   5.038
 4601SOL    HW214703   1.492   0.769   5.199
 4602SOL     OW14704   1.503   6.898   1.171
 4602SOL    HW114705   1.541   6.990   1.164
 4602SOL    HW214706   1.480   6.864   1.079
 4603SOL     OW14707   3.453   6.523   1.802
 4603SOL    HW114708   3.458   6.461   1.724
 4603SOL    HW214709   3.421   6.613   1.771
 4604SOL     OW14710   3.800   0.419   1.808
 4604SOL    HW114711   3.884   0.448   1.851
 4604SOL    HW214712   3.748   0.499   1.777
 4605SOL     OW14713   4.762   0.668   4.182
 4605SOL    HW114714   4.693   0.611   4.227
 4605SOL    HW214715   4.853   0.627   4.195
 4606SOL     OW14716   0.076   6.553   3.836
 4606SOL    HW114717   0.028   6.497   3.903
 4606SOL    HW214718   0.023   6.636   3.817
 4607SOL     OW14719   2.472   2.489   1.405
 4607SOL    HW114720   2.545   2.536   1.355
 4607SOL    HW214721   2.436   2.415   1.349
 4608SOL     OW14722   1.724   4.954   5.270
 4608SOL    HW114723   1.628   4.944   5.298
 4608SOL    HW214724   1.735   5.040   5.221
 4609SOL     OW14725   4.092   5.700   6.380
 4609SOL    HW114726   4.175   5.753   6.362
 4609SOL    HW214727   4.017   5.735   6.323
 4610SOL     OW14728   6.626   2.611   0.470
 4610SOL    HW114729   6.694   2.539   0.485
 4610SOL    HW214730   6.569   2.621   0.551
 4611SOL     OW14731   6.963   3.981   0.213
 4611SOL    HW114732   6.906   4.063   0.216
 4611SOL    HW214733   0.044   4.007   0.218
 4612SOL     OW14734   2.053   5.855   6.731
 4612SOL    HW114735   2.052   5.954   6.744
 4612SOL    HW214736   2.121   5.832   6.661
 4613SOL     OW14737   2.516   4.946   2.659
 4613SOL    HW114738   2.449   4.934   2.585
 4613SOL    HW214739   2.470   4.932   2.747
 4614SOL     OW14740   1.900   5.513   0.070
 4614SOL    HW114741   1.918   5.417   0.050
 4614SOL    HW214742   1.828   5.547   0.010
 4615SOL     OW14743   1.599   1.485   0.471
 4615SOL    HW114744   1.610   1.583   0.458
 4615SOL    HW214745   1.547   1.446   0.395
 4616SOL     OW14746   6.144   0.481   6.962
 4616SOL    HW114747   6.082   0.414   7.003
 4616SOL    HW214748   6.187   0.441   6.882
 4617SOL     OW14749   0.883   2.141   2.826
 4617SOL    HW114750   0.980   2.126   2.847
 4617SOL    HW214751   0.875   2.211   2.755
 4618SOL     OW14752   1.557   2.327   5.647
 4618SOL    HW114753   1.538   2.306   5.551
 4618SOL    HW214754   1.591   2.245   5.693
 4619SOL     OW14755   4.200   0.627   3.739
 4619SOL    HW114756   4.252   0.710   3.718
 4619SOL    HW214757   4.238   0.585   3.822
 4620SOL     OW14758   3.607   4.328   0.187
 4620SOL    HW114759   3.623   4.262   0.114
 4620SOL    HW214760   3.678   4.398   0.186
 4621SOL     OW14761   6.464   1.832   5.048
 4621SOL    HW114762   6.443   1.769   4.973
 4621SOL    HW214763   6.474   1.780   5.133
 4622SOL     OW14764   1.533   2.503   0.796
 4622SOL    HW114765   1.601   2.531   0.729
 4622SOL    HW214766   1.571   2.513   0.888
 4623SOL     OW14767   6.979   4.799   1.069
 4623SOL    HW114768   0.008   4.779   0.981
 4623SOL    HW214769   6.924   4.721   1.097
 4624SOL     OW14770   4.366   1.142   3.789
 4624SOL    HW114771   4.312   1.211   3.837
 4624SOL    HW214772   4.405   1.078   3.855
 4625SOL     OW14773   1.415   4.625   0.003
 4625SOL    HW114774   1.464   4.702   6.977
 4625SOL    HW214775   1.424   4.544   6.960
 4626SOL     OW14776   6.340   4.607   1.594
 4626SOL    HW114777   6.408   4.538   1.572
 4626SOL    HW214778   6.251   4.563   1.606
 4627SOL     OW14779   3.713   6.395   5.419
 4627SOL    HW114780   3.807   6.365   5.434
 4627SOL    HW214781   3.681   6.445   5.500
 4628SOL     OW14782   6.355   4.918   2.080
 4628SOL    HW114783   6.330   4.827   2.115
 4628SOL    HW214784   6.357   4.983   2.155
 4629SOL     OW14785   1.972   4.835   6.227
 4629SOL    HW114786   1.961   4.891   6.145
 4629SOL    HW214787   1.996   4.741   6.200
 4630SOL     OW14788   2.759   5.901   3.630
 4630SOL    HW114789   2.738   5.913   3.532
 4630SOL    HW214790   2.755   5.804   3.653
 4631SOL     OW14791   2.129   6.562   3.408
 4631SOL    HW114792   2.202   6.619   3.446
 4631SOL    HW214793   2.060   6.621   3.366
 4632SOL     OW14794   4.096   5.487   4.256
 4632SOL    HW114795   4.090   5.549   4.178
 4632SOL    HW214796   4.005   5.466   4.290
 4633SOL     OW14797   6.513   2.132   5.484
 4633SOL    HW114798   6.486   2.199   5.552
 4633SOL    HW214799   6.461   2.146   5.400
 4634SOL     OW14800   2.686   4.552   0.478
 4634SOL    HW114801   2.764   4.496   0.450
 4634SOL    HW214802   2.602   4.497   0.469
 4635SOL     OW14803   6.019   3.582   2.975
 4635SOL    HW114804   5.935   3.543   3.013
 4635SOL    HW214805   6.002   3.611   2.881
 4636SOL     OW14806   2.522   5.565   0.256
 4636SOL    HW114807   2.476   5.635   0.311
 4636SOL    HW214808   2.546   5.603   0.167
 4637SOL     OW14809   1.075   1.032   6.723
 4637SOL    HW114810   1.063   1.061   6.628
 4637SOL    HW214811   1.061   0.934   6.730
 4638SOL     OW14812   3.902   2.874   6.100
 4638SOL    HW114813   3.878   2.964   6.136
 4638SOL    HW214814   3.822   2.833   6.057
 4639SOL     OW14815   0.897   4.009   6.065
 4639SOL    HW114816   0.800   4.024   6.082
 4639SOL    HW214817   0.925   3.920   6.102
 4640SOL     OW14818   4.767   4.599   3.831
 4640SOL    HW114819   4.803   4.590   3.924
 4640SOL    HW214820   4.687   4.540   3.821
 4641SOL     OW14821   2.707   5.006   4.404
 4641SOL    HW114822   2.715   4.938   4.331
 4641SOL    HW214823   2.736   4.965   4.490
 4642SOL     OW14824   6.561   5.284   4.940
 4642SOL    HW114825   6.576   5.383   4.928
 4642SOL    HW214826   6.603   5.235   4.864
 4643SOL     OW14827   4.596   2.442   1.149
 4643SOL    HW114828   4.613   2.345   1.167
 4643SOL    HW214829   4.501   2.464   1.171
 4644SOL     OW14830   1.315   5.200   4.696
 4644SOL    HW114831   1.303   5.266   4.622
 4644SOL    HW214832   1.398   5.223   4.748
 4645SOL     OW14833   2.037   6.345   4.515
 4645SOL    HW114834   2.017   6.275   4.583
 4645SOL    HW214835   2.068   6.428   4.561
 4646SOL     OW14836   2.922   0.296   2.264
 4646SOL    HW114837   2.957   0.213   2.220
 4646SOL    HW214838   2.978   0.374   2.237
 4647SOL     OW14839   0.773   6.919   3.181
 4647SOL    HW114840   0.816   6.914   3.271
 4647SOL    HW214841   0.824   6.862   3.117
 4648SOL     OW14842   3.575   6.857   2.709
 4648SOL    HW114843   3.635   6.778   2.721
 4648SOL    HW214844   3.614   6.936   2.757
 4649SOL     OW14845   5.033   1.186   5.936
 4649SOL    HW114846   5.002   1.094   5.912
 4649SOL    HW214847   5.123   1.202   5.896
 4650SOL     OW14848   3.947   6.346   3.071
 4650SOL    HW114849   3.865   6.340   3.128
 4650SOL    HW214850   3.941   6.280   2.997
 4651SOL     OW14851   0.447   2.399   1.806
 4651SOL    HW114852   0.409   2.325   1.863
 4651SOL    HW214853   0.376   2.467   1.788
 4652SOL     OW14854   0.563   0.078   3.111
 4652SOL    HW114855   0.628   0.011   3.145
 4652SOL    HW214856   0.538   0.141   3.185
 4653SOL     OW14857   6.837   6.554   0.059
 4653SOL    HW114858   6.853   6.590   6.983
 4653SOL    HW214859   6.754   6.498   0.058
 4654SOL     OW14860   0.845   6.921   0.055
 4654SOL    HW114861   0.930   6.963   0.021
 4654SOL    HW214862   0.868   6.842   0.111
 4655SOL     OW14863   0.425   4.902   2.653
 4655SOL    HW114864   0.346   4.862   2.606
 4655SOL    HW214865   0.393   4.972   2.717
 4656SOL     OW14866   0.973   0.425   3.101
 4656SOL    HW114867   0.905   0.352   3.092
 4656SOL    HW214868   1.046   0.395   3.162
 4657SOL     OW14869   4.867   6.922   1.250
 4657SOL    HW114870   4.825   6.860   1.317
 4657SOL    HW214871   4.958   6.889   1.227
 4658SOL     OW14872   4.296   0.187   2.698
 4658SOL    HW114873   4.286   0.088   2.710
 4658SOL    HW214874   4.317   0.206   2.602
 4659SOL     OW14875   1.636   3.296   5.210
 4659SOL    HW114876   1.619   3.209   5.256
 4659SOL    HW214877   1.682   3.280   5.123
 4660SOL     OW14878   1.214   2.023   5.398
 4660SOL    HW114879   1.272   1.969   5.460
 4660SOL    HW214880   1.174   2.099   5.449
 4661SOL     OW14881   3.552   4.192   4.274
 4661SOL    HW114882   3.461   4.204   4.313
 4661SOL    HW214883   3.620   4.225   4.339
 4662SOL     OW14884   5.088   0.441   5.572
 4662SOL    HW114885   5.055   0.498   5.497
 4662SOL    HW214886   5.015   0.380   5.603
 4663SOL     OW14887   7.007   1.857   1.985
 4663SOL    HW114888   6.969   1.859   2.078
 4663SOL    HW214889   6.932   1.852   1.919
 4664SOL     OW14890   2.363   2.640   6.314
 4664SOL    HW114891   2.324   2.621   6.403
 4664SOL    HW214892   2.394   2.735   6.310
 4665SOL     OW14893   5.316   0.251   6.187
 4665SOL    HW114894   5.386   0.187   6.219
 4665SOL    HW214895   5.360   0.331   6.147
 4666SOL     OW14896   2.522   1.681   0.049
 4666SOL    HW114897   2.480   1.613   0.108
 4666SOL    HW214898   2.616   1.697   0.079
 4667SOL     OW14899   0.104   5.021   6.408
 4667SOL    HW114900   0.202   5.001   6.416
 4667SOL    HW214901   0.079   5.027   6.311
 4668SOL     OW14902   0.140   1.582   4.654
 4668SOL    HW114903   0.051   1.595   4.698
 4668SOL    HW214904   0.128   1.535   4.567
 4669SOL     OW14905   1.926   6.327   0.205
 4669SOL    HW114906   1.934   6.263   0.129
 4669SOL    HW214907   1.886   6.280   0.284
 4670SOL     OW14908   3.174   0.971   4.642
 4670SOL    HW114909   3.116   1.047   4.669
 4670SOL    HW214910   3.124   0.909   4.582
 4671SOL     OW14911   6.287   2.872   1.540
 4671SOL    HW114912   6.384   2.871   1.516
 4671SOL    HW214913   6.247   2.782   1.522
 4672SOL     OW14914   1.801   4.135   5.883
 4672SOL    HW114915   1.795   4.069   5.957
 4672SOL    HW214916   1.868   4.104   5.816
 4673SOL     OW14917   3.492   0.552   1.442
 4673SOL    HW114918   3.440   0.469   1.421
 4673SOL    HW214919   3.590   0.532   1.439
 4674SOL     OW14920   5.358   5.387   5.561
 4674SOL    HW114921   5.277   5.396   5.619
 4674SOL    HW214922   5.330   5.356   5.470
 4675SOL     OW14923   1.346   3.422   0.803
 4675SOL    HW114924   1.362   3.520   0.792
 4675SOL    HW214925   1.433   3.374   0.810
 4676SOL     OW14926   1.519   6.187   3.724
 4676SOL    HW114927   1.529   6.181   3.625
 4676SOL    HW214928   1.548   6.101   3.766
 4677SOL     OW14929   1.811   1.486   0.675
 4677SOL    HW114930   1.799   1.489   0.576
 4677SOL    HW214931   1.818   1.579   0.710
 4678SOL     OW14932   2.171   3.914   2.588
 4678SOL    HW114933   2.128   3.913   2.678
 4678SOL    HW214934   2.218   3.827   2.572
 4679SOL     OW14935   5.190   6.434   1.669
 4679SOL    HW114936   5.221   6.442   1.764
 4679SOL    HW214937   5.191   6.338   1.641
 4680SOL     OW14938   3.781   1.478   1.268
 4680SOL    HW114939   3.876   1.460   1.295
 4680SOL    HW214940   3.727   1.501   1.349
 4681SOL     OW14941   5.120   4.302   0.180
 4681SOL    HW114942   5.061   4.237   0.132
 4681SOL    HW214943   5.077   4.328   0.267
 4682SOL     OW14944   4.449   3.620   6.401
 4682SOL    HW114945   4.379   3.549   6.408
 4682SOL    HW214946   4.530   3.583   6.356
 4683SOL     OW14947   5.646   4.563   3.443
 4683SOL    HW114948   5.594   4.622   3.381
 4683SOL    HW214949   5.721   4.616   3.483
 4684SOL     OW14950   4.225   6.041   6.829
 4684SOL    HW114951   4.190   5.975   6.895
 4684SOL    HW214952   4.274   6.114   6.878
 4685SOL     OW14953   2.207   3.753   5.943
 4685SOL    HW114954   2.154   3.677   5.904
 4685SOL    HW214955   2.156   3.793   6.019
 4686SOL     OW14956   3.333   6.255   0.418
 4686SOL    HW114957   3.264   6.183   0.413
 4686SOL    HW214958   3.320   6.320   0.342
 4687SOL     OW14959   3.462   1.811   3.236
 4687SOL    HW114960   3.411   1.841   3.155
 4687SOL    HW214961   3.534   1.748   3.208
 4688SOL     OW14962   5.334   2.291   5.822
 4688SOL    HW114963   5.266   2.299   5.750
 4688SOL    HW214964   5.397   2.369   5.817
 4689SOL     OW14965   5.402   0.105   1.319
 4689SOL    HW114966   5.463   0.049   1.376
 4689SOL    HW214967   5.442   0.196   1.307
 4690SOL     OW14968   1.968   1.511   1.135
 4690SOL    HW114969   1.985   1.413   1.128
 4690SOL    HW214970   1.875   1.531   1.105
 4691SOL     OW14971   5.193   4.701   0.285
 4691SOL    HW114972   5.257   4.757   0.337
 4691SOL    HW214973   5.128   4.658   0.347
 4692SOL     OW14974   6.509   4.213   3.005
 4692SOL    HW114975   6.475   4.251   2.919
 4692SOL    HW214976   6.498   4.280   3.078
 4693SOL     OW14977   1.479   0.680   4.177
 4693SOL    HW114978   1.437   0.675   4.087
 4693SOL    HW214979   1.579   0.675   4.168
 4694SOL     OW14980   2.257   1.701   0.279
 4694SOL    HW114981   2.335   1.762   0.289
 4694SOL    HW214982   2.181   1.750   0.237
 4695SOL     OW14983   1.820   5.842   0.719
 4695SOL    HW114984   1.737   5.862   0.668
 4695SOL    HW214985   1.861   5.757   0.685
 4696SOL     OW14986   0.682   5.032   5.596
 4696SOL    HW114987   0.729   5.102   5.649
 4696SOL    HW214988   0.588   5.022   5.629
 4697SOL     OW14989   1.305   3.647   1.671
 4697SOL    HW114990   1.288   3.584   1.746
 4697SOL    HW214991   1.301   3.741   1.705
 4698SOL     OW14992   4.679   0.369   3.469
 4698SOL    HW114993   4.618   0.435   3.513
 4698SOL    HW214994   4.760   0.355   3.527
 4699SOL     OW14995   0.618   0.446   2.037
 4699SOL    HW114996   0.654   0.375   1.977
 4699SOL    HW214997   0.667   0.444   2.124
 4700SOL     OW14998   6.739   1.993   2.445
 4700SOL    HW114999   6.757   1.894   2.445
 4700SOL    HW215000   6.764   2.031   2.535
 4701SOL     OW15001   3.161   1.801   2.137
 4701SOL    HW115002   3.090   1.815   2.206
 4701SOL    HW215003   3.207   1.888   2.118
 4702SOL     OW15004   4.990   4.887   0.183
 4702SOL    HW115005   5.065   4.843   0.231
 4702SOL    HW215006   5.018   4.979   0.154
 4703SOL     OW15007   1.202   5.285   2.355
 4703SOL    HW115008   1.196   5.261   2.258
 4703SOL    HW215009   1.299   5.295   2.381
 4704SOL     OW15010   0.409   6.699   5.642
 4704SOL    HW115011   0.429   6.793   5.614
 4704SOL    HW215012   0.452   6.636   5.577
 4705SOL     OW15013   3.210   2.921   0.974
 4705SOL    HW115014   3.217   2.958   1.066
 4705SOL    HW215015   3.258   2.833   0.969
 4706SOL     OW15016   1.224   7.014   1.081
 4706SOL    HW115017   1.307   0.046   1.111
 4706SOL    HW215018   1.161   0.065   1.041
 4707SOL     OW15019   1.670   6.590   1.031
 4707SOL    HW115020   1.685   6.594   1.130
 4707SOL    HW215021   1.575   6.614   1.011
 4708SOL     OW15022   1.473   1.573   4.970
 4708SOL    HW115023   1.413   1.564   4.891
 4708SOL    HW215024   1.502   1.483   5.001
 4709SOL     OW15025   5.145   5.056   5.156
 4709SOL    HW115026   5.093   5.141   5.170
 4709SOL    HW215027   5.224   5.075   5.098
 4710SOL     OW15028   5.641   6.376   4.378
 4710SOL    HW115029   5.698   6.374   4.296
 4710SOL    HW215030   5.552   6.415   4.355
 4711SOL     OW15031   6.214   2.932   3.293
 4711SOL    HW115032   6.127   2.884   3.287
 4711SOL    HW215033   6.212   2.995   3.371
 4712SOL     OW15034   4.376   4.270   5.961
 4712SOL    HW115035   4.378   4.205   6.037
 4712SOL    HW215036   4.282   4.297   5.943
 4713SOL     OW15037   5.084   5.074   1.208
 4713SOL    HW115038   5.151   5.059   1.281
 4713SOL    HW215039   5.131   5.083   1.121
 4714SOL     OW15040   6.410   1.959   6.643
 4714SOL    HW115041   6.399   1.859   6.648
 4714SOL    HW215042   6.327   1.999   6.606
 4715SOL     OW15043   6.174   1.881   1.735
 4715SOL    HW115044   6.149   1.847   1.644
 4715SOL    HW215045   6.220   1.969   1.726
 4716SOL     OW15046   4.401   5.098   5.374
 4716SOL    HW115047   4.497   5.126   5.366
 4716SOL    HW215048   4.359   5.097   5.283
 4717SOL     OW15049   2.644   5.828   5.921
 4717SOL    HW115050   2.562   5.838   5.978
 4717SOL    HW215051   2.631   5.754   5.856
 4718SOL     OW15052   5.362   2.860   1.271
 4718SOL    HW115053   5.412   2.774   1.270
 4718SOL    HW215054   5.270   2.845   1.235
 4719SOL     OW15055   5.929   3.582   3.337
 4719SOL    HW115056   5.942   3.491   3.297
 4719SOL    HW215057   6.017   3.618   3.367
 4720SOL     OW15058   2.709   5.024   0.185
 4720SOL    HW115059   2.749   4.993   0.271
 4720SOL    HW215060   2.774   5.084   0.138
 4721SOL     OW15061   6.130   3.333   1.618
 4721SOL    HW115062   6.219   3.320   1.662
 4721SOL    HW215063   6.143   3.380   1.531
 4722SOL     OW15064   1.187   4.747   6.796
 4722SOL    HW115065   1.267   4.763   6.854
 4722SOL    HW215066   1.105   4.738   6.852
 4723SOL     OW15067   3.338   4.465   5.771
 4723SOL    HW115068   3.339   4.496   5.676
 4723SOL    HW215069   3.286   4.379   5.777
 4724SOL     OW15070   6.986   6.539   4.190
 4724SOL    HW115071   6.960   6.479   4.114
 4724SOL    HW215072   0.066   6.566   4.181
 4725SOL     OW15073   5.892   5.281   0.500
 4725SOL    HW115074   5.862   5.318   0.588
 4725SOL    HW215075   5.988   5.303   0.486
 4726SOL     OW15076   1.932   2.819   5.566
 4726SOL    HW115077   1.918   2.799   5.469
 4726SOL    HW215078   1.878   2.756   5.622
 4727SOL     OW15079   0.731   5.557   0.269
 4727SOL    HW115080   0.765   5.568   0.175
 4727SOL    HW215081   0.775   5.623   0.329
 4728SOL     OW15082   5.959   1.498   3.016
 4728SOL    HW115083   5.879   1.554   2.994
 4728SOL    HW215084   6.036   1.558   3.038
 4729SOL     OW15085   4.955   0.240   0.134
 4729SOL    HW115086   4.899   0.321   0.152
 4729SOL    HW215087   5.025   0.263   0.066
 4730SOL     OW15088   3.737   6.992   4.619
 4730SOL    HW115089   3.772   6.982   4.526
 4730SOL    HW215090   3.678   6.914   4.641
 4731SOL     OW15091   2.968   0.790   0.578
 4731SOL    HW115092   2.894   0.855   0.562
 4731SOL    HW215093   2.954   0.708   0.522
 4732SOL     OW15094   0.850   3.361   5.071
 4732SOL    HW115095   0.895   3.322   5.151
 4732SOL    HW215096   0.820   3.454   5.092
 4733SOL     OW15097   1.786   4.278   2.877
 4733SOL    HW115098   1.829   4.189   2.889
 4733SOL    HW215099   1.766   4.317   2.967
 4734SOL     OW15100   4.985   3.182   6.429
 4734SOL    HW115101   4.979   3.142   6.520
 4734SOL    HW215102   4.982   3.282   6.436
 4735SOL     OW15103   0.406   6.201   3.923
 4735SOL    HW115104   0.339   6.263   3.883
 4735SOL    HW215105   0.392   6.197   4.022
 4736SOL     OW15106   6.686   2.369   3.944
 4736SOL    HW115107   6.751   2.305   3.903
 4736SOL    HW215108   6.677   2.449   3.885
 4737SOL     OW15109   1.930   4.368   0.358
 4737SOL    HW115110   1.947   4.271   0.374
 4737SOL    HW215111   1.921   4.415   0.446
 4738SOL     OW15112   3.064   6.933   3.841
 4738SOL    HW115113   3.162   6.914   3.843
 4738SOL    HW215114   3.019   6.875   3.910
 4739SOL     OW15115   6.574   2.615   4.796
 4739SOL    HW115116   6.503   2.550   4.823
 4739SOL    HW215117   6.618   2.583   4.712
 4740SOL     OW15118   0.815   0.914   1.212
 4740SOL    HW115119   0.897   0.902   1.157
 4740SOL    HW215120   0.808   1.009   1.243
 4741SOL     OW15121   4.489   4.650   1.062
 4741SOL    HW115122   4.579   4.693   1.056
 4741SOL    HW215123   4.500   4.553   1.082
 4742SOL     OW15124   2.832   5.574   1.719
 4742SOL    HW115125   2.819   5.483   1.679
 4742SOL    HW215126   2.806   5.572   1.815
 4743SOL     OW15127   2.703   1.237   5.529
 4743SOL    HW115128   2.630   1.213   5.464
 4743SOL    HW215129   2.788   1.253   5.478
 4744SOL     OW15130   2.029   2.655   5.285
 4744SOL    HW115131   2.041   2.737   5.229
 4744SOL    HW215132   2.116   2.632   5.330
 4745SOL     OW15133   3.420   5.356   6.040
 4745SOL    HW115134   3.485   5.288   6.004
 4745SOL    HW215135   3.331   5.343   5.997
 4746SOL     OW15136   6.065   5.670   0.524
 4746SOL    HW115137   6.146   5.728   0.513
 4746SOL    HW215138   6.015   5.668   0.438
 4747SOL     OW15139   7.001   3.071   0.153
 4747SOL    HW115140   0.055   3.132   0.190
 4747SOL    HW215141   6.930   3.125   0.107
 4748SOL     OW15142   1.187   0.645   1.358
 4748SOL    HW115143   1.200   0.655   1.456
 4748SOL    HW215144   1.097   0.604   1.340
 4749SOL     OW15145   2.684   6.883   6.677
 4749SOL    HW115146   2.717   6.871   6.771
 4749SOL    HW215147   2.702   6.977   6.647
 4750SOL     OW15148   0.102   1.515   4.395
 4750SOL    HW115149   0.190   1.533   4.350
 4750SOL    HW215150   0.032   1.575   4.356
 4751SOL     OW15151   2.204   4.202   6.775
 4751SOL    HW115152   2.209   4.282   6.715
 4751SOL    HW215153   2.120   4.206   6.830
 4752SOL     OW15154   2.693   6.065   1.155
 4752SOL    HW115155   2.748   6.026   1.081
 4752SOL    HW215156   2.709   6.164   1.159
 4753SOL     OW15157   5.609   6.998   4.862
 4753SOL    HW115158   5.545   6.958   4.796
 4753SOL    HW215159   5.690   6.941   4.869
 4754SOL     OW15160   6.290   0.631   6.325
 4754SOL    HW115161   6.310   0.729   6.332
 4754SOL    HW215162   6.221   0.616   6.254
 4755SOL     OW15163   2.792   0.640   6.362
 4755SOL    HW115164   2.756   0.715   6.307
 4755SOL    HW215165   2.729   0.562   6.358
 4756SOL     OW15166   5.614   2.220   1.830
 4756SOL    HW115167   5.615   2.311   1.870
 4756SOL    HW215168   5.703   2.177   1.842
 4757SOL     OW15169   2.434   2.489   2.203
 4757SOL    HW115170   2.392   2.411   2.249
 4757SOL    HW215171   2.496   2.456   2.132
 4758SOL     OW15172   4.189   5.766   5.429
 4758SOL    HW115173   4.234   5.677   5.434
 4758SOL    HW215174   4.110   5.767   5.491
 4759SOL     OW15175   5.336   5.756   4.917
 4759SOL    HW115176   5.330   5.790   4.824
 4759SOL    HW215177   5.420   5.790   4.960
 4760SOL     OW15178   2.570   1.266   1.561
 4760SOL    HW115179   2.639   1.198   1.535
 4760SOL    HW215180   2.560   1.333   1.488
 4761SOL     OW15181   6.266   0.285   6.308
 4761SOL    HW115182   6.235   0.368   6.262
 4761SOL    HW215183   6.188   0.224   6.321
 4762SOL     OW15184   2.422   4.397   2.428
 4762SOL    HW115185   2.451   4.308   2.392
 4762SOL    HW215186   2.418   4.463   2.353
 4763SOL     OW15187   6.135   5.960   2.780
 4763SOL    HW115188   6.084   5.891   2.833
 4763SOL    HW215189   6.177   6.026   2.843
 4764SOL     OW15190   4.604   3.771   5.415
 4764SOL    HW115191   4.627   3.780   5.318
 4764SOL    HW215192   4.687   3.777   5.470
 4765SOL     OW15193   4.828   6.347   4.879
 4765SOL    HW115194   4.912   6.402   4.872
 4765SOL    HW215195   4.752   6.407   4.904
 4766SOL     OW15196   3.177   0.602   3.439
 4766SOL    HW115197   3.153   0.666   3.366
 4766SOL    HW215198   3.102   0.536   3.450
 4767SOL     OW15199   4.213   6.501   1.156
 4767SOL    HW115200   4.302   6.462   1.130
 4767SOL    HW215201   4.197   6.585   1.103
 4768SOL     OW15202   5.467   1.703   4.962
 4768SOL    HW115203   5.398   1.775   4.959
 4768SOL    HW215204   5.430   1.619   4.923
 4769SOL     OW15205   3.678   5.377   1.566
 4769SOL    HW115206   3.706   5.449   1.630
 4769SOL    HW215207   3.732   5.385   1.482
 4770SOL     OW15208   2.220   0.490   2.830
 4770SOL    HW115209   2.207   0.555   2.756
 4770SOL    HW215210   2.296   0.428   2.808
 4771SOL     OW15211   3.187   4.703   5.672
 4771SOL    HW115212   3.093   4.717   5.642
 4771SOL    HW215213   3.191   4.700   5.772
 4772SOL     OW15214   2.375   7.015   1.326
 4772SOL    HW115215   2.447   0.060   1.291
 4772SOL    HW215216   2.359   6.941   1.260
 4773SOL     OW15217   0.223   5.528   4.157
 4773SOL    HW115218   0.141   5.493   4.201
 4773SOL    HW215219   0.258   5.607   4.207
 4774SOL     OW15220   0.937   3.052   2.402
 4774SOL    HW115221   1.016   3.103   2.435
 4774SOL    HW215222   0.959   3.009   2.315
 4775SOL     OW15223   5.419   0.625   3.171
 4775SOL    HW115224   5.483   0.663   3.104
 4775SOL    HW215225   5.338   0.590   3.124
 4776SOL     OW15226   2.530   6.681   3.019
 4776SOL    HW115227   2.586   6.705   2.940
 4776SOL    HW215228   2.434   6.697   2.998
 4777SOL     OW15229   2.615   4.070   1.380
 4777SOL    HW115230   2.667   4.030   1.304
 4777SOL    HW215231   2.673   4.072   1.462
 4778SOL     OW15232   5.318   2.651   1.902
 4778SOL    HW115233   5.305   2.614   1.995
 4778SOL    HW215234   5.410   2.690   1.895
 4779SOL     OW15235   6.451   0.086   2.481
 4779SOL    HW115236   6.519   0.062   2.551
 4779SOL    HW215237   6.452   0.184   2.466
 4780SOL     OW15238   0.328   0.879   5.919
 4780SOL    HW115239   0.330   0.905   6.015
 4780SOL    HW215240   0.400   0.929   5.870
 4781SOL     OW15241   2.663   5.835   1.761
 4781SOL    HW115242   2.717   5.908   1.802
 4781SOL    HW215243   2.721   5.756   1.743
 4782SOL     OW15244   4.917   6.978   0.119
 4782SOL    HW115245   4.992   6.942   0.064
 4782SOL    HW215246   4.918   0.063   0.116
 4783SOL     OW15247   4.585   4.580   0.743
 4783SOL    HW115248   4.580   4.680   0.746
 4783SOL    HW215249   4.610   4.550   0.651
 4784SOL     OW15250   6.207   5.275   5.645
 4784SOL    HW115251   6.165   5.200   5.697
 4784SOL    HW215252   6.289   5.306   5.694
 4785SOL     OW15253   6.713   6.255   1.130
 4785SOL    HW115254   6.794   6.198   1.118
 4785SOL    HW215255   6.742   6.347   1.157
 4786SOL     OW15256   1.540   2.465   2.662
 4786SOL    HW115257   1.589   2.397   2.608
 4786SOL    HW215258   1.521   2.427   2.753
 4787SOL     OW15259   3.367   2.053   3.617
 4787SOL    HW115260   3.370   1.955   3.596
 4787SOL    HW215261   3.330   2.103   3.539
 4788SOL     OW15262   1.312   5.788   5.953
 4788SOL    HW115263   1.302   5.823   5.860
 4788SOL    HW215264   1.227   5.746   5.983
 4789SOL     OW15265   5.009   0.629   0.037
 4789SOL    HW115266   4.973   0.716   0.005
 4789SOL    HW215267   5.075   0.593   6.987
 4790SOL     OW15268   5.519   3.387   6.757
 4790SOL    HW115269   5.512   3.295   6.795
 4790SOL    HW215270   5.570   3.383   6.671
 4791SOL     OW15271   6.107   0.783   1.843
 4791SOL    HW115272   6.170   0.719   1.888
 4791SOL    HW215273   6.072   0.848   1.910
 4792SOL     OW15274   1.928   3.003   3.068
 4792SOL    HW115275   1.973   3.049   3.145
 4792SOL    HW215276   1.983   2.925   3.039
 4793SOL     OW15277   1.179   0.667   5.715
 4793SOL    HW115278   1.269   0.680   5.757
 4793SOL    HW215279   1.151   0.571   5.726
 4794SOL     OW15280   3.647   0.631   2.772
 4794SOL    HW115281   3.731   0.581   2.750
 4794SOL    HW215282   3.662   0.729   2.760
 4795SOL     OW15283   6.733   2.588   4.366
 4795SOL    HW115284   6.633   2.588   4.365
 4795SOL    HW215285   6.767   2.515   4.308
 4796SOL     OW15286   4.868   2.455   0.292
 4796SOL    HW115287   4.847   2.532   0.232
 4796SOL    HW215288   4.910   2.381   0.238
 4797SOL     OW15289   1.474   5.666   5.448
 4797SOL    HW115290   1.538   5.720   5.504
 4797SOL    HW215291   1.411   5.617   5.508
 4798SOL     OW15292   0.613   4.132   5.299
 4798SOL    HW115293   0.557   4.206   5.261
 4798SOL    HW215294   0.556   4.052   5.317
 4799SOL     OW15295   5.426   1.943   5.220
 4799SOL    HW115296   5.329   1.964   5.209
 4799SOL    HW215297   5.481   2.013   5.174
 4800SOL     OW15298   3.232   3.434   6.203
 4800SOL    HW115299   3.317   3.384   6.186
 4800SOL    HW215300   3.210   3.490   6.124
 4801SOL     OW15301   2.271   2.257   0.352
 4801SOL    HW115302   2.347   2.319   0.331
 4801SOL    HW215303   2.241   2.271   0.446
 4802SOL     OW15304   1.273   6.366   2.343
 4802SOL    HW115305   1.311   6.456   2.366
 4802SOL    HW215306   1.227   6.370   2.255
 4803SOL     OW15307   0.629   6.965   1.191
 4803SOL    HW115308   0.714   6.924   1.157
 4803SOL    HW215309   0.583   7.012   1.115
 4804SOL     OW15310   4.142   5.602   6.635
 4804SOL    HW115311   4.188   5.690   6.651
 4804SOL    HW215312   4.076   5.613   6.560
 4805SOL     OW15313   6.669   6.981   0.782
 4805SOL    HW115314   6.633   0.002   0.868
 4805SOL    HW215315   6.593   6.951   0.724
 4806SOL     OW15316   6.793   3.965   3.693
 4806SOL    HW115317   6.824   4.039   3.752
 4806SOL    HW215318   6.866   3.941   3.629
 4807SOL     OW15319   1.119   5.378   1.159
 4807SOL    HW115320   1.090   5.285   1.134
 4807SOL    HW215321   1.126   5.434   1.076
 4808SOL     OW15322   5.555   3.476   0.718
 4808SOL    HW115323   5.591   3.527   0.796
 4808SOL    HW215324   5.472   3.428   0.745
 4809SOL     OW15325   3.367   4.232   0.247
 4809SOL    HW115326   3.307   4.312   0.246
 4809SOL    HW215327   3.461   4.260   0.228
 4810SOL     OW15328   1.129   4.702   0.944
 4810SOL    HW115329   1.096   4.796   0.936
 4810SOL    HW215330   1.161   4.670   0.854
 4811SOL     OW15331   2.438   4.994   2.060
 4811SOL    HW115332   2.483   4.948   1.984
 4811SOL    HW215333   2.382   4.928   2.110
 4812SOL     OW15334   6.871   5.067   5.553
 4812SOL    HW115335   6.863   5.134   5.480
 4812SOL    HW215336   6.918   5.108   5.631
 4813SOL     OW15337   4.839   1.005   3.028
 4813SOL    HW115338   4.767   1.069   3.001
 4813SOL    HW215339   4.802   0.913   3.032
 4814SOL     OW15340   6.104   4.786   0.679
 4814SOL    HW115341   6.117   4.869   0.624
 4814SOL    HW215342   6.102   4.811   0.776
 4815SOL     OW15343   4.892   5.117   2.715
 4815SOL    HW115344   4.892   5.024   2.677
 4815SOL    HW215345   4.949   5.119   2.797
 4816SOL     OW15346   5.577   5.254   3.520
 4816SOL    HW115347   5.550   5.175   3.465
 4816SOL    HW215348   5.669   5.282   3.494
 4817SOL     OW15349   0.682   2.280   6.052
 4817SOL    HW115350   0.669   2.265   6.150
 4817SOL    HW215351   0.777   2.260   6.028
 4818SOL     OW15352   0.844   6.892   3.446
 4818SOL    HW115353   0.817   6.918   3.539
 4818SOL    HW215354   0.924   6.832   3.450
 4819SOL     OW15355   1.385   3.239   0.049
 4819SOL    HW115356   1.381   3.155   0.104
 4819SOL    HW215357   1.460   3.232   6.998
 4820SOL     OW15358   6.918   3.009   1.666
 4820SOL    HW115359   6.851   2.969   1.728
 4820SOL    HW215360   6.926   3.107   1.684
 4821SOL     OW15361   0.760   5.995   1.644
 4821SOL    HW115362   0.838   6.058   1.639
 4821SOL    HW215363   0.745   5.954   1.554
 4822SOL     OW15364   1.533   4.155   3.958
 4822SOL    HW115365   1.568   4.126   4.047
 4822SOL    HW215366   1.573   4.244   3.935
 4823SOL     OW15367   1.160   2.168   2.598
 4823SOL    HW115368   1.128   2.249   2.550
 4823SOL    HW215369   1.174   2.190   2.695
 4824SOL     OW15370   5.000   1.518   5.207
 4824SOL    HW115371   4.960   1.546   5.120
 4824SOL    HW215372   5.089   1.562   5.219
 4825SOL     OW15373   1.020   0.682   4.304
 4825SOL    HW115374   1.096   0.733   4.344
 4825SOL    HW215375   0.939   0.691   4.362
 4826SOL     OW15376   4.933   0.368   1.112
 4826SOL    HW115377   4.923   0.368   1.211
 4826SOL    HW215378   5.021   0.409   1.087
 4827SOL     OW15379   6.487   1.397   0.156
 4827SOL    HW115380   6.511   1.408   0.252
 4827SOL    HW215381   6.449   1.483   0.121
 4828SOL     OW15382   4.182   0.268   1.848
 4828SOL    HW115383   4.269   0.300   1.809
 4828SOL    HW215384   4.200   0.191   1.910
 4829SOL     OW15385   3.741   0.069   6.697
 4829SOL    HW115386   3.761   0.107   6.606
 4829SOL    HW215387   3.739   6.985   6.692
 4830SOL     OW15388   4.005   5.896   3.773
 4830SOL    HW115389   4.045   5.880   3.683
 4830SOL    HW215390   4.072   5.942   3.832
 4831SOL     OW15391   3.437   5.620   6.023
 4831SOL    HW115392   3.442   5.520   6.022
 4831SOL    HW215393   3.509   5.657   5.964
 4832SOL     OW15394   3.495   3.754   4.624
 4832SOL    HW115395   3.566   3.754   4.554
 4832SOL    HW215396   3.415   3.704   4.591
 4833SOL     OW15397   5.869   2.082   4.071
 4833SOL    HW115398   5.944   2.148   4.057
 4833SOL    HW215399   5.906   1.999   4.113
 4834SOL     OW15400   2.677   5.172   2.740
 4834SOL    HW115401   2.585   5.187   2.703
 4834SOL    HW215402   2.686   5.076   2.768
 4835SOL     OW15403   6.354   3.810   6.133
 4835SOL    HW115404   6.303   3.829   6.217
 4835SOL    HW215405   6.341   3.714   6.107
 4836SOL     OW15406   4.693   1.249   5.117
 4836SOL    HW115407   4.756   1.267   5.193
 4836SOL    HW215408   4.647   1.335   5.092
 4837SOL     OW15409   6.410   3.125   3.716
 4837SOL    HW115410   6.435   3.061   3.789
 4837SOL    HW215411   6.492   3.170   3.682
 4838SOL     OW15412   1.075   4.946   5.936
 4838SOL    HW115413   1.167   4.969   5.903
 4838SOL    HW215414   1.008   5.001   5.885
 4839SOL     OW15415   1.136   2.621   6.852
 4839SOL    HW115416   1.194   2.596   6.930
 4839SOL    HW215417   1.193   2.648   6.775
 4840SOL     OW15418   5.495   4.208   5.305
 4840SOL    HW115419   5.550   4.193   5.223
 4840SOL    HW215420   5.476   4.121   5.349
 4841SOL     OW15421   2.880   5.034   3.540
 4841SOL    HW115422   2.813   5.080   3.481
 4841SOL    HW215423   2.885   4.938   3.514
 4842SOL     OW15424   2.518   5.086   3.162
 4842SOL    HW115425   2.478   5.019   3.224
 4842SOL    HW215426   2.618   5.081   3.167
 4843SOL     OW15427   0.523   3.126   2.253
 4843SOL    HW115428   0.449   3.188   2.227
 4843SOL    HW215429   0.490   3.062   2.322
 4844SOL     OW15430   0.850   4.975   5.230
 4844SOL    HW115431   0.945   5.004   5.240
 4844SOL    HW215432   0.823   4.978   5.134
 4845SOL     OW15433   4.521   4.600   5.211
 4845SOL    HW115434   4.526   4.513   5.260
 4845SOL    HW215435   4.449   4.595   5.142
 4846SOL     OW15436   0.749   2.182   4.234
 4846SOL    HW115437   0.791   2.149   4.319
 4846SOL    HW215438   0.653   2.205   4.251
 4847SOL     OW15439   2.620   6.857   5.521
 4847SOL    HW115440   2.571   6.770   5.524
 4847SOL    HW215441   2.709   6.847   5.565
 4848SOL     OW15442   1.895   1.050   3.881
 4848SOL    HW115443   1.894   1.149   3.897
 4848SOL    HW215444   1.986   1.024   3.849
 4849SOL     OW15445   1.774   0.779   0.254
 4849SOL    HW115446   1.676   0.799   0.247
 4849SOL    HW215447   1.790   0.683   0.230
 4850SOL     OW15448   4.537   0.861   1.297
 4850SOL    HW115449   4.474   0.853   1.220
 4850SOL    HW215450   4.576   0.953   1.299
 4851SOL     OW15451   3.483   5.732   0.192
 4851SOL    HW115452   3.478   5.762   0.097
 4851SOL    HW215453   3.404   5.674   0.213
 4852SOL     OW15454   3.585   5.889   4.867
 4852SOL    HW115455   3.572   5.923   4.960
 4852SOL    HW215456   3.503   5.841   4.837
 4853SOL     OW15457   3.345   0.834   2.823
 4853SOL    HW115458   3.306   0.806   2.735
 4853SOL    HW215459   3.441   0.803   2.828
 4854SOL     OW15460   5.610   6.278   1.712
 4854SOL    HW115461   5.557   6.258   1.629
 4854SOL    HW215462   5.705   6.294   1.688
 4855SOL     OW15463   0.011   4.135   5.120
 4855SOL    HW115464   0.010   4.059   5.055
 4855SOL    HW215465   0.050   4.104   5.207
 4856SOL     OW15466   0.421   3.764   2.895
 4856SOL    HW115467   0.447   3.850   2.939
 4856SOL    HW215468   0.496   3.732   2.837
 4857SOL     OW15469   2.929   2.306   4.340
 4857SOL    HW115470   2.862   2.236   4.362
 4857SOL    HW215471   2.882   2.393   4.322
 4858SOL     OW15472   0.617   0.054   5.441
 4858SOL    HW115473   0.675   0.076   5.363
 4858SOL    HW215474   0.544   7.007   5.412
 4859SOL     OW15475   0.599   5.458   2.229
 4859SOL    HW115476   0.524   5.471   2.164
 4859SOL    HW215477   0.588   5.370   2.276
 4860SOL     OW15478   4.670   5.621   0.189
 4860SOL    HW115479   4.757   5.669   0.194
 4860SOL    HW215480   4.685   5.523   0.197
 4861SOL     OW15481   6.629   4.750   5.818
 4861SOL    HW115482   6.619   4.816   5.892
 4861SOL    HW215483   6.714   4.768   5.769
 4862SOL     OW15484   2.905   4.878   4.953
 4862SOL    HW115485   2.881   4.787   4.988
 4862SOL    HW215486   2.965   4.868   4.873
 4863SOL     OW15487   4.955   3.012   2.836
 4863SOL    HW115488   5.021   3.087   2.833
 4863SOL    HW215489   4.990   2.935   2.782
 4864SOL     OW15490   3.142   1.458   1.964
 4864SOL    HW115491   3.163   1.405   1.882
 4864SOL    HW215492   3.066   1.521   1.944
 4865SOL     OW15493   3.547   5.161   5.899
 4865SOL    HW115494   3.492   5.146   5.817
 4865SOL    HW215495   3.631   5.210   5.874
 4866SOL     OW15496   6.317   5.242   1.608
 4866SOL    HW115497   6.268   5.197   1.683
 4866SOL    HW215498   6.415   5.247   1.631
 4867SOL     OW15499   5.050   5.559   2.706
 4867SOL    HW115500   5.096   5.488   2.759
 4867SOL    HW215501   4.958   5.530   2.683
 4868SOL     OW15502   0.622   5.301   0.964
 4868SOL    HW115503   0.545   5.249   0.927
 4868SOL    HW215504   0.694   5.238   0.991
 4869SOL     OW15505   6.891   1.767   0.157
 4869SOL    HW115506   6.888   1.806   0.250
 4869SOL    HW215507   6.929   1.675   0.161
 4870SOL     OW15508   4.075   6.594   2.071
 4870SOL    HW115509   4.146   6.564   2.007
 4870SOL    HW215510   3.986   6.563   2.039
 4871SOL     OW15511   1.147   1.968   3.559
 4871SOL    HW115512   1.147   2.002   3.465
 4871SOL    HW215513   1.239   1.936   3.583
 4872SOL     OW15514   0.870   0.249   2.750
 4872SOL    HW115515   0.774   0.229   2.731
 4872SOL    HW215516   0.880   0.346   2.773
 4873SOL     OW15517   0.315   5.108   4.477
 4873SOL    HW115518   0.219   5.121   4.454
 4873SOL    HW215519   0.358   5.197   4.491
 4874SOL     OW15520   5.104   3.623   3.409
 4874SOL    HW115521   5.187   3.677   3.395
 4874SOL    HW215522   5.098   3.552   3.340
 4875SOL     OW15523   5.861   1.418   1.183
 4875SOL    HW115524   5.799   1.444   1.109
 4875SOL    HW215525   5.809   1.377   1.257
 4876SOL     OW15526   6.110   1.025   6.165
 4876SOL    HW115527   6.045   1.007   6.239
 4876SOL    HW215528   6.064   1.073   6.090
 4877SOL     OW15529   6.370   1.576   0.953
 4877SOL    HW115530   6.357   1.623   1.040
 4877SOL    HW215531   6.361   1.641   0.878
 4878SOL     OW15532   0.147   1.661   1.961
 4878SOL    HW115533   0.078   1.733   1.968
 4878SOL    HW215534   0.176   1.634   2.053
 4879SOL     OW15535   4.157   4.729   3.576
 4879SOL    HW115536   4.192   4.746   3.484
 4879SOL    HW215537   4.136   4.632   3.586
 4880SOL     OW15538   5.623   1.086   0.026
 4880SOL    HW115539   5.614   1.175   0.069
 4880SOL    HW215540   5.663   1.096   6.950
 4881SOL     OW15541   3.030   6.423   6.235
 4881SOL    HW115542   3.098   6.468   6.178
 4881SOL    HW215543   3.070   6.402   6.324
 4882SOL     OW15544   6.052   1.163   5.039
 4882SOL    HW115545   6.124   1.128   4.979
 4882SOL    HW215546   5.972   1.103   5.033
 4883SOL     OW15547   6.157   4.420   2.288
 4883SOL    HW115548   6.166   4.392   2.192
 4883SOL    HW215549   6.136   4.340   2.344
 4884SOL     OW15550   3.844   6.499   1.570
 4884SOL    HW115551   3.864   6.569   1.500
 4884SOL    HW215552   3.782   6.537   1.638
 4885SOL     OW15553   1.886   6.766   1.240
 4885SOL    HW115554   1.923   6.859   1.244
 4885SOL    HW215555   1.955   6.701   1.270
 4886SOL     OW15556   6.251   0.142   6.648
 4886SOL    HW115557   6.331   0.140   6.707
 4886SOL    HW215558   6.224   0.048   6.624
 4887SOL     OW15559   0.106   2.136   3.576
 4887SOL    HW115560   0.114   2.210   3.643
 4887SOL    HW215561   0.197   2.097   3.559
 4888SOL     OW15562   1.671   6.019   3.195
 4888SOL    HW115563   1.643   5.983   3.106
 4888SOL    HW215564   1.709   6.111   3.184
 4889SOL     OW15565   1.218   2.055   0.241
 4889SOL    HW115566   1.243   1.958   0.240
 4889SOL    HW215567   1.212   2.088   0.147
 4890SOL     OW15568   0.676   0.923   4.220
 4890SOL    HW115569   0.694   1.011   4.263
 4890SOL    HW215570   0.732   0.852   4.264
 4891SOL     OW15571   1.058   4.828   0.414
 4891SOL    HW115572   1.084   4.898   0.348
 4891SOL    HW215573   1.122   4.752   0.410
 4892SOL     OW15574   1.784   5.680   1.531
 4892SOL    HW115575   1.808   5.603   1.472
 4892SOL    HW215576   1.728   5.746   1.480
 4893SOL     OW15577   6.943   3.722   6.485
 4893SOL    HW115578   0.006   3.693   6.542
 4893SOL    HW215579   6.863   3.666   6.508
 4894SOL     OW15580   1.585   0.611   3.182
 4894SOL    HW115581   1.612   0.598   3.086
 4894SOL    HW215582   1.491   0.580   3.194
 4895SOL     OW15583   0.759   2.994   0.443
 4895SOL    HW115584   0.844   2.981   0.494
 4895SOL    HW215585   0.778   2.990   0.344
 4896SOL     OW15586   3.641   4.970   4.462
 4896SOL    HW115587   3.626   4.921   4.376
 4896SOL    HW215588   3.715   4.925   4.513
 4897SOL     OW15589   3.301   5.518   0.087
 4897SOL    HW115590   3.215   5.482   0.050
 4897SOL    HW215591   3.331   5.462   0.164
 4898SOL     OW15592   5.546   2.442   5.613
 4898SOL    HW115593   5.472   2.505   5.638
 4898SOL    HW215594   5.523   2.398   5.526
 4899SOL     OW15595   5.918   4.480   3.113
 4899SOL    HW115596   5.991   4.472   3.181
 4899SOL    HW215597   5.846   4.414   3.133
 4900SOL     OW15598   0.564   6.943   5.728
 4900SOL    HW115599   0.534   0.015   5.689
 4900SOL    HW215600   0.542   6.941   5.826
 4901SOL     OW15601   0.962   6.904   3.959
 4901SOL    HW115602   1.054   6.944   3.961
 4901SOL    HW215603   0.951   6.841   4.036
 4902SOL     OW15604   2.503   4.800   1.850
 4902SOL    HW115605   2.583   4.817   1.792
 4902SOL    HW215606   2.464   4.711   1.827
 4903SOL     OW15607   3.745   6.812   6.919
 4903SOL    HW115608   3.656   6.846   6.889
 4903SOL    HW215609   3.740   6.786   0.001
 4904SOL     OW15610   1.701   5.709   3.968
 4904SOL    HW115611   1.742   5.772   4.035
 4904SOL    HW215612   1.754   5.712   3.883
 4905SOL     OW15613   5.076   2.819   1.833
 4905SOL    HW115614   5.161   2.784   1.874
 4905SOL    HW215615   5.016   2.742   1.810
 4906SOL     OW15616   4.555   0.131   0.510
 4906SOL    HW115617   4.471   0.088   0.476
 4906SOL    HW215618   4.627   0.062   0.519
 4907SOL     OW15619   4.155   0.017   3.842
 4907SOL    HW115620   4.103   0.092   3.881
 4907SOL    HW215621   4.142   6.950   3.897
 4908SOL     OW15622   3.585   5.877   6.345
 4908SOL    HW115623   3.625   5.788   6.366
 4908SOL    HW215624   3.624   5.912   6.260
 4909SOL     OW15625   6.309   6.533   5.491
 4909SOL    HW115626   6.395   6.572   5.457
 4909SOL    HW215627   6.271   6.592   5.561
 4910SOL     OW15628   5.233   0.768   5.239
 4910SOL    HW115629   5.287   0.687   5.260
 4910SOL    HW215630   5.274   0.848   5.283
 4911SOL     OW15631   0.376   2.574   6.035
 4911SOL    HW115632   0.330   2.492   6.069
 4911SOL    HW215633   0.451   2.548   5.975
 4912SOL     OW15634   3.865   2.111   2.558
 4912SOL    HW115635   3.779   2.095   2.509
 4912SOL    HW215636   3.850   2.100   2.656
 4913SOL     OW15637   3.339   4.146   3.410
 4913SOL    HW115638   3.332   4.046   3.413
 4913SOL    HW215639   3.247   4.185   3.403
 4914SOL     OW15640   2.743   0.200   3.754
 4914SOL    HW115641   2.697   0.117   3.786
 4914SOL    HW215642   2.834   0.177   3.721
 4915SOL     OW15643   4.094   6.466   4.599
 4915SOL    HW115644   4.168   6.444   4.536
 4915SOL    HW215645   4.007   6.461   4.551
 4916SOL     OW15646   2.971   2.114   3.347
 4916SOL    HW115647   2.913   2.033   3.359
 4916SOL    HW215648   2.913   2.194   3.328
 4917SOL     OW15649   2.040   3.772   0.720
 4917SOL    HW115650   2.091   3.849   0.757
 4917SOL    HW215651   1.971   3.742   0.786
 4918SOL     OW15652   2.511   0.568   2.106
 4918SOL    HW115653   2.425   0.571   2.055
 4918SOL    HW215654   2.562   0.653   2.092
 4919SOL     OW15655   1.719   1.872   2.251
 4919SOL    HW115656   1.714   1.837   2.157
 4919SOL    HW215657   1.679   1.806   2.314
 4920SOL     OW15658   4.091   0.783   0.721
 4920SOL    HW115659   4.065   0.823   0.809
 4920SOL    HW215660   4.068   0.846   0.648
 4921SOL     OW15661   2.442   4.225   1.850
 4921SOL    HW115662   2.457   4.247   1.946
 4921SOL    HW215663   2.346   4.201   1.836
 4922SOL     OW15664   1.579   3.063   5.317
 4922SOL    HW115665   1.656   3.042   5.377
 4922SOL    HW215666   1.528   2.979   5.297
 4923SOL     OW15667   5.267   0.183   1.956
 4923SOL    HW115668   5.172   0.155   1.971
 4923SOL    HW215669   5.291   0.255   2.021
 4924SOL     OW15670   1.246   4.053   4.196
 4924SOL    HW115671   1.240   3.971   4.252
 4924SOL    HW215672   1.287   4.031   4.108
 4925SOL     OW15673   4.569   6.663   1.217
 4925SOL    HW115674   4.521   6.750   1.226
 4925SOL    HW215675   4.654   6.666   1.268
 4926SOL     OW15676   5.624   2.467   1.947
 4926SOL    HW115677   5.560   2.499   1.877
 4926SOL    HW215678   5.618   2.525   2.028
 4927SOL     OW15679   3.696   2.866   2.697
 4927SOL    HW115680   3.598   2.882   2.690
 4927SOL    HW215681   3.714   2.768   2.700
 4928SOL     OW15682   0.874   6.916   6.752
 4928SOL    HW115683   0.842   7.010   6.765
 4928SOL    HW215684   0.802   6.852   6.775
 4929SOL     OW15685   1.574   4.934   4.645
 4929SOL    HW115686   1.553   5.014   4.590
 4929SOL    HW215687   1.628   4.961   4.724
 4930SOL     OW15688   0.567   2.023   0.309
 4930SOL    HW115689   0.517   2.022   0.396
 4930SOL    HW215690   0.555   1.935   0.263
 4931SOL     OW15691   0.587   0.177   6.976
 4931SOL    HW115692   0.664   0.198   0.021
 4931SOL    HW215693   0.510   0.143   0.016
 4932SOL     OW15694   2.686   2.612   1.252
 4932SOL    HW115695   2.702   2.687   1.316
 4932SOL    HW215696   2.677   2.649   1.159
 4933SOL     OW15697   2.332   1.415   4.189
 4933SOL    HW115698   2.309   1.502   4.231
 4933SOL    HW215699   2.273   1.399   4.110
 4934SOL     OW15700   0.044   5.068   3.777
 4934SOL    HW115701   0.051   4.995   3.845
 4934SOL    HW215702   0.135   5.107   3.762
 4935SOL     OW15703   2.395   1.032   6.623
 4935SOL    HW115704   2.460   1.064   6.692
 4935SOL    HW215705   2.379   1.105   6.556
 4936SOL     OW15706   3.366   5.769   1.669
 4936SOL    HW115707   3.443   5.780   1.732
 4936SOL    HW215708   3.300   5.843   1.684
 4937SOL     OW15709   1.043   3.484   6.121
 4937SOL    HW115710   1.111   3.421   6.083
 4937SOL    HW215711   1.041   3.568   6.068
 4938SOL     OW15712   3.147   4.459   1.116
 4938SOL    HW115713   3.112   4.552   1.106
 4938SOL    HW215714   3.104   4.416   1.196
 4939SOL     OW15715   1.452   1.401   1.396
 4939SOL    HW115716   1.393   1.420   1.474
 4939SOL    HW215717   1.504   1.483   1.373
 4940SOL     OW15718   0.043   2.565   4.050
 4940SOL    HW115719   0.004   2.583   3.960
 4940SOL    HW215720   6.983   2.556   4.117
 4941SOL     OW15721   3.992   2.563   5.441
 4941SOL    HW115722   4.044   2.501   5.500
 4941SOL    HW215723   4.026   2.557   5.347
 4942SOL     OW15724   5.498   3.049   3.532
 4942SOL    HW115725   5.573   3.040   3.597
 4942SOL    HW215726   5.439   3.125   3.559
 4943SOL     OW15727   5.371   3.101   6.589
 4943SOL    HW115728   5.357   3.003   6.601
 4943SOL    HW215729   5.327   3.151   6.664
 4944SOL     OW15730   1.738   4.768   0.622
 4944SOL    HW115731   1.793   4.738   0.544
 4944SOL    HW215732   1.751   4.704   0.698
 4945SOL     OW15733   2.067   0.863   4.751
 4945SOL    HW115734   2.119   0.940   4.716
 4945SOL    HW215735   2.073   0.860   4.851
 4946SOL     OW15736   1.209   4.160   0.260
 4946SOL    HW115737   1.189   4.130   0.353
 4946SOL    HW215738   1.126   4.197   0.218
 4947SOL     OW15739   2.205   0.641   1.684
 4947SOL    HW115740   2.147   0.649   1.603
 4947SOL    HW215741   2.229   0.733   1.717
 4948SOL     OW15742   1.685   2.198   1.919
 4948SOL    HW115743   1.775   2.186   1.962
 4948SOL    HW215744   1.644   2.284   1.949
 4949SOL     OW15745   6.894   3.544   6.018
 4949SOL    HW115746   6.841   3.625   6.045
 4949SOL    HW215747   6.966   3.570   5.955
 4950SOL     OW15748   2.490   4.487   5.440
 4950SOL    HW115749   2.397   4.493   5.403
 4950SOL    HW215750   2.486   4.451   5.533
 4951SOL     OW15751   5.860   6.540   3.751
 4951SOL    HW115752   5.795   6.535   3.827
 4951SOL    HW215753   5.853   6.457   3.695
 4952SOL     OW15754   6.664   0.318   6.296
 4952SOL    HW115755   6.725   0.341   6.220
 4952SOL    HW215756   6.593   0.256   6.264
 4953SOL     OW15757   1.207   1.899   4.852
 4953SOL    HW115758   1.189   1.865   4.944
 4953SOL    HW215759   1.226   1.997   4.855
 4954SOL     OW15760   2.613   3.837   5.315
 4954SOL    HW115761   2.550   3.868   5.244
 4954SOL    HW215762   2.702   3.817   5.274
 4955SOL     OW15763   3.199   5.764   0.031
 4955SOL    HW115764   3.234   5.675   0.059
 4955SOL    HW215765   3.111   5.752   6.999
 4956SOL     OW15766   2.535   0.493   5.009
 4956SOL    HW115767   2.584   0.551   5.074
 4956SOL    HW215768   2.437   0.512   5.016
 4957SOL     OW15769   6.569   4.081   6.668
 4957SOL    HW115770   6.541   4.165   6.621
 4957SOL    HW215771   6.548   4.002   6.610
 4958SOL     OW15772   2.481   0.136   6.049
 4958SOL    HW115773   2.557   0.090   6.095
 4958SOL    HW215774   2.488   0.122   5.950
 4959SOL     OW15775   6.699   2.577   1.400
 4959SOL    HW115776   6.795   2.566   1.374
 4959SOL    HW215777   6.693   2.606   1.495
 4960SOL     OW15778   3.938   4.918   3.562
 4960SOL    HW115779   3.998   4.987   3.520
 4960SOL    HW215780   3.993   4.838   3.587
 4961SOL     OW15781   2.993   0.719   6.711
 4961SOL    HW115782   2.952   0.701   6.622
 4961SOL    HW215783   3.036   0.810   6.710
 4962SOL     OW15784   6.522   3.471   0.863
 4962SOL    HW115785   6.579   3.392   0.884
 4962SOL    HW215786   6.429   3.441   0.845
 4963SOL     OW15787   0.341   4.357   0.638
 4963SOL    HW115788   0.312   4.426   0.572
 4963SOL    HW215789   0.441   4.355   0.642
 4964SOL     OW15790   2.907   6.714   4.775
 4964SOL    HW115791   2.997   6.709   4.733
 4964SOL    HW215792   2.882   6.624   4.812
 4965SOL     OW15793   1.295   6.688   2.777
 4965SOL    HW115794   1.304   6.666   2.874
 4965SOL    HW215795   1.217   6.639   2.738
 4966SOL     OW15796   3.238   6.310   4.715
 4966SOL    HW115797   3.155   6.257   4.697
 4966SOL    HW215798   3.296   6.260   4.780
 4967SOL     OW15799   3.994   4.588   5.283
 4967SOL    HW115800   3.936   4.666   5.309
 4967SOL    HW215801   3.959   4.505   5.326
 4968SOL     OW15802   0.378   0.985   4.200
 4968SOL    HW115803   0.358   1.081   4.179
 4968SOL    HW215804   0.468   0.979   4.244
 4969SOL     OW15805   0.559   6.407   1.612
 4969SOL    HW115806   0.558   6.315   1.652
 4969SOL    HW215807   0.465   6.436   1.593
 4970SOL     OW15808   1.777   0.881   1.688
 4970SOL    HW115809   1.678   0.882   1.675
 4970SOL    HW215810   1.806   0.965   1.733
 4971SOL     OW15811   6.533   6.174   2.719
 4971SOL    HW115812   6.622   6.129   2.720
 4971SOL    HW215813   6.499   6.185   2.813
 4972SOL     OW15814   1.538   4.286   1.065
 4972SOL    HW115815   1.443   4.275   1.036
 4972SOL    HW215816   1.573   4.199   1.100
 4973SOL     OW15817   0.210   0.428   1.371
 4973SOL    HW115818   0.280   0.399   1.306
 4973SOL    HW215819   0.120   0.403   1.335
 4974SOL     OW15820   3.941   3.924   6.380
 4974SOL    HW115821   3.895   3.879   6.457
 4974SOL    HW215822   3.907   3.887   6.294
 4975SOL     OW15823   5.733   3.727   0.605
 4975SOL    HW115824   5.684   3.655   0.555
 4975SOL    HW215825   5.710   3.721   0.702
 4976SOL     OW15826   0.560   0.338   4.511
 4976SOL    HW115827   0.478   0.289   4.543
 4976SOL    HW215828   0.634   0.273   4.497
 4977SOL     OW15829   2.873   4.396   6.596
 4977SOL    HW115830   2.919   4.354   6.519
 4977SOL    HW215831   2.810   4.330   6.638
 4978SOL     OW15832   5.053   4.301   5.377
 4978SOL    HW115833   5.029   4.393   5.410
 4978SOL    HW215834   5.079   4.306   5.281
 4979SOL     OW15835   1.624   6.781   6.606
 4979SOL    HW115836   1.564   6.837   6.549
 4979SOL    HW215837   1.579   6.693   6.625
 4980SOL     OW15838   6.792   4.531   2.950
 4980SOL    HW115839   6.782   4.628   2.924
 4980SOL    HW215840   6.795   4.523   3.049
 4981SOL     OW15841   3.324   4.838   2.067
 4981SOL    HW115842   3.263   4.787   2.006
 4981SOL    HW215843   3.419   4.816   2.045
 4982SOL     OW15844   4.408   1.673   6.712
 4982SOL    HW115845   4.328   1.724   6.679
 4982SOL    HW215846   4.491   1.723   6.686
 4983SOL     OW15847   6.289   5.313   4.001
 4983SOL    HW115848   6.361   5.351   3.943
 4983SOL    HW215849   6.206   5.300   3.948
 4984SOL     OW15850   4.500   4.513   3.305
 4984SOL    HW115851   4.580   4.571   3.296
 4984SOL    HW215852   4.495   4.450   3.227
 4985SOL     OW15853   5.461   5.993   2.746
 4985SOL    HW115854   5.401   5.917   2.769
 4985SOL    HW215855   5.409   6.079   2.751
 4986SOL     OW15856   0.274   4.616   1.815
 4986SOL    HW115857   0.332   4.653   1.887
 4986SOL    HW215858   0.297   4.660   1.728
 4987SOL     OW15859   0.689   6.821   2.451
 4987SOL    HW115860   0.705   6.914   2.485
 4987SOL    HW215861   0.746   6.804   2.371
 4988SOL     OW15862   5.789   0.677   4.022
 4988SOL    HW115863   5.731   0.602   3.992
 4988SOL    HW215864   5.793   0.748   3.951
 4989SOL     OW15865   5.278   0.613   1.895
 4989SOL    HW115866   5.277   0.713   1.892
 4989SOL    HW215867   5.368   0.580   1.865
 4990SOL     OW15868   4.001   1.623   0.052
 4990SOL    HW115869   3.971   1.635   0.147
 4990SOL    HW215870   4.080   1.683   0.034
 4991SOL     OW15871   0.262   5.754   4.304
 4991SOL    HW115872   0.340   5.810   4.275
 4991SOL    HW215873   0.178   5.809   4.301
 4992SOL     OW15874   6.295   0.734   3.267
 4992SOL    HW115875   6.394   0.720   3.259
 4992SOL    HW215876   6.278   0.823   3.310
 4993SOL     OW15877   4.763   7.003   5.258
 4993SOL    HW115878   4.851   0.036   5.266
 4993SOL    HW215879   4.770   6.914   5.302
 4994SOL     OW15880   2.188   5.296   5.103
 4994SOL    HW115881   2.167   5.215   5.049
 4994SOL    HW215882   2.287   5.310   5.104
 4995SOL     OW15883   0.745   0.781   4.851
 4995SOL    HW115884   0.747   0.881   4.849
 4995SOL    HW215885   0.764   0.746   4.759
 4996SOL     OW15886   0.304   1.704   4.313
 4996SOL    HW115887   0.390   1.720   4.265
 4996SOL    HW215888   0.244   1.783   4.301
 4997SOL     OW15889   3.773   2.063   1.388
 4997SOL    HW115890   3.708   2.067   1.463
 4997SOL    HW215891   3.726   2.040   1.303
 4998SOL     OW15892   1.440   3.689   3.206
 4998SOL    HW115893   1.523   3.726   3.249
 4998SOL    HW215894   1.428   3.730   3.116
 4999SOL     OW15895   1.032   3.521   4.888
 4999SOL    HW115896   1.068   3.494   4.977
 4999SOL    HW215897   0.992   3.612   4.894
 5000SOL     OW15898   3.095   6.201   3.593
 5000SOL    HW115899   3.055   6.291   3.612
 5000SOL    HW215900   3.046   6.158   3.517
 5001SOL     OW15901   0.604   5.440   2.577
 5001SOL    HW115902   0.611   5.534   2.544
 5001SOL    HW215903   0.555   5.439   2.664
 5002SOL     OW15904   0.971   4.777   2.198
 5002SOL    HW115905   1.038   4.851   2.194
 5002SOL    HW215906   0.971   4.736   2.289
 5003SOL     OW15907   4.025   5.708   3.047
 5003SOL    HW115908   4.064   5.654   2.972
 5003SOL    HW215909   3.926   5.710   3.038
 5004SOL     OW15910   3.372   5.709   6.272
 5004SOL    HW115911   3.376   5.678   6.177
 5004SOL    HW215912   3.430   5.790   6.283
 5005SOL     OW15913   2.561   3.402   6.305
 5005SOL    HW115914   2.589   3.425   6.212
 5005SOL    HW215915   2.550   3.303   6.313
 5006SOL     OW15916   5.629   1.278   2.243
 5006SOL    HW115917   5.556   1.323   2.295
 5006SOL    HW215918   5.664   1.340   2.174
 5007SOL     OW15919   6.574   0.175   0.473
 5007SOL    HW115920   6.565   0.244   0.544
 5007SOL    HW215921   6.567   0.218   0.383
 5008SOL     OW15922   6.833   6.343   1.417
 5008SOL    HW115923   6.788   6.431   1.410
 5008SOL    HW215924   6.924   6.349   1.376
 5009SOL     OW15925   0.695   2.713   0.208
 5009SOL    HW115926   0.672   2.619   0.233
 5009SOL    HW215927   0.743   2.713   0.120
 5010SOL     OW15928   3.547   2.359   0.729
 5010SOL    HW115929   3.551   2.320   0.821
 5010SOL    HW215930   3.606   2.307   0.668
 5011SOL     OW15931   1.425   3.807   0.498
 5011SOL    HW115932   1.484   3.888   0.491
 5011SOL    HW215933   1.396   3.780   0.406
 5012SOL     OW15934   5.877   3.020   5.682
 5012SOL    HW115935   5.953   2.983   5.628
 5012SOL    HW215936   5.913   3.082   5.751
 5013SOL     OW15937   5.940   0.423   5.355
 5013SOL    HW115938   5.949   0.341   5.298
 5013SOL    HW215939   5.844   0.450   5.358
 5014SOL     OW15940   6.573   4.393   0.266
 5014SOL    HW115941   6.646   4.338   0.308
 5014SOL    HW215942   6.484   4.361   0.299
 5015SOL     OW15943   5.286   0.823   4.860
 5015SOL    HW115944   5.261   0.872   4.777
 5015SOL    HW215945   5.213   0.760   4.885
 5016SOL     OW15946   1.093   3.095   4.919
 5016SOL    HW115947   1.063   3.156   4.846
 5016SOL    HW215948   1.013   3.054   4.963
 5017SOL     OW15949   0.891   2.578   1.319
 5017SOL    HW115950   0.803   2.535   1.339
 5017SOL    HW215951   0.893   2.670   1.359
 5018SOL     OW15952   0.787   4.763   1.988
 5018SOL    HW115953   0.826   4.810   1.909
 5018SOL    HW215954   0.861   4.721   2.041
 5019SOL     OW15955   1.810   5.684   5.404
 5019SOL    HW115956   1.903   5.670   5.438
 5019SOL    HW215957   1.754   5.726   5.476
 5020SOL     OW15958   0.399   6.565   5.224
 5020SOL    HW115959   0.486   6.571   5.174
 5020SOL    HW215960   0.343   6.645   5.202
 5021SOL     OW15961   1.493   0.534   1.280
 5021SOL    HW115962   1.548   0.495   1.354
 5021SOL    HW215963   1.413   0.477   1.263
 5022SOL     OW15964   0.086   2.754   1.605
 5022SOL    HW115965   7.009   2.788   1.623
 5022SOL    HW215966   0.118   2.790   1.517
 5023SOL     OW15967   7.014   4.086   1.548
 5023SOL    HW115968   6.979   4.121   1.635
 5023SOL    HW215969   6.938   4.059   1.489
 5024SOL     OW15970   5.426   4.887   0.834
 5024SOL    HW115971   5.373   4.901   0.917
 5024SOL    HW215972   5.390   4.810   0.783
 5025SOL     OW15973   3.861   1.614   3.727
 5025SOL    HW115974   3.827   1.660   3.645
 5025SOL    HW215975   3.921   1.676   3.777
 5026SOL     OW15976   6.697   5.114   4.750
 5026SOL    HW115977   6.646   5.065   4.679
 5026SOL    HW215978   6.795   5.095   4.739
 5027SOL     OW15979   5.694   0.078   1.324
 5027SOL    HW115980   5.793   0.081   1.307
 5027SOL    HW215981   5.650   0.154   1.277
 5028SOL     OW15982   6.999   1.677   3.226
 5028SOL    HW115983   6.929   1.623   3.273
 5028SOL    HW215984   0.020   1.746   3.289
 5029SOL     OW15985   6.678   3.162   2.274
 5029SOL    HW115986   6.768   3.119   2.266
 5029SOL    HW215987   6.629   3.152   2.187
 5030SOL     OW15988   0.038   5.771   5.898
 5030SOL    HW115989   0.038   5.701   5.827
 5030SOL    HW215990   0.021   5.729   5.987
 5031SOL     OW15991   6.926   1.215   5.558
 5031SOL    HW115992   6.954   1.135   5.611
 5031SOL    HW215993   6.944   1.298   5.610
 5032SOL     OW15994   2.958   2.190   6.303
 5032SOL    HW115995   2.897   2.241   6.364
 5032SOL    HW215996   2.922   2.191   6.210
 5033SOL     OW15997   2.200   1.295   0.067
 5033SOL    HW115998   2.126   1.267   0.006
 5033SOL    HW215999   2.164   1.316   0.157
 5034SOL     OW16000   4.915   0.020   4.295
 5034SOL    HW116001   4.836   6.984   4.327
 5034SOL    HW216002   4.885   0.094   4.235
 5035SOL     OW16003   0.426   3.929   5.270
 5035SOL    HW116004   0.335   3.933   5.228
 5035SOL    HW216005   0.484   3.868   5.217
 5036SOL     OW16006   6.504   4.927   6.213
 5036SOL    HW116007   6.548   5.004   6.260
 5036SOL    HW216008   6.423   4.959   6.164
 5037SOL     OW16009   4.497   4.539   1.452
 5037SOL    HW116010   4.553   4.526   1.371
 5037SOL    HW216011   4.549   4.587   1.522
 5038SOL     OW16012   4.034   3.485   4.463
 5038SOL    HW116013   3.950   3.478   4.410
 5038SOL    HW216014   4.045   3.404   4.521
 5039SOL     OW16015   2.140   3.659   5.570
 5039SOL    HW116016   2.143   3.759   5.573
 5039SOL    HW216017   2.234   3.623   5.569
 5040SOL     OW16018   0.823   5.651   5.226
 5040SOL    HW116019   0.912   5.694   5.244
 5040SOL    HW216020   0.763   5.665   5.305
 5041SOL     OW16021   1.103   2.395   2.459
 5041SOL    HW116022   1.109   2.488   2.496
 5041SOL    HW216023   1.106   2.399   2.359
 5042SOL     OW16024   6.310   3.242   0.475
 5042SOL    HW116025   6.395   3.284   0.507
 5042SOL    HW216026   6.325   3.144   0.461
 5043SOL     OW16027   4.270   1.073   0.197
 5043SOL    HW116028   4.200   1.006   0.220
 5043SOL    HW216029   4.361   1.032   0.210
 5044SOL     OW16030   0.797   5.866   1.393
 5044SOL    HW116031   0.895   5.880   1.375
 5044SOL    HW216032   0.773   5.771   1.372
 5045SOL     OW16033   6.413   5.321   5.827
 5045SOL    HW116034   6.464   5.401   5.797
 5045SOL    HW216035   6.475   5.254   5.868
 5046SOL     OW16036   3.800   3.707   3.303
 5046SOL    HW116037   3.817   3.635   3.370
 5046SOL    HW216038   3.708   3.744   3.317
 5047SOL     OW16039   2.099   3.890   2.855
 5047SOL    HW116040   2.129   3.797   2.880
 5047SOL    HW216041   2.162   3.956   2.893
 5048SOL     OW16042   1.327   0.528   5.012
 5048SOL    HW116043   1.396   0.579   5.063
 5048SOL    HW216044   1.367   0.494   4.927
 5049SOL     OW16045   5.280   1.497   6.492
 5049SOL    HW116046   5.285   1.415   6.550
 5049SOL    HW216047   5.372   1.523   6.463
 5050SOL     OW16048   1.726   1.547   6.742
 5050SOL    HW116049   1.687   1.505   6.824
 5050SOL    HW216050   1.722   1.481   6.666
 5051SOL     OW16051   4.308   4.171   1.132
 5051SOL    HW116052   4.300   4.171   1.033
 5051SOL    HW216053   4.243   4.236   1.171
 5052SOL     OW16054   3.537   1.964   6.176
 5052SOL    HW116055   3.492   2.051   6.157
 5052SOL    HW216056   3.580   1.968   6.266
 5053SOL     OW16057   0.638   5.037   3.209
 5053SOL    HW116058   0.712   5.067   3.268
 5053SOL    HW216059   0.614   4.942   3.232
 5054SOL     OW16060   3.531   4.549   5.911
 5054SOL    HW116061   3.461   4.512   5.850
 5054SOL    HW216062   3.580   4.623   5.865
 5055SOL     OW16063   0.867   2.381   5.702
 5055SOL    HW116064   0.871   2.445   5.779
 5055SOL    HW216065   0.944   2.398   5.641
 5056SOL     OW16066   5.252   4.038   5.199
 5056SOL    HW116067   5.335   4.005   5.245
 5056SOL    HW216068   5.204   3.960   5.159
 5057SOL     OW16069   0.604   6.791   2.037
 5057SOL    HW116070   0.572   6.884   2.023
 5057SOL    HW216071   0.533   6.737   2.082
 5058SOL     OW16072   3.354   4.723   0.123
 5058SOL    HW116073   3.307   4.636   0.136
 5058SOL    HW216074   3.433   4.729   0.184
 5059SOL     OW16075   6.465   0.409   3.223
 5059SOL    HW116076   6.421   0.405   3.134
 5059SOL    HW216077   6.477   0.316   3.258
 5060SOL     OW16078   6.080   2.191   6.396
 5060SOL    HW116079   6.167   2.209   6.350
 5060SOL    HW216080   6.007   2.241   6.350
 5061SOL     OW16081   4.534   2.200   0.056
 5061SOL    HW116082   4.554   2.125   0.118
 5061SOL    HW216083   4.435   2.210   0.045
 5062SOL     OW16084   6.808   0.096   2.344
 5062SOL    HW116085   6.846   0.025   2.405
 5062SOL    HW216086   6.739   0.055   2.285
 5063SOL     OW16087   0.205   6.352   1.737
 5063SOL    HW116088   0.221   6.373   1.641
 5063SOL    HW216089   0.205   6.253   1.751
 5064SOL     OW16090   4.902   3.078   0.646
 5064SOL    HW116091   4.928   3.022   0.567
 5064SOL    HW216092   4.803   3.085   0.651
 5065SOL     OW16093   3.143   0.591   5.563
 5065SOL    HW116094   3.189   0.616   5.477
 5065SOL    HW216095   3.211   0.565   5.631
 5066SOL     OW16096   5.215   4.126   2.198
 5066SOL    HW116097   5.287   4.138   2.265
 5066SOL    HW216098   5.138   4.186   2.220
 5067SOL     OW16099   5.272   1.268   0.732
 5067SOL    HW116100   5.224   1.291   0.816
 5067SOL    HW216101   5.354   1.324   0.724
 5068SOL     OW16102   2.401   4.329   0.890
 5068SOL    HW116103   2.306   4.333   0.857
 5068SOL    HW216104   2.446   4.417   0.873
 5069SOL     OW16105   1.252   4.044   2.192
 5069SOL    HW116106   1.224   4.138   2.173
 5069SOL    HW216107   1.311   4.043   2.272
 5070SOL     OW16108   5.064   3.264   3.840
 5070SOL    HW116109   5.086   3.347   3.788
 5070SOL    HW216110   5.062   3.186   3.778
 5071SOL     OW16111   4.394   2.354   4.816
 5071SOL    HW116112   4.387   2.263   4.775
 5071SOL    HW216113   4.324   2.364   4.887
 5072SOL     OW16114   0.548   5.375   0.347
 5072SOL    HW116115   0.619   5.436   0.311
 5072SOL    HW216116   0.536   5.393   0.445
 5073SOL     OW16117   6.571   6.434   2.427
 5073SOL    HW116118   6.478   6.398   2.416
 5073SOL    HW216119   6.634   6.358   2.441
 5074SOL     OW16120   3.332   3.983   0.182
 5074SOL    HW116121   3.253   3.929   0.212
 5074SOL    HW216122   3.333   4.070   0.232
 5075SOL     OW16123   6.992   0.971   5.679
 5075SOL    HW116124   0.018   0.894   5.631
 5075SOL    HW216125   0.010   0.974   5.773
 5076SOL     OW16126   4.181   1.069   1.440
 5076SOL    HW116127   4.189   0.982   1.488
 5076SOL    HW216128   4.266   1.121   1.451
 5077SOL     OW16129   1.590   2.156   3.607
 5077SOL    HW116130   1.530   2.152   3.527
 5077SOL    HW216131   1.669   2.097   3.592
 5078SOL     OW16132   1.226   1.835   3.145
 5078SOL    HW116133   1.244   1.752   3.198
 5078SOL    HW216134   1.195   1.809   3.053
 5079SOL     OW16135   2.565   4.587   5.850
 5079SOL    HW116136   2.663   4.606   5.848
 5079SOL    HW216137   2.515   4.668   5.881
 5080SOL     OW16138   5.618   6.611   4.936
 5080SOL    HW116139   5.670   6.601   5.021
 5080SOL    HW216140   5.557   6.533   4.924
 5081SOL     OW16141   3.211   3.723   3.023
 5081SOL    HW116142   3.305   3.700   3.048
 5081SOL    HW216143   3.191   3.684   2.933
 5082SOL     OW16144   5.480   6.705   5.279
 5082SOL    HW116145   5.470   6.792   5.231
 5082SOL    HW216146   5.551   6.713   5.349
 5083SOL     OW16147   1.886   6.433   2.072
 5083SOL    HW116148   1.806   6.422   2.014
 5083SOL    HW216149   1.860   6.482   2.156
 5084SOL     OW16150   1.477   4.489   4.256
 5084SOL    HW116151   1.405   4.540   4.302
 5084SOL    HW216152   1.469   4.392   4.280
 5085SOL     OW16153   5.306   1.668   6.803
 5085SOL    HW116154   5.326   1.755   6.848
 5085SOL    HW216155   5.374   1.650   6.733
 5086SOL     OW16156   6.153   4.562   4.126
 5086SOL    HW116157   6.112   4.507   4.199
 5086SOL    HW216158   6.245   4.527   4.107
 5087SOL     OW16159   6.489   6.152   3.718
 5087SOL    HW116160   6.397   6.114   3.705
 5087SOL    HW216161   6.518   6.197   3.633
 5088SOL     OW16162   6.130   1.372   6.141
 5088SOL    HW116163   6.047   1.337   6.185
 5088SOL    HW216164   6.175   1.438   6.202
 5089SOL     OW16165   6.518   3.642   3.584
 5089SOL    HW116166   6.499   3.740   3.593
 5089SOL    HW216167   6.554   3.623   3.493
 5090SOL     OW16168   2.178   4.419   1.454
 5090SOL    HW116169   2.176   4.505   1.403
 5090SOL    HW216170   2.239   4.354   1.408
 5091SOL     OW16171   1.264   5.923   2.591
 5091SOL    HW116172   1.342   5.896   2.534
 5091SOL    HW216173   1.194   5.852   2.588
 5092SOL     OW16174   3.780   2.585   1.722
 5092SOL    HW116175   3.707   2.646   1.692
 5092SOL    HW216176   3.741   2.509   1.774
 5093SOL     OW16177   0.972   2.209   1.822
 5093SOL    HW116178   0.962   2.111   1.805
 5093SOL    HW216179   1.061   2.227   1.864
 5094SOL     OW16180   0.648   0.533   5.689
 5094SOL    HW116181   0.726   0.470   5.699
 5094SOL    HW216182   0.621   0.566   5.780
 5095SOL     OW16183   1.212   0.300   4.630
 5095SOL    HW116184   1.200   0.384   4.577
 5095SOL    HW216185   1.295   0.307   4.685
 5096SOL     OW16186   4.692   3.213   0.957
 5096SOL    HW116187   4.597   3.225   0.987
 5096SOL    HW216188   4.704   3.252   0.866
 5097SOL     OW16189   1.754   0.443   5.926
 5097SOL    HW116190   1.824   0.512   5.946
 5097SOL    HW216191   1.673   0.461   5.981
 5098SOL     OW16192   0.977   0.584   1.663
 5098SOL    HW116193   0.979   0.521   1.740
 5098SOL    HW216194   1.070   0.614   1.641
 5099SOL     OW16195   0.874   0.487   6.043
 5099SOL    HW116196   0.836   0.461   6.132
 5099SOL    HW216197   0.960   0.535   6.056
 5100SOL     OW16198   4.772   0.226   6.217
 5100SOL    HW116199   4.819   0.199   6.133
 5100SOL    HW216200   4.837   0.232   6.292
 5101SOL     OW16201   4.961   6.183   6.865
 5101SOL    HW116202   4.910   6.249   6.809
 5101SOL    HW216203   4.987   6.226   6.951
 5102SOL     OW16204   5.802   0.788   5.504
 5102SOL    HW116205   5.869   0.763   5.573
 5102SOL    HW216206   5.717   0.817   5.549
 5103SOL     OW16207   0.274   0.811   3.972
 5103SOL    HW116208   0.296   0.832   3.876
 5103SOL    HW216209   0.321   0.876   4.032
 5104SOL     OW16210   1.853   0.227   1.250
 5104SOL    HW116211   1.828   0.257   1.158
 5104SOL    HW216212   1.773   0.185   1.294
 5105SOL     OW16213   4.263   4.024   6.794
 5105SOL    HW116214   4.281   4.004   6.891
 5105SOL    HW216215   4.338   4.078   6.757
 5106SOL     OW16216   3.603   0.146   2.667
 5106SOL    HW116217   3.601   0.160   2.766
 5106SOL    HW216218   3.510   0.136   2.634
 5107SOL     OW16219   2.953   0.689   6.985
 5107SOL    HW116220   2.863   0.716   0.002
 5107SOL    HW216221   2.960   0.706   6.886
 5108SOL     OW16222   3.159   3.984   3.918
 5108SOL    HW116223   3.254   3.959   3.936
 5108SOL    HW216224   3.155   4.081   3.891
 5109SOL     OW16225   0.816   1.884   1.322
 5109SOL    HW116226   0.746   1.907   1.254
 5109SOL    HW216227   0.864   1.967   1.349
 5110SOL     OW16228   1.715   6.370   5.842
 5110SOL    HW116229   1.682   6.437   5.776
 5110SOL    HW216230   1.638   6.322   5.883
 5111SOL     OW16231   0.814   0.978   6.236
 5111SOL    HW116232   0.724   1.016   6.215
 5111SOL    HW216233   0.880   1.007   6.166
 5112SOL     OW16234   0.191   6.850   3.685
 5112SOL    HW116235   0.217   6.853   3.781
 5112SOL    HW216236   0.257   6.794   3.634
 5113SOL     OW16237   0.530   0.319   0.624
 5113SOL    HW116238   0.553   0.415   0.607
 5113SOL    HW216239   0.471   0.312   0.705
 5114SOL     OW16240   3.062   4.171   0.414
 5114SOL    HW116241   3.131   4.214   0.355
 5114SOL    HW216242   3.089   4.182   0.509
 5115SOL     OW16243   1.515   4.128   5.788
 5115SOL    HW116244   1.615   4.123   5.797
 5115SOL    HW216245   1.491   4.209   5.734
 5116SOL     OW16246   5.066   5.039   6.434
 5116SOL    HW116247   4.971   5.025   6.406
 5116SOL    HW216248   5.127   5.018   6.357
 5117SOL     OW16249   2.328   4.783   3.434
 5117SOL    HW116250   2.259   4.802   3.364
 5117SOL    HW216251   2.309   4.693   3.475
 5118SOL     OW16252   4.753   6.256   1.093
 5118SOL    HW116253   4.714   6.307   1.170
 5118SOL    HW216254   4.840   6.216   1.120
 5119SOL     OW16255   5.258   0.424   1.674
 5119SOL    HW116256   5.215   0.471   1.751
 5119SOL    HW216257   5.295   0.493   1.610
 5120SOL     OW16258   6.101   1.273   2.947
 5120SOL    HW116259   6.090   1.268   2.848
 5120SOL    HW216260   6.064   1.359   2.981
 5121SOL     OW16261   0.665   3.183   6.273
 5121SOL    HW116262   0.728   3.234   6.214
 5121SOL    HW216263   0.579   3.234   6.282
 5122SOL     OW16264   2.765   0.600   3.285
 5122SOL    HW116265   2.752   0.501   3.290
 5122SOL    HW216266   2.680   0.646   3.310
 5123SOL     OW16267   5.451   3.629   3.577
 5123SOL    HW116268   5.430   3.648   3.673
 5123SOL    HW216269   5.406   3.698   3.520
 5124SOL     OW16270   3.092   6.064   6.651
 5124SOL    HW116271   3.057   6.041   6.561
 5124SOL    HW216272   3.061   6.156   6.677
 5125SOL     OW16273   0.314   3.761   4.117
 5125SOL    HW116274   0.351   3.695   4.183
 5125SOL    HW216275   0.247   3.716   4.059
 5126SOL     OW16276   6.330   5.323   6.104
 5126SOL    HW116277   6.363   5.338   6.011
 5126SOL    HW216278   6.317   5.225   6.120
 5127SOL     OW16279   6.042   4.120   0.154
 5127SOL    HW116280   6.058   4.074   0.066
 5127SOL    HW216281   5.955   4.089   0.192
 5128SOL     OW16282   1.319   0.986   6.846
 5128SOL    HW116283   1.318   0.998   6.945
 5128SOL    HW216284   1.253   1.049   6.804
 5129SOL     OW16285   5.412   0.252   2.494
 5129SOL    HW116286   5.480   0.245   2.566
 5129SOL    HW216287   5.328   0.293   2.530
 5130SOL     OW16288   0.835   5.302   4.472
 5130SOL    HW116289   0.906   5.369   4.492
 5130SOL    HW216290   0.873   5.230   4.413
 5131SOL     OW16291   3.175   5.070   3.884
 5131SOL    HW116292   3.253   5.039   3.829
 5131SOL    HW216293   3.093   5.073   3.826
 5132SOL     OW16294   3.271   1.827   6.263
 5132SOL    HW116295   3.213   1.755   6.225
 5132SOL    HW216296   3.323   1.871   6.190
 5133SOL     OW16297   3.525   5.456   6.596
 5133SOL    HW116298   3.497   5.495   6.684
 5133SOL    HW216299   3.447   5.458   6.532
 5134SOL     OW16300   6.483   6.672   1.485
 5134SOL    HW116301   6.400   6.623   1.460
 5134SOL    HW216302   6.464   6.770   1.488
 5135SOL     OW16303   6.514   3.443   2.647
 5135SOL    HW116304   6.540   3.432   2.551
 5135SOL    HW216305   6.467   3.360   2.678
 5136SOL     OW16306   0.492   0.581   6.222
 5136SOL    HW116307   0.481   0.582   6.321
 5136SOL    HW216308   0.461   0.668   6.184
 5137SOL     OW16309   5.136   2.595   5.157
 5137SOL    HW116310   5.167   2.500   5.152
 5137SOL    HW216311   5.063   2.603   5.225
 5138SOL     OW16312   3.766   4.012   4.203
 5138SOL    HW116313   3.861   4.013   4.236
 5138SOL    HW216314   3.714   4.081   4.253
 5139SOL     OW16315   1.929   0.522   4.862
 5139SOL    HW116316   1.885   0.610   4.881
 5139SOL    HW216317   1.892   0.484   4.777
 5140SOL     OW16318   4.275   1.854   5.959
 5140SOL    HW116319   4.209   1.842   5.885
 5140SOL    HW216320   4.271   1.775   6.021
 5141SOL     OW16321   6.502   3.095   1.730
 5141SOL    HW116322   6.587   3.126   1.688
 5141SOL    HW216323   6.457   3.029   1.670
 5142SOL     OW16324   6.783   6.347   3.637
 5142SOL    HW116325   6.718   6.371   3.709
 5142SOL    HW216326   6.843   6.274   3.669
 5143SOL     OW16327   0.686   4.698   4.312
 5143SOL    HW116328   0.716   4.604   4.296
 5143SOL    HW216329   0.588   4.700   4.332
 5144SOL     OW16330   1.856   3.316   6.803
 5144SOL    HW116331   1.939   3.368   6.781
 5144SOL    HW216332   1.865   3.278   6.895
 5145SOL     OW16333   3.461   6.262   6.454
 5145SOL    HW116334   3.551   6.261   6.411
 5145SOL    HW216335   3.391   6.285   6.386
 5146SOL     OW16336   4.307   4.619   5.438
 5146SOL    HW116337   4.279   4.553   5.508
 5146SOL    HW216338   4.405   4.611   5.421
 5147SOL     OW16339   4.868   3.530   3.658
 5147SOL    HW116340   4.892   3.438   3.628
 5147SOL    HW216341   4.852   3.588   3.577
 5148SOL     OW16342   0.553   0.751   1.584
 5148SOL    HW116343   0.535   0.842   1.547
 5148SOL    HW216344   0.493   0.684   1.540
 5149SOL     OW16345   5.639   4.512   3.826
 5149SOL    HW116346   5.583   4.481   3.750
 5149SOL    HW216347   5.677   4.433   3.874
 5150SOL     OW16348   1.428   4.849   3.683
 5150SOL    HW116349   1.405   4.911   3.607
 5150SOL    HW216350   1.360   4.860   3.756
 5151SOL     OW16351   5.703   4.936   1.646
 5151SOL    HW116352   5.651   4.867   1.697
 5151SOL    HW216353   5.799   4.908   1.643
 5152SOL     OW16354   1.822   0.364   6.602
 5152SOL    HW116355   1.802   0.331   6.694
 5152SOL    HW216356   1.740   0.356   6.545
 5153SOL     OW16357   1.884   1.237   0.869
 5153SOL    HW116358   1.811   1.214   0.933
 5153SOL    HW216359   1.848   1.295   0.796
 5154SOL     OW16360   1.243   2.694   6.601
 5154SOL    HW116361   1.332   2.659   6.629
 5154SOL    HW216362   1.222   2.660   6.509
 5155SOL     OW16363   2.246   1.733   0.750
 5155SOL    HW116364   2.245   1.647   0.699
 5155SOL    HW216365   2.301   1.721   0.833
 5156SOL     OW16366   5.630   5.411   5.489
 5156SOL    HW116367   5.709   5.389   5.547
 5156SOL    HW216368   5.547   5.374   5.531
 5157SOL     OW16369   4.206   1.520   2.149
 5157SOL    HW116370   4.219   1.619   2.152
 5157SOL    HW216371   4.292   1.476   2.123
 5158SOL     OW16372   3.878   1.258   2.325
 5158SOL    HW116373   3.826   1.339   2.353
 5158SOL    HW216374   3.815   1.185   2.300
 5159SOL     OW16375   5.880   3.950   6.333
 5159SOL    HW116376   5.811   3.915   6.270
 5159SOL    HW216377   5.879   4.050   6.330
 5160SOL     OW16378   7.014   6.305   3.389
 5160SOL    HW116379   0.043   6.373   3.447
 5160SOL    HW216380   6.925   6.282   3.429
 5161SOL     OW16381   0.516   2.913   0.035
 5161SOL    HW116382   0.571   2.879   0.111
 5161SOL    HW216383   0.576   2.928   6.971
 5162SOL     OW16384   0.137   6.320   2.543
 5162SOL    HW116385   0.137   6.363   2.453
 5162SOL    HW216386   0.101   6.384   2.611
 5163SOL     OW16387   3.204   5.885   1.937
 5163SOL    HW116388   3.167   5.813   1.878
 5163SOL    HW216389   3.169   5.974   1.906
 5164SOL     OW16390   2.766   3.379   1.084
 5164SOL    HW116391   2.672   3.394   1.056
 5164SOL    HW216392   2.780   3.417   1.176
 5165SOL     OW16393   1.805   4.888   6.814
 5165SOL    HW116394   1.734   4.868   6.747
 5165SOL    HW216395   1.895   4.883   6.770
 5166SOL     OW16396   1.949   5.451   1.856
 5166SOL    HW116397   2.035   5.491   1.889
 5166SOL    HW216398   1.883   5.523   1.839
 5167SOL     OW16399   5.150   3.645   5.970
 5167SOL    HW116400   5.217   3.713   6.002
 5167SOL    HW216401   5.140   3.652   5.871
 5168SOL     OW16402   4.717   2.298   2.086
 5168SOL    HW116403   4.660   2.379   2.095
 5168SOL    HW216404   4.786   2.314   2.015
 5169SOL     OW16405   3.772   0.670   4.136
 5169SOL    HW116406   3.780   0.605   4.060
 5169SOL    HW216407   3.741   0.758   4.101
 5170SOL     OW16408   1.207   3.779   6.506
 5170SOL    HW116409   1.247   3.687   6.498
 5170SOL    HW216410   1.211   3.808   6.602
 5171SOL     OW16411   1.875   5.357   5.752
 5171SOL    HW116412   1.891   5.311   5.839
 5171SOL    HW216413   1.929   5.313   5.681
 5172SOL     OW16414   0.826   4.519   3.870
 5172SOL    HW116415   0.749   4.548   3.813
 5172SOL    HW216416   0.858   4.596   3.925
 5173SOL     OW16417   4.627   3.497   5.844
 5173SOL    HW116418   4.646   3.594   5.853
 5173SOL    HW216419   4.693   3.456   5.780
 5174SOL     OW16420   1.997   7.004   3.278
 5174SOL    HW116421   1.970   6.910   3.296
 5174SOL    HW216422   1.964   0.017   3.188
 5175SOL     OW16423   2.794   4.156   0.086
 5175SOL    HW116424   2.842   4.240   0.060
 5175SOL    HW216425   2.759   4.111   0.004
 5176SOL     OW16426   5.820   5.144   6.881
 5176SOL    HW116427   5.791   5.232   6.842
 5176SOL    HW216428   5.767   5.124   6.963
 5177SOL     OW16429   4.569   0.390   1.175
 5177SOL    HW116430   4.572   0.290   1.180
 5177SOL    HW216431   4.606   0.420   1.087
 5178SOL     OW16432   0.778   3.532   1.574
 5178SOL    HW116433   0.858   3.592   1.580
 5178SOL    HW216434   0.724   3.542   1.658
 5179SOL     OW16435   5.584   4.568   3.012
 5179SOL    HW116436   5.574   4.479   2.968
 5179SOL    HW216437   5.545   4.639   2.952
 5180SOL     OW16438   2.414   6.729   1.242
 5180SOL    HW116439   2.420   6.712   1.143
 5180SOL    HW216440   2.479   6.670   1.290
 5181SOL     OW16441   0.182   0.770   6.500
 5181SOL    HW116442   0.149   0.860   6.469
 5181SOL    HW216443   0.198   0.711   6.420
 5182SOL     OW16444   4.278   4.695   3.315
 5182SOL    HW116445   4.340   4.616   3.320
 5182SOL    HW216446   4.332   4.778   3.303
 5183SOL     OW16447   3.998   1.812   3.465
 5183SOL    HW116448   3.953   1.855   3.543
 5183SOL    HW216449   3.945   1.828   3.382
 5184SOL     OW16450   1.996   2.039   3.995
 5184SOL    HW116451   1.972   2.050   4.092
 5184SOL    HW216452   1.979   2.125   3.947
 5185SOL     OW16453   5.255   0.458   2.162
 5185SOL    HW116454   5.331   0.429   2.219
 5185SOL    HW216455   5.291   0.509   2.083
 5186SOL     OW16456   6.924   2.885   5.811
 5186SOL    HW116457   6.965   2.969   5.775
 5186SOL    HW216458   6.942   2.880   5.910
 5187SOL     OW16459   2.198   5.027   4.841
 5187SOL    HW116460   2.145   4.979   4.772
 5187SOL    HW216461   2.177   4.990   4.931
 5188SOL     OW16462   0.080   6.355   1.320
 5188SOL    HW116463   0.061   6.395   1.230
 5188SOL    HW216464   0.112   6.426   1.382
 5189SOL     OW16465   5.841   0.665   6.284
 5189SOL    HW116466   5.789   0.747   6.261
 5189SOL    HW216467   5.881   0.675   6.376
 5190SOL     OW16468   2.124   3.024   1.870
 5190SOL    HW116469   2.066   2.999   1.792
 5190SOL    HW216470   2.101   3.116   1.900
 5191SOL     OW16471   2.745   5.547   2.292
 5191SOL    HW116472   2.830   5.540   2.342
 5191SOL    HW216473   2.741   5.475   2.222
 5192SOL     OW16474   2.048   5.534   1.482
 5192SOL    HW116475   2.132   5.521   1.535
 5192SOL    HW216476   1.985   5.459   1.500
 5193SOL     OW16477   5.294   0.657   6.581
 5193SOL    HW116478   5.271   0.565   6.613
 5193SOL    HW216479   5.380   0.686   6.621
 5194SOL     OW16480   4.252   1.747   0.023
 5194SOL    HW116481   4.320   1.675   0.008
 5194SOL    HW216482   4.286   1.811   0.091
 5195SOL     OW16483   0.122   0.583   3.775
 5195SOL    HW116484   0.200   0.633   3.737
 5195SOL    HW216485   0.037   0.625   3.743
 5196SOL     OW16486   4.173   0.102   3.280
 5196SOL    HW116487   4.152   0.081   3.185
 5196SOL    HW216488   4.095   0.148   3.322
 5197SOL     OW16489   1.338   3.963   5.926
 5197SOL    HW116490   1.246   3.987   5.896
 5197SOL    HW216491   1.405   3.997   5.860
 5198SOL     OW16492   5.104   5.994   2.745
 5198SOL    HW116493   5.034   6.065   2.748
 5198SOL    HW216494   5.169   6.009   2.820
 5199SOL     OW16495   6.787   5.126   0.877
 5199SOL    HW116496   6.730   5.187   0.823
 5199SOL    HW216497   6.802   5.040   0.828
 5200SOL     OW16498   0.314   4.306   5.439
 5200SOL    HW116499   0.390   4.293   5.501
 5200SOL    HW216500   0.347   4.340   5.351
 5201SOL     OW16501   1.536   5.935   3.833
 5201SOL    HW116502   1.446   5.895   3.818
 5201SOL    HW216503   1.598   5.864   3.867
 5202SOL     OW16504   6.499   3.432   0.123
 5202SOL    HW116505   6.552   3.375   0.185
 5202SOL    HW216506   6.402   3.419   0.140
 5203SOL     OW16507   0.618   2.947   6.800
 5203SOL    HW116508   0.698   2.985   6.753
 5203SOL    HW216509   0.558   2.904   6.733
 5204SOL     OW16510   4.275   4.950   0.410
 5204SOL    HW116511   4.230   4.993   0.488
 5204SOL    HW216512   4.314   5.021   0.351
 5205SOL     OW16513   2.051   0.357   1.376
 5205SOL    HW116514   2.118   0.293   1.412
 5205SOL    HW216515   1.987   0.308   1.317
 5206SOL     OW16516   7.012   4.276   6.852
 5206SOL    HW116517   6.928   4.262   6.905
 5206SOL    HW216518   6.996   4.345   6.782
 5207SOL     OW16519   1.618   5.511   4.110
 5207SOL    HW116520   1.546   5.525   4.178
 5207SOL    HW216521   1.637   5.597   4.063
 5208SOL     OW16522   3.887   0.720   0.535
 5208SOL    HW116523   3.950   0.797   0.528
 5208SOL    HW216524   3.853   0.713   0.629
 5209SOL     OW16525   6.172   6.195   3.318
 5209SOL    HW116526   6.204   6.221   3.227
 5209SOL    HW216527   6.105   6.262   3.350
 5210SOL     OW16528   5.291   3.367   4.790
 5210SOL    HW116529   5.303   3.461   4.820
 5210SOL    HW216530   5.304   3.305   4.868
 5211SOL     OW16531   3.322   3.367   3.903
 5211SOL    HW116532   3.262   3.422   3.845
 5211SOL    HW216533   3.268   3.304   3.958
 5212SOL     OW16534   0.140   2.551   0.161
 5212SOL    HW116535   0.114   2.510   0.248
 5212SOL    HW216536   0.121   2.650   0.165
 5213SOL     OW16537   5.045   2.742   5.746
 5213SOL    HW116538   4.980   2.666   5.751
 5213SOL    HW216539   5.008   2.812   5.684
 5214SOL     OW16540   5.523   2.293   5.382
 5214SOL    HW116541   5.471   2.209   5.396
 5214SOL    HW216542   5.615   2.270   5.351
 5215SOL     OW16543   5.328   4.453   3.417
 5215SOL    HW116544   5.349   4.537   3.368
 5215SOL    HW216545   5.231   4.453   3.442
 5216SOL     OW16546   5.138   4.824   1.570
 5216SOL    HW116547   5.147   4.744   1.511
 5216SOL    HW216548   5.107   4.795   1.661
 5217SOL     OW16549   3.154   5.324   3.921
 5217SOL    HW116550   3.058   5.343   3.902
 5217SOL    HW216551   3.167   5.225   3.930
 5218SOL     OW16552   1.896   0.051   4.397
 5218SOL    HW116553   1.925   6.972   4.413
 5218SOL    HW216554   1.971   0.103   4.356
 5219SOL     OW16555   3.785   0.303   6.825
 5219SOL    HW116556   3.706   0.347   6.782
 5219SOL    HW216557   3.787   0.206   6.800
 5220SOL     OW16558   1.232   5.524   1.882
 5220SOL    HW116559   1.200   5.430   1.875
 5220SOL    HW216560   1.218   5.572   1.795
 5221SOL     OW16561   5.450   1.905   4.633
 5221SOL    HW116562   5.403   1.994   4.632
 5221SOL    HW216563   5.391   1.836   4.592
 5222SOL     OW16564   2.197   0.273   4.011
 5222SOL    HW116565   2.212   0.175   4.024
 5222SOL    HW216566   2.166   0.314   4.096
 5223SOL     OW16567   4.626   0.087   1.208
 5223SOL    HW116568   4.705   0.048   1.257
 5223SOL    HW216569   4.543   0.041   1.239
 5224SOL     OW16570   0.063   2.845   2.732
 5224SOL    HW116571   0.046   2.920   2.668
 5224SOL    HW216572   7.015   2.852   2.809
 5225SOL     OW16573   6.882   0.614   2.958
 5225SOL    HW116574   6.888   0.615   3.058
 5225SOL    HW216575   6.878   0.520   2.925
 5226SOL     OW16576   0.836   6.341   4.404
 5226SOL    HW116577   0.743   6.332   4.368
 5226SOL    HW216578   0.844   6.288   4.488
 5227SOL     OW16579   6.821   5.010   3.654
 5227SOL    HW116580   6.825   5.034   3.557
 5227SOL    HW216581   6.911   5.026   3.695
 5228SOL     OW16582   5.985   2.004   0.696
 5228SOL    HW116583   5.969   1.915   0.738
 5228SOL    HW216584   5.948   2.076   0.755
 5229SOL     OW16585   1.215   4.301   6.817
 5229SOL    HW116586   1.225   4.357   6.735
 5229SOL    HW216587   1.302   4.295   6.865
 5230SOL     OW16588   0.381   0.243   1.228
 5230SOL    HW116589   0.424   0.176   1.288
 5230SOL    HW216590   0.448   0.314   1.204
 5231SOL     OW16591   3.538   2.882   4.395
 5231SOL    HW116592   3.502   2.903   4.485
 5231SOL    HW216593   3.631   2.918   4.387
 5232SOL     OW16594   3.894   2.054   6.483
 5232SOL    HW116595   3.954   2.105   6.422
 5232SOL    HW216596   3.939   2.040   6.571
 5233SOL     OW16597   6.522   6.386   1.618
 5233SOL    HW116598   6.608   6.337   1.627
 5233SOL    HW216599   6.538   6.474   1.573
 5234SOL     OW16600   3.209   0.725   0.484
 5234SOL    HW116601   3.137   0.772   0.536
 5234SOL    HW216602   3.225   0.635   0.524
 5235SOL     OW16603   1.403   2.895   0.871
 5235SOL    HW116604   1.359   2.809   0.844
 5235SOL    HW216605   1.381   2.916   0.966
 5236SOL     OW16606   5.534   2.672   1.478
 5236SOL    HW116607   5.609   2.613   1.447
 5236SOL    HW216608   5.448   2.622   1.472
 5237SOL     OW16609   2.913   1.995   5.502
 5237SOL    HW116610   2.934   1.928   5.431
 5237SOL    HW216611   2.985   2.064   5.506
 5238SOL     OW16612   1.471   4.940   0.153
 5238SOL    HW116613   1.565   4.969   0.133
 5238SOL    HW216614   1.443   4.870   0.087
 5239SOL     OW16615   3.301   3.643   4.502
 5239SOL    HW116616   3.208   3.677   4.512
 5239SOL    HW216617   3.320   3.626   4.405
 5240SOL     OW16618   3.343   1.881   5.275
 5240SOL    HW116619   3.264   1.915   5.224
 5240SOL    HW216620   3.415   1.950   5.275
 5241SOL     OW16621   0.577   6.241   6.963
 5241SOL    HW116622   0.656   6.252   0.007
 5241SOL    HW216623   0.598   6.174   6.892
 5242SOL     OW16624   6.228   1.493   5.669
 5242SOL    HW116625   6.260   1.454   5.756
 5242SOL    HW216626   6.128   1.487   5.665
 5243SOL     OW16627   0.716   6.322   0.694
 5243SOL    HW116628   0.642   6.377   0.734
 5243SOL    HW216629   0.717   6.334   0.595
 5244SOL     OW16630   3.899   3.813   5.778
 5244SOL    HW116631   3.969   3.796   5.708
 5244SOL    HW216632   3.881   3.729   5.828
 5245SOL     OW16633   4.275   3.889   5.807
 5245SOL    HW116634   4.344   3.838   5.755
 5245SOL    HW216635   4.283   3.866   5.904
 5246SOL     OW16636   0.247   3.511   2.795
 5246SOL    HW116637   0.215   3.593   2.843
 5246SOL    HW216638   0.272   3.441   2.862
 5247SOL     OW16639   0.302   6.209   0.033
 5247SOL    HW116640   0.394   6.208   7.009
 5247SOL    HW216641   0.275   6.304   0.051
 5248SOL     OW16642   5.692   0.587   5.674
 5248SOL    HW116643   5.607   0.630   5.644
 5248SOL    HW216644   5.713   0.616   5.768
 5249SOL     OW16645   1.165   5.121   4.278
 5249SOL    HW116646   1.211   5.032   4.286
 5249SOL    HW216647   1.233   5.192   4.261
 5250SOL     OW16648   0.180   1.442   6.259
 5250SOL    HW116649   0.218   1.447   6.351
 5250SOL    HW216650   0.241   1.488   6.195
 5251SOL     OW16651   7.005   2.972   1.099
 5251SOL    HW116652   6.914   2.931   1.108
 5251SOL    HW216653   6.996   3.063   1.058
 5252SOL     OW16654   2.374   5.644   1.279
 5252SOL    HW116655   2.318   5.609   1.203
 5252SOL    HW216656   2.377   5.575   1.352
 5253SOL     OW16657   5.989   3.291   4.567
 5253SOL    HW116658   5.891   3.297   4.584
 5253SOL    HW216659   6.038   3.282   4.653
 5254SOL     OW16660   4.925   1.311   3.627
 5254SOL    HW116661   4.957   1.340   3.717
 5254SOL    HW216662   4.958   1.218   3.609
 5255SOL     OW16663   4.090   0.048   4.491
 5255SOL    HW116664   4.117   6.992   4.426
 5255SOL    HW216665   4.014   0.101   4.452
 5256SOL     OW16666   4.756   1.309   2.966
 5256SOL    HW116667   4.661   1.337   2.951
 5256SOL    HW216668   4.778   1.315   3.063
 5257SOL     OW16669   3.743   6.689   1.731
 5257SOL    HW116670   3.793   6.746   1.796
 5257SOL    HW216671   3.658   6.657   1.773
 5258SOL     OW16672   5.045   4.006   1.725
 5258SOL    HW116673   5.016   4.062   1.803
 5258SOL    HW216674   5.089   3.923   1.759
 5259SOL     OW16675   4.730   6.132   2.172
 5259SOL    HW116676   4.769   6.140   2.264
 5259SOL    HW216677   4.663   6.205   2.159
 5260SOL     OW16678   5.164   3.434   0.989
 5260SOL    HW116679   5.153   3.335   0.983
 5260SOL    HW216680   5.089   3.472   1.044
 5261SOL     OW16681   0.965   2.369   5.268
 5261SOL    HW116682   0.942   2.326   5.181
 5261SOL    HW216683   1.058   2.342   5.294
 5262SOL     OW16684   2.662   0.289   2.606
 5262SOL    HW116685   2.657   0.191   2.624
 5262SOL    HW216686   2.635   0.308   2.512
 5263SOL     OW16687   1.841   0.191   5.854
 5263SOL    HW116688   1.831   0.288   5.877
 5263SOL    HW216689   1.825   0.136   5.936
 5264SOL     OW16690   6.617   1.357   1.010
 5264SOL    HW116691   6.634   1.423   1.083
 5264SOL    HW216692   6.545   1.293   1.038
 5265SOL     OW16693   5.614   3.919   2.715
 5265SOL    HW116694   5.575   3.849   2.656
 5265SOL    HW216695   5.617   4.006   2.666
 5266SOL     OW16696   2.556   6.402   1.421
 5266SOL    HW116697   2.483   6.409   1.352
 5266SOL    HW216698   2.519   6.423   1.511
 5267SOL     OW16699   4.444   4.938   5.990
 5267SOL    HW116700   4.405   4.847   5.982
 5267SOL    HW216701   4.430   4.988   5.904
 5268SOL     OW16702   6.406   5.974   5.040
 5268SOL    HW116703   6.403   6.074   5.041
 5268SOL    HW216704   6.322   5.938   5.081
 5269SOL     OW16705   2.340   5.476   3.686
 5269SOL    HW116706   2.254   5.526   3.699
 5269SOL    HW216707   2.401   5.494   3.763
 5270SOL     OW16708   5.159   2.022   1.254
 5270SOL    HW116709   5.141   2.053   1.347
 5270SOL    HW216710   5.149   1.922   1.249
 5271SOL     OW16711   4.094   4.969   4.908
 5271SOL    HW116712   4.020   4.965   4.975
 5271SOL    HW216713   4.078   4.903   4.835
 5272SOL     OW16714   1.010   5.974   4.591
 5272SOL    HW116715   1.024   6.064   4.633
 5272SOL    HW216716   1.098   5.937   4.561
 5273SOL     OW16717   1.027   2.772   3.810
 5273SOL    HW116718   0.996   2.688   3.767
 5273SOL    HW216719   1.108   2.753   3.865
 5274SOL     OW16720   6.433   4.789   3.448
 5274SOL    HW116721   6.532   4.776   3.449
 5274SOL    HW216722   6.399   4.780   3.354
 5275SOL     OW16723   3.208   0.278   6.421
 5275SOL    HW116724   3.290   0.332   6.399
 5275SOL    HW216725   3.229   0.216   6.497
 5276SOL     OW16726   0.067   6.494   0.532
 5276SOL    HW116727   0.139   6.556   0.499
 5276SOL    HW216728   0.073   6.407   0.483
 5277SOL     OW16729   2.157   1.547   3.161
 5277SOL    HW116730   2.078   1.602   3.134
 5277SOL    HW216731   2.210   1.596   3.230
 5278SOL     OW16732   5.395   6.282   6.236
 5278SOL    HW116733   5.370   6.259   6.142
 5278SOL    HW216734   5.484   6.240   6.258
 5279SOL     OW16735   1.009   5.974   6.914
 5279SOL    HW116736   0.965   5.892   6.877
 5279SOL    HW216737   1.108   5.964   6.911
 5280SOL     OW16738   3.837   6.234   5.049
 5280SOL    HW116739   3.914   6.294   5.068
 5280SOL    HW216740   3.758   6.289   5.022
 5281SOL     OW16741   0.747   0.967   4.576
 5281SOL    HW116742   0.687   1.029   4.627
 5281SOL    HW216743   0.841   0.999   4.583
 5282SOL     OW16744   1.856   0.444   2.406
 5282SOL    HW116745   1.786   0.411   2.342
 5282SOL    HW216746   1.916   0.509   2.360
 5283SOL     OW16747   1.686   0.405   3.817
 5283SOL    HW116748   1.698   0.470   3.742
 5283SOL    HW216749   1.762   0.340   3.817
 5284SOL     OW16750   5.002   2.391   2.505
 5284SOL    HW116751   4.939   2.314   2.494
 5284SOL    HW216752   5.062   2.374   2.583
 5285SOL     OW16753   1.013   3.672   3.667
 5285SOL    HW116754   1.018   3.768   3.697
 5285SOL    HW216755   1.032   3.612   3.744
 5286SOL     OW16756   6.273   3.392   0.828
 5286SOL    HW116757   6.211   3.453   0.877
 5286SOL    HW216758   6.245   3.384   0.732
 5287SOL     OW16759   2.989   5.098   1.993
 5287SOL    HW116760   2.918   5.028   1.984
 5287SOL    HW216761   2.993   5.129   2.089
 5288SOL     OW16762   4.918   0.158   2.658
 5288SOL    HW116763   5.004   0.183   2.612
 5288SOL    HW216764   4.908   0.212   2.741
 5289SOL     OW16765   2.193   4.897   0.020
 5289SOL    HW116766   2.257   4.823   0.001
 5289SOL    HW216767   2.202   4.968   6.965
 5290SOL     OW16768   1.826   4.622   5.416
 5290SOL    HW116769   1.860   4.587   5.329
 5290SOL    HW216770   1.803   4.546   5.476
 5291SOL     OW16771   3.206   4.231   5.760
 5291SOL    HW116772   3.140   4.186   5.820
 5291SOL    HW216773   3.267   4.162   5.720
 5292SOL     OW16774   6.188   4.144   5.998
 5292SOL    HW116775   6.275   4.097   5.983
 5292SOL    HW216776   6.126   4.125   5.922
 5293SOL     OW16777   2.130   5.888   4.644
 5293SOL    HW116778   2.210   5.909   4.587
 5293SOL    HW216779   2.060   5.844   4.588
 5294SOL     OW16780   4.405   1.431   5.576
 5294SOL    HW116781   4.435   1.420   5.671
 5294SOL    HW216782   4.484   1.430   5.516
 5295SOL     OW16783   3.751   0.782   3.734
 5295SOL    HW116784   3.686   0.858   3.729
 5295SOL    HW216785   3.740   0.723   3.654
 5296SOL     OW16786   3.589   3.950   0.298
 5296SOL    HW116787   3.670   3.941   0.240
 5296SOL    HW216788   3.510   3.973   0.241
 5297SOL     OW16789   2.168   3.383   0.630
 5297SOL    HW116790   2.202   3.461   0.577
 5297SOL    HW216791   2.118   3.321   0.569
 5298SOL     OW16792   2.359   6.052   6.587
 5298SOL    HW116793   2.438   6.104   6.553
 5298SOL    HW216794   2.329   6.091   6.674
 5299SOL     OW16795   2.873   2.711   0.669
 5299SOL    HW116796   2.958   2.709   0.617
 5299SOL    HW216797   2.893   2.734   0.764
 5300SOL     OW16798   0.715   4.987   0.828
 5300SOL    HW116799   0.746   5.039   0.907
 5300SOL    HW216800   0.646   5.040   0.778
 5301SOL     OW16801   4.088   0.600   6.675
 5301SOL    HW116802   4.132   0.620   6.587
 5301SOL    HW216803   4.092   0.502   6.693
 5302SOL     OW16804   5.494   6.449   3.797
 5302SOL    HW116805   5.508   6.375   3.731
 5302SOL    HW216806   5.539   6.425   3.883
 5303SOL     OW16807   0.123   5.120   4.808
 5303SOL    HW116808   0.145   5.216   4.795
 5303SOL    HW216809   0.153   5.090   4.899
 5304SOL     OW16810   5.853   0.922   0.319
 5304SOL    HW116811   5.791   0.894   0.246
 5304SOL    HW216812   5.937   0.869   0.314
 5305SOL     OW16813   0.846   5.234   2.868
 5305SOL    HW116814   0.931   5.252   2.917
 5305SOL    HW216815   0.866   5.190   2.781
 5306SOL     OW16816   0.618   4.591   5.530
 5306SOL    HW116817   0.683   4.633   5.594
 5306SOL    HW216818   0.562   4.524   5.579
 5307SOL     OW16819   4.541   1.955   0.472
 5307SOL    HW116820   4.629   1.952   0.425
 5307SOL    HW216821   4.518   1.864   0.506
 5308SOL     OW16822   1.401   4.436   2.108
 5308SOL    HW116823   1.385   4.371   2.033
 5308SOL    HW216824   1.497   4.432   2.136
 5309SOL     OW16825   3.485   4.902   2.404
 5309SOL    HW116826   3.411   4.888   2.339
 5309SOL    HW216827   3.570   4.920   2.355
 5310SOL     OW16828   6.303   3.566   2.258
 5310SOL    HW116829   6.370   3.507   2.303
 5310SOL    HW216830   6.258   3.623   2.327
 5311SOL     OW16831   5.523   6.923   6.706
 5311SOL    HW116832   5.428   6.952   6.690
 5311SOL    HW216833   5.524   6.827   6.733
 5312SOL     OW16834   0.075   5.449   2.062
 5312SOL    HW116835   0.022   5.499   1.994
 5312SOL    HW216836   0.030   5.362   2.082
 5313SOL     OW16837   1.085   4.059   5.869
 5313SOL    HW116838   1.015   4.026   5.933
 5313SOL    HW216839   1.076   4.158   5.859
 5314SOL     OW16840   4.130   6.753   0.466
 5314SOL    HW116841   4.099   6.673   0.415
 5314SOL    HW216842   4.155   6.726   0.559
 5315SOL     OW16843   5.209   3.166   2.806
 5315SOL    HW116844   5.244   3.131   2.893
 5315SOL    HW216845   5.197   3.090   2.742
 5316SOL     OW16846   1.256   3.833   5.453
 5316SOL    HW116847   1.207   3.846   5.539
 5316SOL    HW216848   1.290   3.739   5.448
 5317SOL     OW16849   6.210   1.897   5.997
 5317SOL    HW116850   6.232   1.832   5.924
 5317SOL    HW216851   6.136   1.957   5.967
 5318SOL     OW16852   0.549   2.767   0.435
 5318SOL    HW116853   0.490   2.845   0.454
 5318SOL    HW216854   0.604   2.785   0.353
 5319SOL     OW16855   4.442   6.216   1.143
 5319SOL    HW116856   4.516   6.282   1.156
 5319SOL    HW216857   4.395   6.234   1.057
 5320SOL     OW16858   4.289   5.420   0.947
 5320SOL    HW116859   4.230   5.483   0.997
 5320SOL    HW216860   4.382   5.457   0.942
 5321SOL     OW16861   2.234   4.531   5.137
 5321SOL    HW116862   2.235   4.432   5.122
 5321SOL    HW216863   2.158   4.571   5.086
 5322SOL     OW16864   5.404   6.494   0.016
 5322SOL    HW116865   5.316   6.470   0.057
 5322SOL    HW216866   5.476   6.436   0.055
 5323SOL     OW16867   3.660   1.366   5.341
 5323SOL    HW116868   3.667   1.281   5.393
 5323SOL    HW216869   3.684   1.443   5.400
 5324SOL     OW16870   3.152   2.290   0.549
 5324SOL    HW116871   3.141   2.334   0.460
 5324SOL    HW216872   3.249   2.290   0.574
 5325SOL     OW16873   4.037   0.850   4.412
 5325SOL    HW116874   3.974   0.772   4.406
 5325SOL    HW216875   4.037   0.886   4.505
 5326SOL     OW16876   6.730   5.647   3.117
 5326SOL    HW116877   6.733   5.574   3.048
 5326SOL    HW216878   6.815   5.648   3.168
 5327SOL     OW16879   6.018   2.646   5.082
 5327SOL    HW116880   5.953   2.720   5.065
 5327SOL    HW216881   6.099   2.682   5.128
 5328SOL     OW16882   3.199   3.843   6.263
 5328SOL    HW116883   3.292   3.871   6.287
 5328SOL    HW216884   3.182   3.863   6.167
 5329SOL     OW16885   0.779   5.081   6.701
 5329SOL    HW116886   0.689   5.039   6.717
 5329SOL    HW216887   0.836   5.018   6.648
 5330SOL     OW16888   3.828   3.982   0.137
 5330SOL    HW116889   3.858   4.021   0.050
 5330SOL    HW216890   3.900   3.995   0.206
 5331SOL     OW16891   5.772   1.915   6.303
 5331SOL    HW116892   5.752   1.921   6.206
 5331SOL    HW216893   5.691   1.940   6.356
 5332SOL     OW16894   1.365   2.949   1.718
 5332SOL    HW116895   1.337   3.040   1.687
 5332SOL    HW216896   1.333   2.935   1.812
 5333SOL     OW16897   0.831   1.079   3.038
 5333SOL    HW116898   0.792   1.030   2.959
 5333SOL    HW216899   0.909   1.134   3.007
 5334SOL     OW16900   3.079   0.566   4.588
 5334SOL    HW116901   3.042   0.550   4.679
 5334SOL    HW216902   3.079   0.480   4.536
 5335SOL     OW16903   0.148   5.829   0.635
 5335SOL    HW116904   0.054   5.796   0.625
 5335SOL    HW216905   0.202   5.802   0.555
 5336SOL     OW16906   2.127   3.393   2.683
 5336SOL    HW116907   2.081   3.323   2.628
 5336SOL    HW216908   2.149   3.355   2.773
 5337SOL     OW16909   5.147   4.513   0.988
 5337SOL    HW116910   5.102   4.498   0.900
 5337SOL    HW216911   5.211   4.438   1.006
 5338SOL     OW16912   5.762   1.441   0.468
 5338SOL    HW116913   5.755   1.419   0.371
 5338SOL    HW216914   5.820   1.522   0.480
 5339SOL     OW16915   6.537   1.317   4.003
 5339SOL    HW116916   6.504   1.281   4.090
 5339SOL    HW216917   6.608   1.386   4.020
 5340SOL     OW16918   5.385   4.354   0.994
 5340SOL    HW116919   5.436   4.428   0.951
 5340SOL    HW216920   5.414   4.343   1.089
 5341SOL     OW16921   3.910   2.717   6.511
 5341SOL    HW116922   3.919   2.712   6.412
 5341SOL    HW216923   3.828   2.667   6.540
 5342SOL     OW16924   3.395   0.636   4.532
 5342SOL    HW116925   3.311   0.585   4.518
 5342SOL    HW216926   3.394   0.718   4.475
 5343SOL     OW16927   3.553   3.438   3.997
 5343SOL    HW116928   3.610   3.514   3.965
 5343SOL    HW216929   3.463   3.444   3.954
 5344SOL     OW16930   2.187   2.200   2.547
 5344SOL    HW116931   2.176   2.299   2.545
 5344SOL    HW216932   2.221   2.169   2.458
 5345SOL     OW16933   4.036   6.706   1.692
 5345SOL    HW116934   4.081   6.619   1.675
 5345SOL    HW216935   3.937   6.696   1.681
 5346SOL     OW16936   3.389   6.338   4.084
 5346SOL    HW116937   3.426   6.333   4.176
 5346SOL    HW216938   3.296   6.301   4.082
 5347SOL     OW16939   0.383   2.742   1.999
 5347SOL    HW116940   0.433   2.780   1.922
 5347SOL    HW216941   0.440   2.673   2.045
 5348SOL     OW16942   0.493   1.110   0.623
 5348SOL    HW116943   0.508   1.011   0.628
 5348SOL    HW216944   0.569   1.157   0.668
 5349SOL     OW16945   1.088   2.338   0.266
 5349SOL    HW116946   1.037   2.421   0.246
 5349SOL    HW216947   1.124   2.299   0.181
 5350SOL     OW16948   1.785   0.063   6.101
 5350SOL    HW116949   1.724   6.999   6.107
 5350SOL    HW216950   1.753   0.134   6.163
 5351SOL     OW16951   5.745   5.584   1.738
 5351SOL    HW116952   5.653   5.569   1.773
 5351SOL    HW216953   5.799   5.501   1.752
 5352SOL     OW16954   1.586   5.655   4.348
 5352SOL    HW116955   1.577   5.736   4.406
 5352SOL    HW216956   1.677   5.654   4.307
 5353SOL     OW16957   3.014   5.954   4.513
 5353SOL    HW116958   3.083   5.978   4.445
 5353SOL    HW216959   2.993   5.857   4.507
 5354SOL     OW16960   2.007   5.201   1.929
 5354SOL    HW116961   1.970   5.291   1.908
 5354SOL    HW216962   2.017   5.191   2.028
 5355SOL     OW16963   4.779   2.418   3.930
 5355SOL    HW116964   4.688   2.440   3.897
 5355SOL    HW216965   4.827   2.502   3.955
 5356SOL     OW16966   5.800   4.556   1.775
 5356SOL    HW116967   5.703   4.575   1.783
 5356SOL    HW216968   5.816   4.496   1.696
 5357SOL     OW16969   2.921   0.174   1.118
 5357SOL    HW116970   2.948   0.098   1.177
 5357SOL    HW216971   2.952   0.260   1.157
 5358SOL     OW16972   4.129   1.356   0.935
 5358SOL    HW116973   4.168   1.421   0.870
 5358SOL    HW216974   4.161   1.263   0.913
 5359SOL     OW16975   1.919   1.924   0.063
 5359SOL    HW116976   1.842   1.888   0.115
 5359SOL    HW216977   1.994   1.946   0.125
 5360SOL     OW16978   4.346   6.494   4.848
 5360SOL    HW116979   4.367   6.565   4.915
 5360SOL    HW216980   4.253   6.461   4.861
 5361SOL     OW16981   2.349   6.858   4.609
 5361SOL    HW116982   2.278   6.817   4.666
 5361SOL    HW216983   2.437   6.853   4.656
 5362SOL     OW16984   5.061   4.348   3.498
 5362SOL    HW116985   4.979   4.406   3.500
 5362SOL    HW216986   5.114   4.363   3.582
 5363SOL     OW16987   0.918   6.266   6.125
 5363SOL    HW116988   0.969   6.182   6.142
 5363SOL    HW216989   0.982   6.339   6.099
 5364SOL     OW16990   0.130   5.768   1.285
 5364SOL    HW116991   0.154   5.722   1.371
 5364SOL    HW216992   0.144   5.866   1.294
 5365SOL     OW16993   3.928   3.315   0.032
 5365SOL    HW116994   3.911   3.288   0.127
 5365SOL    HW216995   3.997   3.387   0.030
 5366SOL     OW16996   5.214   5.216   1.861
 5366SOL    HW116997   5.218   5.123   1.896
 5366SOL    HW216998   5.176   5.215   1.768
 5367SOL     OW16999   0.494   5.140   0.691
 5367SOL    HW117000   0.499   5.236   0.665
 5367SOL    HW217001   0.398   5.113   0.701
 5368SOL     OW17002   5.007   0.773   3.276
 5368SOL    HW117003   5.092   0.788   3.226
 5368SOL    HW217004   4.940   0.731   3.216
 5369SOL     OW17005   3.294   6.366   3.208
 5369SOL    HW117006   3.328   6.327   3.293
 5369SOL    HW217007   3.361   6.431   3.172
 5370SOL     OW17008   3.920   2.986   1.575
 5370SOL    HW117009   3.869   2.945   1.500
 5370SOL    HW217010   3.930   2.919   1.649
 5371SOL     OW17011   1.821   3.412   4.182
 5371SOL    HW117012   1.809   3.326   4.132
 5371SOL    HW217013   1.822   3.392   4.280
 5372SOL     OW17014   2.474   5.792   3.295
 5372SOL    HW117015   2.461   5.693   3.305
 5372SOL    HW217016   2.431   5.823   3.211
 5373SOL     OW17017   3.105   5.122   4.263
 5373SOL    HW117018   3.190   5.140   4.215
 5373SOL    HW217019   3.107   5.030   4.301
 5374SOL     OW17020   0.755   3.543   7.008
 5374SOL    HW117021   0.676   3.496   6.968
 5374SOL    HW217022   0.815   3.576   6.935
 5375SOL     OW17023   1.904   4.607   4.687
 5375SOL    HW117024   1.925   4.683   4.626
 5375SOL    HW217025   1.805   4.600   4.699
 5376SOL     OW17026   1.846   2.850   0.981
 5376SOL    HW117027   1.924   2.901   0.942
 5376SOL    HW217028   1.879   2.764   1.019
 5377SOL     OW17029   0.194   6.907   1.349
 5377SOL    HW117030   0.124   6.971   1.317
 5377SOL    HW217031   0.239   6.945   1.430
 5378SOL     OW17032   6.917   0.306   1.347
 5378SOL    HW117033   6.868   0.393   1.338
 5378SOL    HW217034   6.875   0.251   1.419
 5379SOL     OW17035   0.946   5.310   5.359
 5379SOL    HW117036   0.930   5.345   5.267
 5379SOL    HW217037   0.879   5.350   5.422
 5380SOL     OW17038   1.739   1.107   3.329
 5380SOL    HW117039   1.778   1.064   3.410
 5380SOL    HW217040   1.807   1.110   3.256
 5381SOL     OW17041   6.088   4.365   0.565
 5381SOL    HW117042   6.151   4.413   0.504
 5381SOL    HW217043   6.064   4.276   0.526
 5382SOL     OW17044   3.172   0.550   1.859
 5382SOL    HW117045   3.234   0.476   1.887
 5382SOL    HW217046   3.079   0.514   1.853
 5383SOL     OW17047   2.624   2.559   5.227
 5383SOL    HW117048   2.546   2.594   5.176
 5383SOL    HW217049   2.625   2.599   5.319
 5384SOL     OW17050   5.944   0.527   4.169
 5384SOL    HW117051   5.951   0.536   4.268
 5384SOL    HW217052   5.876   0.591   4.134
 5385SOL     OW17053   2.854   3.430   3.297
 5385SOL    HW117054   2.891   3.508   3.348
 5385SOL    HW217055   2.881   3.437   3.201
 5386SOL     OW17056   4.266   0.229   4.141
 5386SOL    HW117057   4.253   0.141   4.186
 5386SOL    HW217058   4.360   0.236   4.108
 5387SOL     OW17059   2.666   5.977   3.370
 5387SOL    HW117060   2.646   6.053   3.308
 5387SOL    HW217061   2.598   5.905   3.357
 5388SOL     OW17062   5.481   0.029   3.324
 5388SOL    HW117063   5.385   0.049   3.306
 5388SOL    HW217064   5.502   0.046   3.420
 5389SOL     OW17065   5.161   0.894   1.650
 5389SOL    HW117066   5.214   0.841   1.583
 5389SOL    HW217067   5.148   0.987   1.616
 5390SOL     OW17068   4.420   4.716   3.906
 5390SOL    HW117069   4.449   4.625   3.877
 5390SOL    HW217070   4.392   4.769   3.826
 5391SOL     OW17071   1.736   2.221   0.836
 5391SOL    HW117072   1.646   2.182   0.820
 5391SOL    HW217073   1.791   2.158   0.891
 5392SOL     OW17074   5.824   3.565   1.039
 5392SOL    HW117075   5.796   3.469   1.037
 5392SOL    HW217076   5.921   3.572   1.016
 5393SOL     OW17077   5.617   6.745   6.405
 5393SOL    HW117078   5.624   6.711   6.312
 5393SOL    HW217079   5.528   6.789   6.418
 5394SOL     OW17080   6.780   3.846   6.723
 5394SOL    HW117081   6.808   3.833   6.818
 5394SOL    HW217082   6.728   3.931   6.715
 5395SOL     OW17083   5.037   1.176   1.846
 5395SOL    HW117084   4.993   1.258   1.882
 5395SOL    HW217085   5.123   1.160   1.894
 5396SOL     OW17086   5.030   4.095   2.562
 5396SOL    HW117087   4.952   4.090   2.625
 5396SOL    HW217088   5.082   4.009   2.568
 5397SOL     OW17089   6.715   2.881   1.855
 5397SOL    HW117090   6.628   2.921   1.826
 5397SOL    HW217091   6.718   2.875   1.955
 5398SOL     OW17092   3.246   1.860   2.556
 5398SOL    HW117093   3.162   1.866   2.610
 5398SOL    HW217094   3.257   1.944   2.503
 5399SOL     OW17095   2.611   6.115   6.875
 5399SOL    HW117096   2.644   6.027   6.841
 5399SOL    HW217097   2.665   6.143   6.955
 5400SOL     OW17098   2.553   4.077   0.829
 5400SOL    HW117099   2.577   4.105   0.736
 5400SOL    HW217100   2.501   4.151   0.873
 5401SOL     OW17101   5.786   3.411   1.734
 5401SOL    HW117102   5.809   3.469   1.656
 5401SOL    HW217103   5.802   3.315   1.709
 5402SOL     OW17104   2.395   5.168   1.573
 5402SOL    HW117105   2.339   5.103   1.624
 5402SOL    HW217106   2.429   5.239   1.634
 5403SOL     OW17107   6.027   2.997   6.317
 5403SOL    HW117108   6.061   3.068   6.256
 5403SOL    HW217109   5.950   2.950   6.274
 5404SOL     OW17110   0.526   1.311   2.825
 5404SOL    HW117111   0.474   1.315   2.910
 5404SOL    HW217112   0.524   1.400   2.781
 5405SOL     OW17113   6.104   5.451   7.012
 5405SOL    HW117114   6.106   5.440   0.096
 5405SOL    HW217115   6.009   5.449   6.981
 5406SOL     OW17116   2.403   1.830   6.852
 5406SOL    HW117117   2.411   1.925   6.821
 5406SOL    HW217118   2.455   1.818   6.937
 5407SOL     OW17119   4.809   3.222   1.235
 5407SOL    HW117120   4.737   3.207   1.169
 5407SOL    HW217121   4.769   3.253   1.322
 5408SOL     OW17122   3.409   1.423   6.386
 5408SOL    HW117123   3.428   1.521   6.391
 5408SOL    HW217124   3.352   1.404   6.306
 5409SOL     OW17125   5.253   0.706   3.743
 5409SOL    HW117126   5.232   0.608   3.740
 5409SOL    HW217127   5.258   0.742   3.650
 5410SOL     OW17128   2.640   2.183   1.511
 5410SOL    HW117129   2.702   2.205   1.586
 5410SOL    HW217130   2.671   2.100   1.465
 5411SOL     OW17131   6.651   5.295   5.692
 5411SOL    HW117132   6.664   5.358   5.616
 5411SOL    HW217133   6.628   5.204   5.656
 5412SOL     OW17134   4.883   1.528   0.433
 5412SOL    HW117135   4.796   1.512   0.386
 5412SOL    HW217136   4.920   1.441   0.465
 5413SOL     OW17137   2.676   1.733   1.179
 5413SOL    HW117138   2.579   1.749   1.158
 5413SOL    HW217139   2.732   1.768   1.105
 5414SOL     OW17140   4.837   2.230   4.696
 5414SOL    HW117141   4.791   2.148   4.730
 5414SOL    HW217142   4.771   2.286   4.646
 5415SOL     OW17143   1.163   5.865   0.899
 5415SOL    HW117144   1.080   5.824   0.935
 5415SOL    HW217145   1.234   5.866   0.969
 5416SOL     OW17146   4.823   5.387   5.708
 5416SOL    HW117147   4.812   5.351   5.800
 5416SOL    HW217148   4.733   5.413   5.671
 5417SOL     OW17149   3.821   6.683   5.395
 5417SOL    HW117150   3.790   6.609   5.336
 5417SOL    HW217151   3.802   6.771   5.350
 5418SOL     OW17152   3.320   6.865   3.767
 5418SOL    HW117153   3.284   6.799   3.701
 5418SOL    HW217154   3.387   6.820   3.826
 5419SOL     OW17155   3.582   5.538   0.416
 5419SOL    HW117156   3.502   5.491   0.377
 5419SOL    HW217157   3.662   5.519   0.360
 5420SOL     OW17158   1.691   2.707   2.680
 5420SOL    HW117159   1.635   2.626   2.663
 5420SOL    HW217160   1.650   2.762   2.753
 5421SOL     OW17161   2.185   2.761   2.360
 5421SOL    HW117162   2.111   2.697   2.337
 5421SOL    HW217163   2.191   2.831   2.289
 5422SOL     OW17164   0.637   5.121   0.432
 5422SOL    HW117165   0.600   5.086   0.518
 5422SOL    HW217166   0.572   5.184   0.390
 5423SOL     OW17167   6.051   2.917   0.019
 5423SOL    HW117168   6.139   2.893   0.059
 5423SOL    HW217169   6.059   2.919   6.934
 5424SOL     OW17170   5.698   3.059   3.739
 5424SOL    HW117171   5.738   2.967   3.733
 5424SOL    HW217172   5.709   3.094   3.832
 5425SOL     OW17173   4.214   1.106   4.240
 5425SOL    HW117174   4.246   1.196   4.211
 5425SOL    HW217175   4.292   1.044   4.249
 5426SOL     OW17176   6.478   5.790   4.240
 5426SOL    HW117177   6.498   5.844   4.159
 5426SOL    HW217178   6.392   5.820   4.280
 5427SOL     OW17179   4.818   4.850   6.979
 5427SOL    HW117180   4.873   4.853   0.047
 5427SOL    HW217181   4.875   4.873   6.900
 5428SOL     OW17182   0.220   6.681   1.228
 5428SOL    HW117183   0.216   6.596   1.282
 5428SOL    HW217184   0.210   6.760   1.289
 5429SOL     OW17185   2.030   2.171   6.434
 5429SOL    HW117186   2.095   2.248   6.431
 5429SOL    HW217187   1.990   2.158   6.343
 5430SOL     OW17188   0.032   2.975   6.228
 5430SOL    HW117189   0.069   2.900   6.174
 5430SOL    HW217190   0.043   2.955   6.326
 5431SOL     OW17191   2.916   6.203   0.139
 5431SOL    HW117192   2.954   6.140   0.071
 5431SOL    HW217193   2.850   6.264   0.094
 5432SOL     OW17194   5.223   6.916   6.698
 5432SOL    HW117195   5.136   6.934   6.652
 5432SOL    HW217196   5.206   6.896   6.795
 5433SOL     OW17197   0.398   1.582   4.533
 5433SOL    HW117198   0.375   1.623   4.445
 5433SOL    HW217199   0.316   1.576   4.590
 5434SOL     OW17200   3.494   0.784   5.500
 5434SOL    HW117201   3.503   0.870   5.450
 5434SOL    HW217202   3.430   0.796   5.576
 5435SOL     OW17203   5.948   0.684   2.111
 5435SOL    HW117204   5.988   0.593   2.104
 5435SOL    HW217205   5.852   0.676   2.137
 5436SOL     OW17206   5.134   3.551   4.315
 5436SOL    HW117207   5.079   3.607   4.377
 5436SOL    HW217208   5.210   3.509   4.367
 5437SOL     OW17209   2.463   4.259   6.931
 5437SOL    HW117210   2.429   4.320   6.860
 5437SOL    HW217211   2.552   4.292   6.964
 5438SOL     OW17212   6.712   3.187   2.846
 5438SOL    HW117213   6.738   3.168   2.751
 5438SOL    HW217214   6.636   3.128   2.872
 5439SOL     OW17215   0.773   2.194   0.568
 5439SOL    HW117216   0.675   2.214   0.562
 5439SOL    HW217217   0.811   2.186   0.476
 5440SOL     OW17218   1.062   1.150   1.119
 5440SOL    HW117219   1.117   1.215   1.171
 5440SOL    HW217220   1.118   1.073   1.091
 5441SOL     OW17221   4.739   2.210   3.072
 5441SOL    HW117222   4.652   2.163   3.090
 5441SOL    HW217223   4.771   2.186   2.980
 5442SOL     OW17224   3.290   5.967   3.868
 5442SOL    HW117225   3.212   5.967   3.806
 5442SOL    HW217226   3.265   6.012   3.954
 5443SOL     OW17227   2.998   0.744   4.165
 5443SOL    HW117228   3.028   0.817   4.105
 5443SOL    HW217229   2.907   0.713   4.138
 5444SOL     OW17230   1.024   0.572   4.061
 5444SOL    HW117231   1.001   0.617   4.147
 5444SOL    HW217232   0.984   0.480   4.060
 5445SOL     OW17233   6.020   3.794   3.699
 5445SOL    HW117234   5.976   3.725   3.757
 5445SOL    HW217235   6.095   3.836   3.750
 5446SOL     OW17236   6.486   4.852   4.884
 5446SOL    HW117237   6.507   4.877   4.789
 5446SOL    HW217238   6.508   4.928   4.945
 5447SOL     OW17239   3.038   2.178   6.741
 5447SOL    HW117240   3.017   2.080   6.738
 5447SOL    HW217241   3.134   2.191   6.768
 5448SOL     OW17242   4.476   2.924   5.328
 5448SOL    HW117243   4.489   3.023   5.333
 5448SOL    HW217244   4.382   2.902   5.353
 5449SOL     OW17245   1.779   3.191   6.280
 5449SOL    HW117246   1.767   3.218   6.185
 5449SOL    HW217247   1.773   3.091   6.288
 5450SOL     OW17248   1.664   0.114   1.413
 5450SOL    HW117249   1.687   0.026   1.455
 5450SOL    HW217250   1.587   0.155   1.462
 5451SOL     OW17251   1.576   6.514   3.479
 5451SOL    HW117252   1.637   6.435   3.472
 5451SOL    HW217253   1.497   6.490   3.536
 5452SOL     OW17254   2.176   4.575   6.851
 5452SOL    HW117255   2.131   4.657   6.817
 5452SOL    HW217256   2.223   4.595   6.936
 5453SOL     OW17257   5.682   4.480   1.255
 5453SOL    HW117258   5.777   4.453   1.271
 5453SOL    HW217259   5.625   4.398   1.244
 5454SOL     OW17260   0.083   4.027   6.733
 5454SOL    HW117261   0.045   4.115   6.762
 5454SOL    HW217262   0.014   3.976   6.682
 5455SOL     OW17263   6.221   3.386   0.260
 5455SOL    HW117264   6.254   3.340   0.343
 5455SOL    HW217265   6.167   3.466   0.287
 5456SOL     OW17266   3.484   6.889   6.968
 5456SOL    HW117267   3.453   6.795   6.958
 5456SOL    HW217268   3.462   6.923   0.044
 5457SOL     OW17269   5.835   2.131   0.420
 5457SOL    HW117270   5.925   2.159   0.388
 5457SOL    HW217271   5.825   2.156   0.516
 5458SOL     OW17272   0.296   4.834   6.927
 5458SOL    HW117273   0.226   4.903   6.944
 5458SOL    HW217274   0.287   4.761   6.995
 5459SOL     OW17275   2.406   4.490   6.743
 5459SOL    HW117276   2.449   4.541   6.669
 5459SOL    HW217277   2.318   4.532   6.767
 5460SOL     OW17278   2.525   0.113   2.370
 5460SOL    HW117279   2.564   0.204   2.357
 5460SOL    HW217280   2.443   0.120   2.426
 5461SOL     OW17281   5.758   6.549   5.174
 5461SOL    HW117282   5.694   6.524   5.246
 5461SOL    HW217283   5.852   6.532   5.205
 5462SOL     OW17284   0.732   1.021   6.940
 5462SOL    HW117285   0.705   1.115   6.915
 5462SOL    HW217286   0.661   0.957   6.910
 5463SOL     OW17287   6.127   2.045   0.091
 5463SOL    HW117288   6.103   2.115   0.023
 5463SOL    HW217289   6.116   2.082   0.183
 5464SOL     OW17290   1.228   0.750   3.995
 5464SOL    HW117291   1.202   0.654   3.985
 5464SOL    HW217292   1.195   0.785   4.083
 5465SOL     OW17293   3.820   6.587   3.399
 5465SOL    HW117294   3.816   6.511   3.333
 5465SOL    HW217295   3.906   6.637   3.386
 5466SOL     OW17296   6.080   4.532   5.473
 5466SOL    HW117297   6.057   4.572   5.562
 5466SOL    HW217298   6.167   4.570   5.441
 5467SOL     OW17299   5.276   2.711   3.111
 5467SOL    HW117300   5.314   2.683   3.200
 5467SOL    HW217301   5.176   2.712   3.117
 5468SOL     OW17302   5.107   2.054   4.369
 5468SOL    HW117303   5.193   2.103   4.352
 5468SOL    HW217304   5.031   2.119   4.370
 5469SOL     OW17305   3.687   4.789   6.880
 5469SOL    HW117306   3.622   4.775   6.805
 5469SOL    HW217307   3.780   4.781   6.844
 5470SOL     OW17308   3.136   5.857   2.949
 5470SOL    HW117309   3.159   5.830   3.043
 5470SOL    HW217310   3.102   5.777   2.899
 5471SOL     OW17311   5.523   6.812   2.127
 5471SOL    HW117312   5.569   6.876   2.066
 5471SOL    HW217313   5.463   6.863   2.189
 5472SOL     OW17314   3.834   3.589   5.930
 5472SOL    HW117315   3.927   3.568   5.959
 5472SOL    HW217316   3.789   3.505   5.900
 5473SOL     OW17317   0.653   3.439   3.234
 5473SOL    HW117318   0.572   3.491   3.207
 5473SOL    HW217319   0.671   3.454   3.332
 5474SOL     OW17320   1.116   4.587   4.089
 5474SOL    HW117321   1.185   4.546   4.028
 5474SOL    HW217322   1.159   4.615   4.175
 5475SOL     OW17323   2.365   2.341   0.920
 5475SOL    HW117324   2.462   2.357   0.935
 5475SOL    HW217325   2.312   2.392   0.988
 5476SOL     OW17326   2.419   3.767   5.710
 5476SOL    HW117327   2.489   3.837   5.722
 5476SOL    HW217328   2.342   3.786   5.771
 5477SOL     OW17329   2.032   4.108   3.517
 5477SOL    HW117330   2.015   4.186   3.578
 5477SOL    HW217331   2.128   4.108   3.489
 5478SOL     OW17332   4.474   4.851   5.626
 5478SOL    HW117333   4.549   4.917   5.617
 5478SOL    HW217334   4.387   4.899   5.635
 5479SOL     OW17335   4.990   1.388   6.145
 5479SOL    HW117336   5.003   1.321   6.072
 5479SOL    HW217337   4.897   1.381   6.181
 5480SOL     OW17338   0.481   3.354   3.510
 5480SOL    HW117339   0.386   3.322   3.507
 5480SOL    HW217340   0.485   3.437   3.565
 5481SOL     OW17341   3.475   0.820   4.281
 5481SOL    HW117342   3.554   0.856   4.329
 5481SOL    HW217343   3.489   0.723   4.260
 5482SOL     OW17344   3.878   4.528   1.623
 5482SOL    HW117345   3.882   4.429   1.615
 5482SOL    HW217346   3.784   4.556   1.642
 5483SOL     OW17347   0.549   2.750   5.828
 5483SOL    HW117348   0.572   2.656   5.852
 5483SOL    HW217349   0.465   2.777   5.874
 5484SOL     OW17350   4.753   1.010   4.863
 5484SOL    HW117351   4.694   1.090   4.850
 5484SOL    HW217352   4.765   0.994   4.961
 5485SOL     OW17353   4.144   0.484   5.375
 5485SOL    HW117354   4.218   0.543   5.342
 5485SOL    HW217355   4.171   0.441   5.461
 5486SOL     OW17356   2.903   5.747   5.585
 5486SOL    HW117357   2.822   5.794   5.621
 5486SOL    HW217358   2.889   5.727   5.488
 5487SOL     OW17359   2.890   3.681   6.641
 5487SOL    HW117360   2.844   3.751   6.587
 5487SOL    HW217361   2.984   3.670   6.608
 5488SOL     OW17362   6.562   1.030   0.567
 5488SOL    HW117363   6.576   1.105   0.502
 5488SOL    HW217364   6.638   1.027   0.631
 5489SOL     OW17365   6.246   3.329   2.059
 5489SOL    HW117366   6.331   3.379   2.077
 5489SOL    HW217367   6.236   3.314   1.961
 5490SOL     OW17368   1.638   0.142   2.149
 5490SOL    HW117369   1.591   0.129   2.237
 5490SOL    HW217370   1.590   0.211   2.096
 5491SOL     OW17371   0.542   2.819   0.791
 5491SOL    HW117372   0.592   2.815   0.704
 5491SOL    HW217373   0.606   2.837   0.866
 5492SOL     OW17374   1.140   3.323   5.623
 5492SOL    HW117375   1.207   3.273   5.568
 5492SOL    HW217376   1.184   3.403   5.664
 5493SOL     OW17377   4.146   3.657   2.114
 5493SOL    HW117378   4.236   3.700   2.103
 5493SOL    HW217379   4.121   3.657   2.211
 5494SOL     OW17380   6.615   3.857   5.228
 5494SOL    HW117381   6.675   3.936   5.222
 5494SOL    HW217382   6.522   3.883   5.205
 5495SOL     OW17383   5.620   0.802   1.035
 5495SOL    HW117384   5.664   0.716   1.010
 5495SOL    HW217385   5.672   0.879   0.999
 5496SOL     OW17386   4.562   0.467   3.802
 5496SOL    HW117387   4.522   0.481   3.711
 5496SOL    HW217388   4.613   0.548   3.830
 5497SOL     OW17389   0.071   1.032   5.927
 5497SOL    HW117390   0.087   0.955   5.989
 5497SOL    HW217391   0.157   1.081   5.913
 5498SOL     OW17392   0.245   4.922   1.523
 5498SOL    HW117393   0.172   4.890   1.464
 5498SOL    HW217394   0.272   5.015   1.496
 5499SOL     OW17395   0.769   0.404   3.431
 5499SOL    HW117396   0.775   0.495   3.390
 5499SOL    HW217397   0.727   0.412   3.522
 5500SOL     OW17398   1.496   0.806   0.217
 5500SOL    HW117399   1.496   0.772   0.123
 5500SOL    HW217400   1.454   0.738   0.277
 5501SOL     OW17401   4.064   2.364   0.575
 5501SOL    HW117402   4.034   2.307   0.652
 5501SOL    HW217403   4.119   2.440   0.608
 5502SOL     OW17404   5.072   4.137   6.493
 5502SOL    HW117405   5.094   4.055   6.441
 5502SOL    HW217406   4.974   4.138   6.512
 5503SOL     OW17407   0.374   4.012   0.995
 5503SOL    HW117408   0.405   3.921   0.968
 5503SOL    HW217409   0.416   4.037   1.083
 5504SOL     OW17410   4.506   1.611   5.909
 5504SOL    HW117411   4.472   1.654   5.992
 5504SOL    HW217412   4.549   1.679   5.850
 5505SOL     OW17413   2.274   4.088   3.672
 5505SOL    HW117414   2.285   4.120   3.577
 5505SOL    HW217415   2.324   4.149   3.733
 5506SOL     OW17416   6.647   3.397   6.819
 5506SOL    HW117417   6.570   3.422   6.877
 5506SOL    HW217418   6.635   3.303   6.786
 5507SOL     OW17419   3.650   0.771   5.829
 5507SOL    HW117420   3.733   0.784   5.883
 5507SOL    HW217421   3.669   0.708   5.753
 5508SOL     OW17422   1.324   0.742   0.449
 5508SOL    HW117423   1.287   0.650   0.462
 5508SOL    HW217424   1.249   0.805   0.428
 5509SOL     OW17425   0.754   5.501   0.650
 5509SOL    HW117426   0.781   5.586   0.603
 5509SOL    HW217427   0.759   5.515   0.749
 5510SOL     OW17428   5.138   5.745   6.731
 5510SOL    HW117429   5.179   5.836   6.729
 5510SOL    HW217430   5.202   5.680   6.689
 5511SOL     OW17431   0.718   1.281   5.055
 5511SOL    HW117432   0.800   1.238   5.093
 5511SOL    HW217433   0.745   1.361   5.000
 5512SOL     OW17434   3.693   1.168   1.372
 5512SOL    HW117435   3.786   1.157   1.339
 5512SOL    HW217436   3.651   1.249   1.331
 5513SOL     OW17437   3.082   4.975   5.958
 5513SOL    HW117438   3.165   5.008   6.002
 5513SOL    HW217439   3.004   5.027   5.992
 5514SOL     OW17440   3.764   6.834   5.023
 5514SOL    HW117441   3.681   6.793   4.986
 5514SOL    HW217442   3.785   6.919   4.974
 5515SOL     OW17443   1.721   5.946   2.207
 5515SOL    HW117444   1.740   5.872   2.143
 5515SOL    HW217445   1.639   5.924   2.259
 5516SOL     OW17446   2.390   2.698   5.082
 5516SOL    HW117447   2.312   2.670   5.026
 5516SOL    HW217448   2.422   2.789   5.053
 5517SOL     OW17449   1.761   3.583   2.301
 5517SOL    HW117450   1.835   3.593   2.367
 5517SOL    HW217451   1.745   3.671   2.255
 5518SOL     OW17452   6.201   4.938   5.861
 5518SOL    HW117453   6.135   4.872   5.897
 5518SOL    HW217454   6.281   4.889   5.827
 5519SOL     OW17455   4.990   2.760   3.770
 5519SOL    HW117456   4.913   2.773   3.708
 5519SOL    HW217457   5.074   2.750   3.717
 5520SOL     OW17458   5.532   6.090   2.485
 5520SOL    HW117459   5.497   6.183   2.473
 5520SOL    HW217460   5.540   6.070   2.583
 5521SOL     OW17461   5.628   5.448   1.424
 5521SOL    HW117462   5.638   5.392   1.506
 5521SOL    HW217463   5.541   5.496   1.427
 5522SOL     OW17464   6.632   5.658   1.452
 5522SOL    HW117465   6.656   5.572   1.496
 5522SOL    HW217466   6.623   5.730   1.521
 5523SOL     OW17467   5.206   0.826   3.082
 5523SOL    HW117468   5.281   0.891   3.065
 5523SOL    HW217469   5.244   0.734   3.088
 5524SOL     OW17470   3.694   0.268   5.421
 5524SOL    HW117471   3.609   0.308   5.388
 5524SOL    HW217472   3.673   0.198   5.491
 5525SOL     OW17473   6.916   2.960   0.543
 5525SOL    HW117474   6.826   2.998   0.521
 5525SOL    HW217475   6.911   2.912   0.630
 5526SOL     OW17476   4.790   4.067   3.024
 5526SOL    HW117477   4.816   4.105   3.112
 5526SOL    HW217478   4.803   3.967   3.025
 5527SOL     OW17479   4.895   3.215   4.019
 5527SOL    HW117480   4.969   3.239   3.956
 5527SOL    HW217481   4.883   3.116   4.019
 5528SOL     OW17482   1.201   1.648   1.745
 5528SOL    HW117483   1.142   1.606   1.813
 5528SOL    HW217484   1.205   1.747   1.761
 5529SOL     OW17485   2.154   0.038   3.646
 5529SOL    HW117486   2.217   7.003   3.704
 5529SOL    HW217487   2.060   0.016   3.672
 5530SOL     OW17488   0.085   2.601   2.118
 5530SOL    HW117489   0.046   2.513   2.089
 5530SOL    HW217490   0.046   2.674   2.062
 5531SOL     OW17491   3.882   4.320   1.443
 5531SOL    HW117492   3.918   4.227   1.436
 5531SOL    HW217493   3.846   4.348   1.354
 5532SOL     OW17494   1.923   2.451   0.371
 5532SOL    HW117495   1.836   2.501   0.366
 5532SOL    HW217496   1.952   2.446   0.467
 5533SOL     OW17497   4.710   1.637   4.104
 5533SOL    HW117498   4.708   1.714   4.168
 5533SOL    HW217499   4.733   1.553   4.155
 5534SOL     OW17500   1.018   1.012   5.521
 5534SOL    HW117501   1.113   1.038   5.541
 5534SOL    HW217502   0.985   0.950   5.592
 5535SOL     OW17503   0.518   1.392   2.547
 5535SOL    HW117504   0.541   1.454   2.472
 5535SOL    HW217505   0.483   1.444   2.625
 5536SOL     OW17506   3.640   0.568   4.667
 5536SOL    HW117507   3.658   0.661   4.700
 5536SOL    HW217508   3.551   0.566   4.621
 5537SOL     OW17509   3.750   1.430   2.629
 5537SOL    HW117510   3.725   1.452   2.535
 5537SOL    HW217511   3.824   1.491   2.658
 5538SOL     OW17512   4.729   5.682   4.698
 5538SOL    HW117513   4.671   5.693   4.778
 5538SOL    HW217514   4.726   5.587   4.666
 5539SOL     OW17515   2.172   2.990   1.032
 5539SOL    HW117516   2.128   3.039   0.956
 5539SOL    HW217517   2.118   3.004   1.116
 5540SOL     OW17518   4.991   4.835   3.624
 5540SOL    HW117519   5.021   4.927   3.599
 5540SOL    HW217520   5.040   4.805   3.706
 5541SOL     OW17521   4.512   2.108   6.323
 5541SOL    HW117522   4.470   2.084   6.236
 5541SOL    HW217523   4.556   2.027   6.362
 5542SOL     OW17524   3.671   3.952   6.031
 5542SOL    HW117525   3.631   3.945   5.940
 5542SOL    HW217526   3.673   4.047   6.060
 5543SOL     OW17527   6.518   3.816   6.516
 5543SOL    HW117528   6.420   3.826   6.534
 5543SOL    HW217529   6.556   3.747   6.578
 5544SOL     OW17530   5.834   1.093   6.004
 5544SOL    HW117531   5.748   1.048   6.027
 5544SOL    HW217532   5.844   1.099   5.905
 5545SOL     OW17533   4.520   2.141   2.418
 5545SOL    HW117534   4.429   2.109   2.391
 5545SOL    HW217535   4.590   2.082   2.378
 5546SOL     OW17536   1.969   5.018   5.987
 5546SOL    HW117537   2.062   5.053   5.982
 5546SOL    HW217538   1.905   5.088   5.954
 5547SOL     OW17539   3.281   5.520   5.498
 5547SOL    HW117540   3.285   5.424   5.528
 5547SOL    HW217541   3.292   5.580   5.577
 5548SOL     OW17542   5.983   3.553   5.478
 5548SOL    HW117543   5.983   3.649   5.504
 5548SOL    HW217544   6.071   3.512   5.503
 5549SOL     OW17545   2.996   4.823   6.728
 5549SOL    HW117546   3.086   4.780   6.731
 5549SOL    HW217547   2.928   4.756   6.698
 5550SOL     OW17548   2.384   6.153   1.358
 5550SOL    HW117549   2.403   6.057   1.379
 5550SOL    HW217550   2.429   6.211   1.426
 5551SOL     OW17551   1.522   1.093   3.141
 5551SOL    HW117552   1.473   1.180   3.149
 5551SOL    HW217553   1.584   1.083   3.219
 5552SOL     OW17554   0.111   1.782   1.027
 5552SOL    HW117555   0.019   1.782   1.065
 5552SOL    HW217556   0.106   1.761   0.929
 5553SOL     OW17557   4.130   6.542   0.230
 5553SOL    HW117558   4.210   6.490   0.262
 5553SOL    HW217559   4.094   6.499   0.147
 5554SOL     OW17560   2.886   2.196   5.133
 5554SOL    HW117561   2.969   2.238   5.097
 5554SOL    HW217562   2.877   2.103   5.096
 5555SOL     OW17563   0.253   5.156   3.617
 5555SOL    HW117564   0.327   5.197   3.670
 5555SOL    HW217565   0.290   5.120   3.531
 5556SOL     OW17566   0.749   1.934   5.130
 5556SOL    HW117567   0.774   1.838   5.145
 5556SOL    HW217568   0.772   1.988   5.211
 5557SOL     OW17569   2.301   6.167   3.539
 5557SOL    HW117570   2.253   6.079   3.544
 5557SOL    HW217571   2.238   6.241   3.560
 5558SOL     OW17572   5.440   2.785   4.741
 5558SOL    HW117573   5.425   2.816   4.647
 5558SOL    HW217574   5.450   2.686   4.742
 5559SOL     OW17575   2.092   0.359   0.757
 5559SOL    HW117576   2.048   0.279   0.798
 5559SOL    HW217577   2.028   0.435   0.757
 5560SOL     OW17578   0.220   1.276   3.753
 5560SOL    HW117579   0.129   1.239   3.767
 5560SOL    HW217580   0.240   1.280   3.655
 5561SOL     OW17581   1.466   3.244   3.245
 5561SOL    HW117582   1.411   3.324   3.268
 5561SOL    HW217583   1.423   3.162   3.283
 5562SOL     OW17584   2.031   3.149   5.762
 5562SOL    HW117585   2.114   3.190   5.801
 5562SOL    HW217586   2.043   3.050   5.755
 5563SOL     OW17587   4.542   6.243   2.594
 5563SOL    HW117588   4.500   6.207   2.677
 5563SOL    HW217589   4.498   6.329   2.569
 5564SOL     OW17590   5.378   3.953   1.642
 5564SOL    HW117591   5.417   3.889   1.576
 5564SOL    HW217592   5.320   3.904   1.707
 5565SOL     OW17593   3.670   2.512   5.618
 5565SOL    HW117594   3.601   2.578   5.645
 5565SOL    HW217595   3.676   2.509   5.518
 5566SOL     OW17596   1.976   5.110   1.403
 5566SOL    HW117597   1.956   5.163   1.486
 5566SOL    HW217598   1.913   5.033   1.397
 5567SOL     OW17599   1.565   5.530   1.149
 5567SOL    HW117600   1.489   5.490   1.199
 5567SOL    HW217601   1.537   5.550   1.055
 5568SOL     OW17602   4.266   1.374   1.624
 5568SOL    HW117603   4.184   1.384   1.567
 5568SOL    HW217604   4.301   1.465   1.646
 5569SOL     OW17605   3.937   1.724   0.812
 5569SOL    HW117606   4.033   1.697   0.816
 5569SOL    HW217607   3.881   1.655   0.858
 5570SOL     OW17608   6.450   4.506   5.418
 5570SOL    HW117609   6.377   4.573   5.419
 5570SOL    HW217610   6.476   4.483   5.512
 5571SOL     OW17611   6.915   5.696   0.599
 5571SOL    HW117612   6.816   5.712   0.591
 5571SOL    HW217613   6.930   5.607   0.642
 5572SOL     OW17614   4.665   2.577   6.485
 5572SOL    HW117615   4.624   2.530   6.406
 5572SOL    HW217616   4.663   2.676   6.469
 5573SOL     OW17617   0.952   3.690   0.903
 5573SOL    HW117618   0.866   3.682   0.953
 5573SOL    HW217619   1.014   3.616   0.930
 5574SOL     OW17620   0.550   6.112   5.115
 5574SOL    HW117621   0.483   6.106   5.189
 5574SOL    HW217622   0.502   6.128   5.029
 5575SOL     OW17623   0.750   1.255   0.455
 5575SOL    HW117624   0.830   1.314   0.441
 5575SOL    HW217625   0.779   1.170   0.499
 5576SOL     OW17626   5.729   6.349   0.365
 5576SOL    HW117627   5.696   6.387   0.279
 5576SOL    HW217628   5.801   6.408   0.403
 5577SOL     OW17629   1.866   4.260   5.333
 5577SOL    HW117630   1.772   4.226   5.328
 5577SOL    HW217631   1.924   4.206   5.271
 5578SOL     OW17632   4.188   2.873   0.417
 5578SOL    HW117633   4.235   2.906   0.335
 5578SOL    HW217634   4.205   2.937   0.492
 5579SOL     OW17635   5.018   3.991   6.809
 5579SOL    HW117636   5.044   4.006   6.713
 5579SOL    HW217637   4.934   3.936   6.811
 5580SOL     OW17638   5.676   0.931   0.516
 5580SOL    HW117639   5.715   0.981   0.593
 5580SOL    HW217640   5.746   0.918   0.446
 5581SOL     OW17641   2.038   1.496   6.190
 5581SOL    HW117642   2.057   1.594   6.199
 5581SOL    HW217643   2.092   1.445   6.256
 5582SOL     OW17644   3.424   3.621   3.577
 5582SOL    HW117645   3.487   3.567   3.632
 5582SOL    HW217646   3.454   3.622   3.482
 5583SOL     OW17647   3.661   0.220   1.360
 5583SOL    HW117648   3.747   0.260   1.393
 5583SOL    HW217649   3.607   0.189   1.438
 5584SOL     OW17650   6.827   3.427   3.293
 5584SOL    HW117651   6.862   3.358   3.230
 5584SOL    HW217652   6.748   3.472   3.251
 5585SOL     OW17653   6.185   0.315   4.406
 5585SOL    HW117654   6.261   0.374   4.433
 5585SOL    HW217655   6.144   0.275   4.488
 5586SOL     OW17656   2.187   0.931   5.782
 5586SOL    HW117657   2.207   1.005   5.845
 5586SOL    HW217658   2.248   0.853   5.801
 5587SOL     OW17659   3.406   0.436   4.090
 5587SOL    HW117660   3.312   0.470   4.095
 5587SOL    HW217661   3.447   0.465   4.004
 5588SOL     OW17662   2.507   0.047   5.795
 5588SOL    HW117663   2.440   6.992   5.817
 5588SOL    HW217664   2.498   0.073   5.698
 5589SOL     OW17665   4.416   2.890   6.080
 5589SOL    HW117666   4.415   2.857   5.985
 5589SOL    HW217667   4.472   2.972   6.086
 5590SOL     OW17668   0.437   5.356   4.482
 5590SOL    HW117669   0.493   5.417   4.426
 5590SOL    HW217670   0.418   5.399   4.570
 5591SOL     OW17671   5.580   0.311   0.425
 5591SOL    HW117672   5.508   0.380   0.431
 5591SOL    HW217673   5.631   0.308   0.511
 5592SOL     OW17674   1.765   3.129   2.732
 5592SOL    HW117675   1.724   3.189   2.663
 5592SOL    HW217676   1.811   3.185   2.800
 5593SOL     OW17677   1.887   2.655   5.926
 5593SOL    HW117678   1.943   2.719   5.978
 5593SOL    HW217679   1.802   2.700   5.897
 5594SOL     OW17680   2.342   0.605   0.766
 5594SOL    HW117681   2.389   0.568   0.685
 5594SOL    HW217682   2.257   0.556   0.780
 5595SOL     OW17683   0.072   2.549   5.849
 5595SOL    HW117684   0.171   2.545   5.855
 5595SOL    HW217685   0.045   2.606   5.772
 5596SOL     OW17686   5.189   0.261   2.972
 5596SOL    HW117687   5.184   0.258   3.072
 5596SOL    HW217688   5.098   0.246   2.933
 5597SOL     OW17689   6.871   1.117   6.089
 5597SOL    HW117690   6.968   1.093   6.094
 5597SOL    HW217691   6.818   1.057   6.150
 5598SOL     OW17692   6.831   1.781   4.019
 5598SOL    HW117693   6.783   1.773   3.932
 5598SOL    HW217694   6.855   1.877   4.035
 5599SOL     OW17695   4.877   3.614   2.663
 5599SOL    HW117696   4.908   3.610   2.568
 5599SOL    HW217697   4.862   3.521   2.696
 5600SOL     OW17698   2.350   1.407   2.525
 5600SOL    HW117699   2.380   1.379   2.434
 5600SOL    HW217700   2.251   1.397   2.532
 5601SOL     OW17701   5.944   3.145   5.350
 5601SOL    HW117702   5.911   3.233   5.317
 5601SOL    HW217703   5.997   3.159   5.434
 5602SOL     OW17704   0.064   2.174   3.260
 5602SOL    HW117705   0.145   2.157   3.203
 5602SOL    HW217706   0.040   2.089   3.308
 5603SOL     OW17707   4.262   2.291   4.541
 5603SOL    HW117708   4.172   2.300   4.499
 5603SOL    HW217709   4.315   2.222   4.491
 5604SOL     OW17710   0.421   0.129   3.826
 5604SOL    HW117711   0.387   0.222   3.813
 5604SOL    HW217712   0.417   0.104   3.923
 5605SOL     OW17713   2.675   5.778   4.624
 5605SOL    HW117714   2.771   5.758   4.607
 5605SOL    HW217715   2.618   5.719   4.567
 5606SOL     OW17716   4.764   2.040   0.628
 5606SOL    HW117717   4.669   2.065   0.647
 5606SOL    HW217718   4.821   2.063   0.708
 5607SOL     OW17719   6.383   2.874   2.048
 5607SOL    HW117720   6.349   2.917   1.964
 5607SOL    HW217721   6.323   2.798   2.074
 5608SOL     OW17722   4.365   1.035   3.371
 5608SOL    HW117723   4.293   1.053   3.437
 5608SOL    HW217724   4.454   1.060   3.411
 5609SOL     OW17725   6.589   6.663   0.835
 5609SOL    HW117726   6.622   6.568   0.833
 5609SOL    HW217727   6.494   6.665   0.806
 5610SOL     OW17728   5.150   4.586   0.001
 5610SOL    HW117729   5.126   4.638   0.083
 5610SOL    HW217730   5.165   4.490   0.026
 5611SOL     OW17731   0.074   4.812   1.340
 5611SOL    HW117732   0.095   4.723   1.299
 5611SOL    HW217733   0.017   4.865   1.276
 5612SOL     OW17734   2.900   0.998   0.828
 5612SOL    HW117735   2.910   1.023   0.732
 5612SOL    HW217736   2.899   0.898   0.836
 5613SOL     OW17737   6.730   5.469   5.486
 5613SOL    HW117738   6.800   5.521   5.535
 5613SOL    HW217739   6.664   5.532   5.446
 5614SOL     OW17740   6.232   2.127   4.308
 5614SOL    HW117741   6.249   2.061   4.380
 5614SOL    HW217742   6.319   2.162   4.273
 5615SOL     OW17743   0.299   3.308   2.964
 5615SOL    HW117744   0.395   3.284   2.958
 5615SOL    HW217745   0.276   3.333   3.059
 5616SOL     OW17746   1.931   3.244   2.939
 5616SOL    HW117747   2.014   3.297   2.956
 5616SOL    HW217748   1.941   3.153   2.979
 5617SOL     OW17749   2.134   5.403   6.518
 5617SOL    HW117750   2.191   5.321   6.522
 5617SOL    HW217751   2.078   5.401   6.435
 5618SOL     OW17752   6.861   5.702   3.665
 5618SOL    HW117753   6.811   5.699   3.752
 5618SOL    HW217754   6.913   5.786   3.659
 5619SOL     OW17755   3.725   3.189   4.363
 5619SOL    HW117756   3.677   3.188   4.275
 5619SOL    HW217757   3.819   3.220   4.349
 5620SOL     OW17758   4.940   4.456   5.703
 5620SOL    HW117759   4.876   4.451   5.626
 5620SOL    HW217760   4.931   4.546   5.747
 5621SOL     OW17761   1.477   2.281   5.388
 5621SOL    HW117762   1.488   2.197   5.335
 5621SOL    HW217763   1.451   2.356   5.327
 5622SOL     OW17764   5.161   5.847   4.657
 5622SOL    HW117765   5.113   5.925   4.696
 5622SOL    HW217766   5.251   5.876   4.626
 5623SOL     OW17767   5.288   6.253   4.074
 5623SOL    HW117768   5.196   6.274   4.106
 5623SOL    HW217769   5.355   6.296   4.135
 5624SOL     OW17770   6.800   4.951   4.444
 5624SOL    HW117771   6.880   4.956   4.504
 5624SOL    HW217772   6.791   4.858   4.408
 5625SOL     OW17773   1.247   5.958   5.066
 5625SOL    HW117774   1.176   5.988   5.131
 5625SOL    HW217775   1.257   6.027   4.994
 5626SOL     OW17776   2.001   4.092   4.661
 5626SOL    HW117777   2.075   4.027   4.680
 5626SOL    HW217778   1.964   4.074   4.569
 5627SOL     OW17779   1.240   5.425   6.895
 5627SOL    HW117780   1.203   5.403   6.985
 5627SOL    HW217781   1.307   5.499   6.904
 5628SOL     OW17782   2.702   2.779   1.021
 5628SOL    HW117783   2.798   2.793   0.997
 5628SOL    HW217784   2.657   2.867   1.032
 5629SOL     OW17785   5.166   3.725   1.450
 5629SOL    HW117786   5.225   3.686   1.520
 5629SOL    HW217787   5.221   3.776   1.385
 5630SOL     OW17788   2.742   4.008   6.829
 5630SOL    HW117789   2.715   3.915   6.855
 5630SOL    HW217790   2.842   4.013   6.823
 5631SOL     OW17791   4.684   1.033   1.724
 5631SOL    HW117792   4.690   1.131   1.744
 5631SOL    HW217793   4.730   1.014   1.638
 5632SOL     OW17794   5.605   0.066   6.067
 5632SOL    HW117795   5.581   0.057   6.164
 5632SOL    HW217796   5.646   0.155   6.051
 5633SOL     OW17797   0.681   5.405   5.423
 5633SOL    HW117798   0.651   5.495   5.393
 5633SOL    HW217799   0.631   5.334   5.374
 5634SOL     OW17800   2.766   6.701   0.229
 5634SOL    HW117801   2.815   6.768   0.285
 5634SOL    HW217802   2.822   6.619   0.217
 5635SOL     OW17803   2.322   0.524   6.884
 5635SOL    HW117804   2.333   0.457   6.959
 5635SOL    HW217805   2.382   0.498   6.808
 5636SOL     OW17806   6.119   1.595   5.441
 5636SOL    HW117807   6.161   1.528   5.502
 5636SOL    HW217808   6.167   1.596   5.354
 5637SOL     OW17809   5.137   6.755   4.620
 5637SOL    HW117810   5.127   6.764   4.719
 5637SOL    HW217811   5.129   6.845   4.577
 5638SOL     OW17812   5.295   5.129   1.010
 5638SOL    HW117813   5.229   5.169   0.947
 5638SOL    HW217814   5.386   5.167   0.990
 5639SOL     OW17815   0.709   0.558   1.611
 5639SOL    HW117816   0.807   0.572   1.624
 5639SOL    HW217817   0.662   0.645   1.621
 5640SOL     OW17818   2.797   5.916   3.136
 5640SOL    HW117819   2.794   5.933   3.235
 5640SOL    HW217820   2.821   5.820   3.120
 5641SOL     OW17821   0.156   4.153   4.154
 5641SOL    HW117822   0.078   4.185   4.208
 5641SOL    HW217823   0.218   4.101   4.213
 5642SOL     OW17824   1.603   4.523   0.330
 5642SOL    HW117825   1.586   4.424   0.334
 5642SOL    HW217826   1.546   4.569   0.398
 5643SOL     OW17827   4.493   2.134   4.495
 5643SOL    HW117828   4.530   2.074   4.424
 5643SOL    HW217829   4.554   2.212   4.508
 5644SOL     OW17830   4.629   1.525   5.085
 5644SOL    HW117831   4.552   1.584   5.061
 5644SOL    HW217832   4.711   1.558   5.038
 5645SOL     OW17833   6.028   5.529   3.740
 5645SOL    HW117834   5.944   5.490   3.703
 5645SOL    HW217835   6.020   5.629   3.741
 5646SOL     OW17836   0.648   6.716   3.693
 5646SOL    HW117837   0.735   6.676   3.723
 5646SOL    HW217838   0.618   6.784   3.759
 5647SOL     OW17839   6.142   5.370   6.702
 5647SOL    HW117840   6.077   5.444   6.683
 5647SOL    HW217841   6.149   5.356   6.801
 5648SOL     OW17842   1.905   1.745   4.109
 5648SOL    HW117843   1.909   1.823   4.047
 5648SOL    HW217844   1.858   1.771   4.193
 5649SOL     OW17845   0.932   1.136   5.072
 5649SOL    HW117846   1.030   1.123   5.085
 5649SOL    HW217847   0.882   1.064   5.121
 5650SOL     OW17848   6.785   4.374   6.538
 5650SOL    HW117849   6.861   4.421   6.584
 5650SOL    HW217850   6.703   4.380   6.595
 5651SOL     OW17851   6.939   1.189   1.939
 5651SOL    HW117852   6.977   1.230   2.022
 5651SOL    HW217853   6.933   1.259   1.867
 5652SOL     OW17854   4.684   5.546   1.638
 5652SOL    HW117855   4.597   5.501   1.620
 5652SOL    HW217856   4.758   5.494   1.594
 5653SOL     OW17857   0.079   5.851   5.356
 5653SOL    HW117858   0.073   5.920   5.283
 5653SOL    HW217859   0.129   5.772   5.322
 5654SOL     OW17860   6.653   0.358   5.497
 5654SOL    HW117861   6.722   0.287   5.483
 5654SOL    HW217862   6.580   0.323   5.556
 5655SOL     OW17863   0.636   3.632   4.295
 5655SOL    HW117864   0.596   3.540   4.300
 5655SOL    HW217865   0.588   3.693   4.358
 5656SOL     OW17866   3.570   3.656   0.586
 5656SOL    HW117867   3.606   3.566   0.610
 5656SOL    HW217868   3.473   3.648   0.561
 5657SOL     OW17869   3.619   0.236   1.742
 5657SOL    HW117870   3.683   0.160   1.728
 5657SOL    HW217871   3.669   0.322   1.741
 5658SOL     OW17872   3.643   0.046   5.555
 5658SOL    HW117873   3.700   0.006   5.627
 5658SOL    HW217874   3.665   0.003   5.467
 5659SOL     OW17875   2.921   3.739   2.501
 5659SOL    HW117876   2.957   3.825   2.537
 5659SOL    HW217877   2.901   3.677   2.576
 5660SOL     OW17878   4.543   0.308   6.884
 5660SOL    HW117879   4.595   0.237   6.837
 5660SOL    HW217880   4.527   0.281   6.979
 5661SOL     OW17881   6.879   6.124   4.190
 5661SOL    HW117882   6.844   6.148   4.099
 5661SOL    HW217883   6.827   6.172   4.260
 5662SOL     OW17884   2.178   4.558   3.854
 5662SOL    HW117885   2.151   4.602   3.768
 5662SOL    HW217886   2.272   4.584   3.877
 5663SOL     OW17887   1.066   3.924   0.885
 5663SOL    HW117888   1.019   3.836   0.893
 5663SOL    HW217889   1.101   3.935   0.792
 5664SOL     OW17890   0.028   4.581   2.484
 5664SOL    HW117891   6.946   4.603   2.476
 5664SOL    HW217892   0.042   4.483   2.468
 5665SOL     OW17893   2.248   3.215   5.886
 5665SOL    HW117894   2.256   3.313   5.903
 5665SOL    HW217895   2.339   3.176   5.875
 5666SOL     OW17896   5.053   5.437   0.659
 5666SOL    HW117897   5.107   5.433   0.744
 5666SOL    HW217898   5.043   5.532   0.630
 5667SOL     OW17899   6.641   5.412   2.777
 5667SOL    HW117900   6.695   5.406   2.861
 5667SOL    HW217901   6.701   5.408   2.698
 5668SOL     OW17902   5.078   2.254   6.201
 5668SOL    HW117903   4.993   2.282   6.246
 5668SOL    HW217904   5.108   2.326   6.138
 5669SOL     OW17905   0.691   4.768   6.172
 5669SOL    HW117906   0.661   4.800   6.082
 5669SOL    HW217907   0.714   4.671   6.167
 5670SOL     OW17908   0.511   3.384   4.380
 5670SOL    HW117909   0.509   3.304   4.319
 5670SOL    HW217910   0.514   3.353   4.475
 5671SOL     OW17911   2.047   0.627   6.651
 5671SOL    HW117912   2.049   0.527   6.659
 5671SOL    HW217913   2.107   0.666   6.722
 5672SOL     OW17914   5.102   4.157   5.934
 5672SOL    HW117915   5.179   4.176   5.874
 5672SOL    HW217916   5.131   4.167   6.029
 5673SOL     OW17917   0.176   0.428   1.952
 5673SOL    HW117918   0.219   0.407   2.039
 5673SOL    HW217919   0.209   0.364   1.882
 5674SOL     OW17920   6.929   3.289   1.619
 5674SOL    HW117921   6.869   3.367   1.599
 5674SOL    HW217922   0.008   3.312   1.595
 5675SOL     OW17923   4.376   2.516   5.469
 5675SOL    HW117924   4.462   2.562   5.448
 5675SOL    HW217925   4.324   2.571   5.534
 5676SOL     OW17926   2.116   6.922   1.527
 5676SOL    HW117927   2.212   6.950   1.530
 5676SOL    HW217928   2.110   6.822   1.534
 5677SOL     OW17929   6.444   0.843   3.779
 5677SOL    HW117930   6.459   0.910   3.851
 5677SOL    HW217931   6.458   0.886   3.690
 5678SOL     OW17932   3.748   7.009   2.962
 5678SOL    HW117933   3.664   0.046   2.975
 5678SOL    HW217934   3.781   6.977   3.050
 5679SOL     OW17935   2.302   6.724   4.932
 5679SOL    HW117936   2.346   6.773   5.007
 5679SOL    HW217937   2.212   6.764   4.915
 5680SOL     OW17938   1.826   5.594   6.509
 5680SOL    HW117939   1.775   5.591   6.424
 5680SOL    HW217940   1.923   5.609   6.490
 5681SOL     OW17941   1.184   2.125   6.342
 5681SOL    HW117942   1.164   2.217   6.311
 5681SOL    HW217943   1.188   2.063   6.263
 5682SOL     OW17944   1.656   2.744   5.796
 5682SOL    HW117945   1.624   2.798   5.718
 5682SOL    HW217946   1.610   2.655   5.797
 5683SOL     OW17947   3.400   2.790   6.610
 5683SOL    HW117948   3.302   2.778   6.591
 5683SOL    HW217949   3.453   2.730   6.551
 5684SOL     OW17950   3.791   3.531   3.523
 5684SOL    HW117951   3.832   3.445   3.554
 5684SOL    HW217952   3.822   3.606   3.582
 5685SOL     OW17953   0.236   4.770   2.510
 5685SOL    HW117954   0.309   4.703   2.496
 5685SOL    HW217955   0.148   4.728   2.487
 5686SOL     OW17956   3.614   6.694   0.864
 5686SOL    HW117957   3.569   6.739   0.786
 5686SOL    HW217958   3.710   6.676   0.841
 5687SOL     OW17959   5.373   4.466   5.244
 5687SOL    HW117960   5.387   4.368   5.257
 5687SOL    HW217961   5.462   4.512   5.237
 5688SOL     OW17962   5.638   2.270   1.544
 5688SOL    HW117963   5.681   2.330   1.611
 5688SOL    HW217964   5.589   2.197   1.591
 5689SOL     OW17965   4.744   1.532   0.800
 5689SOL    HW117966   4.681   1.534   0.878
 5689SOL    HW217967   4.752   1.623   0.761
 5690SOL     OW17968   4.557   6.024   0.903
 5690SOL    HW117969   4.489   5.951   0.909
 5690SOL    HW217970   4.612   6.026   0.987
 5691SOL     OW17971   2.609   6.926   2.590
 5691SOL    HW117972   2.608   6.967   2.498
 5691SOL    HW217973   2.704   6.909   2.617
 5692SOL     OW17974   6.604   2.751   5.924
 5692SOL    HW117975   6.635   2.684   5.856
 5692SOL    HW217976   6.678   2.768   5.990
 5693SOL     OW17977   4.605   2.652   2.754
 5693SOL    HW117978   4.584   2.734   2.806
 5693SOL    HW217979   4.691   2.665   2.705
 5694SOL     OW17980   6.950   0.881   3.533
 5694SOL    HW117981   6.943   0.896   3.434
 5694SOL    HW217982   6.954   0.969   3.579
 5695SOL     OW17983   1.399   2.235   3.424
 5695SOL    HW117984   1.319   2.295   3.426
 5695SOL    HW217985   1.462   2.266   3.352
 5696SOL     OW17986   2.410   1.477   5.180
 5696SOL    HW117987   2.360   1.391   5.175
 5696SOL    HW217988   2.504   1.462   5.148
 5697SOL     OW17989   6.822   2.516   0.721
 5697SOL    HW117990   6.842   2.489   0.816
 5697SOL    HW217991   6.784   2.609   0.721
 5698SOL     OW17992   0.931   2.933   2.149
 5698SOL    HW117993   0.978   2.868   2.089
 5698SOL    HW217994   0.837   2.944   2.118
 5699SOL     OW17995   6.418   0.974   4.436
 5699SOL    HW117996   6.334   1.018   4.468
 5699SOL    HW217997   6.395   0.891   4.385
 5700SOL     OW17998   1.600   6.153   4.893
 5700SOL    HW117999   1.525   6.164   4.828
 5700SOL    HW218000   1.581   6.206   4.976
 5701SOL     OW18001   0.179   5.966   2.026
 5701SOL    HW118002   0.217   6.006   2.109
 5701SOL    HW218003   0.215   5.874   2.014
 5702SOL     OW18004   1.898   6.075   6.352
 5702SOL    HW118005   1.997   6.080   6.363
 5702SOL    HW218006   1.870   6.134   6.276
 5703SOL     OW18007   4.363   4.604   0.212
 5703SOL    HW118008   4.379   4.648   0.300
 5703SOL    HW218009   4.348   4.506   0.226
 5704SOL     OW18010   4.601   5.524   3.292
 5704SOL    HW118011   4.682   5.469   3.272
 5704SOL    HW218012   4.525   5.464   3.317
 5705SOL     OW18013   6.007   0.319   0.958
 5705SOL    HW118014   5.960   0.374   1.026
 5705SOL    HW218015   6.097   0.356   0.939
 5706SOL     OW18016   1.489   1.356   0.267
 5706SOL    HW118017   1.433   1.391   0.193
 5706SOL    HW218018   1.545   1.280   0.234
 5707SOL     OW18019   1.954   0.466   6.203
 5707SOL    HW118020   1.997   0.421   6.125
 5707SOL    HW218021   2.023   0.491   6.270
 5708SOL     OW18022   4.964   6.726   2.293
 5708SOL    HW118023   5.031   6.712   2.366
 5708SOL    HW218024   4.894   6.655   2.299
 5709SOL     OW18025   0.926   6.356   3.422
 5709SOL    HW118026   1.007   6.318   3.468
 5709SOL    HW218027   0.857   6.379   3.491
 5710SOL     OW18028   3.103   3.149   5.894
 5710SOL    HW118029   3.197   3.174   5.868
 5710SOL    HW218030   3.055   3.115   5.813
 5711SOL     OW18031   5.313   1.327   3.774
 5711SOL    HW118032   5.287   1.231   3.776
 5711SOL    HW218033   5.236   1.383   3.805
 5712SOL     OW18034   6.933   6.869   5.412
 5712SOL    HW118035   6.947   6.893   5.508
 5712SOL    HW218036   6.889   6.779   5.406
 5713SOL     OW18037   0.105   2.860   1.971
 5713SOL    HW118038   0.116   2.959   1.985
 5713SOL    HW218039   0.191   2.814   1.995
 5714SOL     OW18040   1.619   0.552   6.733
 5714SOL    HW118041   1.701   0.594   6.695
 5714SOL    HW218042   1.539   0.608   6.709
 5715SOL     OW18043   1.647   6.402   2.609
 5715SOL    HW118044   1.556   6.363   2.593
 5715SOL    HW218045   1.641   6.501   2.614
 5716SOL     OW18046   1.574   3.707   6.217
 5716SOL    HW118047   1.613   3.618   6.193
 5716SOL    HW218048   1.623   3.779   6.167
 5717SOL     OW18049   0.876   4.323   1.160
 5717SOL    HW118050   0.824   4.330   1.245
 5717SOL    HW218051   0.966   4.365   1.173
 5718SOL     OW18052   1.734   4.877   6.410
 5718SOL    HW118053   1.820   4.878   6.359
 5718SOL    HW218054   1.668   4.818   6.363
 5719SOL     OW18055   3.427   0.446   6.410
 5719SOL    HW118056   3.508   0.496   6.440
 5719SOL    HW218057   3.418   0.454   6.311
 5720SOL     OW18058   0.892   5.405   5.109
 5720SOL    HW118059   0.820   5.376   5.047
 5720SOL    HW218060   0.863   5.490   5.155
 5721SOL     OW18061   0.769   2.788   0.640
 5721SOL    HW118062   0.789   2.829   0.551
 5721SOL    HW218063   0.725   2.699   0.626
 5722SOL     OW18064   5.396   0.538   5.257
 5722SOL    HW118065   5.466   0.607   5.235
 5722SOL    HW218066   5.403   0.462   5.193
 5723SOL     OW18067   3.908   5.589   0.306
 5723SOL    HW118068   4.003   5.578   0.276
 5723SOL    HW218069   3.849   5.528   0.253
 5724SOL     OW18070   5.130   2.472   6.013
 5724SOL    HW118071   5.152   2.569   6.026
 5724SOL    HW218072   5.118   2.453   5.916
 5725SOL     OW18073   5.211   5.269   4.289
 5725SOL    HW118074   5.116   5.276   4.260
 5725SOL    HW218075   5.267   5.332   4.235
 5726SOL     OW18076   5.624   3.879   6.073
 5726SOL    HW118077   5.660   3.790   6.101
 5726SOL    HW218078   5.686   3.921   6.007
 5727SOL     OW18079   5.878   2.152   3.241
 5727SOL    HW118080   5.889   2.251   3.227
 5727SOL    HW218081   5.920   2.125   3.327
 5728SOL     OW18082   6.379   1.442   5.281
 5728SOL    HW118083   6.398   1.447   5.379
 5728SOL    HW218084   6.341   1.352   5.259
 5729SOL     OW18085   6.781   1.883   6.484
 5729SOL    HW118086   6.813   1.927   6.568
 5729SOL    HW218087   6.842   1.807   6.461
 5730SOL     OW18088   3.771   6.097   5.366
 5730SOL    HW118089   3.743   6.187   5.332
 5730SOL    HW218090   3.870   6.099   5.385
 5731SOL     OW18091   2.004   6.778   4.390
 5731SOL    HW118092   2.037   6.723   4.467
 5731SOL    HW218093   2.061   6.761   4.310
 5732SOL     OW18094   6.168   4.522   4.650
 5732SOL    HW118095   6.174   4.543   4.748
 5732SOL    HW218096   6.217   4.592   4.598
 5733SOL     OW18097   3.330   1.015   0.398
 5733SOL    HW118098   3.284   1.084   0.341
 5733SOL    HW218099   3.261   0.963   0.449
 5734SOL     OW18100   1.797   6.917   5.656
 5734SOL    HW118101   1.825   7.011   5.640
 5734SOL    HW218102   1.835   6.885   5.743
 5735SOL     OW18103   4.180   0.902   2.712
 5735SOL    HW118104   4.273   0.894   2.677
 5735SOL    HW218105   4.120   0.937   2.640
 5736SOL     OW18106   4.707   4.453   6.505
 5736SOL    HW118107   4.750   4.539   6.533
 5736SOL    HW218108   4.687   4.456   6.407
 5737SOL     OW18109   5.312   5.525   1.485
 5737SOL    HW118110   5.229   5.536   1.540
 5737SOL    HW218111   5.298   5.451   1.419
 5738SOL     OW18112   3.619   1.250   6.678
 5738SOL    HW118113   3.651   1.158   6.702
 5738SOL    HW218114   3.623   1.309   6.758
 5739SOL     OW18115   2.154   0.133   5.899
 5739SOL    HW118116   2.084   0.184   5.948
 5739SOL    HW218117   2.228   0.194   5.872
 5740SOL     OW18118   5.336   3.692   0.936
 5740SOL    HW118119   5.416   3.685   0.996
 5740SOL    HW218120   5.288   3.604   0.933
 5741SOL     OW18121   0.799   4.047   4.452
 5741SOL    HW118122   0.893   4.068   4.477
 5741SOL    HW218123   0.796   4.008   4.360
 5742SOL     OW18124   3.965   0.214   3.487
 5742SOL    HW118125   3.888   0.241   3.429
 5742SOL    HW218126   4.009   0.295   3.525
 5743SOL     OW18127   3.840   4.407   5.605
 5743SOL    HW118128   3.806   4.333   5.663
 5743SOL    HW218129   3.864   4.370   5.515
 5744SOL     OW18130   5.758   0.184   2.861
 5744SOL    HW118131   5.738   0.233   2.776
 5744SOL    HW218132   5.677   0.185   2.920
 5745SOL     OW18133   2.398   2.551   3.926
 5745SOL    HW118134   2.324   2.486   3.946
 5745SOL    HW218135   2.425   2.541   3.830
 5746SOL     OW18136   3.386   0.524   3.178
 5746SOL    HW118137   3.441   0.606   3.164
 5746SOL    HW218138   3.406   0.485   3.268
 5747SOL     OW18139   1.401   5.879   1.603
 5747SOL    HW118140   1.434   5.845   1.691
 5747SOL    HW218141   1.461   5.950   1.569
 5748SOL     OW18142   0.310   5.884   0.414
 5748SOL    HW118143   0.293   5.916   0.320
 5748SOL    HW218144   0.409   5.876   0.429
 5749SOL     OW18145   1.864   6.668   5.389
 5749SOL    HW118146   1.964   6.676   5.393
 5749SOL    HW218147   1.838   6.627   5.301
 5750SOL     OW18148   6.709   4.258   4.324
 5750SOL    HW118149   6.623   4.260   4.274
 5750SOL    HW218150   6.703   4.191   4.398
 5751SOL     OW18151   2.203   4.030   4.138
 5751SOL    HW118152   2.208   4.013   4.039
 5751SOL    HW218153   2.109   4.056   4.162
 5752SOL     OW18154   5.234   6.897   0.967
 5752SOL    HW118155   5.200   6.851   0.886
 5752SOL    HW218156   5.218   6.996   0.958
 5753SOL     OW18157   2.927   3.845   4.911
 5753SOL    HW118158   2.840   3.862   4.957
 5753SOL    HW218159   2.982   3.783   4.968
 5754SOL     OW18160   1.288   6.218   1.612
 5754SOL    HW118161   1.261   6.280   1.538
 5754SOL    HW218162   1.368   6.165   1.584
 5755SOL     OW18163   2.337   2.504   0.105
 5755SOL    HW118164   2.260   2.450   0.138
 5755SOL    HW218165   2.350   2.487   0.007
 5756SOL     OW18166   6.615   6.858   1.898
 5756SOL    HW118167   6.616   6.764   1.864
 5756SOL    HW218168   6.614   6.922   1.821
 5757SOL     OW18169   6.641   5.903   3.764
 5757SOL    HW118170   6.572   5.973   3.747
 5757SOL    HW218171   6.703   5.935   3.836
 5758SOL     OW18172   1.561   6.575   2.883
 5758SOL    HW118173   1.588   6.647   2.818
 5758SOL    HW218174   1.500   6.510   2.837
 5759SOL     OW18175   4.272   6.900   1.779
 5759SOL    HW118176   4.199   6.923   1.715
 5759SOL    HW218177   4.267   6.803   1.802
 5760SOL     OW18178   6.673   3.610   2.120
 5760SOL    HW118179   6.620   3.693   2.105
 5760SOL    HW218180   6.759   3.614   2.068
 5761SOL     OW18181   5.480   5.842   4.647
 5761SOL    HW118182   5.504   5.867   4.553
 5761SOL    HW218183   5.560   5.853   4.706
 5762SOL     OW18184   5.577   4.511   0.288
 5762SOL    HW118185   5.673   4.527   0.263
 5762SOL    HW218186   5.536   4.448   0.223
 5763SOL     OW18187   5.139   0.142   0.335
 5763SOL    HW118188   5.081   0.192   0.270
 5763SOL    HW218189   5.086   0.070   0.378
 5764SOL     OW18190   4.597   5.340   3.677
 5764SOL    HW118191   4.599   5.242   3.693
 5764SOL    HW218192   4.556   5.386   3.755
 5765SOL     OW18193   6.524   4.967   0.675
 5765SOL    HW118194   6.487   4.936   0.587
 5765SOL    HW218195   6.620   4.942   0.681
 5766SOL     OW18196   1.231   1.595   4.767
 5766SOL    HW118197   1.252   1.693   4.772
 5766SOL    HW218198   1.191   1.574   4.678
 5767SOL     OW18199   1.869   0.928   0.438
 5767SOL    HW118200   1.830   0.872   0.365
 5767SOL    HW218201   1.832   0.900   0.526
 5768SOL     OW18202   0.010   6.937   3.362
 5768SOL    HW118203   0.083   6.990   3.405
 5768SOL    HW218204   0.049   6.878   3.291
 5769SOL     OW18205   2.114   5.415   6.782
 5769SOL    HW118206   2.150   5.505   6.806
 5769SOL    HW218207   2.109   5.407   6.682
 5770SOL     OW18208   1.014   6.175   0.380
 5770SOL    HW118209   1.030   6.208   0.288
 5770SOL    HW218210   1.036   6.077   0.385
 5771SOL     OW18211   1.976   5.772   3.907
 5771SOL    HW118212   2.069   5.811   3.904
 5771SOL    HW218213   1.924   5.807   3.830
 5772SOL     OW18214   4.728   0.783   1.873
 5772SOL    HW118215   4.697   0.859   1.816
 5772SOL    HW218216   4.769   0.713   1.814
 5773SOL     OW18217   5.046   2.032   2.633
 5773SOL    HW118218   4.958   2.076   2.611
 5773SOL    HW218219   5.081   2.069   2.719
 5774SOL     OW18220   1.732   6.972   4.671
 5774SOL    HW118221   1.706   0.029   4.607
 5774SOL    HW218222   1.671   6.893   4.658
 5775SOL     OW18223   0.807   5.849   2.670
 5775SOL    HW118224   0.707   5.858   2.672
 5775SOL    HW218225   0.842   5.852   2.764
 5776SOL     OW18226   1.638   0.539   2.912
 5776SOL    HW118227   1.621   0.606   2.840
 5776SOL    HW218228   1.722   0.563   2.961
 5777SOL     OW18229   1.364   0.267   3.197
 5777SOL    HW118230   1.282   0.218   3.226
 5777SOL    HW218231   1.341   0.328   3.121
 5778SOL     OW18232   1.075   1.265   0.117
 5778SOL    HW118233   1.154   1.277   0.057
 5778SOL    HW218234   1.030   1.179   0.096
 5779SOL     OW18235   4.811   2.449   6.963
 5779SOL    HW118236   4.901   2.488   6.945
 5779SOL    HW218237   4.787   2.385   6.890
 5780SOL     OW18238   6.065   5.653   4.770
 5780SOL    HW118239   5.967   5.642   4.785
 5780SOL    HW218240   6.098   5.579   4.711
 5781SOL     OW18241   6.672   4.559   5.276
 5781SOL    HW118242   6.738   4.530   5.345
 5781SOL    HW218243   6.583   4.573   5.320
 5782SOL     OW18244   0.637   1.421   0.138
 5782SOL    HW118245   0.660   1.508   0.183
 5782SOL    HW218246   0.601   1.357   0.206
 5783SOL     OW18247   1.594   1.532   2.163
 5783SOL    HW118248   1.656   1.506   2.236
 5783SOL    HW218249   1.611   1.628   2.137
 5784SOL     OW18250   0.482   5.710   6.716
 5784SOL    HW118251   0.401   5.652   6.710
 5784SOL    HW218252   0.507   5.723   6.811
 5785SOL     OW18253   2.747   2.027   0.167
 5785SOL    HW118254   2.714   2.064   0.253
 5785SOL    HW218255   2.751   1.927   0.173
 5786SOL     OW18256   6.446   4.192   0.473
 5786SOL    HW118257   6.390   4.274   0.475
 5786SOL    HW218258   6.396   4.118   0.428
 5787SOL     OW18259   2.152   1.635   5.859
 5787SOL    HW118260   2.209   1.665   5.936
 5787SOL    HW218261   2.151   1.706   5.789
 5788SOL     OW18262   2.465   1.198   2.681
 5788SOL    HW118263   2.442   1.214   2.777
 5788SOL    HW218264   2.408   1.255   2.623
 5789SOL     OW18265   3.564   5.119   6.299
 5789SOL    HW118266   3.531   5.113   6.393
 5789SOL    HW218267   3.587   5.214   6.278
 5790SOL     OW18268   0.329   3.568   4.302
 5790SOL    HW118269   0.394   3.517   4.359
 5790SOL    HW218270   0.239   3.566   4.346
 5791SOL     OW18271   3.477   0.251   2.223
 5791SOL    HW118272   3.570   0.280   2.202
 5791SOL    HW218273   3.476   0.153   2.243
 5792SOL     OW18274   0.618   2.460   3.004
 5792SOL    HW118275   0.535   2.422   2.962
 5792SOL    HW218276   0.596   2.493   3.096
 5793SOL     OW18277   5.789   1.360   3.567
 5793SOL    HW118278   5.844   1.281   3.538
 5793SOL    HW218279   5.706   1.365   3.512
 5794SOL     OW18280   3.787   2.299   0.517
 5794SOL    HW118281   3.861   2.257   0.464
 5794SOL    HW218282   3.699   2.260   0.488
 5795SOL     OW18283   6.017   5.381   5.508
 5795SOL    HW118284   5.965   5.432   5.576
 5795SOL    HW218285   6.103   5.349   5.549
 5796SOL     OW18286   3.887   0.910   0.193
 5796SOL    HW118287   3.790   0.885   0.205
 5796SOL    HW218288   3.900   1.006   0.217
 5797SOL     OW18289   4.208   1.533   4.466
 5797SOL    HW118290   4.169   1.548   4.376
 5797SOL    HW218291   4.184   1.608   4.527
 5798SOL     OW18292   0.559   4.231   5.564
 5798SOL    HW118293   0.619   4.197   5.636
 5798SOL    HW218294   0.608   4.232   5.477
 5799SOL     OW18295   5.498   0.845   3.886
 5799SOL    HW118296   5.423   0.793   3.927
 5799SOL    HW218297   5.543   0.790   3.815
 5800SOL     OW18298   5.544   6.228   0.823
 5800SOL    HW118299   5.569   6.195   0.732
 5800SOL    HW218300   5.492   6.157   0.870
 5801SOL     OW18301   0.987   2.140   4.506
 5801SOL    HW118302   1.061   2.092   4.460
 5801SOL    HW218303   0.983   2.234   4.472
 5802SOL     OW18304   0.794   4.633   0.089
 5802SOL    HW118305   0.778   4.536   0.109
 5802SOL    HW218306   0.711   4.685   0.107
 5803SOL     OW18307   1.542   4.827   1.511
 5803SOL    HW118308   1.636   4.793   1.513
 5803SOL    HW218309   1.537   4.905   1.448
 5804SOL     OW18310   6.196   4.280   3.604
 5804SOL    HW118311   6.258   4.304   3.678
 5804SOL    HW218312   6.108   4.251   3.641
 5805SOL     OW18313   3.950   4.398   0.136
 5805SOL    HW118314   4.000   4.429   0.217
 5805SOL    HW218315   4.012   4.346   0.076
 5806SOL     OW18316   0.319   6.529   6.907
 5806SOL    HW118317   0.280   6.614   6.945
 5806SOL    HW218318   0.414   6.545   6.882
 5807SOL     OW18319   1.617   3.934   1.786
 5807SOL    HW118320   1.641   3.848   1.742
 5807SOL    HW218321   1.522   3.930   1.818
 5808SOL     OW18322   5.678   4.231   3.160
 5808SOL    HW118323   5.762   4.177   3.168
 5808SOL    HW218324   5.661   4.252   3.063
 5809SOL     OW18325   0.329   2.623   4.949
 5809SOL    HW118326   0.272   2.688   4.998
 5809SOL    HW218327   0.365   2.666   4.866
 5810SOL     OW18328   2.749   0.685   4.063
 5810SOL    HW118329   2.780   0.709   3.971
 5810SOL    HW218330   2.650   0.696   4.069
 5811SOL     OW18331   2.930   0.597   4.841
 5811SOL    HW118332   2.898   0.692   4.839
 5811SOL    HW218333   2.890   0.550   4.920
 5812SOL     OW18334   5.119   0.254   4.669
 5812SOL    HW118335   5.177   0.335   4.658
 5812SOL    HW218336   5.032   0.281   4.710
 5813SOL     OW18337   1.395   1.332   6.623
 5813SOL    HW118338   1.482   1.369   6.593
 5813SOL    HW218339   1.395   1.232   6.611
 5814SOL     OW18340   5.880   4.142   0.731
 5814SOL    HW118341   5.953   4.117   0.794
 5814SOL    HW218342   5.911   4.132   0.637
 5815SOL     OW18343   4.272   2.234   3.841
 5815SOL    HW118344   4.220   2.251   3.757
 5815SOL    HW218345   4.362   2.199   3.817
 5816SOL     OW18346   4.989   6.241   0.475
 5816SOL    HW118347   4.931   6.323   0.474
 5816SOL    HW218348   5.043   6.240   0.559
 5817SOL     OW18349   5.495   2.967   5.742
 5817SOL    HW118350   5.529   3.039   5.802
 5817SOL    HW218351   5.404   2.939   5.772
 5818SOL     OW18352   6.995   6.065   4.764
 5818SOL    HW118353   0.059   6.004   4.765
 5818SOL    HW218354   6.930   6.036   4.833
 5819SOL     OW18355   4.368   0.415   0.202
 5819SOL    HW118356   4.411   0.384   0.287
 5819SOL    HW218357   4.436   0.461   0.146
 5820SOL     OW18358   4.377   7.001   3.692
 5820SOL    HW118359   4.372   0.078   3.652
 5820SOL    HW218360   4.300   6.988   3.754
 5821SOL     OW18361   1.416   0.068   2.464
 5821SOL    HW118362   1.513   0.048   2.474
 5821SOL    HW218363   1.364   0.018   2.534
 5822SOL     OW18364   0.548   1.804   2.124
 5822SOL    HW118365   0.496   1.859   2.058
 5822SOL    HW218366   0.552   1.853   2.211
 5823SOL     OW18367   0.943   0.818   5.731
 5823SOL    HW118368   1.027   0.765   5.730
 5823SOL    HW218369   0.876   0.776   5.670
 5824SOL     OW18370   6.804   6.158   2.735
 5824SOL    HW118371   6.831   6.170   2.639
 5824SOL    HW218372   6.768   6.244   2.770
 5825SOL     OW18373   2.633   2.169   5.709
 5825SOL    HW118374   2.682   2.086   5.736
 5825SOL    HW218375   2.538   2.146   5.688
 5826SOL     OW18376   0.220   5.633   5.300
 5826SOL    HW118377   0.259   5.609   5.389
 5826SOL    HW218378   0.248   5.565   5.232
 5827SOL     OW18379   1.726   5.348   4.436
 5827SOL    HW118380   1.665   5.269   4.440
 5827SOL    HW218381   1.789   5.337   4.359
 5828SOL     OW18382   0.126   3.127   2.024
 5828SOL    HW118383   0.087   3.193   1.960
 5828SOL    HW218384   0.207   3.166   2.067
 5829SOL     OW18385   2.631   1.737   3.075
 5829SOL    HW118386   2.638   1.678   2.994
 5829SOL    HW218387   2.534   1.756   3.093
 5830SOL     OW18388   3.813   0.505   5.373
 5830SOL    HW118389   3.860   0.503   5.284
 5830SOL    HW218390   3.782   0.413   5.396
 5831SOL     OW18391   7.006   0.280   4.050
 5831SOL    HW118392   6.951   0.355   4.086
 5831SOL    HW218393   0.010   0.215   4.123
 5832SOL     OW18394   4.187   3.910   5.372
 5832SOL    HW118395   4.225   3.989   5.420
 5832SOL    HW218396   4.118   3.940   5.306
 5833SOL     OW18397   3.621   3.317   4.597
 5833SOL    HW118398   3.660   3.405   4.623
 5833SOL    HW218399   3.674   3.279   4.521
 5834SOL     OW18400   6.105   1.954   1.041
 5834SOL    HW118401   6.040   2.009   1.092
 5834SOL    HW218402   6.057   1.898   0.974
 5835SOL     OW18403   5.033   2.785   2.703
 5835SOL    HW118404   5.125   2.772   2.668
 5835SOL    HW218405   4.966   2.752   2.636
 5836SOL     OW18406   2.509   6.699   3.299
 5836SOL    HW118407   2.452   6.705   3.217
 5836SOL    HW218408   2.566   6.617   3.294
 5837SOL     OW18409   4.244   4.732   6.196
 5837SOL    HW118410   4.297   4.658   6.155
 5837SOL    HW218411   4.283   4.755   6.285
 5838SOL     OW18412   2.282   1.415   5.779
 5838SOL    HW118413   2.356   1.446   5.718
 5838SOL    HW218414   2.242   1.494   5.826
 5839SOL     OW18415   0.680   2.943   2.421
 5839SOL    HW118416   0.780   2.953   2.422
 5839SOL    HW218417   0.657   2.846   2.416
 5840SOL     OW18418   1.623   5.195   6.738
 5840SOL    HW118419   1.667   5.182   6.827
 5840SOL    HW218420   1.524   5.192   6.750
 5841SOL     OW18421   5.986   2.720   2.296
 5841SOL    HW118422   6.013   2.809   2.333
 5841SOL    HW218423   5.906   2.731   2.236
 5842SOL     OW18424   4.299   3.476   1.615
 5842SOL    HW118425   4.342   3.550   1.565
 5842SOL    HW218426   4.368   3.407   1.640
 5843SOL     OW18427   2.186   3.832   2.312
 5843SOL    HW118428   2.253   3.808   2.242
 5843SOL    HW218429   2.137   3.749   2.341
 5844SOL     OW18430   0.172   6.988   5.842
 5844SOL    HW118431   0.121   6.972   5.757
 5844SOL    HW218432   0.115   6.961   5.920
 5845SOL     OW18433   0.945   0.513   2.853
 5845SOL    HW118434   0.957   0.497   2.951
 5845SOL    HW218435   1.029   0.555   2.816
 5846SOL     OW18436   6.447   3.114   4.663
 5846SOL    HW118437   6.376   3.099   4.595
 5846SOL    HW218438   6.516   3.042   4.656
 5847SOL     OW18439   2.060   1.896   2.411
 5847SOL    HW118440   2.041   1.835   2.335
 5847SOL    HW218441   2.018   1.860   2.495
 5848SOL     OW18442   2.537   4.556   3.312
 5848SOL    HW118443   2.569   4.620   3.242
 5848SOL    HW218444   2.582   4.578   3.399
 5849SOL     OW18445   6.710   0.704   6.092
 5849SOL    HW118446   6.771   0.742   6.161
 5849SOL    HW218447   6.726   0.750   6.005
 5850SOL     OW18448   1.185   3.201   2.115
 5850SOL    HW118449   1.177   3.102   2.123
 5850SOL    HW218450   1.205   3.241   2.205
 5851SOL     OW18451   4.875   3.352   2.752
 5851SOL    HW118452   4.847   3.270   2.702
 5851SOL    HW218453   4.876   3.332   2.850
 5852SOL     OW18454   5.131   6.286   2.983
 5852SOL    HW118455   5.147   6.385   2.984
 5852SOL    HW218456   5.038   6.267   3.016
 5853SOL     OW18457   3.363   6.107   5.624
 5853SOL    HW118458   3.303   6.035   5.658
 5853SOL    HW218459   3.408   6.152   5.701
 5854SOL     OW18460   6.537   3.549   5.786
 5854SOL    HW118461   6.596   3.482   5.831
 5854SOL    HW218462   6.555   3.640   5.824
 5855SOL     OW18463   0.475   0.593   4.766
 5855SOL    HW118464   0.540   0.530   4.722
 5855SOL    HW218465   0.517   0.631   4.848
 5856SOL     OW18466   2.221   5.154   3.715
 5856SOL    HW118467   2.179   5.063   3.720
 5856SOL    HW218468   2.278   5.159   3.633
 5857SOL     OW18469   5.668   2.798   5.266
 5857SOL    HW118470   5.636   2.753   5.182
 5857SOL    HW218471   5.621   2.760   5.345
 5858SOL     OW18472   2.647   2.322   2.095
 5858SOL    HW118473   2.606   2.324   2.004
 5858SOL    HW218474   2.746   2.330   2.087
 5859SOL     OW18475   5.268   6.515   1.028
 5859SOL    HW118476   5.264   6.556   1.120
 5859SOL    HW218477   5.360   6.478   1.012
 5860SOL     OW18478   2.135   3.718   1.884
 5860SOL    HW118479   2.169   3.630   1.915
 5860SOL    HW218480   2.208   3.768   1.838
 5861SOL     OW18481   5.526   1.464   3.883
 5861SOL    HW118482   5.452   1.426   3.827
 5861SOL    HW218483   5.492   1.480   3.975
 5862SOL     OW18484   4.385   5.233   3.171
 5862SOL    HW118485   4.286   5.242   3.172
 5862SOL    HW218486   4.424   5.283   3.248
 5863SOL     OW18487   3.076   0.787   5.126
 5863SOL    HW118488   3.174   0.781   5.107
 5863SOL    HW218489   3.034   0.697   5.111
 5864SOL     OW18490   4.055   4.023   1.685
 5864SOL    HW118491   3.975   4.079   1.709
 5864SOL    HW218492   4.026   3.929   1.668
 5865SOL     OW18493   5.155   0.217   4.207
 5865SOL    HW118494   5.128   0.293   4.148
 5865SOL    HW218495   5.075   0.160   4.227
 5866SOL     OW18496   3.698   6.279   6.309
 5866SOL    HW118497   3.686   6.379   6.316
 5866SOL    HW218498   3.796   6.258   6.306
 5867SOL     OW18499   0.386   3.129   0.968
 5867SOL    HW118500   0.359   3.149   0.873
 5867SOL    HW218501   0.355   3.037   0.993
 5868SOL     OW18502   6.869   0.664   4.821
 5868SOL    HW118503   6.912   0.717   4.748
 5868SOL    HW218504   6.774   0.692   4.831
 5869SOL     OW18505   1.627   5.408   3.578
 5869SOL    HW118506   1.685   5.447   3.650
 5869SOL    HW218507   1.682   5.348   3.519
 5870SOL     OW18508   4.847   5.658   5.127
 5870SOL    HW118509   4.912   5.721   5.169
 5870SOL    HW218510   4.797   5.609   5.199
 5871SOL     OW18511   4.511   3.505   0.524
 5871SOL    HW118512   4.611   3.498   0.531
 5871SOL    HW218513   4.487   3.553   0.440
 5872SOL     OW18514   3.992   5.160   6.910
 5872SOL    HW118515   3.987   5.074   6.963
 5872SOL    HW218516   4.078   5.206   6.930
 5873SOL     OW18517   2.193   2.567   0.825
 5873SOL    HW118518   2.120   2.632   0.804
 5873SOL    HW218519   2.191   2.544   0.922
 5874SOL     OW18520   3.103   2.768   1.309
 5874SOL    HW118521   3.108   2.737   1.214
 5874SOL    HW218522   3.117   2.867   1.312
 5875SOL     OW18523   4.019   1.455   0.581
 5875SOL    HW118524   4.073   1.400   0.518
 5875SOL    HW218525   3.956   1.397   0.632
 5876SOL     OW18526   3.466   3.043   6.644
 5876SOL    HW118527   3.553   3.067   6.601
 5876SOL    HW218528   3.449   2.945   6.632
 5877SOL     OW18529   5.982   6.577   0.990
 5877SOL    HW118530   5.963   6.675   0.992
 5877SOL    HW218531   5.993   6.547   0.895
 5878SOL     OW18532   5.549   6.025   3.168
 5878SOL    HW118533   5.546   6.109   3.113
 5878SOL    HW218534   5.600   5.955   3.118
 5879SOL     OW18535   3.292   2.738   6.011
 5879SOL    HW118536   3.199   2.772   6.003
 5879SOL    HW218537   3.333   2.729   5.920
 5880SOL     OW18538   4.502   4.087   5.769
 5880SOL    HW118539   4.442   4.009   5.749
 5880SOL    HW218540   4.453   4.151   5.828
 5881SOL     OW18541   1.084   6.545   2.616
 5881SOL    HW118542   1.077   6.606   2.538
 5881SOL    HW218543   1.035   6.460   2.596
 5882SOL     OW18544   1.302   6.734   5.941
 5882SOL    HW118545   1.290   6.647   5.893
 5882SOL    HW218546   1.372   6.788   5.895
 5883SOL     OW18547   0.122   2.402   0.458
 5883SOL    HW118548   0.120   2.475   0.526
 5883SOL    HW218549   0.213   2.360   0.457
 5884SOL     OW18550   6.625   0.706   4.541
 5884SOL    HW118551   6.640   0.627   4.601
 5884SOL    HW218552   6.627   0.790   4.595
 5885SOL     OW18553   0.842   5.738   0.537
 5885SOL    HW118554   0.912   5.779   0.478
 5885SOL    HW218555   0.836   5.789   0.622
 5886SOL     OW18556   1.064   3.340   3.554
 5886SOL    HW118557   1.069   3.346   3.653
 5886SOL    HW218558   1.052   3.431   3.515
 5887SOL     OW18559   2.523   1.793   1.862
 5887SOL    HW118560   2.604   1.836   1.901
 5887SOL    HW218561   2.474   1.859   1.805
 5888SOL     OW18562   2.841   0.126   0.870
 5888SOL    HW118563   2.864   0.145   0.966
 5888SOL    HW218564   2.903   0.056   0.834
 5889SOL     OW18565   0.241   1.585   1.302
 5889SOL    HW118566   0.188   1.595   1.218
 5889SOL    HW218567   0.204   1.509   1.356
 5890SOL     OW18568   1.899   6.663   2.259
 5890SOL    HW118569   1.919   6.609   2.341
 5890SOL    HW218570   1.834   6.736   2.283
 5891SOL     OW18571   3.006   3.561   0.451
 5891SOL    HW118572   2.958   3.648   0.458
 5891SOL    HW218573   2.949   3.495   0.402
 5892SOL     OW18574   0.683   4.511   1.103
 5892SOL    HW118575   0.670   4.536   1.007
 5892SOL    HW218576   0.760   4.447   1.111
 5893SOL     OW18577   1.178   5.110   1.074
 5893SOL    HW118578   1.275   5.130   1.059
 5893SOL    HW218579   1.140   5.066   0.993
 5894SOL     OW18580   0.950   5.857   5.395
 5894SOL    HW118581   0.959   5.921   5.318
 5894SOL    HW218582   0.871   5.882   5.450
 5895SOL     OW18583   6.335   3.205   4.282
 5895SOL    HW118584   6.406   3.254   4.230
 5895SOL    HW218585   6.246   3.247   4.263
 5896SOL     OW18586   5.435   1.105   1.479
 5896SOL    HW118587   5.380   1.166   1.536
 5896SOL    HW218588   5.511   1.069   1.532
 5897SOL     OW18589   4.414   1.739   1.671
 5897SOL    HW118590   4.333   1.796   1.685
 5897SOL    HW218591   4.404   1.655   1.724
 5898SOL     OW18592   2.562   1.931   5.919
 5898SOL    HW118593   2.657   1.931   5.889
 5898SOL    HW218594   2.503   1.959   5.843
 5899SOL     OW18595   0.331   5.279   5.949
 5899SOL    HW118596   0.256   5.343   5.968
 5899SOL    HW218597   0.294   5.187   5.938
 5900SOL     OW18598   0.437   5.217   3.140
 5900SOL    HW118599   0.505   5.144   3.150
 5900SOL    HW218600   0.479   5.297   3.097
 5901SOL     OW18601   0.853   0.734   0.390
 5901SOL    HW118602   0.930   0.779   0.343
 5901SOL    HW218603   0.847   0.639   0.361
 5902SOL     OW18604   5.736   3.551   4.710
 5902SOL    HW118605   5.770   3.600   4.790
 5902SOL    HW218606   5.741   3.453   4.727
 5903SOL     OW18607   5.493   3.114   6.974
 5903SOL    HW118608   5.453   3.022   6.986
 5903SOL    HW218609   5.552   3.114   6.894
 5904SOL     OW18610   1.379   4.504   1.177
 5904SOL    HW118611   1.423   4.421   1.143
 5904SOL    HW218612   1.354   4.492   1.273
 5905SOL     OW18613   5.298   0.923   3.553
 5905SOL    HW118614   5.319   0.840   3.501
 5905SOL    HW218615   5.269   0.995   3.490
 5906SOL     OW18616   5.662   1.608   5.146
 5906SOL    HW118617   5.681   1.520   5.102
 5906SOL    HW218618   5.588   1.655   5.098
 5907SOL     OW18619   1.755   0.759   0.608
 5907SOL    HW118620   1.820   0.773   0.682
 5907SOL    HW218621   1.794   0.695   0.542
 5908SOL     OW18622   4.972   3.716   0.299
 5908SOL    HW118623   5.006   3.742   0.209
 5908SOL    HW218624   4.902   3.646   0.289
 5909SOL     OW18625   0.838   4.007   5.351
 5909SOL    HW118626   0.854   3.936   5.282
 5909SOL    HW218627   0.749   4.050   5.334
 5910SOL     OW18628   1.303   4.040   1.017
 5910SOL    HW118629   1.280   4.076   1.107
 5910SOL    HW218630   1.239   3.968   0.992
 5911SOL     OW18631   0.354   5.666   6.299
 5911SOL    HW118632   0.337   5.730   6.374
 5911SOL    HW218633   0.323   5.707   6.213
 5912SOL     OW18634   5.752   3.465   6.552
 5912SOL    HW118635   5.708   3.429   6.469
 5912SOL    HW218636   5.785   3.558   6.535
 5913SOL     OW18637   2.093   2.881   5.771
 5913SOL    HW118638   2.045   2.860   5.856
 5913SOL    HW218639   2.047   2.836   5.695
 5914SOL     OW18640   2.824   5.585   0.079
 5914SOL    HW118641   2.912   5.612   0.039
 5914SOL    HW218642   2.758   5.659   0.066
 5915SOL     OW18643   5.558   3.120   2.351
 5915SOL    HW118644   5.585   3.198   2.294
 5915SOL    HW218645   5.597   3.036   2.313
 5916SOL     OW18646   4.703   0.462   5.771
 5916SOL    HW118647   4.666   0.488   5.682
 5916SOL    HW218648   4.787   0.410   5.758
 5917SOL     OW18649   3.710   2.870   3.599
 5917SOL    HW118650   3.703   2.880   3.698
 5917SOL    HW218651   3.687   2.776   3.573
 5918SOL     OW18652   1.541   3.595   4.441
 5918SOL    HW118653   1.624   3.633   4.482
 5918SOL    HW218654   1.560   3.502   4.407
 5919SOL     OW18655   2.983   2.012   0.911
 5919SOL    HW118656   3.021   2.007   1.004
 5919SOL    HW218657   3.057   2.002   0.845
 5920SOL     OW18658   3.462   6.917   0.209
 5920SOL    HW118659   3.561   6.899   0.213
 5920SOL    HW218660   3.441   7.001   0.258
 5921SOL     OW18661   3.962   5.192   5.190
 5921SOL    HW118662   3.940   5.182   5.287
 5921SOL    HW218663   4.032   5.263   5.179
 5922SOL     OW18664   6.334   4.800   3.198
 5922SOL    HW118665   6.263   4.865   3.173
 5922SOL    HW218666   6.324   4.716   3.145
 5923SOL     OW18667   6.621   0.636   3.288
 5923SOL    HW118668   6.708   0.647   3.239
 5923SOL    HW218669   6.577   0.551   3.260
 5924SOL     OW18670   5.563   2.684   5.003
 5924SOL    HW118671   5.471   2.722   5.006
 5924SOL    HW218672   5.568   2.603   5.062
 5925SOL     OW18673   4.698   5.945   3.024
 5925SOL    HW118674   4.740   5.954   2.934
 5925SOL    HW218675   4.742   5.870   3.073
 5926SOL     OW18676   3.400   5.328   2.063
 5926SOL    HW118677   3.349   5.254   2.018
 5926SOL    HW218678   3.420   5.399   1.996
 5927SOL     OW18679   2.604   5.400   1.526
 5927SOL    HW118680   2.676   5.344   1.485
 5927SOL    HW218681   2.607   5.390   1.626
 5928SOL     OW18682   2.283   0.835   2.215
 5928SOL    HW118683   2.382   0.832   2.223
 5928SOL    HW218684   2.243   0.872   2.299
 5929SOL     OW18685   0.970   6.216   5.693
 5929SOL    HW118686   1.022   6.269   5.760
 5929SOL    HW218687   0.896   6.271   5.656
 5930SOL     OW18688   6.169   1.563   4.152
 5930SOL    HW118689   6.164   1.551   4.053
 5930SOL    HW218690   6.176   1.473   4.196
 5931SOL     OW18691   6.053   5.067   2.138
 5931SOL    HW118692   6.036   5.153   2.091
 5931SOL    HW218693   6.104   5.005   2.078
 5932SOL     OW18694   2.185   6.581   0.921
 5932SOL    HW118695   2.278   6.574   0.958
 5932SOL    HW218696   2.124   6.520   0.971
 5933SOL     OW18697   0.072   3.897   2.170
 5933SOL    HW118698   0.123   3.914   2.255
 5933SOL    HW218699   0.134   3.905   2.092
 5934SOL     OW18700   4.065   3.744   3.091
 5934SOL    HW118701   4.096   3.708   3.179
 5934SOL    HW218702   4.093   3.682   3.018
 5935SOL     OW18703   3.724   4.139   4.500
 5935SOL    HW118704   3.797   4.076   4.527
 5935SOL    HW218705   3.635   4.098   4.522
 5936SOL     OW18706   4.066   4.194   6.607
 5936SOL    HW118707   3.977   4.212   6.649
 5936SOL    HW218708   4.135   4.181   6.678
 5937SOL     OW18709   1.041   3.669   1.644
 5937SOL    HW118710   1.005   3.612   1.717
 5937SOL    HW218711   1.134   3.639   1.620
 5938SOL     OW18712   1.519   5.120   3.531
 5938SOL    HW118713   1.434   5.090   3.574
 5938SOL    HW218714   1.553   5.203   3.576
 5939SOL     OW18715   3.135   0.417   3.172
 5939SOL    HW118716   3.227   0.454   3.183
 5939SOL    HW218717   3.075   0.486   3.131
 5940SOL     OW18718   3.707   6.781   2.120
 5940SOL    HW118719   3.766   6.829   2.054
 5940SOL    HW218720   3.612   6.793   2.093
 5941SOL     OW18721   6.186   4.704   2.100
 5941SOL    HW118722   6.200   4.609   2.128
 5941SOL    HW218723   6.100   4.712   2.050
 5942SOL     OW18724   4.183   3.110   6.719
 5942SOL    HW118725   4.256   3.041   6.725
 5942SOL    HW218726   4.207   3.188   6.776
 5943SOL     OW18727   2.505   6.343   0.493
 5943SOL    HW118728   2.524   6.367   0.398
 5943SOL    HW218729   2.409   6.360   0.513
 5944SOL     OW18730   5.590   1.418   1.576
 5944SOL    HW118731   5.505   1.413   1.524
 5944SOL    HW218732   5.582   1.363   1.659
 5945SOL     OW18733   6.744   4.778   5.156
 5945SOL    HW118734   6.740   4.695   5.211
 5945SOL    HW218735   6.723   4.858   5.213
 5946SOL     OW18736   3.209   3.909   5.995
 5946SOL    HW118737   3.264   3.993   5.994
 5946SOL    HW218738   3.235   3.852   5.917
 5947SOL     OW18739   4.159   3.076   1.771
 5947SOL    HW118740   4.167   3.174   1.756
 5947SOL    HW218741   4.127   3.058   1.864
 5948SOL     OW18742   3.541   5.259   2.963
 5948SOL    HW118743   3.550   5.325   2.889
 5948SOL    HW218744   3.607   5.185   2.950
 5949SOL     OW18745   3.687   4.734   1.041
 5949SOL    HW118746   3.633   4.789   0.978
 5949SOL    HW218747   3.626   4.686   1.104
 5950SOL     OW18748   5.593   2.196   4.724
 5950SOL    HW118749   5.576   2.242   4.637
 5950SOL    HW218750   5.638   2.108   4.707
 5951SOL     OW18751   1.480   6.628   4.675
 5951SOL    HW118752   1.422   6.678   4.611
 5951SOL    HW218753   1.445   6.535   4.685
 5952SOL     OW18754   6.268   5.996   3.686
 5952SOL    HW118755   6.271   5.990   3.586
 5952SOL    HW218756   6.221   5.916   3.723
 5953SOL     OW18757   0.048   3.274   5.098
 5953SOL    HW118758   0.142   3.254   5.070
 5953SOL    HW218759   7.010   3.189   5.100
 5954SOL     OW18760   6.858   4.820   5.661
 5954SOL    HW118761   6.836   4.902   5.607
 5954SOL    HW218762   6.871   4.742   5.600
 5955SOL     OW18763   5.917   5.718   2.075
 5955SOL    HW118764   5.947   5.807   2.108
 5955SOL    HW218765   5.824   5.699   2.109
 5956SOL     OW18766   3.955   1.917   0.336
 5956SOL    HW118767   3.898   1.980   0.283
 5956SOL    HW218768   3.941   1.823   0.303
 5957SOL     OW18769   4.763   6.730   6.165
 5957SOL    HW118770   4.825   6.802   6.134
 5957SOL    HW218771   4.816   6.654   6.202
 5958SOL     OW18772   6.416   6.477   2.064
 5958SOL    HW118773   6.376   6.522   2.144
 5958SOL    HW218774   6.470   6.399   2.093
 5959SOL     OW18775   3.207   2.104   5.537
 5959SOL    HW118776   3.223   2.107   5.438
 5959SOL    HW218777   3.279   2.155   5.584
 5960SOL     OW18778   3.259   0.313   4.426
 5960SOL    HW118779   3.345   0.352   4.394
 5960SOL    HW218780   3.251   0.219   4.392
 5961SOL     OW18781   3.932   1.047   3.973
 5961SOL    HW118782   3.935   0.959   3.925
 5961SOL    HW218783   3.921   1.031   4.071
 5962SOL     OW18784   5.261   5.471   2.541
 5962SOL    HW118785   5.281   5.390   2.485
 5962SOL    HW218786   5.167   5.465   2.574
 5963SOL     OW18787   3.429   3.813   3.760
 5963SOL    HW118788   3.404   3.762   3.843
 5963SOL    HW218789   3.418   3.755   3.680
 5964SOL     OW18790   6.782   5.373   6.263
 5964SOL    HW118791   6.869   5.388   6.311
 5964SOL    HW218792   6.707   5.412   6.317
 5965SOL     OW18793   1.685   1.934   6.865
 5965SOL    HW118794   1.729   2.021   6.889
 5965SOL    HW218795   1.728   1.898   6.782
 5966SOL     OW18796   3.184   5.494   4.934
 5966SOL    HW118797   3.112   5.563   4.943
 5966SOL    HW218798   3.215   5.466   5.025
 5967SOL     OW18799   4.153   6.400   2.296
 5967SOL    HW118800   4.055   6.383   2.304
 5967SOL    HW218801   4.171   6.458   2.216
 5968SOL     OW18802   6.324   2.027   3.177
 5968SOL    HW118803   6.380   1.945   3.159
 5968SOL    HW218804   6.252   2.033   3.108
 5969SOL     OW18805   6.239   3.088   4.501
 5969SOL    HW118806   6.270   3.115   4.409
 5969SOL    HW218807   6.171   3.153   4.534
 5970SOL     OW18808   0.873   3.788   2.309
 5970SOL    HW118809   0.783   3.800   2.350
 5970SOL    HW218810   0.878   3.838   2.223
 5971SOL     OW18811   1.637   0.224   3.129
 5971SOL    HW118812   1.540   0.242   3.116
 5971SOL    HW218813   1.671   0.277   3.207
 5972SOL     OW18814   4.539   6.398   0.550
 5972SOL    HW118815   4.619   6.455   0.569
 5972SOL    HW218816   4.507   6.356   0.635
 5973SOL     OW18817   1.891   5.126   2.373
 5973SOL    HW118818   1.832   5.205   2.389
 5973SOL    HW218819   1.838   5.042   2.383
 5974SOL     OW18820   6.169   3.860   6.327
 5974SOL    HW118821   6.082   3.869   6.278
 5974SOL    HW218822   6.185   3.942   6.382
 5975SOL     OW18823   4.088   2.633   1.209
 5975SOL    HW118824   4.040   2.590   1.286
 5975SOL    HW218825   4.161   2.691   1.244
 5976SOL     OW18826   3.211   2.922   4.442
 5976SOL    HW118827   3.288   2.865   4.414
 5976SOL    HW218828   3.170   2.964   4.361
 5977SOL     OW18829   1.340   4.398   1.640
 5977SOL    HW118830   1.436   4.400   1.670
 5977SOL    HW218831   1.294   4.319   1.680
 5978SOL     OW18832   4.904   4.370   2.864
 5978SOL    HW118833   4.995   4.396   2.833
 5978SOL    HW218834   4.866   4.442   2.922
 5979SOL     OW18835   6.172   0.172   3.290
 5979SOL    HW118836   6.196   0.252   3.345
 5979SOL    HW218837   6.210   0.090   3.332
 5980SOL     OW18838   4.139   4.233   6.974
 5980SOL    HW118839   4.150   4.138   7.002
 5980SOL    HW218840   4.229   4.277   6.971
 5981SOL     OW18841   6.817   1.823   1.790
 5981SOL    HW118842   6.764   1.774   1.721
 5981SOL    HW218843   6.810   1.922   1.774
 5982SOL     OW18844   6.154   2.042   6.598
 5982SOL    HW118845   6.107   2.081   6.519
 5982SOL    HW218846   6.086   2.015   6.667
 5983SOL     OW18847   2.056   1.571   4.284
 5983SOL    HW118848   2.003   1.616   4.212
 5983SOL    HW218849   2.002   1.499   4.326
 5984SOL     OW18850   0.186   6.425   4.475
 5984SOL    HW118851   0.138   6.388   4.395
 5984SOL    HW218852   0.127   6.418   4.555
 5985SOL     OW18853   5.400   1.982   3.541
 5985SOL    HW118854   5.321   1.920   3.538
 5985SOL    HW218855   5.465   1.956   3.469
 5986SOL     OW18856   3.381   3.110   3.812
 5986SOL    HW118857   3.373   3.086   3.715
 5986SOL    HW218858   3.404   3.207   3.820
 5987SOL     OW18859   4.564   0.886   5.101
 5987SOL    HW118860   4.648   0.939   5.117
 5987SOL    HW218861   4.588   0.792   5.077
 5988SOL     OW18862   4.063   0.043   4.760
 5988SOL    HW118863   4.038   6.961   4.761
 5988SOL    HW218864   4.062   0.076   4.666
 5989SOL     OW18865   2.533   6.258   6.526
 5989SOL    HW118866   2.475   6.291   6.451
 5989SOL    HW218867   2.540   6.329   6.595
 5990SOL     OW18868   3.729   4.267   0.766
 5990SOL    HW118869   3.714   4.286   0.669
 5990SOL    HW218870   3.765   4.175   0.777
 5991SOL     OW18871   4.303   5.082   5.125
 5991SOL    HW118872   4.375   5.052   5.063
 5991SOL    HW218873   4.240   5.142   5.076
 5992SOL     OW18874   3.342   1.111   4.332
 5992SOL    HW118875   3.369   1.062   4.414
 5992SOL    HW218876   3.356   1.054   4.252
 5993SOL     OW18877   3.481   6.597   5.130
 5993SOL    HW118878   3.425   6.534   5.183
 5993SOL    HW218879   3.477   6.572   5.033
 5994SOL     OW18880   6.199   2.444   1.793
 5994SOL    HW118881   6.099   2.437   1.800
 5994SOL    HW218882   6.241   2.414   1.878
 5995SOL     OW18883   0.515   4.879   1.397
 5995SOL    HW118884   0.435   4.820   1.386
 5995SOL    HW218885   0.493   4.971   1.366
 5996SOL     OW18886   0.649   5.920   6.587
 5996SOL    HW118887   0.606   5.839   6.627
 5996SOL    HW218888   0.697   5.894   6.503
 5997SOL     OW18889   0.433   0.138   2.069
 5997SOL    HW118890   0.488   0.126   2.152
 5997SOL    HW218891   0.492   0.160   1.992
 5998SOL     OW18892   5.695   2.498   2.716
 5998SOL    HW118893   5.600   2.466   2.718
 5998SOL    HW218894   5.745   2.457   2.792
 5999SOL     OW18895   0.878   1.812   3.295
 5999SOL    HW118896   0.813   1.741   3.318
 5999SOL    HW218897   0.855   1.851   3.205
 6000SOL     OW18898   3.955   5.440   2.174
 6000SOL    HW118899   3.995   5.349   2.171
 6000SOL    HW218900   3.909   5.454   2.262
 6001SOL     OW18901   0.025   3.264   6.844
 6001SOL    HW118902   6.970   3.297   6.781
 6001SOL    HW218903   0.028   3.324   6.924
 6002SOL     OW18904   0.128   6.545   1.017
 6002SOL    HW118905   0.161   6.595   1.097
 6002SOL    HW218906   0.201   6.488   0.981
 6003SOL     OW18907   5.536   3.533   4.980
 6003SOL    HW118908   5.595   3.589   5.037
 6003SOL    HW218909   5.551   3.436   4.999
 6004SOL     OW18910   0.428   3.869   3.295
 6004SOL    HW118911   0.515   3.881   3.248
 6004SOL    HW218912   0.423   3.932   3.373
 6005SOL     OW18913   4.372   5.326   4.150
 6005SOL    HW118914   4.336   5.405   4.199
 6005SOL    HW218915   4.450   5.353   4.094
 6006SOL     OW18916   3.395   0.276   6.966
 6006SOL    HW118917   3.400   0.374   6.950
 6006SOL    HW218918   3.454   0.228   6.901
 6007SOL     OW18919   5.190   2.985   3.467
 6007SOL    HW118920   5.279   2.953   3.434
 6007SOL    HW218921   5.150   3.047   3.399
 6008SOL     OW18922   3.219   5.600   5.783
 6008SOL    HW118923   3.209   5.503   5.762
 6008SOL    HW218924   3.262   5.611   5.873
 6009SOL     OW18925   2.642   1.887   4.929
 6009SOL    HW118926   2.664   1.918   4.837
 6009SOL    HW218927   2.571   1.817   4.925
 6010SOL     OW18928   1.837   4.474   2.290
 6010SOL    HW118929   1.757   4.514   2.246
 6010SOL    HW218930   1.809   4.426   2.373
 6011SOL     OW18931   5.232   2.278   1.863
 6011SOL    HW118932   5.173   2.355   1.887
 6011SOL    HW218933   5.254   2.281   1.766
 6012SOL     OW18934   6.510   1.980   6.928
 6012SOL    HW118935   6.434   1.956   6.868
 6012SOL    HW218936   6.517   2.080   6.936
 6013SOL     OW18937   6.110   1.864   2.116
 6013SOL    HW118938   6.171   1.800   2.071
 6013SOL    HW218939   6.115   1.953   2.071
 6014SOL     OW18940   5.491   1.467   0.606
 6014SOL    HW118941   5.575   1.457   0.552
 6014SOL    HW218942   5.499   1.546   0.666
 6015SOL     OW18943   6.079   2.914   5.535
 6015SOL    HW118944   6.041   2.912   5.443
 6015SOL    HW218945   6.098   2.820   5.565
 6016SOL     OW18946   0.625   1.167   6.121
 6016SOL    HW118947   0.649   1.205   6.031
 6016SOL    HW218948   0.673   1.217   6.192
 6017SOL     OW18949   5.763   5.508   3.283
 6017SOL    HW118950   5.664   5.520   3.287
 6017SOL    HW218951   5.789   5.428   3.337
 6018SOL     OW18952   3.317   3.056   0.341
 6018SOL    HW118953   3.291   2.960   0.356
 6018SOL    HW218954   3.234   3.111   0.330
 6019SOL     OW18955   4.542   1.626   3.377
 6019SOL    HW118956   4.444   1.619   3.398
 6019SOL    HW218957   4.582   1.534   3.377
 6020SOL     OW18958   3.077   0.022   2.190
 6020SOL    HW118959   3.154   0.007   2.128
 6020SOL    HW218960   3.044   6.949   2.224
 6021SOL     OW18961   4.665   0.406   2.632
 6021SOL    HW118962   4.652   0.321   2.683
 6021SOL    HW218963   4.722   0.468   2.687
 6022SOL     OW18964   5.018   1.061   3.593
 6022SOL    HW118965   5.091   1.041   3.528
 6022SOL    HW218966   5.045   1.030   3.685
 6023SOL     OW18967   6.076   1.007   3.761
 6023SOL    HW118968   6.137   1.083   3.784
 6023SOL    HW218969   6.124   0.920   3.776
 6024SOL     OW18970   0.493   4.654   1.977
 6024SOL    HW118971   0.555   4.615   1.909
 6024SOL    HW218972   0.544   4.711   2.041
 6025SOL     OW18973   4.402   0.463   1.384
 6025SOL    HW118974   4.446   0.504   1.464
 6025SOL    HW218975   4.472   0.441   1.315
 6026SOL     OW18976   0.438   4.715   4.422
 6026SOL    HW118977   0.427   4.630   4.474
 6026SOL    HW218978   0.451   4.792   4.486
 6027SOL     OW18979   1.947   3.973   6.085
 6027SOL    HW118980   2.034   4.005   6.046
 6027SOL    HW218981   1.937   4.010   6.178
 6028SOL     OW18982   1.466   3.955   0.105
 6028SOL    HW118983   1.422   3.881   0.156
 6028SOL    HW218984   1.410   4.037   0.112
 6029SOL     OW18985   2.285   6.595   0.155
 6029SOL    HW118986   2.233   6.514   0.181
 6029SOL    HW218987   2.234   6.677   0.180
 6030SOL     OW18988   2.291   0.746   3.469
 6030SOL    HW118989   2.250   0.783   3.552
 6030SOL    HW218990   2.225   0.755   3.393
 6031SOL     OW18991   4.802   5.706   5.437
 6031SOL    HW118992   4.725   5.768   5.453
 6031SOL    HW218993   4.876   5.754   5.390
 6032SOL     OW18994   1.964   3.306   2.383
 6032SOL    HW118995   1.993   3.218   2.419
 6032SOL    HW218996   1.872   3.327   2.417
 6033SOL     OW18997   2.355   2.276   3.249
 6033SOL    HW118998   2.258   2.251   3.244
 6033SOL    HW218999   2.411   2.198   3.223
 6034SOL     OW19000   2.789   4.848   4.615
 6034SOL    HW119001   2.755   4.805   4.699
 6034SOL    HW219002   2.883   4.879   4.629
 6035SOL     OW19003   5.090   0.990   4.375
 6035SOL    HW119004   5.122   0.985   4.280
 6035SOL    HW219005   5.016   1.057   4.381
 6036SOL     OW19006   0.167   6.948   5.372
 6036SOL    HW119007   0.073   6.930   5.401
 6036SOL    HW219008   0.175   0.027   5.340
 6037SOL     OW19009   4.860   4.709   6.290
 6037SOL    HW119010   4.868   4.807   6.273
 6037SOL    HW219011   4.911   4.658   6.221
 6038SOL     OW19012   0.352   3.112   6.476
 6038SOL    HW119013   0.373   3.161   6.561
 6038SOL    HW219014   0.361   3.174   6.398
 6039SOL     OW19015   3.241   3.457   2.739
 6039SOL    HW119016   3.322   3.402   2.757
 6039SOL    HW219017   3.269   3.549   2.712
 6040SOL     OW19018   0.549   1.527   6.530
 6040SOL    HW119019   0.456   1.490   6.534
 6040SOL    HW219020   0.607   1.478   6.597
 6041SOL     OW19021   1.276   1.984   6.584
 6041SOL    HW119022   1.333   2.025   6.655
 6041SOL    HW219023   1.250   2.054   6.517
 6042SOL     OW19024   5.622   5.192   2.566
 6042SOL    HW119025   5.588   5.144   2.486
 6042SOL    HW219026   5.546   5.213   2.628
 6043SOL     OW19027   1.315   5.133   5.043
 6043SOL    HW119028   1.329   5.208   4.978
 6043SOL    HW219029   1.377   5.058   5.021
 6044SOL     OW19030   0.262   1.855   1.239
 6044SOL    HW119031   0.261   1.769   1.292
 6044SOL    HW219032   0.211   1.842   1.154
 6045SOL     OW19033   5.274   5.627   0.750
 6045SOL    HW119034   5.352   5.564   0.743
 6045SOL    HW219035   5.247   5.636   0.846
 6046SOL     OW19036   3.141   2.509   0.766
 6046SOL    HW119037   3.122   2.496   0.863
 6046SOL    HW219038   3.118   2.425   0.716
 6047SOL     OW19039   5.946   0.877   4.429
 6047SOL    HW119040   5.896   0.928   4.499
 6047SOL    HW219041   5.890   0.872   4.346
 6048SOL     OW19042   3.459   0.136   3.236
 6048SOL    HW119043   3.496   0.056   3.188
 6048SOL    HW219044   3.437   0.110   3.330
 6049SOL     OW19045   4.510   3.190   6.383
 6049SOL    HW119046   4.576   3.160   6.452
 6049SOL    HW219047   4.537   3.155   6.293
 6050SOL     OW19048   4.106   4.374   5.938
 6050SOL    HW119049   4.088   4.446   5.871
 6050SOL    HW219050   4.030   4.309   5.939
 6051SOL     OW19051   2.139   2.484   2.810
 6051SOL    HW119052   2.177   2.467   2.719
 6051SOL    HW219053   2.063   2.548   2.803
 6052SOL     OW19054   6.560   0.308   0.239
 6052SOL    HW119055   6.627   0.381   0.256
 6052SOL    HW219056   6.514   0.326   0.152
 6053SOL     OW19057   3.332   0.587   0.238
 6053SOL    HW119058   3.304   0.624   0.327
 6053SOL    HW219059   3.417   0.534   0.250
 6054SOL     OW19060   2.376   4.224   1.352
 6054SOL    HW119061   2.471   4.234   1.382
 6054SOL    HW219062   2.348   4.129   1.359
 6055SOL     OW19063   5.468   0.715   5.582
 6055SOL    HW119064   5.405   0.764   5.643
 6055SOL    HW219065   5.439   0.727   5.488
 6056SOL     OW19066   4.150   1.538   5.658
 6056SOL    HW119067   4.236   1.494   5.634
 6056SOL    HW219068   4.116   1.498   5.744
 6057SOL     OW19069   4.677   1.620   4.665
 6057SOL    HW119070   4.759   1.676   4.674
 6057SOL    HW219071   4.601   1.663   4.714
 6058SOL     OW19072   5.843   2.884   3.471
 6058SOL    HW119073   5.884   2.971   3.498
 6058SOL    HW219074   5.778   2.856   3.541
 6059SOL     OW19075   4.764   5.428   6.171
 6059SOL    HW119076   4.734   5.403   6.263
 6059SOL    HW219077   4.690   5.409   6.106
 6060SOL     OW19078   3.672   4.239   6.101
 6060SOL    HW119079   3.625   4.326   6.119
 6060SOL    HW219080   3.744   4.226   6.168
 6061SOL     OW19081   3.301   2.298   6.862
 6061SOL    HW119082   3.347   2.266   6.945
 6061SOL    HW219083   3.364   2.355   6.809
 6062SOL     OW19084   2.299   1.551   4.773
 6062SOL    HW119085   2.307   1.625   4.839
 6062SOL    HW219086   2.389   1.509   4.759
 6063SOL     OW19087   4.037   1.011   6.145
 6063SOL    HW119088   4.099   1.088   6.127
 6063SOL    HW219089   3.948   1.030   6.103
 6064SOL     OW19090   1.891   5.480   2.865
 6064SOL    HW119091   1.971   5.451   2.916
 6064SOL    HW219092   1.891   5.438   2.774
 6065SOL     OW19093   6.410   6.582   1.160
 6065SOL    HW119094   6.464   6.590   1.244
 6065SOL    HW219095   6.427   6.493   1.118
 6066SOL     OW19096   4.935   1.439   1.532
 6066SOL    HW119097   4.969   1.497   1.458
 6066SOL    HW219098   4.849   1.396   1.504
 6067SOL     OW19099   6.036   1.905   6.357
 6067SOL    HW119100   6.047   2.002   6.335
 6067SOL    HW219101   5.939   1.883   6.363
 6068SOL     OW19102   5.076   3.147   5.246
 6068SOL    HW119103   5.076   3.067   5.186
 6068SOL    HW219104   4.994   3.144   5.304
 6069SOL     OW19105   6.767   3.810   6.043
 6069SOL    HW119106   6.720   3.813   6.131
 6069SOL    HW219107   6.857   3.853   6.052
 6070SOL     OW19108   3.694   2.232   6.550
 6070SOL    HW119109   3.754   2.304   6.586
 6070SOL    HW219110   3.750   2.156   6.517
 6071SOL     OW19111   4.012   5.778   5.899
 6071SOL    HW119112   4.103   5.738   5.882
 6071SOL    HW219113   4.023   5.867   5.942
 6072SOL     OW19114   1.002   1.590   1.947
 6072SOL    HW119115   1.036   1.605   2.039
 6072SOL    HW219116   0.903   1.602   1.946
 6073SOL     OW19117   6.020   3.096   0.488
 6073SOL    HW119118   6.083   3.138   0.422
 6073SOL    HW219119   6.067   3.024   0.538
 6074SOL     OW19120   0.653   0.035   4.680
 6074SOL    HW119121   0.715   0.060   4.606
 6074SOL    HW219122   0.599   6.970   4.654
 6075SOL     OW19123   6.616   2.696   6.888
 6075SOL    HW119124   6.656   2.755   6.958
 6075SOL    HW219125   6.538   2.647   6.926
 6076SOL     OW19126   2.401   6.865   5.133
 6076SOL    HW119127   2.365   6.954   5.109
 6076SOL    HW219128   2.489   6.876   5.180
 6077SOL     OW19129   4.907   5.740   2.349
 6077SOL    HW119130   4.932   5.663   2.289
 6077SOL    HW219131   4.985   5.763   2.407
 6078SOL     OW19132   3.398   4.992   3.707
 6078SOL    HW119133   3.487   5.037   3.718
 6078SOL    HW219134   3.409   4.910   3.651
 6079SOL     OW19135   2.423   3.601   6.920
 6079SOL    HW119136   2.482   3.521   6.910
 6079SOL    HW219137   2.332   3.581   6.884
 6080SOL     OW19138   6.702   1.939   0.912
 6080SOL    HW119139   6.666   1.891   0.993
 6080SOL    HW219140   6.647   2.020   0.895
 6081SOL     OW19141   6.252   3.909   4.588
 6081SOL    HW119142   6.227   3.846   4.661
 6081SOL    HW219143   6.351   3.921   4.585
 6082SOL     OW19144   3.473   0.477   2.922
 6082SOL    HW119145   3.538   0.545   2.888
 6082SOL    HW219146   3.446   0.502   3.015
 6083SOL     OW19147   1.244   5.283   6.185
 6083SOL    HW119148   1.327   5.234   6.160
 6083SOL    HW219149   1.190   5.227   6.248
 6084SOL     OW19150   6.861   5.118   4.234
 6084SOL    HW119151   6.809   5.047   4.282
 6084SOL    HW219152   6.807   5.153   4.157
 6085SOL     OW19153   6.836   4.446   0.456
 6085SOL    HW119154   6.806   4.455   0.361
 6085SOL    HW219155   6.857   4.350   0.475
 6086SOL     OW19156   3.741   1.161   4.610
 6086SOL    HW119157   3.808   1.137   4.680
 6086SOL    HW219158   3.678   1.230   4.645
 6087SOL     OW19159   5.419   6.911   0.005
 6087SOL    HW119160   5.403   7.010   0.000
 6087SOL    HW219161   5.485   6.885   6.950
 6088SOL     OW19162   6.820   6.264   4.646
 6088SOL    HW119163   6.827   6.280   4.547
 6088SOL    HW219164   6.871   6.182   4.671
 6089SOL     OW19165   0.412   3.516   1.392
 6089SOL    HW119166   0.461   3.533   1.306
 6089SOL    HW219167   0.406   3.601   1.444
 6090SOL     OW19168   0.866   5.950   5.757
 6090SOL    HW119169   0.962   5.925   5.752
 6090SOL    HW219170   0.857   6.050   5.754
 6091SOL     OW19171   0.345   1.322   2.007
 6091SOL    HW119172   0.431   1.280   2.032
 6091SOL    HW219173   0.278   1.252   1.984
 6092SOL     OW19174   2.467   0.961   2.808
 6092SOL    HW119175   2.552   0.915   2.832
 6092SOL    HW219176   2.482   1.022   2.730
 6093SOL     OW19177   1.887   3.064   1.743
 6093SOL    HW119178   1.818   3.060   1.815
 6093SOL    HW219179   1.843   3.086   1.656
 6094SOL     OW19180   1.967   1.486   1.602
 6094SOL    HW119181   2.055   1.440   1.588
 6094SOL    HW219182   1.938   1.529   1.517
 6095SOL     OW19183   4.924   2.708   0.186
 6095SOL    HW119184   4.872   2.781   0.144
 6095SOL    HW219185   4.910   2.710   0.285
 6096SOL     OW19186   5.447   0.912   4.289
 6096SOL    HW119187   5.453   0.908   4.389
 6096SOL    HW219188   5.508   0.844   4.249
 6097SOL     OW19189   2.306   0.575   2.585
 6097SOL    HW119190   2.293   0.476   2.573
 6097SOL    HW219191   2.246   0.624   2.523
 6098SOL     OW19192   1.751   2.381   6.030
 6098SOL    HW119193   1.681   2.311   6.041
 6098SOL    HW219194   1.794   2.401   6.118
 6099SOL     OW19195   5.874   5.710   5.408
 6099SOL    HW119196   5.840   5.697   5.315
 6099SOL    HW219197   5.970   5.682   5.413
 6100SOL     OW19198   6.546   3.785   5.916
 6100SOL    HW119199   6.642   3.801   5.938
 6100SOL    HW219200   6.490   3.803   5.997
 6101SOL     OW19201   6.519   2.304   5.907
 6101SOL    HW119202   6.512   2.219   5.959
 6101SOL    HW219203   6.478   2.378   5.959
 6102SOL     OW19204   2.698   0.895   4.370
 6102SOL    HW119205   2.636   0.878   4.293
 6102SOL    HW219206   2.736   0.809   4.402
 6103SOL     OW19207   6.940   0.396   3.794
 6103SOL    HW119208   6.955   0.348   3.880
 6103SOL    HW219209   7.014   0.462   3.779
 6104SOL     OW19210   5.771   2.188   6.517
 6104SOL    HW119211   5.699   2.219   6.579
 6104SOL    HW219212   5.795   2.093   6.539
 6105SOL     OW19213   3.486   6.375   5.296
 6105SOL    HW119214   3.574   6.406   5.332
 6105SOL    HW219215   3.498   6.339   5.204
 6106SOL     OW19216   2.893   5.169   6.078
 6106SOL    HW119217   2.879   5.266   6.055
 6106SOL    HW219218   2.831   5.144   6.153
 6107SOL     OW19219   2.284   4.744   4.389
 6107SOL    HW119220   2.344   4.823   4.392
 6107SOL    HW219221   2.330   4.668   4.342
 6108SOL     OW19222   1.015   1.649   3.775
 6108SOL    HW119223   1.012   1.748   3.789
 6108SOL    HW219224   1.035   1.629   3.679
 6109SOL     OW19225   5.249   2.369   0.316
 6109SOL    HW119226   5.307   2.436   0.269
 6109SOL    HW219227   5.224   2.297   0.252
 6110SOL     OW19228   2.698   2.824   6.377
 6110SOL    HW119229   2.698   2.911   6.327
 6110SOL    HW219230   2.773   2.825   6.444
 6111SOL     OW19231   0.767   4.751   2.760
 6111SOL    HW119232   0.797   4.811   2.833
 6111SOL    HW219233   0.752   4.804   2.677
 6112SOL     OW19234   1.553   2.020   3.216
 6112SOL    HW119235   1.552   1.940   3.276
 6112SOL    HW219236   1.490   2.004   3.139
 6113SOL     OW19237   1.028   0.736   6.727
 6113SOL    HW119238   1.031   0.696   6.635
 6113SOL    HW219239   0.937   0.722   6.767
 6114SOL     OW19240   5.570   5.488   6.981
 6114SOL    HW119241   5.534   5.501   0.058
 6114SOL    HW219242   5.498   5.453   6.921
 6115SOL     OW19243   4.729   5.335   3.005
 6115SOL    HW119244   4.742   5.410   2.940
 6115SOL    HW219245   4.778   5.355   3.089
 6116SOL     OW19246   2.921   1.060   1.719
 6116SOL    HW119247   2.995   1.004   1.684
 6116SOL    HW219248   2.853   1.074   1.647
 6117SOL     OW19249   5.830   0.066   4.344
 6117SOL    HW119250   5.810   6.994   4.299
 6117SOL    HW219251   5.828   0.140   4.277
 6118SOL     OW19252   6.761   1.858   2.127
 6118SOL    HW119253   6.753   1.759   2.122
 6118SOL    HW219254   6.721   1.890   2.213
 6119SOL     OW19255   0.427   4.539   4.843
 6119SOL    HW119256   0.352   4.593   4.881
 6119SOL    HW219257   0.416   4.443   4.870
 6120SOL     OW19258   2.717   6.387   3.922
 6120SOL    HW119259   2.640   6.364   3.981
 6120SOL    HW219260   2.720   6.486   3.908
 6121SOL     OW19261   0.296   2.772   3.751
 6121SOL    HW119262   0.341   2.796   3.837
 6121SOL    HW219263   0.301   2.850   3.688
 6122SOL     OW19264   3.830   6.159   2.857
 6122SOL    HW119265   3.765   6.220   2.811
 6122SOL    HW219266   3.782   6.108   2.929
 6123SOL     OW19267   6.954   0.696   1.227
 6123SOL    HW119268   0.023   0.717   1.276
 6123SOL    HW219269   6.901   0.629   1.277
 6124SOL     OW19270   4.208   0.246   5.202
 6124SOL    HW119271   4.150   0.181   5.152
 6124SOL    HW219272   4.161   0.275   5.285
 6125SOL     OW19273   2.693   5.658   1.464
 6125SOL    HW119274   2.677   5.719   1.542
 6125SOL    HW219275   2.648   5.570   1.481
 6126SOL     OW19276   5.117   5.654   4.332
 6126SOL    HW119277   5.055   5.670   4.256
 6126SOL    HW219278   5.065   5.649   4.417
 6127SOL     OW19279   3.008   0.003   1.309
 6127SOL    HW119280   3.098   6.996   1.346
 6127SOL    HW219281   2.964   6.935   1.275
 6128SOL     OW19282   6.994   3.432   0.624
 6128SOL    HW119283   6.910   3.486   0.620
 6128SOL    HW219284   0.029   3.443   0.538
 6129SOL     OW19285   6.292   3.725   3.020
 6129SOL    HW119286   6.210   3.778   3.043
 6129SOL    HW219287   6.322   3.674   3.101
 6130SOL     OW19288   6.021   2.826   4.184
 6130SOL    HW119289   6.016   2.800   4.281
 6130SOL    HW219290   5.976   2.755   4.129
 6131SOL     OW19291   6.628   1.273   5.569
 6131SOL    HW119292   6.575   1.357   5.561
 6131SOL    HW219293   6.726   1.294   5.569
 6132SOL     OW19294   4.063   1.807   0.550
 6132SOL    HW119295   3.984   1.790   0.609
 6132SOL    HW219296   4.037   1.866   0.474
 6133SOL     OW19297   0.701   3.229   1.767
 6133SOL    HW119298   0.679   3.132   1.777
 6133SOL    HW219299   0.652   3.267   1.688
 6134SOL     OW19300   3.560   3.297   6.759
 6134SOL    HW119301   3.570   3.396   6.769
 6134SOL    HW219302   3.646   3.252   6.780
 6135SOL     OW19303   6.883   6.976   1.462
 6135SOL    HW119304   6.921   6.884   1.466
 6135SOL    HW219305   6.838   6.991   1.374
 6136SOL     OW19306   0.747   1.189   2.522
 6136SOL    HW119307   0.823   1.201   2.586
 6136SOL    HW219308   0.682   1.264   2.534
 6137SOL     OW19309   3.856   0.443   5.877
 6137SOL    HW119310   3.841   0.464   5.780
 6137SOL    HW219311   3.895   0.522   5.923
 6138SOL     OW19312   3.773   6.538   2.746
 6138SOL    HW119313   3.805   6.632   2.756
 6138SOL    HW219314   3.842   6.484   2.699
 6139SOL     OW19315   1.965   3.522   5.126
 6139SOL    HW119316   1.902   3.486   5.195
 6139SOL    HW219317   1.996   3.448   5.066
 6140SOL     OW19318   0.792   6.872   1.654
 6140SOL    HW119319   0.694   6.882   1.674
 6140SOL    HW219320   0.842   6.947   1.697
 6141SOL     OW19321   6.677   5.939   4.759
 6141SOL    HW119322   6.601   5.874   4.755
 6141SOL    HW219323   6.669   5.994   4.842
 6142SOL     OW19324   6.523   4.397   0.729
 6142SOL    HW119325   6.587   4.321   0.720
 6142SOL    HW219326   6.435   4.362   0.764
 6143SOL     OW19327   6.292   5.064   6.077
 6143SOL    HW119328   6.216   5.055   6.141
 6143SOL    HW219329   6.262   5.036   5.986
 6144SOL     OW19330   0.300   4.248   2.783
 6144SOL    HW119331   0.299   4.219   2.688
 6144SOL    HW219332   0.393   4.276   2.808
 6145SOL     OW19333   4.805   5.473   3.822
 6145SOL    HW119334   4.762   5.563   3.820
 6145SOL    HW219335   4.751   5.409   3.767
 6146SOL     OW19336   4.773   1.293   3.233
 6146SOL    HW119337   4.741   1.362   3.298
 6146SOL    HW219338   4.759   1.202   3.272
 6147SOL     OW19339   2.342   4.859   2.884
 6147SOL    HW119340   2.361   4.818   2.973
 6147SOL    HW219341   2.265   4.812   2.841
 6148SOL     OW19342   6.703   6.313   4.287
 6148SOL    HW119343   6.678   6.408   4.309
 6148SOL    HW219344   6.621   6.259   4.273
 6149SOL     OW19345   3.805   4.889   3.194
 6149SOL    HW119346   3.833   4.956   3.263
 6149SOL    HW219347   3.707   4.872   3.202
 6150SOL     OW19348   4.671   5.505   6.703
 6150SOL    HW119349   4.625   5.480   6.618
 6150SOL    HW219350   4.750   5.564   6.682
 6151SOL     OW19351   5.609   3.257   5.079
 6151SOL    HW119352   5.614   3.165   5.038
 6151SOL    HW219353   5.581   3.249   5.174
 6152SOL     OW19354   5.401   5.184   6.001
 6152SOL    HW119355   5.434   5.092   5.981
 6152SOL    HW219356   5.433   5.211   6.092
 6153SOL     OW19357   4.685   3.988   1.331
 6153SOL    HW119358   4.600   4.037   1.350
 6153SOL    HW219359   4.724   3.954   1.417
 6154SOL     OW19360   5.858   1.725   2.175
 6154SOL    HW119361   5.944   1.755   2.134
 6154SOL    HW219362   5.814   1.658   2.116
 6155SOL     OW19363   1.009   3.639   4.536
 6155SOL    HW119364   1.106   3.623   4.548
 6155SOL    HW219365   0.962   3.551   4.525
 6156SOL     OW19366   5.024   6.236   2.617
 6156SOL    HW119367   5.101   6.251   2.680
 6156SOL    HW219368   4.970   6.320   2.611
 6157SOL     OW19369   2.050   2.502   3.469
 6157SOL    HW119370   1.978   2.472   3.406
 6157SOL    HW219371   2.027   2.472   3.562
 6158SOL     OW19372   4.740   0.678   6.674
 6158SOL    HW119373   4.645   0.649   6.668
 6158SOL    HW219374   4.798   0.614   6.623
 6159SOL     OW19375   5.082   1.409   0.108
 6159SOL    HW119376   5.060   1.346   0.183
 6159SOL    HW219377   5.177   1.439   0.116
 6160SOL     OW19378   5.644   5.656   0.904
 6160SOL    HW119379   5.744   5.653   0.911
 6160SOL    HW219380   5.616   5.742   0.862
 6161SOL     OW19381   5.712   1.211   5.661
 6161SOL    HW119382   5.707   1.205   5.561
 6161SOL    HW219383   5.789   1.156   5.694
 6162SOL     OW19384   1.383   5.316   4.211
 6162SOL    HW119385   1.381   5.370   4.295
 6162SOL    HW219386   1.476   5.282   4.195
 6163SOL     OW19387   5.209   4.788   1.043
 6163SOL    HW119388   5.178   4.694   1.033
 6163SOL    HW219389   5.265   4.796   1.126
 6164SOL     OW19390   1.998   2.132   1.212
 6164SOL    HW119391   2.020   2.222   1.248
 6164SOL    HW219392   2.069   2.067   1.238
 6165SOL     OW19393   4.165   5.888   0.409
 6165SOL    HW119394   4.179   5.802   0.458
 6165SOL    HW219395   4.077   5.927   0.435
 6166SOL     OW19396   3.316   1.410   5.796
 6166SOL    HW119397   3.306   1.486   5.860
 6166SOL    HW219398   3.387   1.432   5.729
 6167SOL     OW19399   0.665   4.851   2.286
 6167SOL    HW119400   0.713   4.823   2.203
 6167SOL    HW219401   0.568   4.866   2.265
 6168SOL     OW19402   0.326   3.610   1.769
 6168SOL    HW119403   0.310   3.680   1.699
 6168SOL    HW219404   0.425   3.595   1.779
 6169SOL     OW19405   1.956   3.870   1.736
 6169SOL    HW119406   1.979   3.967   1.750
 6169SOL    HW219407   2.005   3.814   1.802
 6170SOL     OW19408   0.595   3.516   5.431
 6170SOL    HW119409   0.559   3.600   5.471
 6170SOL    HW219410   0.519   3.452   5.417
 6171SOL     OW19411   0.592   0.585   0.939
 6171SOL    HW119412   0.541   0.514   0.892
 6171SOL    HW219413   0.579   0.576   1.037
 6172SOL     OW19414   0.514   2.572   3.282
 6172SOL    HW119415   0.418   2.545   3.289
 6172SOL    HW219416   0.542   2.618   3.366
 6173SOL     OW19417   6.925   6.278   3.132
 6173SOL    HW119418   6.917   6.180   3.110
 6173SOL    HW219419   6.967   6.289   3.222
 6174SOL     OW19420   5.330   4.859   3.176
 6174SOL    HW119421   5.267   4.836   3.102
 6174SOL    HW219422   5.375   4.946   3.156
 6175SOL     OW19423   3.835   0.658   4.902
 6175SOL    HW119424   3.785   0.728   4.852
 6175SOL    HW219425   3.865   0.587   4.838
 6176SOL     OW19426   3.999   3.948   5.153
 6176SOL    HW119427   3.932   4.022   5.159
 6176SOL    HW219428   3.954   3.864   5.122
 6177SOL     OW19429   5.669   1.597   1.781
 6177SOL    HW119430   5.741   1.538   1.819
 6177SOL    HW219431   5.639   1.560   1.693
 6178SOL     OW19432   5.174   3.655   2.091
 6178SOL    HW119433   5.079   3.626   2.101
 6178SOL    HW219434   5.215   3.668   2.182
 6179SOL     OW19435   6.692   4.861   1.762
 6179SOL    HW119436   6.674   4.902   1.672
 6179SOL    HW219437   6.764   4.792   1.753
 6180SOL     OW19438   2.760   5.194   0.697
 6180SOL    HW119439   2.849   5.198   0.744
 6180SOL    HW219440   2.770   5.229   0.604
 6181SOL     OW19441   4.629   5.082   6.128
 6181SOL    HW119442   4.606   5.114   6.220
 6181SOL    HW219443   4.558   5.020   6.095
 6182SOL     OW19444   3.565   3.235   0.332
 6182SOL    HW119445   3.542   3.213   0.238
 6182SOL    HW219446   3.487   3.214   0.391
 6183SOL     OW19447   1.476   2.104   0.819
 6183SOL    HW119448   1.417   2.173   0.860
 6183SOL    HW219449   1.463   2.104   0.720
 6184SOL     OW19450   2.698   1.172   6.113
 6184SOL    HW119451   2.657   1.215   6.033
 6184SOL    HW219452   2.769   1.232   6.151
 6185SOL     OW19453   3.345   2.922   4.898
 6185SOL    HW119454   3.252   2.889   4.882
 6185SOL    HW219455   3.383   2.877   4.979
 6186SOL     OW19456   6.379   2.043   2.166
 6186SOL    HW119457   6.305   1.986   2.202
 6186SOL    HW219458   6.437   2.075   2.242
 6187SOL     OW19459   4.686   2.669   5.692
 6187SOL    HW119460   4.689   2.624   5.782
 6187SOL    HW219461   4.722   2.607   5.623
 6188SOL     OW19462   2.250   1.797   5.598
 6188SOL    HW119463   2.208   1.824   5.512
 6188SOL    HW219464   2.312   1.720   5.582
 6189SOL     OW19465   3.981   5.701   2.161
 6189SOL    HW119466   4.013   5.725   2.253
 6189SOL    HW219467   3.968   5.602   2.155
 6190SOL     OW19468   6.546   3.159   5.781
 6190SOL    HW119469   6.505   3.108   5.857
 6190SOL    HW219470   6.605   3.231   5.816
 6191SOL     OW19471   2.496   3.755   6.009
 6191SOL    HW119472   2.469   3.817   6.083
 6191SOL    HW219473   2.423   3.754   5.940
 6192SOL     OW19474   2.267   2.122   6.958
 6192SOL    HW119475   2.174   2.155   6.941
 6192SOL    HW219476   2.327   2.153   6.884
 6193SOL     OW19477   5.338   5.366   6.883
 6193SOL    HW119478   5.279   5.444   6.867
 6193SOL    HW219479   5.320   5.296   6.814
 6194SOL     OW19480   6.809   0.426   6.486
 6194SOL    HW119481   6.896   0.379   6.501
 6194SOL    HW219482   6.763   0.386   6.407
 6195SOL     OW19483   6.018   0.676   5.030
 6195SOL    HW119484   6.096   0.688   5.091
 6195SOL    HW219485   6.037   0.601   4.966
 6196SOL     OW19486   5.053   4.466   3.188
 6196SOL    HW119487   5.104   4.530   3.246
 6196SOL    HW219488   5.117   4.418   3.128
 6197SOL     OW19489   2.443   5.269   2.048
 6197SOL    HW119490   2.441   5.171   2.066
 6197SOL    HW219491   2.359   5.296   2.000
 6198SOL     OW19492   5.683   6.316   6.517
 6198SOL    HW119493   5.665   6.413   6.534
 6198SOL    HW219494   5.652   6.291   6.426
 6199SOL     OW19495   0.521   6.950   0.416
 6199SOL    HW119496   0.434   6.925   0.373
 6199SOL    HW219497   0.532   6.898   0.500
 6200SOL     OW19498   1.362   1.380   2.293
 6200SOL    HW119499   1.426   1.448   2.258
 6200SOL    HW219500   1.404   1.290   2.290
 6201SOL     OW19501   6.699   4.078   3.993
 6201SOL    HW119502   6.709   4.176   4.009
 6201SOL    HW219503   6.789   4.038   3.974
 6202SOL     OW19504   6.517   1.902   3.329
 6202SOL    HW119505   6.482   1.972   3.391
 6202SOL    HW219506   6.466   1.817   3.343
 6203SOL     OW19507   6.623   5.686   1.781
 6203SOL    HW119508   6.553   5.705   1.850
 6203SOL    HW219509   6.674   5.769   1.760
 6204SOL     OW19510   1.423   6.432   5.114
 6204SOL    HW119511   1.520   6.418   5.135
 6204SOL    HW219512   1.408   6.528   5.091
 6205SOL     OW19513   4.852   3.888   2.284
 6205SOL    HW119514   4.930   3.901   2.223
 6205SOL    HW219515   4.821   3.978   2.317
 6206SOL     OW19516   5.030   2.050   3.530
 6206SOL    HW119517   5.087   2.007   3.599
 6206SOL    HW219518   4.989   2.133   3.568
 6207SOL     OW19519   1.268   5.679   4.569
 6207SOL    HW119520   1.252   5.765   4.520
 6207SOL    HW219521   1.333   5.694   4.643
 6208SOL     OW19522   3.699   3.098   5.563
 6208SOL    HW119523   3.762   3.132   5.633
 6208SOL    HW219524   3.750   3.040   5.499
 6209SOL     OW19525   3.426   4.620   1.160
 6209SOL    HW119526   3.385   4.685   1.096
 6209SOL    HW219527   3.368   4.614   1.242
 6210SOL     OW19528   4.950   3.324   3.509
 6210SOL    HW119529   5.044   3.350   3.489
 6210SOL    HW219530   4.949   3.253   3.580
 6211SOL     OW19531   5.217   5.521   4.899
 6211SOL    HW119532   5.124   5.540   4.929
 6211SOL    HW219533   5.272   5.604   4.904
 6212SOL     OW19534   2.737   5.228   5.631
 6212SOL    HW119535   2.683   5.144   5.628
 6212SOL    HW219536   2.721   5.276   5.717
 6213SOL     OW19537   4.752   6.233   0.836
 6213SOL    HW119538   4.762   6.241   0.936
 6213SOL    HW219539   4.677   6.170   0.816
 6214SOL     OW19540   5.659   6.054   5.323
 6214SOL    HW119541   5.605   6.127   5.281
 6214SOL    HW219542   5.720   6.094   5.392
 6215SOL     OW19543   5.242   3.194   6.304
 6215SOL    HW119544   5.308   3.195   6.379
 6215SOL    HW219545   5.149   3.190   6.341
 6216SOL     OW19546   5.212   2.653   3.599
 6216SOL    HW119547   5.239   2.744   3.566
 6216SOL    HW219548   5.215   2.588   3.523
 6217SOL     OW19549   1.049   4.679   2.460
 6217SOL    HW119550   1.133   4.635   2.427
 6217SOL    HW219551   0.988   4.610   2.498
 6218SOL     OW19552   4.668   6.358   0.291
 6218SOL    HW119553   4.588   6.355   0.351
 6218SOL    HW219554   4.675   6.272   0.240
 6219SOL     OW19555   0.831   0.901   5.180
 6219SOL    HW119556   0.889   0.856   5.113
 6219SOL    HW219557   0.780   0.832   5.232
 6220SOL     OW19558   3.543   1.094   0.828
 6220SOL    HW119559   3.482   1.149   0.886
 6220SOL    HW219560   3.638   1.117   0.848
 6221SOL     OW19561   6.872   6.094   6.609
 6221SOL    HW119562   6.920   6.141   6.536
 6221SOL    HW219563   6.824   6.014   6.572
 6222SOL     OW19564   5.969   1.210   2.224
 6222SOL    HW119565   5.924   1.288   2.181
 6222SOL    HW219566   5.912   1.175   2.298
 6223SOL     OW19567   0.367   4.735   3.502
 6223SOL    HW119568   0.320   4.650   3.478
 6223SOL    HW219569   0.304   4.794   3.554
 6224SOL     OW19570   4.411   1.819   6.408
 6224SOL    HW119571   4.353   1.897   6.429
 6224SOL    HW219572   4.362   1.734   6.430
 6225SOL     OW19573   4.006   0.558   6.999
 6225SOL    HW119574   3.965   0.486   0.040
 6225SOL    HW219575   3.937   0.593   6.935
 6226SOL     OW19576   1.532   1.084   4.103
 6226SOL    HW119577   1.519   1.084   4.004
 6226SOL    HW219578   1.488   1.004   4.143
 6227SOL     OW19579   2.974   4.450   5.755
 6227SOL    HW119580   2.927   4.451   5.667
 6227SOL    HW219581   3.044   4.379   5.755
 6228SOL     OW19582   2.001   2.545   3.769
 6228SOL    HW119583   2.056   2.463   3.784
 6228SOL    HW219584   1.970   2.580   3.858
 6229SOL     OW19585   0.207   3.695   4.943
 6229SOL    HW119586   0.136   3.649   4.890
 6229SOL    HW219587   0.280   3.630   4.964
 6230SOL     OW19588   0.057   1.344   2.132
 6230SOL    HW119589   0.138   1.386   2.174
 6230SOL    HW219590   7.002   1.414   2.118
 6231SOL     OW19591   6.003   4.121   0.505
 6231SOL    HW119592   6.094   4.078   0.504
 6231SOL    HW219593   5.944   4.075   0.439
 6232SOL     OW19594   5.774   0.518   0.299
 6232SOL    HW119595   5.754   0.540   0.203
 6232SOL    HW219596   5.711   0.448   0.331
 6233SOL     OW19597   0.356   3.329   2.116
 6233SOL    HW119598   0.317   3.396   2.180
 6233SOL    HW219599   0.441   3.365   2.079
 6234SOL     OW19600   6.555   6.539   4.319
 6234SOL    HW119601   6.596   6.629   4.332
 6234SOL    HW219602   6.467   6.536   4.365
 6235SOL     OW19603   6.620   0.929   2.562
 6235SOL    HW119604   6.684   0.861   2.598
 6235SOL    HW219605   6.584   0.896   2.475
 6236SOL     OW19606   0.673   4.576   0.839
 6236SOL    HW119607   0.677   4.489   0.791
 6236SOL    HW219608   0.706   4.649   0.778
 6237SOL     OW19609   3.979   0.068   0.933
 6237SOL    HW119610   3.972   6.988   0.963
 6237SOL    HW219611   4.070   0.103   0.956
 6238SOL     OW19612   2.956   6.396   4.341
 6238SOL    HW119613   2.940   6.305   4.381
 6238SOL    HW219614   2.874   6.451   4.351
 6239SOL     OW19615   5.058   0.540   2.506
 6239SOL    HW119616   5.035   0.479   2.431
 6239SOL    HW219617   5.139   0.594   2.482
 6240SOL     OW19618   3.166   3.482   4.766
 6240SOL    HW119619   3.075   3.442   4.779
 6240SOL    HW219620   3.216   3.429   4.697
 6241SOL     OW19621   2.324   6.542   3.845
 6241SOL    HW119622   2.365   6.453   3.826
 6241SOL    HW219623   2.225   6.532   3.848
 6242SOL     OW19624   2.829   1.915   2.929
 6242SOL    HW119625   2.795   1.825   2.957
 6242SOL    HW219626   2.778   1.947   2.849
 6243SOL     OW19627   5.727   1.686   6.440
 6243SOL    HW119628   5.713   1.778   6.402
 6243SOL    HW219629   5.696   1.618   6.373
 6244SOL     OW19630   4.173   5.050   2.874
 6244SOL    HW119631   4.220   5.084   2.955
 6244SOL    HW219632   4.229   5.070   2.793
 6245SOL     OW19633   0.940   4.233   2.178
 6245SOL    HW119634   0.933   4.133   2.172
 6245SOL    HW219635   0.865   4.274   2.126
 6246SOL     OW19636   1.128   6.682   4.909
 6246SOL    HW119637   1.221   6.719   4.907
 6246SOL    HW219638   1.062   6.757   4.899
 6247SOL     OW19639   6.830   5.566   3.411
 6247SOL    HW119640   6.854   5.587   3.506
 6247SOL    HW219641   6.765   5.490   3.409
 6248SOL     OW19642   3.792   2.989   6.930
 6248SOL    HW119643   3.843   2.980   6.845
 6248SOL    HW219644   3.758   2.899   6.958
 6249SOL     OW19645   6.900   2.504   0.984
 6249SOL    HW119646   6.873   2.408   0.983
 6249SOL    HW219647   6.834   2.556   1.039
 6250SOL     OW19648   0.037   0.155   0.757
 6250SOL    HW119649   6.986   0.133   0.686
 6250SOL    HW219650   7.013   0.135   0.847
 6251SOL     OW19651   3.047   6.847   4.459
 6251SOL    HW119652   3.066   6.780   4.388
 6251SOL    HW219653   3.133   6.885   4.494
 6252SOL     OW19654   2.496   5.254   6.577
 6252SOL    HW119655   2.463   5.164   6.550
 6252SOL    HW219656   2.544   5.247   6.665
 6253SOL     OW19657   2.985   5.171   4.680
 6253SOL    HW119658   2.944   5.232   4.612
 6253SOL    HW219659   3.083   5.193   4.689
 6254SOL     OW19660   0.436   5.805   0.714
 6254SOL    HW119661   0.349   5.846   0.687
 6254SOL    HW219662   0.510   5.850   0.664
 6255SOL     OW19663   0.761   1.735   0.863
 6255SOL    HW119664   0.812   1.809   0.820
 6255SOL    HW219665   0.807   1.709   0.948
 6256SOL     OW19666   4.788   5.694   3.145
 6256SOL    HW119667   4.713   5.644   3.187
 6256SOL    HW219668   4.874   5.669   3.190
 6257SOL     OW19669   4.137   4.318   1.267
 6257SOL    HW119670   4.131   4.414   1.296
 6257SOL    HW219671   4.093   4.260   1.336
 6258SOL     OW19672   4.454   0.300   5.786
 6258SOL    HW119673   4.419   0.211   5.758
 6258SOL    HW219674   4.550   0.308   5.759
 6259SOL     OW19675   2.199   6.884   5.618
 6259SOL    HW119676   2.243   6.899   5.707
 6259SOL    HW219677   2.245   6.938   5.548
 6260SOL     OW19678   1.948   1.043   0.137
 6260SOL    HW119679   2.026   1.051   0.199
 6260SOL    HW219680   1.921   0.947   0.130
 6261SOL     OW19681   4.321   6.661   1.421
 6261SOL    HW119682   4.261   6.736   1.391
 6261SOL    HW219683   4.324   6.590   1.350
 6262SOL     OW19684   6.150   6.208   1.848
 6262SOL    HW119685   6.160   6.260   1.932
 6262SOL    HW219686   6.167   6.111   1.867
 6263SOL     OW19687   0.075   6.243   4.306
 6263SOL    HW119688   7.001   6.217   4.269
 6263SOL    HW219689   0.108   6.173   4.368
 6264SOL     OW19690   0.747   0.204   1.268
 6264SOL    HW119691   0.744   0.123   1.326
 6264SOL    HW219692   0.696   0.279   1.312
 6265SOL     OW19693   4.335   1.910   0.209
 6265SOL    HW119694   4.419   1.857   0.215
 6265SOL    HW219695   4.333   1.979   0.281
 6266SOL     OW19696   3.389   5.462   3.860
 6266SOL    HW119697   3.307   5.404   3.863
 6266SOL    HW219698   3.376   5.534   3.792
 6267SOL     OW19699   1.251   6.753   5.375
 6267SOL    HW119700   1.328   6.710   5.327
 6267SOL    HW219701   1.217   6.691   5.446
 6268SOL     OW19702   3.399   0.607   2.229
 6268SOL    HW119703   3.444   0.567   2.149
 6268SOL    HW219704   3.437   0.698   2.247
 6269SOL     OW19705   5.305   6.641   1.567
 6269SOL    HW119706   5.269   6.551   1.589
 6269SOL    HW219707   5.243   6.712   1.602
 6270SOL     OW19708   1.665   6.228   0.053
 6270SOL    HW119709   1.763   6.220   0.033
 6270SOL    HW219710   1.613   6.220   6.984
 6271SOL     OW19711   6.301   3.321   6.656
 6271SOL    HW119712   6.388   3.333   6.608
 6271SOL    HW219713   6.225   3.343   6.595
 6272SOL     OW19714   5.505   0.213   6.751
 6272SOL    HW119715   5.596   0.240   6.783
 6272SOL    HW219716   5.450   0.185   6.830
 6273SOL     OW19717   0.053   0.070   1.676
 6273SOL    HW119718   0.036   0.041   1.582
 6273SOL    HW219719   6.989   0.047   1.733
 6274SOL     OW19720   3.262   5.774   5.092
 6274SOL    HW119721   3.300   5.739   5.006
 6274SOL    HW219722   3.171   5.735   5.106
 6275SOL     OW19723   2.065   6.188   0.706
 6275SOL    HW119724   2.141   6.151   0.758
 6275SOL    HW219725   2.012   6.113   0.666
 6276SOL     OW19726   1.843   5.090   3.044
 6276SOL    HW119727   1.897   5.167   3.080
 6276SOL    HW219728   1.767   5.072   3.106
 6277SOL     OW19729   5.114   2.472   1.228
 6277SOL    HW119730   5.163   2.391   1.259
 6277SOL    HW219731   5.168   2.554   1.248
 6278SOL     OW19732   2.914   0.447   5.399
 6278SOL    HW119733   2.863   0.526   5.431
 6278SOL    HW219734   3.009   0.453   5.430
 6279SOL     OW19735   3.493   6.355   1.597
 6279SOL    HW119736   3.420   6.349   1.529
 6279SOL    HW219737   3.579   6.324   1.556
 6280SOL     OW19738   0.034   1.666   6.913
 6280SOL    HW119739   0.013   1.570   6.931
 6280SOL    HW219740   6.964   1.717   6.901
 6281SOL     OW19741   6.209   4.145   4.931
 6281SOL    HW119742   6.292   4.201   4.926
 6281SOL    HW219743   6.155   4.157   4.848
 6282SOL     OW19744   0.388   3.324   6.323
 6282SOL    HW119745   0.432   3.408   6.292
 6282SOL    HW219746   0.330   3.288   6.250
 6283SOL     OW19747   1.327   6.197   5.547
 6283SOL    HW119748   1.274   6.186   5.463
 6283SOL    HW219749   1.384   6.116   5.561
 6284SOL     OW19750   2.393   3.993   6.897
 6284SOL    HW119751   2.414   4.091   6.904
 6284SOL    HW219752   2.464   3.941   6.944
 6285SOL     OW19753   1.774   3.500   3.011
 6285SOL    HW119754   1.785   3.536   3.104
 6285SOL    HW219755   1.829   3.418   3.000
 6286SOL     OW19756   0.874   2.980   5.104
 6286SOL    HW119757   0.791   2.925   5.091
 6286SOL    HW219758   0.879   3.010   5.200
 6287SOL     OW19759   4.184   4.853   5.215
 6287SOL    HW119760   4.088   4.852   5.186
 6287SOL    HW219761   4.227   4.938   5.187
 6288SOL     OW19762   3.599   3.310   6.466
 6288SOL    HW119763   3.641   3.223   6.440
 6288SOL    HW219764   3.570   3.306   6.562
 6289SOL     OW19765   2.540   4.582   6.216
 6289SOL    HW119766   2.489   4.554   6.134
 6289SOL    HW219767   2.592   4.504   6.251
 6290SOL     OW19768   5.536   5.642   5.332
 6290SOL    HW119769   5.626   5.646   5.288
 6290SOL    HW219770   5.535   5.565   5.396
 6291SOL     OW19771   3.327   3.297   3.357
 6291SOL    HW119772   3.425   3.309   3.369
 6291SOL    HW219773   3.302   3.318   3.262
 6292SOL     OW19774   1.883   2.754   4.368
 6292SOL    HW119775   1.935   2.755   4.453
 6292SOL    HW219776   1.880   2.847   4.330
 6293SOL     OW19777   4.884   0.938   6.692
 6293SOL    HW119778   4.982   0.941   6.672
 6293SOL    HW219779   4.847   0.850   6.666
 6294SOL     OW19780   2.408   0.929   3.710
 6294SOL    HW119781   2.356   0.906   3.793
 6294SOL    HW219782   2.500   0.892   3.717
 6295SOL     OW19783   5.732   4.815   5.445
 6295SOL    HW119784   5.760   4.831   5.540
 6295SOL    HW219785   5.682   4.728   5.440
 6296SOL     OW19786   0.130   2.946   6.495
 6296SOL    HW119787   0.155   2.880   6.566
 6296SOL    HW219788   0.203   3.014   6.486
 6297SOL     OW19789   5.932   0.467   4.443
 6297SOL    HW119790   5.935   0.518   4.529
 6297SOL    HW219791   6.014   0.411   4.435
 6298SOL     OW19792   5.871   4.512   0.368
 6298SOL    HW119793   5.853   4.438   0.432
 6298SOL    HW219794   5.869   4.600   0.416
 6299SOL     OW19795   4.388   2.407   2.758
 6299SOL    HW119796   4.368   2.357   2.674
 6299SOL    HW219797   4.447   2.485   2.738
 6300SOL     OW19798   3.889   0.761   5.943
 6300SOL    HW119799   3.975   0.717   5.969
 6300SOL    HW219800   3.908   0.853   5.908
 6301SOL     OW19801   3.409   6.756   0.438
 6301SOL    HW119802   3.392   6.826   0.368
 6301SOL    HW219803   3.467   6.684   0.400
 6302SOL     OW19804   3.012   1.169   5.260
 6302SOL    HW119805   3.060   1.234   5.202
 6302SOL    HW219806   3.076   1.099   5.292
 6303SOL     OW19807   1.106   6.085   5.972
 6303SOL    HW119808   1.143   6.031   5.897
 6303SOL    HW219809   1.052   6.160   5.936
 6304SOL     OW19810   3.983   1.073   2.587
 6304SOL    HW119811   4.035   1.128   2.522
 6304SOL    HW219812   3.929   1.005   2.538
 6305SOL     OW19813   0.127   5.405   4.833
 6305SOL    HW119814   0.136   5.436   4.738
 6305SOL    HW219815   0.043   5.443   4.872
 6306SOL     OW19816   6.504   4.754   3.940
 6306SOL    HW119817   6.592   4.760   3.892
 6306SOL    HW219818   6.455   4.672   3.911
 6307SOL     OW19819   4.114   3.619   3.330
 6307SOL    HW119820   4.042   3.555   3.302
 6307SOL    HW219821   4.092   3.656   3.421
 6308SOL     OW19822   0.454   2.767   6.618
 6308SOL    HW119823   0.361   2.796   6.640
 6308SOL    HW219824   0.479   2.689   6.676
 6309SOL     OW19825   1.375   6.720   5.061
 6309SOL    HW119826   1.412   6.813   5.049
 6309SOL    HW219827   1.280   6.726   5.090
 6310SOL     OW19828   2.011   0.077   2.976
 6310SOL    HW119829   2.002   0.176   2.989
 6310SOL    HW219830   1.929   0.042   2.931
 6311SOL     OW19831   5.468   1.087   5.601
 6311SOL    HW119832   5.409   1.025   5.651
 6311SOL    HW219833   5.549   1.107   5.655
 6312SOL     OW19834   2.877   6.686   6.611
 6312SOL    HW119835   2.823   6.770   6.622
 6312SOL    HW219836   2.972   6.705   6.637
 6313SOL     OW19837   5.441   6.178   3.646
 6313SOL    HW119838   5.349   6.156   3.679
 6313SOL    HW219839   5.443   6.173   3.547
 6314SOL     OW19840   2.552   0.197   1.679
 6314SOL    HW119841   2.484   0.167   1.745
 6314SOL    HW219842   2.598   0.117   1.639
 6315SOL     OW19843   2.281   2.798   3.948
 6315SOL    HW119844   2.294   2.840   4.038
 6315SOL    HW219845   2.334   2.714   3.942
 6316SOL     OW19846   5.413   2.263   4.922
 6316SOL    HW119847   5.473   2.210   4.982
 6316SOL    HW219848   5.427   2.234   4.827
 6317SOL     OW19849   4.796   4.614   2.164
 6317SOL    HW119850   4.764   4.696   2.117
 6317SOL    HW219851   4.719   4.571   2.212
 6318SOL     OW19852   6.366   0.912   6.231
 6318SOL    HW119853   6.282   0.965   6.244
 6318SOL    HW219854   6.411   0.941   6.146
 6319SOL     OW19855   5.329   2.451   4.436
 6319SOL    HW119856   5.269   2.447   4.516
 6319SOL    HW219857   5.308   2.533   4.383
 6320SOL     OW19858   0.172   1.245   4.122
 6320SOL    HW119859   0.099   1.291   4.173
 6320SOL    HW219860   0.131   1.182   4.056
 6321SOL     OW19861   5.466   2.126   0.746
 6321SOL    HW119862   5.419   2.094   0.664
 6321SOL    HW219863   5.418   2.205   0.783
 6322SOL     OW19864   2.065   0.716   1.177
 6322SOL    HW119865   2.120   0.798   1.191
 6322SOL    HW219866   2.009   0.727   1.094
 6323SOL     OW19867   3.028   3.180   1.259
 6323SOL    HW119868   3.033   3.199   1.357
 6323SOL    HW219869   3.102   3.118   1.234
 6324SOL     OW19870   4.774   1.200   0.857
 6324SOL    HW119871   4.808   1.198   0.763
 6324SOL    HW219872   4.827   1.266   0.911
 6325SOL     OW19873   1.167   2.209   2.861
 6325SOL    HW119874   1.201   2.170   2.946
 6325SOL    HW219875   1.096   2.277   2.882
 6326SOL     OW19876   5.457   5.406   5.819
 6326SOL    HW119877   5.437   5.333   5.884
 6326SOL    HW219878   5.423   5.381   5.729
 6327SOL     OW19879   6.881   1.696   3.534
 6327SOL    HW119880   6.856   1.631   3.462
 6327SOL    HW219881   6.820   1.775   3.529
 6328SOL     OW19882   4.490   3.461   6.095
 6328SOL    HW119883   4.539   3.446   6.009
 6328SOL    HW219884   4.530   3.538   6.144
 6329SOL     OW19885   1.628   2.623   5.432
 6329SOL    HW119886   1.624   2.617   5.332
 6329SOL    HW219887   1.679   2.544   5.468
 6330SOL     OW19888   6.010   0.428   3.780
 6330SOL    HW119889   6.057   0.455   3.696
 6330SOL    HW219890   6.057   0.468   3.859
 6331SOL     OW19891   6.732   3.449   4.395
 6331SOL    HW119892   6.784   3.479   4.475
 6331SOL    HW219893   6.705   3.353   4.407
 6332SOL     OW19894   1.848   1.790   0.809
 6332SOL    HW119895   1.868   1.813   0.714
 6332SOL    HW219896   1.761   1.832   0.836
 6333SOL     OW19897   4.816   0.471   0.724
 6333SOL    HW119898   4.820   0.412   0.643
 6333SOL    HW219899   4.788   0.563   0.697
 6334SOL     OW19900   3.041   1.464   2.207
 6334SOL    HW119901   3.079   1.461   2.114
 6334SOL    HW219902   2.947   1.430   2.204
 6335SOL     OW19903   5.446   0.783   0.477
 6335SOL    HW119904   5.405   0.782   0.568
 6335SOL    HW219905   5.533   0.834   0.481
 6336SOL     OW19906   0.260   3.675   6.131
 6336SOL    HW119907   0.340   3.666   6.189
 6336SOL    HW219908   0.283   3.649   6.037
 6337SOL     OW19909   4.555   5.395   5.333
 6337SOL    HW119910   4.572   5.391   5.235
 6337SOL    HW219911   4.604   5.321   5.379
 6338SOL     OW19912   2.999   1.659   3.620
 6338SOL    HW119913   3.061   1.705   3.684
 6338SOL    HW219914   3.029   1.677   3.527
 6339SOL     OW19915   1.274   4.211   3.338
 6339SOL    HW119916   1.362   4.238   3.378
 6339SOL    HW219917   1.278   4.115   3.311
 6340SOL     OW19918   2.322   3.920   1.477
 6340SOL    HW119919   2.402   3.979   1.490
 6340SOL    HW219920   2.344   3.848   1.411
 6341SOL     OW19921   0.847   4.706   4.096
 6341SOL    HW119922   0.814   4.715   4.190
 6341SOL    HW219923   0.947   4.713   4.095
 6342SOL     OW19924   2.141   1.214   1.798
 6342SOL    HW119925   2.169   1.278   1.870
 6342SOL    HW219926   2.060   1.164   1.829
 6343SOL     OW19927   2.837   5.915   0.265
 6343SOL    HW119928   2.878   6.006   0.261
 6343SOL    HW219929   2.802   5.890   0.175
 6344SOL     OW19930   6.501   2.206   3.780
 6344SOL    HW119931   6.544   2.268   3.846
 6344SOL    HW219932   6.402   2.219   3.782
 6345SOL     OW19933   6.033   3.234   1.884
 6345SOL    HW119934   6.070   3.281   1.804
 6345SOL    HW219935   5.934   3.221   1.872
 6346SOL     OW19936   0.130   4.496   5.494
 6346SOL    HW119937   0.064   4.442   5.547
 6346SOL    HW219938   0.208   4.439   5.469
 6347SOL     OW19939   2.938   2.191   2.562
 6347SOL    HW119940   3.021   2.192   2.618
 6347SOL    HW219941   2.964   2.197   2.465
 6348SOL     OW19942   0.480   1.964   5.602
 6348SOL    HW119943   0.457   1.968   5.505
 6348SOL    HW219944   0.476   1.869   5.633
 6349SOL     OW19945   0.292   0.385   0.133
 6349SOL    HW119946   0.284   0.436   0.218
 6349SOL    HW219947   0.309   0.288   0.154
 6350SOL     OW19948   0.880   4.084   1.787
 6350SOL    HW119949   0.904   4.159   1.848
 6350SOL    HW219950   0.904   4.108   1.693
 6351SOL     OW19951   5.781   3.515   3.088
 6351SOL    HW119952   5.778   3.416   3.101
 6351SOL    HW219953   5.798   3.559   3.177
 6352SOL     OW19954   2.093   0.297   4.319
 6352SOL    HW119955   2.089   0.384   4.368
 6352SOL    HW219956   2.187   0.262   4.319
 6353SOL     OW19957   2.769   5.636   6.598
 6353SOL    HW119958   2.869   5.640   6.601
 6353SOL    HW219959   2.740   5.541   6.591
 6354SOL     OW19960   4.839   4.114   2.760
 6354SOL    HW119961   4.868   4.205   2.791
 6354SOL    HW219962   4.799   4.064   2.837
 6355SOL     OW19963   2.684   4.824   0.514
 6355SOL    HW119964   2.689   4.727   0.492
 6355SOL    HW219965   2.601   4.841   0.568
 6356SOL     OW19966   5.141   4.688   6.732
 6356SOL    HW119967   5.066   4.665   6.669
 6356SOL    HW219968   5.126   4.642   6.819
 6357SOL     OW19969   5.876   2.144   1.824
 6357SOL    HW119970   5.865   2.056   1.779
 6357SOL    HW219971   5.952   2.139   1.890
 6358SOL     OW19972   1.868   2.499   7.007
 6358SOL    HW119973   1.839   2.555   6.929
 6358SOL    HW219974   1.817   2.526   0.073
 6359SOL     OW19975   5.451   6.498   0.584
 6359SOL    HW119976   5.540   6.480   0.628
 6359SOL    HW219977   5.384   6.521   0.654
 6360SOL     OW19978   0.324   2.393   3.371
 6360SOL    HW119979   0.414   2.356   3.393
 6360SOL    HW219980   0.258   2.319   3.364
 6361SOL     OW19981   0.493   0.489   6.662
 6361SOL    HW119982   0.581   0.475   6.708
 6361SOL    HW219983   0.419   0.453   6.720
 6362SOL     OW19984   0.965   5.529   6.644
 6362SOL    HW119985   0.877   5.532   6.597
 6362SOL    HW219986   0.973   5.608   6.705
 6363SOL     OW19987   2.921   5.137   3.803
 6363SOL    HW119988   2.845   5.153   3.867
 6363SOL    HW219989   2.887   5.094   3.720
 6364SOL     OW19990   2.341   2.096   5.135
 6364SOL    HW119991   2.406   2.098   5.059
 6364SOL    HW219992   2.389   2.117   5.221
 6365SOL     OW19993   5.722   5.703   3.645
 6365SOL    HW119994   5.754   5.741   3.559
 6365SOL    HW219995   5.668   5.772   3.694
 6366SOL     OW19996   6.154   6.622   5.012
 6366SOL    HW119997   6.247   6.649   4.988
 6366SOL    HW219998   6.124   6.547   4.953
 6367SOL     OW19999   3.146   2.148   2.758
 6367SOL    HW120000   3.108   2.079   2.819
 6367SOL    HW220001   3.244   2.132   2.746
 6368SOL     OW20002   4.954   3.400   4.845
 6368SOL    HW120003   4.899   3.468   4.893
 6368SOL    HW220004   5.046   3.436   4.830
 6369SOL     OW20005   3.106   6.356   5.928
 6369SOL    HW120006   3.167   6.330   6.003
 6369SOL    HW220007   3.078   6.273   5.879
 6370SOL     OW20008   5.212   3.948   3.859
 6370SOL    HW120009   5.141   3.896   3.812
 6370SOL    HW220010   5.215   3.921   3.955
 6371SOL     OW20011   5.235   4.175   1.547
 6371SOL    HW120012   5.137   4.162   1.530
 6371SOL    HW220013   5.276   4.087   1.571
 6372SOL     OW20014   6.929   0.896   2.895
 6372SOL    HW120015   6.914   0.805   2.935
 6372SOL    HW220016   0.009   0.923   2.907
 6373SOL     OW20017   5.293   3.879   1.243
 6373SOL    HW120018   5.276   3.825   1.160
 6373SOL    HW220019   5.256   3.971   1.231
 6374SOL     OW20020   4.618   3.074   0.559
 6374SOL    HW120021   4.617   2.975   0.574
 6374SOL    HW220022   4.541   3.116   0.608
 6375SOL     OW20023   0.035   2.771   2.331
 6375SOL    HW120024   0.121   2.819   2.349
 6375SOL    HW220025   0.041   2.725   2.242
 6376SOL     OW20026   3.779   0.881   5.541
 6376SOL    HW120027   3.690   0.838   5.528
 6376SOL    HW220028   3.850   0.810   5.544
 6377SOL     OW20029   6.915   0.155   6.725
 6377SOL    HW120030   6.820   0.155   6.693
 6377SOL    HW220031   6.919   0.189   6.819
 6378SOL     OW20032   5.482   5.609   3.255
 6378SOL    HW120033   5.484   5.683   3.323
 6378SOL    HW220034   5.468   5.648   3.164
 6379SOL     OW20035   2.818   5.456   6.086
 6379SOL    HW120036   2.848   5.517   6.013
 6379SOL    HW220037   2.870   5.476   6.169
 6380SOL     OW20038   1.470   3.496   5.089
 6380SOL    HW120039   1.565   3.467   5.101
 6380SOL    HW220040   1.408   3.421   5.113
 6381SOL     OW20041   4.735   3.544   0.233
 6381SOL    HW120042   4.726   3.453   0.273
 6381SOL    HW220043   4.724   3.538   0.133
 6382SOL     OW20044   2.814   1.647   1.399
 6382SOL    HW120045   2.759   1.614   1.477
 6382SOL    HW220046   2.754   1.666   1.322
 6383SOL     OW20047   1.912   1.857   2.651
 6383SOL    HW120048   1.838   1.910   2.610
 6383SOL    HW220049   1.945   1.904   2.733
 6384SOL     OW20050   6.725   2.554   2.052
 6384SOL    HW120051   6.782   2.554   1.969
 6384SOL    HW220052   6.700   2.648   2.074
 6385SOL     OW20053   0.315   3.272   1.173
 6385SOL    HW120054   0.334   3.224   1.087
 6385SOL    HW220055   0.264   3.356   1.153
 6386SOL     OW20056   1.787   3.265   0.571
 6386SOL    HW120057   1.799   3.166   0.571
 6386SOL    HW220058   1.778   3.298   0.477
 6387SOL     OW20059   6.293   0.374   0.396
 6387SOL    HW120060   6.317   0.414   0.308
 6387SOL    HW220061   6.220   0.428   0.438
 6388SOL     OW20062   6.175   5.262   2.998
 6388SOL    HW120063   6.083   5.301   2.989
 6388SOL    HW220064   6.234   5.326   3.047
 6389SOL     OW20065   1.816   0.501   0.170
 6389SOL    HW120066   1.734   0.481   0.115
 6389SOL    HW220067   1.877   0.561   0.119
 6390SOL     OW20068   6.403   1.067   6.779
 6390SOL    HW120069   6.432   1.097   6.688
 6390SOL    HW220070   6.457   1.114   6.849
 6391SOL     OW20071   1.212   1.044   5.151
 6391SOL    HW120072   1.234   1.015   5.244
 6391SOL    HW220073   1.233   1.142   5.141
 6392SOL     OW20074   3.307   5.640   3.684
 6392SOL    HW120075   3.320   5.735   3.711
 6392SOL    HW220076   3.219   5.630   3.638
 6393SOL     OW20077   6.094   6.224   1.129
 6393SOL    HW120078   6.133   6.316   1.129
 6393SOL    HW220079   6.092   6.188   1.222
 6394SOL     OW20080   0.848   5.152   1.013
 6394SOL    HW120081   0.877   5.116   1.102
 6394SOL    HW220082   0.929   5.173   0.958
 6395SOL     OW20083   1.657   4.240   3.194
 6395SOL    HW120084   1.635   4.148   3.160
 6395SOL    HW220085   1.629   4.248   3.290
 6396SOL     OW20086   6.494   3.918   0.248
 6396SOL    HW120087   6.523   3.849   0.182
 6396SOL    HW220088   6.543   4.004   0.230
 6397SOL     OW20089   5.576   2.264   3.393
 6397SOL    HW120090   5.634   2.187   3.418
 6397SOL    HW220091   5.480   2.237   3.400
 6398SOL     OW20092   0.846   6.879   1.011
 6398SOL    HW120093   0.899   6.881   1.096
 6398SOL    HW220094   0.851   6.789   0.970
 6399SOL     OW20095   2.300   0.186   6.232
 6399SOL    HW120096   2.266   0.099   6.267
 6399SOL    HW220097   2.370   0.169   6.163
 6400SOL     OW20098   1.425   5.685   2.989
 6400SOL    HW120099   1.333   5.717   3.010
 6400SOL    HW220100   1.484   5.763   2.967
 6401SOL     OW20101   3.798   5.156   3.333
 6401SOL    HW120102   3.841   5.228   3.278
 6401SOL    HW220103   3.828   5.163   3.428
 6402SOL     OW20104   2.225   4.808   4.668
 6402SOL    HW120105   2.303   4.763   4.712
 6402SOL    HW220106   2.235   4.804   4.569
 6403SOL     OW20107   5.069   6.543   4.951
 6403SOL    HW120108   5.035   6.536   5.045
 6403SOL    HW220109   5.133   6.619   4.945
 6404SOL     OW20110   3.697   0.328   2.485
 6404SOL    HW120111   3.688   0.257   2.555
 6404SOL    HW220112   3.606   0.363   2.462
 6405SOL     OW20113   5.350   1.534   2.875
 6405SOL    HW120114   5.313   1.624   2.898
 6405SOL    HW220115   5.440   1.524   2.918
 6406SOL     OW20116   1.171   2.988   2.615
 6406SOL    HW120117   1.080   3.027   2.606
 6406SOL    HW220118   1.171   2.919   2.687
 6407SOL     OW20119   2.336   6.129   3.254
 6407SOL    HW120120   2.249   6.141   3.205
 6407SOL    HW220121   2.321   6.141   3.352
 6408SOL     OW20122   6.815   0.095   0.603
 6408SOL    HW120123   6.763   0.033   0.662
 6408SOL    HW220124   6.758   0.124   0.526
 6409SOL     OW20125   6.241   4.923   3.586
 6409SOL    HW120126   6.249   5.018   3.559
 6409SOL    HW220127   6.310   4.868   3.539
 6410SOL     OW20128   3.110   1.820   5.621
 6410SOL    HW120129   3.110   1.797   5.524
 6410SOL    HW220130   3.084   1.916   5.633
 6411SOL     OW20131   0.395   2.155   2.842
 6411SOL    HW120132   0.470   2.128   2.902
 6411SOL    HW220133   0.309   2.116   2.877
 6412SOL     OW20134   3.307   0.720   7.013
 6412SOL    HW120135   3.368   0.701   0.075
 6412SOL    HW220136   3.221   0.759   0.032
 6413SOL     OW20137   4.323   5.041   3.914
 6413SOL    HW120138   4.346   4.976   3.841
 6413SOL    HW220139   4.388   5.031   3.989
 6414SOL     OW20140   1.111   0.228   6.570
 6414SOL    HW120141   1.187   0.188   6.622
 6414SOL    HW220142   1.061   0.154   6.524
 6415SOL     OW20143   1.169   2.661   3.375
 6415SOL    HW120144   1.178   2.750   3.419
 6415SOL    HW220145   1.194   2.669   3.279
 6416SOL     OW20146   2.957   0.267   6.539
 6416SOL    HW120147   2.955   0.306   6.631
 6416SOL    HW220148   3.045   0.287   6.496
 6417SOL     OW20149   4.914   1.675   1.068
 6417SOL    HW120150   4.870   1.739   1.005
 6417SOL    HW220151   5.011   1.698   1.076
 6418SOL     OW20152   4.291   4.783   1.218
 6418SOL    HW120153   4.367   4.748   1.163
 6418SOL    HW220154   4.211   4.798   1.159
 6419SOL     OW20155   0.701   6.717   6.449
 6419SOL    HW120156   0.627   6.692   6.511
 6419SOL    HW220157   0.667   6.783   6.382
 6420SOL     OW20158   1.233   3.201   3.944
 6420SOL    HW120159   1.206   3.290   3.909
 6420SOL    HW220160   1.156   3.138   3.937
 6421SOL     OW20161   4.908   0.196   1.819
 6421SOL    HW120162   4.942   0.175   1.911
 6421SOL    HW220163   4.983   0.191   1.753
 6422SOL     OW20164   6.786   2.645   4.621
 6422SOL    HW120165   6.765   2.634   4.524
 6422SOL    HW220166   6.885   2.640   4.634
 6423SOL     OW20167   2.374   4.497   4.281
 6423SOL    HW120168   2.417   4.463   4.364
 6423SOL    HW220169   2.341   4.420   4.227
 6424SOL     OW20170   0.753   3.832   4.885
 6424SOL    HW120171   0.754   3.874   4.795
 6424SOL    HW220172   0.846   3.833   4.923
 6425SOL     OW20173   0.461   6.153   2.495
 6425SOL    HW120174   0.440   6.238   2.544
 6425SOL    HW220175   0.504   6.088   2.558
 6426SOL     OW20176   4.534   4.500   4.876
 6426SOL    HW120177   4.500   4.532   4.787
 6426SOL    HW220178   4.476   4.537   4.949
 6427SOL     OW20179   2.909   3.377   3.721
 6427SOL    HW120180   2.919   3.278   3.712
 6427SOL    HW220181   2.924   3.420   3.632
 6428SOL     OW20182   4.599   2.562   0.428
 6428SOL    HW120183   4.626   2.466   0.432
 6428SOL    HW220184   4.597   2.593   0.333
 6429SOL     OW20185   2.265   0.528   5.184
 6429SOL    HW120186   2.285   0.537   5.282
 6429SOL    HW220187   2.263   0.619   5.142
 6430SOL     OW20188   6.797   0.456   5.066
 6430SOL    HW120189   6.740   0.478   5.145
 6430SOL    HW220190   6.857   0.379   5.089
 6431SOL     OW20191   3.994   5.264   2.515
 6431SOL    HW120192   4.070   5.319   2.482
 6431SOL    HW220193   3.987   5.180   2.461
 6432SOL     OW20194   3.810   4.284   6.691
 6432SOL    HW120195   3.859   4.370   6.677
 6432SOL    HW220196   3.731   4.300   6.750
 6433SOL     OW20197   2.454   5.600   6.895
 6433SOL    HW120198   2.368   5.621   6.942
 6433SOL    HW220199   2.435   5.555   6.808
 6434SOL     OW20200   3.066   5.980   5.547
 6434SOL    HW120201   3.124   5.969   5.467
 6434SOL    HW220202   3.013   5.896   5.561
 6435SOL     OW20203   5.141   0.562   0.770
 6435SOL    HW120204   5.126   0.512   0.685
 6435SOL    HW220205   5.089   0.519   0.844
 6436SOL     OW20206   0.229   3.976   3.971
 6436SOL    HW120207   0.270   3.893   4.008
 6436SOL    HW220208   0.249   4.053   4.033
 6437SOL     OW20209   0.480   1.152   5.458
 6437SOL    HW120210   0.541   1.077   5.483
 6437SOL    HW220211   0.505   1.234   5.509
 6438SOL     OW20212   0.660   5.691   6.952
 6438SOL    HW120213   0.611   5.743   0.006
 6438SOL    HW220214   0.644   5.593   6.967
 6439SOL     OW20215   5.746   0.759   3.453
 6439SOL    HW120216   5.828   0.782   3.506
 6439SOL    HW220217   5.755   0.666   3.417
 6440SOL     OW20218   2.508   0.609   5.917
 6440SOL    HW120219   2.593   0.558   5.921
 6440SOL    HW220220   2.505   0.675   5.992
 6441SOL     OW20221   0.168   1.020   3.050
 6441SOL    HW120222   0.241   1.057   3.108
 6441SOL    HW220223   0.139   1.090   2.985
 6442SOL     OW20224   2.817   2.395   5.603
 6442SOL    HW120225   2.774   2.307   5.623
 6442SOL    HW220226   2.857   2.393   5.512
 6443SOL     OW20227   4.198   2.446   0.959
 6443SOL    HW120228   4.171   2.494   0.876
 6443SOL    HW220229   4.119   2.397   0.997
 6444SOL     OW20230   0.185   3.065   5.282
 6444SOL    HW120231   0.265   3.087   5.226
 6444SOL    HW220232   0.192   2.970   5.314
 6445SOL     OW20233   2.961   3.655   3.112
 6445SOL    HW120234   2.940   3.590   3.039
 6445SOL    HW220235   3.052   3.694   3.095
 6446SOL     OW20236   2.047   1.847   6.820
 6446SOL    HW120237   2.002   1.886   6.901
 6446SOL    HW220238   2.143   1.830   6.840
 6447SOL     OW20239   5.864   4.761   1.250
 6447SOL    HW120240   5.797   4.696   1.287
 6447SOL    HW220241   5.941   4.768   1.313
 6448SOL     OW20242   4.789   5.604   1.874
 6448SOL    HW120243   4.838   5.518   1.886
 6448SOL    HW220244   4.734   5.601   1.791
 6449SOL     OW20245   2.259   5.311   1.839
 6449SOL    HW120246   2.252   5.386   1.774
 6449SOL    HW220247   2.168   5.273   1.857
 6450SOL     OW20248   0.256   3.755   1.245
 6450SOL    HW120249   0.345   3.784   1.210
 6450SOL    HW220250   0.229   3.815   1.321
 6451SOL     OW20251   3.323   2.272   1.169
 6451SOL    HW120252   3.248   2.304   1.226
 6451SOL    HW220253   3.293   2.270   1.073
 6452SOL     OW20254   5.217   3.365   3.055
 6452SOL    HW120255   5.194   3.406   2.967
 6452SOL    HW220256   5.316   3.347   3.059
 6453SOL     OW20257   3.492   6.807   1.099
 6453SOL    HW120258   3.541   6.790   1.184
 6453SOL    HW220259   3.542   6.764   1.023
 6454SOL     OW20260   6.109   2.897   2.690
 6454SOL    HW120261   6.084   2.908   2.594
 6454SOL    HW220262   6.069   2.812   2.724
 6455SOL     OW20263   6.363   4.083   3.728
 6455SOL    HW120264   6.394   4.060   3.821
 6455SOL    HW220265   6.276   4.132   3.733
 6456SOL     OW20266   6.861   1.300   3.125
 6456SOL    HW120267   6.890   1.242   3.202
 6456SOL    HW220268   6.818   1.243   3.055
 6457SOL     OW20269   4.709   7.011   1.940
 6457SOL    HW120270   4.688   0.041   1.853
 6457SOL    HW220271   4.808   0.001   1.957
 6458SOL     OW20272   0.953   5.008   3.480
 6458SOL    HW120273   0.982   4.915   3.457
 6458SOL    HW220274   0.894   5.005   3.560
 6459SOL     OW20275   6.556   2.944   2.859
 6459SOL    HW120276   6.562   2.845   2.851
 6459SOL    HW220277   6.534   2.968   2.954
 6460SOL     OW20278   0.096   6.181   5.761
 6460SOL    HW120279   0.042   6.141   5.835
 6460SOL    HW220280   0.130   6.109   5.700
 6461SOL     OW20281   3.093   4.721   1.098
 6461SOL    HW120282   3.031   4.800   1.097
 6461SOL    HW220283   3.187   4.753   1.110
 6462SOL     OW20284   1.744   4.331   4.978
 6462SOL    HW120285   1.732   4.244   5.026
 6462SOL    HW220286   1.753   4.313   4.880
 6463SOL     OW20287   4.451   1.134   1.484
 6463SOL    HW120288   4.538   1.088   1.468
 6463SOL    HW220289   4.467   1.221   1.530
 6464SOL     OW20290   1.052   6.211   4.276
 6464SOL    HW120291   1.086   6.246   4.189
 6464SOL    HW220292   1.028   6.287   4.336
 6465SOL     OW20293   5.002   2.487   3.056
 6465SOL    HW120294   5.004   2.577   3.013
 6465SOL    HW220295   4.910   2.469   3.092
 6466SOL     OW20296   0.175   3.707   0.276
 6466SOL    HW120297   0.211   3.643   0.209
 6466SOL    HW220298   0.208   3.799   0.256
 6467SOL     OW20299   3.219   1.439   0.952
 6467SOL    HW120300   3.180   1.514   1.005
 6467SOL    HW220301   3.165   1.425   0.869
 6468SOL     OW20302   3.156   0.197   0.525
 6468SOL    HW120303   3.212   0.185   0.443
 6468SOL    HW220304   3.191   0.139   0.598
 6469SOL     OW20305   3.424   1.758   3.703
 6469SOL    HW120306   3.418   1.670   3.749
 6469SOL    HW220307   3.412   1.832   3.770
 6470SOL     OW20308   6.324   2.420   6.410
 6470SOL    HW120309   6.289   2.435   6.502
 6470SOL    HW220310   6.419   2.389   6.415
 6471SOL     OW20311   0.353   6.039   4.708
 6471SOL    HW120312   0.331   5.997   4.796
 6471SOL    HW220313   0.413   6.117   4.722
 6472SOL     OW20314   0.011   5.987   2.364
 6472SOL    HW120315   0.088   6.008   2.424
 6472SOL    HW220316   6.993   5.894   2.383
 6473SOL     OW20317   1.836   1.309   3.880
 6473SOL    HW120318   1.819   1.317   3.781
 6473SOL    HW220319   1.749   1.294   3.927
 6474SOL     OW20320   4.292   6.108   4.533
 6474SOL    HW120321   4.211   6.082   4.585
 6474SOL    HW220322   4.373   6.065   4.574
 6475SOL     OW20323   5.655   5.412   2.935
 6475SOL    HW120324   5.727   5.479   2.915
 6475SOL    HW220325   5.576   5.431   2.878
 6476SOL     OW20326   4.200   1.830   6.595
 6476SOL    HW120327   4.204   1.892   6.674
 6476SOL    HW220328   4.121   1.770   6.604
 6477SOL     OW20329   6.907   6.040   1.104
 6477SOL    HW120330   7.005   6.023   1.094
 6477SOL    HW220331   6.864   5.959   1.145
 6478SOL     OW20332   3.214   5.533   1.768
 6478SOL    HW120333   3.147   5.461   1.790
 6478SOL    HW220334   3.166   5.611   1.729
 6479SOL     OW20335   3.639   6.229   3.982
 6479SOL    HW120336   3.622   6.141   3.938
 6479SOL    HW220337   3.559   6.256   4.035
 6480SOL     OW20338   2.961   1.327   6.495
 6480SOL    HW120339   2.956   1.408   6.554
 6480SOL    HW220340   2.970   1.245   6.552
 6481SOL     OW20341   3.296   2.498   1.667
 6481SOL    HW120342   3.346   2.577   1.631
 6481SOL    HW220343   3.215   2.529   1.717
 6482SOL     OW20344   6.737   3.203   5.218
 6482SOL    HW120345   6.724   3.132   5.149
 6482SOL    HW220346   6.823   3.187   5.267
 6483SOL     OW20347   1.453   5.768   4.889
 6483SOL    HW120348   1.361   5.740   4.862
 6483SOL    HW220349   1.448   5.833   4.964
 6484SOL     OW20350   2.631   0.798   3.758
 6484SOL    HW120351   2.556   0.734   3.740
 6484SOL    HW220352   2.718   0.751   3.748
 6485SOL     OW20353   1.671   6.535   4.486
 6485SOL    HW120354   1.746   6.484   4.528
 6485SOL    HW220355   1.608   6.566   4.557
 6486SOL     OW20356   1.584   5.273   3.300
 6486SOL    HW120357   1.682   5.277   3.318
 6486SOL    HW220358   1.539   5.221   3.372
 6487SOL     OW20359   0.101   4.588   4.054
 6487SOL    HW120360   0.127   4.660   4.118
 6487SOL    HW220361   0.004   4.596   4.033
 6488SOL     OW20362   5.058   5.596   4.617
 6488SOL    HW120363   5.086   5.685   4.651
 6488SOL    HW220364   5.013   5.544   4.690
 6489SOL     OW20365   4.120   3.183   6.217
 6489SOL    HW120366   4.020   3.189   6.208
 6489SOL    HW220367   4.143   3.101   6.269
 6490SOL     OW20368   1.859   1.752   6.644
 6490SOL    HW120369   1.819   1.671   6.687
 6490SOL    HW220370   1.932   1.788   6.703
 6491SOL     OW20371   1.255   0.079   0.772
 6491SOL    HW120372   1.165   0.066   0.814
 6491SOL    HW220373   1.317   0.006   0.801
 6492SOL     OW20374   3.297   4.134   4.419
 6492SOL    HW120375   3.265   4.092   4.334
 6492SOL    HW220376   3.226   4.194   4.455
 6493SOL     OW20377   1.117   4.356   6.542
 6493SOL    HW120378   1.215   4.375   6.528
 6493SOL    HW220379   1.100   4.259   6.527
 6494SOL     OW20380   6.262   6.283   1.603
 6494SOL    HW120381   6.353   6.321   1.619
 6494SOL    HW220382   6.221   6.259   1.691
 6495SOL     OW20383   0.361   0.322   3.493
 6495SOL    HW120384   0.396   0.367   3.576
 6495SOL    HW220385   0.337   0.227   3.515
 6496SOL     OW20386   4.617   0.174   2.146
 6496SOL    HW120387   4.607   0.144   2.241
 6496SOL    HW220388   4.615   0.094   2.086
 6497SOL     OW20389   0.260   1.571   0.708
 6497SOL    HW120390   0.161   1.579   0.701
 6497SOL    HW220391   0.301   1.662   0.716
 6498SOL     OW20392   0.903   4.325   4.059
 6498SOL    HW120393   0.883   4.393   3.989
 6498SOL    HW220394   0.935   4.241   4.016
 6499SOL     OW20395   6.123   4.141   4.635
 6499SOL    HW120396   6.172   4.054   4.627
 6499SOL    HW220397   6.053   4.146   4.564
 6500SOL     OW20398   1.635   3.634   2.537
 6500SOL    HW120399   1.691   3.611   2.457
 6500SOL    HW220400   1.541   3.649   2.508
 6501SOL     OW20401   6.385   2.023   1.031
 6501SOL    HW120402   6.293   1.984   1.025
 6501SOL    HW220403   6.451   1.951   1.050
 6502SOL     OW20404   5.970   3.817   2.046
 6502SOL    HW120405   5.986   3.728   2.089
 6502SOL    HW220406   5.873   3.840   2.052
 6503SOL     OW20407   6.711   2.818   5.597
 6503SOL    HW120408   6.624   2.866   5.605
 6503SOL    HW220409   6.776   2.854   5.664
 6504SOL     OW20410   4.807   6.567   6.541
 6504SOL    HW120411   4.832   6.595   6.633
 6504SOL    HW220412   4.710   6.583   6.526
 6505SOL     OW20413   5.582   6.269   0.064
 6505SOL    HW120414   5.585   6.213   0.147
 6505SOL    HW220415   5.663   6.253   0.009
 6506SOL     OW20416   0.279   2.756   3.078
 6506SOL    HW120417   0.369   2.784   3.113
 6506SOL    HW220418   0.225   2.836   3.056
 6507SOL     OW20419   3.064   4.960   6.320
 6507SOL    HW120420   3.049   4.975   6.222
 6507SOL    HW220421   3.126   5.031   6.355
 6508SOL     OW20422   1.475   6.751   1.406
 6508SOL    HW120423   1.478   6.790   1.314
 6508SOL    HW220424   1.492   6.653   1.402
 6509SOL     OW20425   3.608   1.788   5.743
 6509SOL    HW120426   3.624   1.781   5.841
 6509SOL    HW220427   3.509   1.785   5.725
 6510SOL     OW20428   4.308   6.011   5.489
 6510SOL    HW120429   4.290   5.920   5.452
 6510SOL    HW220430   4.308   6.007   5.589
 6511SOL     OW20431   4.009   1.588   6.585
 6511SOL    HW120432   3.934   1.606   6.522
 6511SOL    HW220433   3.974   1.584   6.678
 6512SOL     OW20434   3.252   0.930   1.210
 6512SOL    HW120435   3.288   1.014   1.250
 6512SOL    HW220436   3.160   0.912   1.246
 6513SOL     OW20437   2.845   5.500   4.662
 6513SOL    HW120438   2.786   5.478   4.739
 6513SOL    HW220439   2.828   5.436   4.587
 6514SOL     OW20440   5.803   0.252   4.800
 6514SOL    HW120441   5.772   0.261   4.894
 6514SOL    HW220442   5.749   0.312   4.741
 6515SOL     OW20443   2.058   4.919   1.880
 6515SOL    HW120444   2.066   5.019   1.881
 6515SOL    HW220445   1.979   4.892   1.936
 6516SOL     OW20446   0.482   2.896   1.264
 6516SOL    HW120447   0.402   2.935   1.219
 6516SOL    HW220448   0.511   2.956   1.339
 6517SOL     OW20449   0.169   2.736   6.652
 6517SOL    HW120450   0.072   2.715   6.665
 6517SOL    HW220451   0.225   2.673   6.706
 6518SOL     OW20452   0.590   1.043   2.831
 6518SOL    HW120453   0.586   1.140   2.806
 6518SOL    HW220454   0.604   0.988   2.749
 6519SOL     OW20455   0.857   1.354   3.249
 6519SOL    HW120456   0.782   1.366   3.184
 6519SOL    HW220457   0.880   1.257   3.256
 6520SOL     OW20458   6.883   5.603   6.472
 6520SOL    HW120459   6.851   5.575   6.563
 6520SOL    HW220460   6.844   5.692   6.449
 6521SOL     OW20461   1.236   3.002   4.353
 6521SOL    HW120462   1.312   2.936   4.356
 6521SOL    HW220463   1.237   3.057   4.436
 6522SOL     OW20464   2.545   4.074   5.468
 6522SOL    HW120465   2.493   4.139   5.413
 6522SOL    HW220466   2.579   4.001   5.409
 6523SOL     OW20467   5.994   0.277   0.073
 6523SOL    HW120468   6.064   0.206   0.065
 6523SOL    HW220469   5.919   0.243   0.130
 6524SOL     OW20470   2.406   2.019   1.753
 6524SOL    HW120471   2.472   2.091   1.774
 6524SOL    HW220472   2.316   2.045   1.788
 6525SOL     OW20473   1.235   5.033   3.586
 6525SOL    HW120474   1.250   5.079   3.674
 6525SOL    HW220475   1.140   5.045   3.558
 6526SOL     OW20476   0.384   6.956   0.825
 6526SOL    HW120477   0.337   6.966   0.738
 6526SOL    HW220478   0.317   6.943   0.898
 6527SOL     OW20479   0.557   2.370   0.755
 6527SOL    HW120480   0.544   2.401   0.661
 6527SOL    HW220481   0.630   2.422   0.798
 6528SOL     OW20482   6.053   1.201   5.441
 6528SOL    HW120483   6.107   1.254   5.375
 6528SOL    HW220484   6.097   1.206   5.531
 6529SOL     OW20485   6.824   1.565   2.025
 6529SOL    HW120486   6.895   1.620   2.068
 6529SOL    HW220487   6.794   1.495   2.090
 6530SOL     OW20488   0.452   2.387   2.196
 6530SOL    HW120489   0.528   2.423   2.251
 6530SOL    HW220490   0.369   2.439   2.215
 6531SOL     OW20491   4.225   3.450   6.168
 6531SOL    HW120492   4.321   3.465   6.143
 6531SOL    HW220493   4.203   3.353   6.159
 6532SOL     OW20494   1.370   0.719   0.828
 6532SOL    HW120495   1.412   0.783   0.764
 6532SOL    HW220496   1.274   0.743   0.841
 6533SOL     OW20497   4.483   4.205   6.738
 6533SOL    HW120498   4.555   4.145   6.773
 6533SOL    HW220499   4.504   4.232   6.644
 6534SOL     OW20500   5.832   4.817   2.186
 6534SOL    HW120501   5.905   4.865   2.234
 6534SOL    HW220502   5.762   4.789   2.252
 6535SOL     OW20503   6.045   3.329   4.314
 6535SOL    HW120504   6.038   3.316   4.413
 6535SOL    HW220505   6.057   3.240   4.270
 6536SOL     OW20506   0.564   2.657   5.553
 6536SOL    HW120507   0.550   2.700   5.642
 6536SOL    HW220508   0.495   2.585   5.540
 6537SOL     OW20509   6.306   4.503   4.984
 6537SOL    HW120510   6.209   4.525   4.976
 6537SOL    HW220511   6.357   4.584   5.013
 6538SOL     OW20512   2.081   3.818   4.970
 6538SOL    HW120513   2.104   3.754   5.043
 6538SOL    HW220514   2.154   3.886   4.961
 6539SOL     OW20515   6.428   0.818   6.771
 6539SOL    HW120516   6.440   0.822   6.672
 6539SOL    HW220517   6.414   0.910   6.807
 6540SOL     OW20518   4.135   2.815   5.914
 6540SOL    HW120519   4.044   2.829   5.953
 6540SOL    HW220520   4.175   2.903   5.890
 6541SOL     OW20521   6.046   1.429   4.972
 6541SOL    HW120522   6.049   1.365   5.049
 6541SOL    HW220523   6.011   1.517   5.003
 6542SOL     OW20524   1.526   3.301   4.612
 6542SOL    HW120525   1.612   3.252   4.628
 6542SOL    HW220526   1.518   3.375   4.678
 6543SOL     OW20527   3.641   2.022   4.946
 6543SOL    HW120528   3.553   2.053   4.909
 6543SOL    HW220529   3.706   2.008   4.871
 6544SOL     OW20530   0.912   0.350   1.528
 6544SOL    HW120531   0.943   0.445   1.537
 6544SOL    HW220532   0.812   0.347   1.529
 6545SOL     OW20533   4.440   6.901   1.253
 6545SOL    HW120534   4.398   6.913   1.163
 6545SOL    HW220535   4.392   6.958   1.320
 6546SOL     OW20536   5.286   4.602   6.350
 6546SOL    HW120537   5.325   4.611   6.442
 6546SOL    HW220538   5.188   4.584   6.356
 6547SOL     OW20539   5.399   6.203   6.870
 6547SOL    HW120540   5.329   6.274   6.880
 6547SOL    HW220541   5.463   6.207   6.947
 6548SOL     OW20542   0.866   2.774   6.025
 6548SOL    HW120543   0.910   2.850   6.073
 6548SOL    HW220544   0.818   2.810   5.945
 6549SOL     OW20545   5.131   6.754   1.975
 6549SOL    HW120546   5.067   6.685   1.942
 6549SOL    HW220547   5.219   6.711   1.997
 6550SOL     OW20548   6.508   6.948   2.942
 6550SOL    HW120549   6.460   6.998   3.014
 6550SOL    HW220550   6.600   6.924   2.973
 6551SOL     OW20551   2.992   3.451   1.306
 6551SOL    HW120552   2.954   3.470   1.397
 6551SOL    HW220553   2.983   3.354   1.286
 6552SOL     OW20554   2.168   6.857   0.552
 6552SOL    HW120555   2.256   6.902   0.564
 6552SOL    HW220556   2.099   6.903   0.607
 6553SOL     OW20557   0.044   0.939   2.500
 6553SOL    HW120558   6.974   0.933   2.552
 6553SOL    HW220559   0.031   1.002   2.423
 6554SOL     OW20560   2.915   1.113   4.294
 6554SOL    HW120561   2.977   1.108   4.216
 6554SOL    HW220562   2.890   1.021   4.323
 6555SOL     OW20563   6.115   2.154   5.033
 6555SOL    HW120564   6.040   2.106   4.990
 6555SOL    HW220565   6.143   2.105   5.116
 6556SOL     OW20566   6.058   3.326   3.230
 6556SOL    HW120567   6.148   3.363   3.206
 6556SOL    HW220568   6.016   3.284   3.150
 6557SOL     OW20569   1.420   6.694   2.379
 6557SOL    HW120570   1.440   6.723   2.285
 6557SOL    HW220571   1.326   6.720   2.402
 6558SOL     OW20572   5.831   5.196   0.270
 6558SOL    HW120573   5.839   5.243   0.359
 6558SOL    HW220574   5.864   5.102   0.279
 6559SOL     OW20575   6.723   3.368   6.359
 6559SOL    HW120576   6.681   3.314   6.286
 6559SOL    HW220577   6.766   3.307   6.425
 6560SOL     OW20578   4.632   4.853   0.600
 6560SOL    HW120579   4.623   4.933   0.541
 6560SOL    HW220580   4.662   4.881   0.691
 6561SOL     OW20581   3.937   5.206   0.363
 6561SOL    HW120582   4.006   5.162   0.421
 6561SOL    HW220583   3.982   5.271   0.302
 6562SOL     OW20584   5.698   2.524   0.878
 6562SOL    HW120585   5.634   2.601   0.875
 6562SOL    HW220586   5.737   2.510   0.787
 6563SOL     OW20587   5.220   6.784   5.393
 6563SOL    HW120588   5.231   6.874   5.353
 6563SOL    HW220589   5.304   6.730   5.378
 6564SOL     OW20590   6.845   3.767   2.587
 6564SOL    HW120591   6.835   3.792   2.683
 6564SOL    HW220592   6.931   3.717   2.574
 6565SOL     OW20593   6.274   6.631   2.247
 6565SOL    HW120594   6.273   6.708   2.182
 6565SOL    HW220595   6.181   6.614   2.279
 6566SOL     OW20596   3.512   5.796   2.476
 6566SOL    HW120597   3.558   5.857   2.412
 6566SOL    HW220598   3.554   5.805   2.566
 6567SOL     OW20599   4.509   0.629   1.573
 6567SOL    HW120600   4.465   0.689   1.505
 6567SOL    HW220601   4.551   0.686   1.644
 6568SOL     OW20602   4.011   1.410   1.952
 6568SOL    HW120603   4.082   1.420   2.022
 6568SOL    HW220604   3.966   1.499   1.937
 6569SOL     OW20605   0.987   3.236   5.857
 6569SOL    HW120606   0.893   3.271   5.863
 6569SOL    HW220607   1.031   3.271   5.775
 6570SOL     OW20608   3.906   0.145   1.818
 6570SOL    HW120609   3.837   0.192   1.873
 6570SOL    HW220610   3.994   0.190   1.829
 6571SOL     OW20611   2.647   4.629   3.590
 6571SOL    HW120612   2.689   4.642   3.680
 6571SOL    HW220613   2.548   4.622   3.600
 6572SOL     OW20614   0.247   4.803   3.793
 6572SOL    HW120615   0.185   4.734   3.830
 6572SOL    HW220616   0.340   4.782   3.820
 6573SOL     OW20617   1.673   1.010   2.891
 6573SOL    HW120618   1.727   0.928   2.910
 6573SOL    HW220619   1.600   1.017   2.959
 6574SOL     OW20620   2.131   6.155   2.927
 6574SOL    HW120621   2.062   6.186   2.863
 6574SOL    HW220622   2.209   6.219   2.926
 6575SOL     OW20623   0.018   0.393   2.641
 6575SOL    HW120624   0.080   0.317   2.622
 6575SOL    HW220625   6.973   0.408   2.563
 6576SOL     OW20626   3.501   5.172   0.343
 6576SOL    HW120627   3.485   5.083   0.299
 6576SOL    HW220628   3.567   5.161   0.417
 6577SOL     OW20629   1.887   2.537   4.026
 6577SOL    HW120630   1.818   2.606   4.048
 6577SOL    HW220631   1.960   2.541   4.094
 6578SOL     OW20632   1.444   5.155   1.001
 6578SOL    HW120633   1.478   5.067   1.033
 6578SOL    HW220634   1.413   5.147   0.906
 6579SOL     OW20635   6.931   1.133   3.661
 6579SOL    HW120636   6.832   1.120   3.658
 6579SOL    HW220637   6.962   1.134   3.756
 6580SOL     OW20638   1.165   0.387   7.004
 6580SOL    HW120639   1.173   0.325   0.066
 6580SOL    HW220640   1.157   0.481   0.022
 6581SOL     OW20641   1.281   1.805   0.207
 6581SOL    HW120642   1.336   1.756   0.139
 6581SOL    HW220643   1.244   1.739   0.273
 6582SOL     OW20644   6.518   0.272   2.810
 6582SOL    HW120645   6.546   0.200   2.746
 6582SOL    HW220646   6.538   0.361   2.770
 6583SOL     OW20647   4.439   0.145   6.124
 6583SOL    HW120648   4.474   0.230   6.163
 6583SOL    HW220649   4.340   0.149   6.117
 6584SOL     OW20650   3.861   2.680   1.070
 6584SOL    HW120651   3.807   2.596   1.068
 6584SOL    HW220652   3.953   2.660   1.104
 6585SOL     OW20653   6.221   0.134   0.699
 6585SOL    HW120654   6.296   0.198   0.715
 6585SOL    HW220655   6.158   0.134   0.777
 6586SOL     OW20656   6.138   2.276   6.033
 6586SOL    HW120657   6.209   2.265   6.104
 6586SOL    HW220658   6.132   2.372   6.007
 6587SOL     OW20659   1.372   4.433   5.563
 6587SOL    HW120660   1.346   4.529   5.559
 6587SOL    HW220661   1.428   4.417   5.645
 6588SOL     OW20662   0.345   3.158   0.697
 6588SOL    HW120663   0.250   3.163   0.667
 6588SOL    HW220664   0.401   3.114   0.627
 6589SOL     OW20665   6.392   1.103   1.397
 6589SOL    HW120666   6.486   1.080   1.423
 6589SOL    HW220667   6.336   1.020   1.397
 6590SOL     OW20668   0.775   0.717   5.538
 6590SOL    HW120669   0.732   0.646   5.594
 6590SOL    HW220670   0.800   0.679   5.449
 6591SOL     OW20671   5.197   5.350   4.582
 6591SOL    HW120672   5.253   5.314   4.507
 6591SOL    HW220673   5.139   5.423   4.546
 6592SOL     OW20674   4.949   0.379   3.180
 6592SOL    HW120675   4.858   0.342   3.200
 6592SOL    HW220676   5.018   0.324   3.228
 6593SOL     OW20677   2.954   2.180   2.290
 6593SOL    HW120678   2.926   2.085   2.273
 6593SOL    HW220679   2.939   2.235   2.208
 6594SOL     OW20680   3.843   1.400   5.851
 6594SOL    HW120681   3.940   1.398   5.874
 6594SOL    HW220682   3.788   1.388   5.934
 6595SOL     OW20683   2.246   2.252   4.705
 6595SOL    HW120684   2.191   2.175   4.673
 6595SOL    HW220685   2.231   2.267   4.802
 6596SOL     OW20686   5.076   5.807   2.557
 6596SOL    HW120687   5.090   5.884   2.619
 6596SOL    HW220688   5.064   5.723   2.610
 6597SOL     OW20689   0.965   5.567   1.619
 6597SOL    HW120690   1.053   5.613   1.629
 6597SOL    HW220691   0.952   5.540   1.524
 6598SOL     OW20692   1.685   4.477   4.069
 6598SOL    HW120693   1.594   4.482   4.109
 6598SOL    HW220694   1.752   4.453   4.140
 6599SOL     OW20695   5.800   5.893   6.985
 6599SOL    HW120696   5.789   5.970   6.922
 6599SOL    HW220697   5.894   5.860   6.981
 6600SOL     OW20698   4.834   0.774   5.674
 6600SOL    HW120699   4.828   0.839   5.750
 6600SOL    HW220700   4.749   0.721   5.668
 6601SOL     OW20701   1.107   2.882   2.889
 6601SOL    HW120702   1.008   2.886   2.879
 6601SOL    HW220703   1.141   2.795   2.853
 6602SOL     OW20704   2.246   0.191   1.497
 6602SOL    HW120705   2.299   0.245   1.562
 6602SOL    HW220706   2.307   0.130   1.446
 6603SOL     OW20707   0.592   3.198   4.195
 6603SOL    HW120708   0.648   3.121   4.223
 6603SOL    HW220709   0.607   3.216   4.097
 6604SOL     OW20710   2.727   0.385   1.979
 6604SOL    HW120711   2.727   0.303   2.035
 6604SOL    HW220712   2.684   0.460   2.029
 6605SOL     OW20713   5.985   5.573   1.492
 6605SOL    HW120714   5.949   5.479   1.499
 6605SOL    HW220715   5.912   5.638   1.515
 6606SOL     OW20716   1.302   3.776   3.416
 6606SOL    HW120717   1.274   3.691   3.461
 6606SOL    HW220718   1.365   3.755   3.342
 6607SOL     OW20719   5.683   4.517   4.229
 6607SOL    HW120720   5.761   4.563   4.271
 6607SOL    HW220721   5.622   4.585   4.188
 6608SOL     OW20722   6.772   6.887   6.766
 6608SOL    HW120723   6.857   6.906   6.815
 6608SOL    HW220724   6.788   6.890   6.668
 6609SOL     OW20725   4.843   2.054   6.071
 6609SOL    HW120726   4.924   2.112   6.076
 6609SOL    HW220727   4.868   1.959   6.091
 6610SOL     OW20728   2.403   5.907   0.662
 6610SOL    HW120729   2.485   5.896   0.718
 6610SOL    HW220730   2.389   6.004   0.643
 6611SOL     OW20731   4.946   2.295   3.565
 6611SOL    HW120732   4.921   2.343   3.481
 6611SOL    HW220733   4.994   2.357   3.626
 6612SOL     OW20734   5.889   2.174   6.120
 6612SOL    HW120735   5.986   2.180   6.098
 6612SOL    HW220736   5.852   2.088   6.084
 6613SOL     OW20737   5.214   0.782   6.296
 6613SOL    HW120738   5.271   0.860   6.321
 6613SOL    HW220739   5.252   0.698   6.336
 6614SOL     OW20740   4.612   5.816   1.863
 6614SOL    HW120741   4.693   5.757   1.863
 6614SOL    HW220742   4.563   5.804   1.950
 6615SOL     OW20743   3.110   5.657   0.338
 6615SOL    HW120744   3.013   5.633   0.334
 6615SOL    HW220745   3.121   5.756   0.340
 6616SOL     OW20746   4.396   0.296   6.463
 6616SOL    HW120747   4.447   0.322   6.381
 6616SOL    HW220748   4.422   0.356   6.539
 6617SOL     OW20749   4.037   0.630   3.262
 6617SOL    HW120750   4.136   0.621   3.278
 6617SOL    HW220751   4.010   0.725   3.273
 6618SOL     OW20752   0.703   1.460   3.036
 6618SOL    HW120753   0.689   1.557   3.019
 6618SOL    HW220754   0.648   1.407   2.971
 6619SOL     OW20755   4.568   0.145   4.181
 6619SOL    HW120756   4.511   0.136   4.263
 6619SOL    HW220757   4.557   0.064   4.123
 6620SOL     OW20758   0.903   3.963   3.473
 6620SOL    HW120759   0.823   3.903   3.481
 6620SOL    HW220760   0.982   3.909   3.445
 6621SOL     OW20761   3.668   3.071   4.745
 6621SOL    HW120762   3.609   2.999   4.710
 6621SOL    HW220763   3.660   3.153   4.688
 6622SOL     OW20764   6.373   5.765   0.802
 6622SOL    HW120765   6.350   5.802   0.893
 6622SOL    HW220766   6.360   5.836   0.733
 6623SOL     OW20767   3.595   4.198   5.381
 6623SOL    HW120768   3.511   4.251   5.367
 6623SOL    HW220769   3.600   4.169   5.477
 6624SOL     OW20770   0.868   2.423   4.938
 6624SOL    HW120771   0.839   2.434   4.843
 6624SOL    HW220772   0.895   2.329   4.955
 6625SOL     OW20773   6.229   3.112   5.659
 6625SOL    HW120774   6.186   3.041   5.603
 6625SOL    HW220775   6.207   3.202   5.621
 6626SOL     OW20776   2.798   6.955   4.788
 6626SOL    HW120777   2.836   6.863   4.789
 6626SOL    HW220778   2.848   7.011   4.722
 6627SOL     OW20779   1.266   5.919   4.464
 6627SOL    HW120780   1.341   5.977   4.494
 6627SOL    HW220781   1.250   5.934   4.366
 6628SOL     OW20782   4.950   5.694   4.101
 6628SOL    HW120783   4.887   5.767   4.075
 6628SOL    HW220784   4.930   5.612   4.048
 6629SOL     OW20785   4.865   5.683   6.667
 6629SOL    HW120786   4.957   5.691   6.705
 6629SOL    HW220787   4.862   5.728   6.578
 6630SOL     OW20788   2.758   1.406   2.153
 6630SOL    HW120789   2.766   1.363   2.063
 6630SOL    HW220790   2.720   1.340   2.217
 6631SOL     OW20791   1.169   5.227   5.713
 6631SOL    HW120792   1.140   5.244   5.619
 6631SOL    HW220793   1.222   5.142   5.717
 6632SOL     OW20794   1.548   0.517   0.847
 6632SOL    HW120795   1.479   0.589   0.851
 6632SOL    HW220796   1.610   0.526   0.925
 6633SOL     OW20797   3.235   5.184   6.276
 6633SOL    HW120798   3.320   5.148   6.239
 6633SOL    HW220799   3.206   5.264   6.222
 6634SOL     OW20800   5.231   2.067   5.936
 6634SOL    HW120801   5.259   2.159   5.905
 6634SOL    HW220802   5.281   2.044   6.020
 6635SOL     OW20803   4.679   4.562   2.684
 6635SOL    HW120804   4.652   4.625   2.611
 6635SOL    HW220805   4.689   4.612   2.770
 6636SOL     OW20806   2.989   0.233   2.515
 6636SOL    HW120807   2.955   0.291   2.441
 6636SOL    HW220808   3.055   0.168   2.478
 6637SOL     OW20809   1.973   0.615   0.811
 6637SOL    HW120810   2.028   0.686   0.767
 6637SOL    HW220811   1.935   0.651   0.896
 6638SOL     OW20812   3.073   3.871   3.583
 6638SOL    HW120813   3.120   3.958   3.591
 6638SOL    HW220814   3.005   3.876   3.510
 6639SOL     OW20815   4.349   2.824   0.762
 6639SOL    HW120816   4.371   2.836   0.859
 6639SOL    HW220817   4.289   2.744   0.751
 6640SOL     OW20818   0.485   2.829   5.358
 6640SOL    HW120819   0.391   2.807   5.331
 6640SOL    HW220820   0.517   2.762   5.425
 6641SOL     OW20821   4.240   1.672   0.969
 6641SOL    HW120822   4.227   1.622   0.883
 6641SOL    HW220823   4.200   1.763   0.960
 6642SOL     OW20824   2.009   5.343   0.698
 6642SOL    HW120825   1.941   5.298   0.757
 6642SOL    HW220826   2.022   5.289   0.615
 6643SOL     OW20827   5.343   6.211   0.503
 6643SOL    HW120828   5.328   6.116   0.477
 6643SOL    HW220829   5.435   6.223   0.538
 6644SOL     OW20830   1.998   6.438   2.454
 6644SOL    HW120831   1.966   6.483   2.537
 6644SOL    HW220832   1.949   6.352   2.441
 6645SOL     OW20833   6.044   2.858   0.624
 6645SOL    HW120834   6.071   2.802   0.702
 6645SOL    HW220835   5.956   2.827   0.588
 6646SOL     OW20836   4.125   0.874   0.298
 6646SOL    HW120837   4.162   0.789   0.259
 6646SOL    HW220838   4.037   0.895   0.256
 6647SOL     OW20839   4.840   5.320   1.231
 6647SOL    HW120840   4.897   5.331   1.150
 6647SOL    HW220841   4.809   5.225   1.238
 6648SOL     OW20842   3.389   6.434   4.489
 6648SOL    HW120843   3.367   6.531   4.477
 6648SOL    HW220844   3.342   6.399   4.570
 6649SOL     OW20845   5.762   2.980   6.547
 6649SOL    HW120846   5.763   2.881   6.534
 6649SOL    HW220847   5.856   3.013   6.558
 6650SOL     OW20848   3.907   0.975   5.300
 6650SOL    HW120849   3.899   0.930   5.389
 6650SOL    HW220850   3.931   1.071   5.314
 6651SOL     OW20851   1.028   1.856   6.988
 6651SOL    HW120852   1.114   1.809   6.972
 6651SOL    HW220853   1.004   1.849   0.070
 6652SOL     OW20854   0.773   4.338   0.054
 6652SOL    HW120855   0.732   4.271   0.115
 6652SOL    HW220856   0.871   4.318   0.044
 6653SOL     OW20857   4.906   2.925   0.423
 6653SOL    HW120858   4.815   2.935   0.381
 6653SOL    HW220859   4.972   2.980   0.373
 6654SOL     OW20860   0.615   4.594   2.911
 6654SOL    HW120861   0.522   4.604   2.875
 6654SOL    HW220862   0.674   4.662   2.868
 6655SOL     OW20863   6.688   5.462   1.633
 6655SOL    HW120864   6.664   5.367   1.656
 6655SOL    HW220865   6.657   5.523   1.706
 6656SOL     OW20866   4.276   1.532   2.590
 6656SOL    HW120867   4.343   1.475   2.638
 6656SOL    HW220868   4.256   1.491   2.501
 6657SOL     OW20869   5.202   2.474   4.670
 6657SOL    HW120870   5.142   2.519   4.736
 6657SOL    HW220871   5.296   2.474   4.704
 6658SOL     OW20872   6.253   0.293   5.310
 6658SOL    HW120873   6.175   0.248   5.265
 6658SOL    HW220874   6.219   0.356   5.380
 6659SOL     OW20875   1.283   5.222   1.656
 6659SOL    HW120876   1.317   5.309   1.619
 6659SOL    HW220877   1.358   5.156   1.658
 6660SOL     OW20878   1.429   5.555   2.673
 6660SOL    HW120879   1.379   5.620   2.731
 6660SOL    HW220880   1.468   5.604   2.595
 6661SOL     OW20881   3.079   6.632   4.251
 6661SOL    HW120882   3.176   6.608   4.242
 6661SOL    HW220883   3.025   6.550   4.268
 6662SOL     OW20884   2.305   0.417   1.860
 6662SOL    HW120885   2.253   0.492   1.817
 6662SOL    HW220886   2.252   0.332   1.854
 6663SOL     OW20887   1.456   5.709   6.190
 6663SOL    HW120888   1.439   5.754   6.102
 6663SOL    HW220889   1.382   5.645   6.209
 6664SOL     OW20890   2.137   0.866   1.969
 6664SOL    HW120891   2.191   0.876   1.885
 6664SOL    HW220892   2.198   0.841   2.045
 6665SOL     OW20893   2.957   6.870   6.024
 6665SOL    HW120894   2.989   6.959   6.056
 6665SOL    HW220895   3.018   6.837   5.952
 6666SOL     OW20896   6.273   5.630   4.959
 6666SOL    HW120897   6.352   5.645   4.899
 6666SOL    HW220898   6.191   5.617   4.904
 6667SOL     OW20899   0.092   6.590   5.443
 6667SOL    HW120900   0.037   6.528   5.499
 6667SOL    HW220901   0.124   6.666   5.500
 6668SOL     OW20902   6.837   6.085   1.413
 6668SOL    HW120903   6.891   6.050   1.337
 6668SOL    HW220904   6.830   6.184   1.407
 6669SOL     OW20905   2.910   1.612   1.953
 6669SOL    HW120906   2.850   1.531   1.949
 6669SOL    HW220907   2.858   1.691   1.985
 6670SOL     OW20908   2.975   1.807   6.898
 6670SOL    HW120909   2.972   1.851   6.808
 6670SOL    HW220910   3.066   1.817   6.937
 6671SOL     OW20911   4.859   6.433   0.645
 6671SOL    HW120912   4.844   6.520   0.692
 6671SOL    HW220913   4.851   6.358   0.711
 6672SOL     OW20914   1.716   2.602   0.228
 6672SOL    HW120915   1.721   2.678   0.164
 6672SOL    HW220916   1.665   2.630   0.310
 6673SOL     OW20917   5.314   3.264   4.027
 6673SOL    HW120918   5.384   3.251   3.957
 6673SOL    HW220919   5.236   3.312   3.988
 6674SOL     OW20920   0.599   2.929   6.355
 6674SOL    HW120921   0.510   2.920   6.399
 6674SOL    HW220922   0.612   3.024   6.325
 6675SOL     OW20923   4.458   2.433   6.913
 6675SOL    HW120924   4.464   2.367   6.989
 6675SOL    HW220925   4.455   2.383   6.826
 6676SOL     OW20926   1.360   4.001   3.172
 6676SOL    HW120927   1.458   3.988   3.158
 6676SOL    HW220928   1.310   3.927   3.127
 6677SOL     OW20929   0.528   0.701   0.085
 6677SOL    HW120930   0.528   0.612   0.039
 6677SOL    HW220931   0.539   0.774   0.017
 6678SOL     OW20932   1.830   3.855   0.538
 6678SOL    HW120933   1.902   3.867   0.606
 6678SOL    HW220934   1.857   3.786   0.472
 6679SOL     OW20935   2.884   0.675   3.819
 6679SOL    HW120936   2.919   0.582   3.810
 6679SOL    HW220937   2.958   0.740   3.801
 6680SOL     OW20938   4.585   6.779   0.454
 6680SOL    HW120939   4.519   6.745   0.521
 6680SOL    HW220940   4.648   6.705   0.430
 6681SOL     OW20941   4.760   5.190   1.614
 6681SOL    HW120942   4.811   5.275   1.603
 6681SOL    HW220943   4.819   5.112   1.596
 6682SOL     OW20944   2.618   5.326   7.001
 6682SOL    HW120945   2.632   5.354   0.081
 6682SOL    HW220946   2.655   5.395   6.940
 6683SOL     OW20947   6.035   3.354   6.541
 6683SOL    HW120948   5.994   3.375   6.452
 6683SOL    HW220949   5.970   3.374   6.614
 6684SOL     OW20950   3.369   0.365   1.686
 6684SOL    HW120951   3.388   0.329   1.595
 6684SOL    HW220952   3.454   0.363   1.740
 6685SOL     OW20953   3.870   3.486   6.632
 6685SOL    HW120954   3.882   3.460   6.537
 6685SOL    HW220955   3.842   3.406   6.685
 6686SOL     OW20956   6.247   5.480   3.575
 6686SOL    HW120957   6.258   5.552   3.507
 6686SOL    HW220958   6.159   5.490   3.621
 6687SOL     OW20959   6.699   2.152   1.341
 6687SOL    HW120960   6.713   2.053   1.350
 6687SOL    HW220961   6.723   2.196   1.428
 6688SOL     OW20962   4.242   4.266   0.874
 6688SOL    HW120963   4.268   4.363   0.876
 6688SOL    HW220964   4.154   4.254   0.920
 6689SOL     OW20965   3.794   4.210   5.781
 6689SOL    HW120966   3.867   4.148   5.809
 6689SOL    HW220967   3.740   4.237   5.860
 6690SOL     OW20968   1.478   0.755   6.306
 6690SOL    HW120969   1.431   0.754   6.217
 6690SOL    HW220970   1.435   0.691   6.368
 6691SOL     OW20971   1.774   1.134   2.479
 6691SOL    HW120972   1.685   1.103   2.446
 6691SOL    HW220973   1.764   1.177   2.569
 6692SOL     OW20974   4.303   4.508   1.818
 6692SOL    HW120975   4.237   4.489   1.745
 6692SOL    HW220976   4.373   4.437   1.819
 6693SOL     OW20977   4.715   1.974   4.821
 6693SOL    HW120978   4.741   1.972   4.918
 6693SOL    HW220979   4.615   1.981   4.814
 6694SOL     OW20980   3.443   5.269   1.504
 6694SOL    HW120981   3.383   5.346   1.483
 6694SOL    HW220982   3.532   5.304   1.533
 6695SOL     OW20983   2.991   2.070   0.479
 6695SOL    HW120984   3.056   2.108   0.544
 6695SOL    HW220985   2.898   2.079   0.515
 6696SOL     OW20986   3.959   3.810   3.697
 6696SOL    HW120987   3.917   3.881   3.753
 6696SOL    HW220988   3.980   3.846   3.607
 6697SOL     OW20989   5.348   2.336   2.531
 6697SOL    HW120990   5.292   2.263   2.491
 6697SOL    HW220991   5.439   2.336   2.489
 6698SOL     OW20992   3.343   3.689   1.539
 6698SOL    HW120993   3.298   3.655   1.456
 6698SOL    HW220994   3.441   3.701   1.521
 6699SOL     OW20995   1.837   5.583   5.952
 6699SOL    HW120996   1.806   5.676   5.971
 6699SOL    HW220997   1.795   5.551   5.867
 6700SOL     OW20998   5.756   0.348   0.663
 6700SOL    HW120999   5.854   0.366   0.658
 6700SOL    HW221000   5.708   0.433   0.682
 6701SOL     OW21001   6.232   6.925   1.443
 6701SOL    HW121002   6.264   6.912   1.537
 6701SOL    HW221003   6.157   6.863   1.425
 6702SOL     OW21004   1.912   2.061   0.961
 6702SOL    HW121005   1.925   1.962   0.969
 6702SOL    HW221006   1.965   2.108   1.032
 6703SOL     OW21007   1.497   1.580   6.155
 6703SOL    HW121008   1.568   1.522   6.195
 6703SOL    HW221009   1.447   1.529   6.086
 6704SOL     OW21010   3.344   1.488   4.120
 6704SOL    HW121011   3.260   1.435   4.136
 6704SOL    HW221012   3.358   1.551   4.196
 6705SOL     OW21013   6.038   3.056   1.243
 6705SOL    HW121014   6.074   3.029   1.332
 6705SOL    HW221015   5.987   3.141   1.252
 6706SOL     OW21016   1.291   6.112   0.789
 6706SOL    HW121017   1.346   6.142   0.867
 6706SOL    HW221018   1.239   6.030   0.815
 6707SOL     OW21019   5.706   0.271   2.305
 6707SOL    HW121020   5.802   0.300   2.300
 6707SOL    HW221021   5.702   0.171   2.306
 6708SOL     OW21022   6.121   4.461   1.604
 6708SOL    HW121023   6.101   4.414   1.518
 6708SOL    HW221024   6.083   4.409   1.681
 6709SOL     OW21025   1.291   4.180   1.799
 6709SOL    HW121026   1.208   4.212   1.844
 6709SOL    HW221027   1.363   4.167   1.867
 6710SOL     OW21028   4.752   1.302   1.727
 6710SOL    HW121029   4.699   1.316   1.643
 6710SOL    HW221030   4.756   1.387   1.779
 6711SOL     OW21031   4.881   6.332   6.171
 6711SOL    HW121032   4.952   6.263   6.189
 6711SOL    HW221033   4.793   6.299   6.204
 6712SOL     OW21034   6.237   3.541   0.568
 6712SOL    HW121035   6.160   3.530   0.631
 6712SOL    HW221036   6.203   3.551   0.475
 6713SOL     OW21037   1.270   0.916   3.765
 6713SOL    HW121038   1.223   1.003   3.776
 6713SOL    HW221039   1.295   0.879   3.855
 6714SOL     OW21040   6.077   1.250   1.076
 6714SOL    HW121041   6.009   1.307   1.121
 6714SOL    HW221042   6.098   1.288   0.986
 6715SOL     OW21043   1.795   0.997   1.337
 6715SOL    HW121044   1.709   1.025   1.380
 6715SOL    HW221045   1.780   0.977   1.240
 6716SOL     OW21046   6.657   5.602   2.161
 6716SOL    HW121047   6.630   5.508   2.140
 6716SOL    HW221048   6.745   5.622   2.119
 6717SOL     OW21049   3.442   2.579   6.764
 6717SOL    HW121050   3.437   2.670   6.723
 6717SOL    HW221051   3.403   2.582   6.857
 6718SOL     OW21052   4.376   1.562   1.418
 6718SOL    HW121053   4.347   1.652   1.451
 6718SOL    HW221054   4.356   1.554   1.320
 6719SOL     OW21055   1.764   0.024   0.028
 6719SOL    HW121056   1.828   0.082   0.078
 6719SOL    HW221057   1.811   6.956   7.012
 6720SOL     OW21058   2.817   0.923   5.583
 6720SOL    HW121059   2.897   0.898   5.528
 6720SOL    HW221060   2.779   1.009   5.549
 6721SOL     OW21061   0.233   0.367   0.430
 6721SOL    HW121062   0.190   0.277   0.427
 6721SOL    HW221063   0.287   0.375   0.514
 6722SOL     OW21064   0.191   3.195   0.316
 6722SOL    HW121065   0.286   3.172   0.294
 6722SOL    HW221066   0.178   3.193   0.415
 6723SOL     OW21067   2.216   1.364   6.654
 6723SOL    HW121068   2.123   1.361   6.690
 6723SOL    HW221069   2.269   1.433   6.705
 6724SOL     OW21070   2.417   2.944   6.258
 6724SOL    HW121071   2.402   3.040   6.280
 6724SOL    HW221072   2.495   2.935   6.196
 6725SOL     OW21073   5.967   3.041   3.018
 6725SOL    HW121074   5.913   2.971   2.972
 6725SOL    HW221075   6.050   3.060   2.965
 6726SOL     OW21076   0.566   1.605   5.115
 6726SOL    HW121077   0.540   1.525   5.061
 6726SOL    HW221078   0.518   1.605   5.202
 6727SOL     OW21079   0.780   4.813   5.447
 6727SOL    HW121080   0.824   4.880   5.386
 6727SOL    HW221081   0.698   4.854   5.487
 6728SOL     OW21082   4.095   2.238   3.637
 6728SOL    HW121083   4.020   2.291   3.676
 6728SOL    HW221084   4.080   2.226   3.539
 6729SOL     OW21085   5.918   2.222   0.862
 6729SOL    HW121086   5.881   2.167   0.937
 6729SOL    HW221087   5.846   2.241   0.795
 6730SOL     OW21088   1.373   0.967   1.318
 6730SOL    HW121089   1.446   0.898   1.322
 6730SOL    HW221090   1.295   0.929   1.269
 6731SOL     OW21091   1.944   6.374   1.354
 6731SOL    HW121092   2.028   6.319   1.351
 6731SOL    HW221093   1.966   6.471   1.345
 6732SOL     OW21094   5.514   4.096   4.423
 6732SOL    HW121095   5.549   4.189   4.417
 6732SOL    HW221096   5.436   4.093   4.485
 6733SOL     OW21097   3.700   5.486   6.983
 6733SOL    HW121098   3.785   5.519   6.940
 6733SOL    HW221099   3.622   5.523   6.933
 6734SOL     OW21100   4.930   2.317   5.290
 6734SOL    HW121101   4.973   2.406   5.307
 6734SOL    HW221102   4.914   2.271   5.377
 6735SOL     OW21103   5.929   3.966   4.464
 6735SOL    HW121104   5.982   3.935   4.385
 6735SOL    HW221105   5.913   3.890   4.526
 6736SOL     OW21106   2.981   4.590   0.705
 6736SOL    HW121107   2.891   4.592   0.748
 6736SOL    HW221108   2.971   4.570   0.607
 6737SOL     OW21109   0.885   2.717   1.070
 6737SOL    HW121110   0.860   2.647   1.137
 6737SOL    HW221111   0.816   2.789   1.070
 6738SOL     OW21112   1.214   5.792   3.567
 6738SOL    HW121113   1.266   5.771   3.483
 6738SOL    HW221114   1.158   5.713   3.591
 6739SOL     OW21115   6.918   6.485   2.913
 6739SOL    HW121116   6.821   6.511   2.911
 6739SOL    HW221117   6.927   6.393   2.951
 6740SOL     OW21118   6.303   6.728   4.210
 6740SOL    HW121119   6.385   6.743   4.155
 6740SOL    HW221120   6.298   6.799   4.281
 6741SOL     OW21121   4.639   2.217   6.061
 6741SOL    HW121122   4.557   2.159   6.055
 6741SOL    HW221123   4.720   2.160   6.052
 6742SOL     OW21124   5.789   5.438   3.672
 6742SOL    HW121125   5.721   5.371   3.702
 6742SOL    HW221126   5.742   5.522   3.644
 6743SOL     OW21127   3.648   4.218   6.490
 6743SOL    HW121128   3.564   4.264   6.521
 6743SOL    HW221129   3.715   4.221   6.564
 6744SOL     OW21130   7.015   6.052   5.982
 6744SOL    HW121131   7.000   5.955   5.963
 6744SOL    HW221132   0.061   6.061   6.061
 6745SOL     OW21133   0.188   6.255   3.653
 6745SOL    HW121134   0.213   6.326   3.587
 6745SOL    HW221135   0.089   6.241   3.650
 6746SOL     OW21136   1.896   1.193   2.248
 6746SOL    HW121137   1.838   1.211   2.169
 6746SOL    HW221138   1.839   1.183   2.330
 6747SOL     OW21139   6.424   6.497   6.307
 6747SOL    HW121140   6.369   6.581   6.315
 6747SOL    HW221141   6.424   6.449   6.394
 6748SOL     OW21142   2.619   1.681   3.801
 6748SOL    HW121143   2.680   1.616   3.847
 6748SOL    HW221144   2.655   1.701   3.710
 6749SOL     OW21145   3.669   4.051   1.142
 6749SOL    HW121146   3.621   3.969   1.113
 6749SOL    HW221147   3.761   4.027   1.173
 6750SOL     OW21148   2.957   1.603   4.055
 6750SOL    HW121149   2.958   1.702   4.071
 6750SOL    HW221150   2.879   1.580   3.996
 6751SOL     OW21151   4.475   0.539   3.562
 6751SOL    HW121152   4.525   0.626   3.558
 6751SOL    HW221153   4.412   0.533   3.485
 6752SOL     OW21154   1.660   6.766   3.374
 6752SOL    HW121155   1.654   6.689   3.438
 6752SOL    HW221156   1.593   6.835   3.400
 6753SOL     OW21157   3.708   2.268   5.770
 6753SOL    HW121158   3.724   2.285   5.867
 6753SOL    HW221159   3.699   2.355   5.722
 6754SOL     OW21160   5.996   0.748   1.040
 6754SOL    HW121161   5.956   0.733   0.949
 6754SOL    HW221162   5.987   0.845   1.064
 6755SOL     OW21163   3.199   4.663   1.399
 6755SOL    HW121164   3.176   4.592   1.466
 6755SOL    HW221165   3.116   4.697   1.356
 6756SOL     OW21166   3.378   0.789   5.770
 6756SOL    HW121167   3.335   0.699   5.779
 6756SOL    HW221168   3.475   0.782   5.791
 6757SOL     OW21169   3.987   1.667   1.621
 6757SOL    HW121170   3.953   1.686   1.713
 6757SOL    HW221171   3.952   1.578   1.591
 6758SOL     OW21172   5.589   2.931   1.595
 6758SOL    HW121173   5.615   2.855   1.536
 6758SOL    HW221174   5.491   2.949   1.585
 6759SOL     OW21175   6.808   2.969   3.180
 6759SOL    HW121176   6.719   2.946   3.220
 6759SOL    HW221177   6.801   3.057   3.132
 6760SOL     OW21178   6.209   3.737   2.770
 6760SOL    HW121179   6.245   3.736   2.864
 6760SOL    HW221180   6.285   3.728   2.706
 6761SOL     OW21181   4.940   2.673   4.670
 6761SOL    HW121182   4.857   2.725   4.688
 6761SOL    HW221183   5.009   2.733   4.631
 6762SOL     OW21184   0.432   4.298   4.353
 6762SOL    HW121185   0.380   4.224   4.395
 6762SOL    HW221186   0.437   4.376   4.416
 6763SOL     OW21187   5.238   5.306   5.327
 6763SOL    HW121188   5.145   5.301   5.292
 6763SOL    HW221189   5.298   5.346   5.258
 6764SOL     OW21190   1.911   5.924   2.406
 6764SOL    HW121191   1.867   5.921   2.317
 6764SOL    HW221192   1.981   5.996   2.406
 6765SOL     OW21193   6.273   4.327   3.900
 6765SOL    HW121194   6.269   4.250   3.964
 6765SOL    HW221195   6.197   4.389   3.918
 6766SOL     OW21196   4.660   5.904   6.242
 6766SOL    HW121197   4.654   5.854   6.328
 6766SOL    HW221198   4.714   5.851   6.177
 6767SOL     OW21199   3.336   0.618   0.828
 6767SOL    HW121200   3.297   0.560   0.900
 6767SOL    HW221201   3.337   0.567   0.742
 6768SOL     OW21202   2.292   0.673   5.768
 6768SOL    HW121203   2.324   0.684   5.674
 6768SOL    HW221204   2.370   0.670   5.830
 6769SOL     OW21205   3.355   2.156   0.849
 6769SOL    HW121206   3.267   2.169   0.804
 6769SOL    HW221207   3.350   2.078   0.912
 6770SOL     OW21208   6.996   0.801   1.776
 6770SOL    HW121209   0.057   0.830   1.718
 6770SOL    HW221210   0.016   0.744   1.850
 6771SOL     OW21211   4.508   2.419   3.369
 6771SOL    HW121212   4.458   2.333   3.378
 6771SOL    HW221213   4.467   2.474   3.296
 6772SOL     OW21214   3.321   0.985   3.227
 6772SOL    HW121215   3.377   1.011   3.305
 6772SOL    HW221216   3.372   1.002   3.142
 6773SOL     OW21217   6.755   5.042   1.282
 6773SOL    HW121218   6.779   5.124   1.334
 6773SOL    HW221219   6.750   5.064   1.185
 6774SOL     OW21220   0.776   2.895   5.779
 6774SOL    HW121221   0.692   2.845   5.760
 6774SOL    HW221222   0.776   2.981   5.727
 6775SOL     OW21223   2.440   3.231   1.656
 6775SOL    HW121224   2.504   3.187   1.719
 6775SOL    HW221225   2.393   3.306   1.702
 6776SOL     OW21226   4.414   4.656   6.977
 6776SOL    HW121227   4.397   4.651   0.061
 6776SOL    HW221228   4.360   4.587   6.931
 6777SOL     OW21229   3.916   4.064   6.906
 6777SOL    HW121230   3.912   3.981   6.850
 6777SOL    HW221231   3.999   4.115   6.883
 6778SOL     OW21232   6.691   4.367   1.778
 6778SOL    HW121233   6.684   4.280   1.827
 6778SOL    HW221234   6.709   4.350   1.681
 6779SOL     OW21235   6.473   4.405   6.142
 6779SOL    HW121236   6.537   4.386   6.068
 6779SOL    HW221237   6.440   4.319   6.181
 6780SOL     OW21238   0.835   1.933   3.057
 6780SOL    HW121239   0.922   1.937   3.008
 6780SOL    HW221240   0.792   2.023   3.057
 6781SOL     OW21241   5.432   0.405   4.743
 6781SOL    HW121242   5.348   0.450   4.713
 6781SOL    HW221243   5.465   0.344   4.671
 6782SOL     OW21244   6.895   0.362   2.880
 6782SOL    HW121245   6.928   0.327   2.793
 6782SOL    HW221246   6.829   0.297   2.919
 6783SOL     OW21247   6.738   0.721   6.453
 6783SOL    HW121248   6.802   0.734   6.529
 6783SOL    HW221249   6.710   0.625   6.448
 6784SOL     OW21250   3.188   3.869   0.526
 6784SOL    HW121251   3.102   3.852   0.574
 6784SOL    HW221252   3.175   3.855   0.428
 6785SOL     OW21253   5.129   4.557   2.822
 6785SOL    HW121254   5.180   4.558   2.736
 6785SOL    HW221255   5.175   4.498   2.888
 6786SOL     OW21256   1.379   1.561   7.014
 6786SOL    HW121257   1.303   1.496   7.001
 6786SOL    HW221258   1.370   1.636   6.949
 6787SOL     OW21259   1.626   2.670   0.475
 6787SOL    HW121260   1.663   2.744   0.531
 6787SOL    HW221261   1.642   2.583   0.521
 6788SOL     OW21262   2.516   3.602   1.671
 6788SOL    HW121263   2.461   3.683   1.692
 6788SOL    HW221264   2.489   3.527   1.731
 6789SOL     OW21265   0.113   6.504   2.730
 6789SOL    HW121266   0.044   6.510   2.802
 6789SOL    HW221267   0.165   6.589   2.726
 6790SOL     OW21268   0.808   4.077   0.700
 6790SOL    HW121269   0.843   4.099   0.609
 6790SOL    HW221270   0.876   4.102   0.769
 6791SOL     OW21271   3.982   2.573   1.451
 6791SOL    HW121272   4.009   2.641   1.519
 6791SOL    HW221273   3.905   2.520   1.486
 6792SOL     OW21274   6.722   6.057   5.838
 6792SOL    HW121275   6.813   6.099   5.846
 6792SOL    HW221276   6.720   5.998   5.758
 6793SOL     OW21277   0.881   2.154   0.317
 6793SOL    HW121278   0.807   2.180   0.255
 6793SOL    HW221279   0.966   2.199   0.289
 6794SOL     OW21280   5.213   1.664   5.232
 6794SOL    HW121281   5.261   1.736   5.182
 6794SOL    HW221282   5.276   1.623   5.299
 6795SOL     OW21283   2.317   6.330   0.898
 6795SOL    HW121284   2.330   6.231   0.887
 6795SOL    HW221285   2.227   6.348   0.939
 6796SOL     OW21286   6.233   0.974   2.589
 6796SOL    HW121287   6.233   0.936   2.682
 6796SOL    HW221288   6.213   1.072   2.593
 6797SOL     OW21289   5.448   3.388   1.508
 6797SOL    HW121290   5.510   3.313   1.485
 6797SOL    HW221291   5.370   3.387   1.445
 6798SOL     OW21292   5.630   6.264   2.769
 6798SOL    HW121293   5.582   6.347   2.739
 6798SOL    HW221294   5.611   6.248   2.866
 6799SOL     OW21295   6.821   5.782   6.799
 6799SOL    HW121296   6.799   5.816   6.707
 6799SOL    HW221297   6.864   5.855   6.852
 6800SOL     OW21298   2.289   4.411   1.136
 6800SOL    HW121299   2.354   4.390   1.064
 6800SOL    HW221300   2.279   4.332   1.197
 6801SOL     OW21301   1.376   1.197   2.607
 6801SOL    HW121302   1.429   1.188   2.522
 6801SOL    HW221303   1.316   1.277   2.600
 6802SOL     OW21304   3.110   6.127   0.315
 6802SOL    HW121305   3.049   6.165   0.246
 6802SOL    HW221306   3.141   6.036   0.286
 6803SOL     OW21307   4.891   2.688   6.727
 6803SOL    HW121308   4.970   2.664   6.784
 6803SOL    HW221309   4.823   2.615   6.732
 6804SOL     OW21310   2.714   5.356   3.606
 6804SOL    HW121311   2.805   5.371   3.566
 6804SOL    HW221312   2.650   5.329   3.535
 6805SOL     OW21313   5.768   5.592   5.166
 6805SOL    HW121314   5.717   5.518   5.121
 6805SOL    HW221315   5.743   5.679   5.123
 6806SOL     OW21316   5.525   1.116   3.559
 6806SOL    HW121317   5.520   1.163   3.647
 6806SOL    HW221318   5.484   1.025   3.568
 6807SOL     OW21319   2.955   2.837   0.906
 6807SOL    HW121320   2.934   2.928   0.870
 6807SOL    HW221321   3.055   2.824   0.907
 6808SOL     OW21322   0.336   2.526   5.473
 6808SOL    HW121323   0.387   2.466   5.412
 6808SOL    HW221324   0.250   2.553   5.430
 6809SOL     OW21325   1.540   3.500   1.137
 6809SOL    HW121326   1.464   3.438   1.116
 6809SOL    HW221327   1.623   3.468   1.091
 6810SOL     OW21328   1.773   0.010   1.850
 6810SOL    HW121329   1.754   0.000   1.752
 6810SOL    HW221330   1.687   0.019   1.900
 6811SOL     OW21331   5.071   3.770   0.042
 6811SOL    HW121332   5.162   3.807   0.058
 6811SOL    HW221333   5.040   3.796   6.966
 6812SOL     OW21334   3.485   3.624   3.330
 6812SOL    HW121335   3.516   3.592   3.240
 6812SOL    HW221336   3.386   3.616   3.336
 6813SOL     OW21337   5.211   2.129   2.415
 6813SOL    HW121338   5.119   2.111   2.450
 6813SOL    HW221339   5.272   2.055   2.440
 6814SOL     OW21340   3.107   2.951   0.637
 6814SOL    HW121341   3.164   2.894   0.697
 6814SOL    HW221342   3.047   3.008   0.693
 6815SOL     OW21343   3.334   0.328   1.393
 6815SOL    HW121344   3.345   0.263   1.318
 6815SOL    HW221345   3.236   0.348   1.405
 6816SOL     OW21346   0.370   6.387   6.459
 6816SOL    HW121347   0.376   6.292   6.488
 6816SOL    HW221348   0.407   6.397   6.367
 6817SOL     OW21349   6.802   1.798   5.072
 6817SOL    HW121350   6.901   1.808   5.079
 6817SOL    HW221351   6.763   1.878   5.026
 6818SOL     OW21352   2.541   5.338   1.775
 6818SOL    HW121353   2.582   5.256   1.817
 6818SOL    HW221354   2.443   5.339   1.793
 6819SOL     OW21355   4.571   1.527   4.360
 6819SOL    HW121356   4.632   1.451   4.335
 6819SOL    HW221357   4.603   1.567   4.446
 6820SOL     OW21358   1.116   5.372   2.916
 6820SOL    HW121359   1.180   5.349   2.843
 6820SOL    HW221360   1.163   5.367   3.005
 6821SOL     OW21361   3.097   1.349   5.093
 6821SOL    HW121362   3.018   1.367   5.035
 6821SOL    HW221363   3.152   1.432   5.102
 6822SOL     OW21364   5.782   2.435   5.736
 6822SOL    HW121365   5.827   2.359   5.689
 6822SOL    HW221366   5.688   2.444   5.702
 6823SOL     OW21367   3.810   3.379   3.781
 6823SOL    HW121368   3.723   3.333   3.794
 6823SOL    HW221369   3.885   3.313   3.789
 6824SOL     OW21370   0.915   3.068   6.495
 6824SOL    HW121371   0.831   3.090   6.445
 6824SOL    HW221372   0.934   2.970   6.488
 6825SOL     OW21373   5.138   6.416   2.410
 6825SOL    HW121374   5.133   6.349   2.484
 6825SOL    HW221375   5.081   6.387   2.334
 6826SOL     OW21376   2.262   4.111   2.912
 6826SOL    HW121377   2.312   4.134   2.828
 6826SOL    HW221378   2.206   4.189   2.940
 6827SOL     OW21379   4.731   6.101   0.193
 6827SOL    HW121380   4.825   6.066   0.194
 6827SOL    HW221381   4.682   6.064   0.272
 6828SOL     OW21382   2.411   1.553   1.872
 6828SOL    HW121383   2.453   1.640   1.895
 6828SOL    HW221384   2.371   1.558   1.780
 6829SOL     OW21385   4.536   0.072   4.490
 6829SOL    HW121386   4.629   0.036   4.491
 6829SOL    HW221387   4.478   0.016   4.549
 6830SOL     OW21388   5.784   1.433   3.814
 6830SOL    HW121389   5.798   1.439   3.715
 6830SOL    HW221390   5.687   1.418   3.833
 6831SOL     OW21391   1.394   0.207   6.049
 6831SOL    HW121392   1.368   0.291   6.002
 6831SOL    HW221393   1.449   0.229   6.130
 6832SOL     OW21394   2.970   4.050   1.443
 6832SOL    HW121395   2.899   3.983   1.466
 6832SOL    HW221396   2.988   4.109   1.522
 6833SOL     OW21397   4.633   4.881   0.168
 6833SOL    HW121398   4.708   4.842   0.115
 6833SOL    HW221399   4.552   4.823   0.159
 6834SOL     OW21400   5.157   6.816   1.704
 6834SOL    HW121401   5.163   6.809   1.804
 6834SOL    HW221402   5.061   6.812   1.676
 6835SOL     OW21403   4.345   6.997   5.274
 6835SOL    HW121404   4.260   6.944   5.282
 6835SOL    HW221405   4.329   0.065   5.222
 6836SOL     OW21406   3.317   5.481   0.365
 6836SOL    HW121407   3.253   5.555   0.343
 6836SOL    HW221408   3.299   5.447   0.457
 6837SOL     OW21409   1.295   2.050   2.353
 6837SOL    HW121410   1.230   2.063   2.427
 6837SOL    HW221411   1.339   1.960   2.363
 6838SOL     OW21412   2.081   6.334   1.040
 6838SOL    HW121413   1.986   6.318   1.012
 6838SOL    HW221414   2.107   6.269   1.111
 6839SOL     OW21415   4.873   0.854   6.969
 6839SOL    HW121416   4.879   0.932   0.016
 6839SOL    HW221417   4.880   0.886   6.875
 6840SOL     OW21418   2.467   1.731   5.130
 6840SOL    HW121419   2.438   1.639   5.157
 6840SOL    HW221420   2.520   1.772   5.203
 6841SOL     OW21421   5.085   3.745   6.501
 6841SOL    HW121422   5.170   3.729   6.551
 6841SOL    HW221423   5.081   3.685   6.422
 6842SOL     OW21424   2.890   4.661   1.331
 6842SOL    HW121425   2.803   4.611   1.332
 6842SOL    HW221426   2.917   4.679   1.236
 6843SOL     OW21427   5.634   6.549   0.180
 6843SOL    HW121428   5.566   6.588   0.118
 6843SOL    HW221429   5.630   6.596   0.268
 6844SOL     OW21430   5.245   0.900   4.560
 6844SOL    HW121431   5.211   0.942   4.476
 6844SOL    HW221432   5.343   0.914   4.567
 6845SOL     OW21433   6.275   3.427   2.888
 6845SOL    HW121434   6.198   3.491   2.891
 6845SOL    HW221435   6.272   3.376   2.802
 6846SOL     OW21436   2.997   4.258   6.914
 6846SOL    HW121437   3.007   4.187   6.844
 6846SOL    HW221438   3.077   4.318   6.912
 6847SOL     OW21439   0.169   3.865   5.154
 6847SOL    HW121440   0.129   3.803   5.221
 6847SOL    HW221441   0.198   3.813   5.073
 6848SOL     OW21442   4.910   4.305   3.917
 6848SOL    HW121443   4.837   4.263   3.971
 6848SOL    HW221444   4.961   4.369   3.975
 6849SOL     OW21445   3.582   3.894   5.778
 6849SOL    HW121446   3.543   3.802   5.771
 6849SOL    HW221447   3.657   3.903   5.713
 6850SOL     OW21448   4.679   2.770   3.016
 6850SOL    HW121449   4.657   2.676   3.044
 6850SOL    HW221450   4.778   2.781   3.011
 6851SOL     OW21451   1.081   2.659   2.506
 6851SOL    HW121452   1.119   2.696   2.421
 6851SOL    HW221453   0.981   2.660   2.501
 6852SOL     OW21454   2.827   5.602   1.241
 6852SOL    HW121455   2.792   5.537   1.174
 6852SOL    HW221456   2.751   5.644   1.290
 6853SOL     OW21457   5.088   3.974   6.236
 6853SOL    HW121458   5.141   3.892   6.214
 6853SOL    HW221459   5.141   4.056   6.214
 6854SOL     OW21460   5.790   0.176   5.536
 6854SOL    HW121461   5.794   0.176   5.636
 6854SOL    HW221462   5.883   0.185   5.499
 6855SOL     OW21463   4.355   5.920   3.993
 6855SOL    HW121464   4.452   5.932   4.016
 6855SOL    HW221465   4.335   5.969   3.908
 6856SOL     OW21466   0.435   2.194   5.721
 6856SOL    HW121467   0.450   2.105   5.678
 6856SOL    HW221468   0.501   2.260   5.686
 6857SOL     OW21469   0.881   3.221   6.976
 6857SOL    HW121470   0.974   3.259   6.983
 6857SOL    HW221471   0.883   3.139   6.919
 6858SOL     OW21472   3.573   4.470   1.655
 6858SOL    HW121473   3.482   4.430   1.650
 6858SOL    HW221474   3.569   4.557   1.706
 6859SOL     OW21475   0.850   1.144   1.727
 6859SOL    HW121476   0.882   1.183   1.814
 6859SOL    HW221477   0.875   1.047   1.723
 6860SOL     OW21478   6.700   4.638   1.543
 6860SOL    HW121479   6.659   4.724   1.514
 6860SOL    HW221480   6.627   4.573   1.566
 6861SOL     OW21481   4.631   3.678   6.159
 6861SOL    HW121482   4.568   3.751   6.133
 6861SOL    HW221483   4.725   3.712   6.158
 6862SOL     OW21484   0.446   4.992   5.756
 6862SOL    HW121485   0.356   5.017   5.790
 6862SOL    HW221486   0.480   4.912   5.806
 6863SOL     OW21487   6.806   6.074   5.260
 6863SOL    HW121488   6.725   6.120   5.296
 6863SOL    HW221489   6.826   5.993   5.314
 6864SOL     OW21490   2.233   4.387   5.727
 6864SOL    HW121491   2.215   4.367   5.631
 6864SOL    HW221492   2.327   4.418   5.738
 6865SOL     OW21493   1.278   0.499   5.341
 6865SOL    HW121494   1.206   0.559   5.305
 6865SOL    HW221495   1.240   0.408   5.358
 6866SOL     OW21496   6.021   4.907   2.345
 6866SOL    HW121497   6.095   4.899   2.412
 6866SOL    HW221498   6.038   4.984   2.285
 6867SOL     OW21499   1.943   3.893   1.207
 6867SOL    HW121500   1.932   3.795   1.187
 6867SOL    HW221501   1.954   3.906   1.306
 6868SOL     OW21502   2.207   6.040   5.209
 6868SOL    HW121503   2.217   6.124   5.155
 6868SOL    HW221504   2.291   5.986   5.202
 6869SOL     OW21505   4.511   0.867   5.934
 6869SOL    HW121506   4.517   0.966   5.927
 6869SOL    HW221507   4.428   0.842   5.984
 6870SOL     OW21508   0.338   3.591   0.558
 6870SOL    HW121509   0.249   3.633   0.538
 6870SOL    HW221510   0.335   3.548   0.648
 6871SOL     OW21511   0.089   3.908   2.760
 6871SOL    HW121512   0.151   3.919   2.838
 6871SOL    HW221513   0.082   3.811   2.736
 6872SOL     OW21514   0.765   2.521   2.248
 6872SOL    HW121515   0.798   2.556   2.161
 6872SOL    HW221516   0.825   2.448   2.280
 6873SOL     OW21517   1.255   4.286   3.666
 6873SOL    HW121518   1.176   4.314   3.611
 6873SOL    HW221519   1.285   4.195   3.638
 6874SOL     OW21520   6.323   5.989   3.407
 6874SOL    HW121521   6.280   6.059   3.351
 6874SOL    HW221522   6.417   5.974   3.376
 6875SOL     OW21523   2.080   1.989   2.113
 6875SOL    HW121524   2.034   2.034   2.189
 6875SOL    HW221525   2.177   1.980   2.133
 6876SOL     OW21526   3.012   0.125   3.692
 6876SOL    HW121527   3.082   0.126   3.620
 6876SOL    HW221528   3.038   0.059   3.763
 6877SOL     OW21529   3.027   4.128   1.702
 6877SOL    HW121530   3.124   4.153   1.700
 6877SOL    HW221531   3.009   4.068   1.780
 6878SOL     OW21532   2.359   1.914   3.386
 6878SOL    HW121533   2.271   1.961   3.376
 6878SOL    HW221534   2.423   1.948   3.317
 6879SOL     OW21535   2.327   2.655   0.333
 6879SOL    HW121536   2.372   2.592   0.270
 6879SOL    HW221537   2.335   2.620   0.427
 6880SOL     OW21538   1.314   6.780   6.213
 6880SOL    HW121539   1.324   6.789   6.114
 6880SOL    HW221540   1.223   6.744   6.235
 6881SOL     OW21541   1.372   3.204   1.547
 6881SOL    HW121542   1.414   3.261   1.618
 6881SOL    HW221543   1.437   3.191   1.472
 6882SOL     OW21544   2.717   1.259   0.420
 6882SOL    HW121545   2.625   1.275   0.384
 6882SOL    HW221546   2.749   1.339   0.468
 6883SOL     OW21547   5.562   1.037   6.038
 6883SOL    HW121548   5.494   0.967   6.015
 6883SOL    HW221549   5.541   1.121   5.989
 6884SOL     OW21550   1.642   4.000   3.070
 6884SOL    HW121551   1.699   3.918   3.074
 6884SOL    HW221552   1.624   4.024   2.974
 6885SOL     OW21553   4.952   4.970   3.927
 6885SOL    HW121554   4.944   5.069   3.914
 6885SOL    HW221555   4.861   4.929   3.930
 6886SOL     OW21556   6.778   1.249   5.271
 6886SOL    HW121557   6.784   1.189   5.192
 6886SOL    HW221558   6.795   1.196   5.355
 6887SOL     OW21559   4.415   5.586   6.806
 6887SOL    HW121560   4.378   5.670   6.767
 6887SOL    HW221561   4.508   5.572   6.773
 6888SOL     OW21562   5.129   4.719   6.126
 6888SOL    HW121563   5.054   4.669   6.083
 6888SOL    HW221564   5.204   4.657   6.145
 6889SOL     OW21565   2.009   2.527   5.713
 6889SOL    HW121566   1.977   2.552   5.805
 6889SOL    HW221567   1.931   2.502   5.656
 6890SOL     OW21568   3.934   5.993   3.300
 6890SOL    HW121569   3.866   5.972   3.230
 6890SOL    HW221570   3.962   5.908   3.345
 6891SOL     OW21571   2.447   2.851   1.307
 6891SOL    HW121572   2.545   2.857   1.326
 6891SOL    HW221573   2.401   2.932   1.345
 6892SOL     OW21574   3.086   1.008   3.562
 6892SOL    HW121575   3.178   1.045   3.573
 6892SOL    HW221576   3.064   1.002   3.465
 6893SOL     OW21577   5.666   3.405   0.465
 6893SOL    HW121578   5.664   3.423   0.564
 6893SOL    HW221579   5.577   3.425   0.425
 6894SOL     OW21580   4.989   4.391   1.277
 6894SOL    HW121581   4.960   4.340   1.358
 6894SOL    HW221582   5.011   4.327   1.203
 6895SOL     OW21583   2.035   5.914   0.942
 6895SOL    HW121584   1.987   5.848   1.000
 6895SOL    HW221585   1.984   5.927   0.857
 6896SOL     OW21586   2.924   1.440   3.742
 6896SOL    HW121587   3.005   1.383   3.751
 6896SOL    HW221588   2.950   1.532   3.711
 6897SOL     OW21589   4.785   3.966   5.187
 6897SOL    HW121590   4.847   3.994   5.113
 6897SOL    HW221591   4.813   3.876   5.221
 6898SOL     OW21592   3.337   1.063   1.895
 6898SOL    HW121593   3.413   1.076   1.831
 6898SOL    HW221594   3.313   0.966   1.900
 6899SOL     OW21595   4.775   6.377   2.885
 6899SOL    HW121596   4.699   6.374   2.950
 6899SOL    HW221597   4.831   6.458   2.902
 6900SOL     OW21598   0.085   4.789   5.849
 6900SOL    HW121599   0.073   4.729   5.928
 6900SOL    HW221600   7.011   4.824   5.820
 6901SOL     OW21601   4.631   5.397   6.430
 6901SOL    HW121602   4.612   5.299   6.431
 6901SOL    HW221603   4.546   5.449   6.438
 6902SOL     OW21604   6.511   5.999   5.315
 6902SOL    HW121605   6.522   5.963   5.222
 6902SOL    HW221606   6.463   6.087   5.311
 6903SOL     OW21607   3.305   5.146   5.327
 6903SOL    HW121608   3.393   5.186   5.352
 6903SOL    HW221609   3.300   5.137   5.227
 6904SOL     OW21610   6.743   6.645   5.442
 6904SOL    HW121611   6.653   6.686   5.428
 6904SOL    HW221612   6.749   6.559   5.391
 6905SOL     OW21613   6.103   5.050   6.810
 6905SOL    HW121614   6.154   5.045   6.896
 6905SOL    HW221615   6.009   5.079   6.829
 6906SOL     OW21616   2.996   1.537   2.997
 6906SOL    HW121617   3.067   1.538   3.068
 6906SOL    HW221618   2.917   1.485   3.029
 6907SOL     OW21619   6.485   2.533   1.740
 6907SOL    HW121620   6.388   2.518   1.721
 6907SOL    HW221621   6.517   2.465   1.805
 6908SOL     OW21622   2.451   4.811   6.698
 6908SOL    HW121623   2.495   4.842   6.782
 6908SOL    HW221624   2.510   4.745   6.652
 6909SOL     OW21625   5.271   4.826   2.257
 6909SOL    HW121626   5.187   4.783   2.225
 6909SOL    HW221627   5.302   4.892   2.189
 6910SOL     OW21628   1.441   2.748   2.930
 6910SOL    HW121629   1.379   2.717   2.857
 6910SOL    HW221630   1.493   2.827   2.898
 6911SOL     OW21631   4.084   0.052   5.050
 6911SOL    HW121632   4.002   0.079   5.100
 6911SOL    HW221633   4.058   0.002   4.967
 6912SOL     OW21634   2.726   3.270   6.552
 6912SOL    HW121635   2.779   3.274   6.468
 6912SOL    HW221636   2.709   3.363   6.586
 6913SOL     OW21637   5.155   6.344   4.791
 6913SOL    HW121638   5.084   6.274   4.778
 6913SOL    HW221639   5.117   6.419   4.846
 6914SOL     OW21640   6.064   4.235   2.459
 6914SOL    HW121641   6.089   4.239   2.556
 6914SOL    HW221642   5.972   4.271   2.447
 6915SOL     OW21643   1.060   2.415   2.195
 6915SOL    HW121644   1.000   2.450   2.122
 6915SOL    HW221645   1.087   2.321   2.174
 6916SOL     OW21646   5.345   1.531   5.456
 6916SOL    HW121647   5.251   1.505   5.478
 6916SOL    HW221648   5.397   1.450   5.430
 6917SOL     OW21649   4.242   6.056   1.908
 6917SOL    HW121650   4.266   6.087   2.000
 6917SOL    HW221651   4.203   5.964   1.913
 6918SOL     OW21652   0.130   2.482   3.017
 6918SOL    HW121653   0.091   2.485   2.925
 6918SOL    HW221654   0.152   2.575   3.047
 6919SOL     OW21655   6.299   6.124   2.940
 6919SOL    HW121656   6.339   6.055   3.000
 6919SOL    HW221657   6.269   6.202   2.995
 6920SOL     OW21658   5.371   6.667   5.701
 6920SOL    HW121659   5.409   6.749   5.743
 6920SOL    HW221660   5.284   6.689   5.658
 6921SOL     OW21661   3.870   0.500   3.948
 6921SOL    HW121662   3.917   0.414   3.930
 6921SOL    HW221663   3.936   0.575   3.950
 6922SOL     OW21664   1.933   6.363   5.009
 6922SOL    HW121665   2.021   6.404   5.033
 6922SOL    HW221666   1.949   6.279   4.957
 6923SOL     OW21667   5.876   6.355   2.245
 6923SOL    HW121668   5.792   6.390   2.204
 6923SOL    HW221669   5.943   6.337   2.173
 6924SOL     OW21670   3.010   5.599   0.667
 6924SOL    HW121671   2.984   5.557   0.754
 6924SOL    HW221672   2.934   5.595   0.604
 6925SOL     OW21673   4.719   5.779   5.754
 6925SOL    HW121674   4.683   5.849   5.693
 6925SOL    HW221675   4.818   5.771   5.741
 6926SOL     OW21676   2.012   1.904   0.411
 6926SOL    HW121677   2.068   1.906   0.494
 6926SOL    HW221678   2.070   1.917   0.331
 6927SOL     OW21679   3.720   1.543   0.097
 6927SOL    HW121680   3.767   1.618   0.052
 6927SOL    HW221681   3.778   1.505   0.169
 6928SOL     OW21682   5.099   5.654   1.259
 6928SOL    HW121683   5.020   5.666   1.199
 6928SOL    HW221684   5.071   5.672   1.354
 6929SOL     OW21685   5.450   6.066   1.772
 6929SOL    HW121686   5.369   6.124   1.781
 6929SOL    HW221687   5.532   6.121   1.782
 6930SOL     OW21688   0.842   0.999   0.588
 6930SOL    HW121689   0.836   1.002   0.688
 6930SOL    HW221690   0.821   0.907   0.556
 6931SOL     OW21691   1.695   1.786   1.179
 6931SOL    HW121692   1.743   1.842   1.247
 6931SOL    HW221693   1.678   1.839   1.097
 6932SOL     OW21694   4.669   5.585   1.180
 6932SOL    HW121695   4.709   5.665   1.224
 6932SOL    HW221696   4.728   5.506   1.196
 6933SOL     OW21697   3.617   6.839   6.165
 6933SOL    HW121698   3.659   6.787   6.238
 6933SOL    HW221699   3.546   6.899   6.203
 6934SOL     OW21700   5.057   3.619   6.272
 6934SOL    HW121701   5.000   3.695   6.240
 6934SOL    HW221702   5.099   3.573   6.194
 6935SOL     OW21703   4.300   5.763   2.773
 6935SOL    HW121704   4.218   5.715   2.743
 6935SOL    HW221705   4.345   5.711   2.845
 6936SOL     OW21706   0.107   2.159   4.179
 6936SOL    HW121707   0.153   2.223   4.117
 6936SOL    HW221708   0.065   2.210   4.254
 6937SOL     OW21709   5.778   6.138   0.977
 6937SOL    HW121710   5.692   6.150   0.928
 6937SOL    HW221711   5.823   6.055   0.945
 6938SOL     OW21712   0.667   1.637   4.391
 6938SOL    HW121713   0.628   1.616   4.480
 6938SOL    HW221714   0.650   1.733   4.369
 6939SOL     OW21715   6.281   5.474   3.164
 6939SOL    HW121716   6.321   5.540   3.100
 6939SOL    HW221717   6.268   5.518   3.253
 6940SOL     OW21718   4.378   6.455   0.350
 6940SOL    HW121719   4.411   6.526   0.289
 6940SOL    HW221720   4.442   6.445   0.427
 6941SOL     OW21721   2.900   3.563   2.289
 6941SOL    HW121722   2.864   3.484   2.339
 6941SOL    HW221723   2.914   3.639   2.353
 6942SOL     OW21724   6.278   6.594   1.701
 6942SOL    HW121725   6.276   6.564   1.605
 6942SOL    HW221726   6.207   6.547   1.752
 6943SOL     OW21727   4.446   4.725   0.431
 6943SOL    HW121728   4.393   4.808   0.415
 6943SOL    HW221729   4.529   4.748   0.482
 6944SOL     OW21730   0.826   4.954   6.321
 6944SOL    HW121731   0.768   5.034   6.307
 6944SOL    HW221732   0.793   4.879   6.264
 6945SOL     OW21733   6.824   2.265   1.090
 6945SOL    HW121734   6.780   2.213   1.163
 6945SOL    HW221735   6.839   2.205   1.011
 6946SOL     OW21736   3.856   6.055   1.843
 6946SOL    HW121737   3.862   6.113   1.925
 6946SOL    HW221738   3.833   5.962   1.870
 6947SOL     OW21739   3.893   5.500   6.282
 6947SOL    HW121740   3.871   5.440   6.360
 6947SOL    HW221741   3.945   5.579   6.315
 6948SOL     OW21742   0.447   6.224   1.334
 6948SOL    HW121743   0.411   6.179   1.415
 6948SOL    HW221744   0.492   6.156   1.275
 6949SOL     OW21745   2.760   2.297   3.275
 6949SOL    HW121746   2.765   2.360   3.198
 6949SOL    HW221747   2.666   2.262   3.283
 6950SOL     OW21748   1.978   0.082   4.701
 6950SOL    HW121749   1.994   0.154   4.634
 6950SOL    HW221750   1.888   0.042   4.687
 6951SOL     OW21751   6.454   5.792   6.681
 6951SOL    HW121752   6.424   5.880   6.643
 6951SOL    HW221753   6.425   5.785   6.776
 6952SOL     OW21754   2.136   4.716   2.778
 6952SOL    HW121755   2.076   4.665   2.840
 6952SOL    HW221756   2.085   4.741   2.696
 6953SOL     OW21757   4.784   6.583   0.417
 6953SOL    HW121758   4.839   6.545   0.492
 6953SOL    HW221759   4.784   6.520   0.340
 6954SOL     OW21760   0.184   3.385   1.599
 6954SOL    HW121761   0.229   3.367   1.687
 6954SOL    HW221762   0.175   3.483   1.586
 6955SOL     OW21763   4.835   0.565   2.225
 6955SOL    HW121764   4.870   0.523   2.142
 6955SOL    HW221765   4.842   0.665   2.218
 6956SOL     OW21766   5.290   5.742   2.762
 6956SOL    HW121767   5.304   5.674   2.690
 6956SOL    HW221768   5.193   5.764   2.769
 6957SOL     OW21769   6.008   6.117   6.887
 6957SOL    HW121770   6.029   6.051   6.958
 6957SOL    HW221771   6.093   6.142   6.839
 6958SOL     OW21772   3.473   3.510   4.251
 6958SOL    HW121773   3.399   3.446   4.273
 6958SOL    HW221774   3.522   3.478   4.170
 6959SOL     OW21775   1.747   3.980   2.654
 6959SOL    HW121776   1.803   4.005   2.733
 6959SOL    HW221777   1.806   3.958   2.577
 6960SOL     OW21778   2.165   3.985   0.858
 6960SOL    HW121779   2.091   4.044   0.890
 6960SOL    HW221780   2.230   3.970   0.932
 6961SOL     OW21781   5.071   1.419   4.695
 6961SOL    HW121782   5.135   1.343   4.709
 6961SOL    HW221783   4.980   1.382   4.677
 6962SOL     OW21784   3.983   5.949   0.855
 6962SOL    HW121785   3.979   6.048   0.862
 6962SOL    HW221786   3.933   5.908   0.931
 6963SOL     OW21787   5.725   4.950   0.099
 6963SOL    HW121788   5.819   4.927   0.077
 6963SOL    HW221789   5.664   4.918   0.026
 6964SOL     OW21790   3.469   0.365   5.630
 6964SOL    HW121791   3.452   0.360   5.532
 6964SOL    HW221792   3.410   0.299   5.678
 6965SOL     OW21793   1.509   1.689   6.607
 6965SOL    HW121794   1.545   1.723   6.520
 6965SOL    HW221795   1.582   1.641   6.657
 6966SOL     OW21796   0.708   0.853   2.347
 6966SOL    HW121797   0.628   0.817   2.298
 6966SOL    HW221798   0.681   0.876   2.441
 6967SOL     OW21799   3.786   1.547   5.632
 6967SOL    HW121800   3.760   1.638   5.665
 6967SOL    HW221801   3.799   1.486   5.710
 6968SOL     OW21802   2.461   0.710   3.038
 6968SOL    HW121803   2.546   0.746   3.000
 6968SOL    HW221804   2.386   0.729   2.975
 6969SOL     OW21805   3.613   2.014   1.154
 6969SOL    HW121806   3.677   1.947   1.117
 6969SOL    HW221807   3.520   1.988   1.129
 6970SOL     OW21808   3.736   3.962   5.579
 6970SOL    HW121809   3.822   3.923   5.614
 6970SOL    HW221810   3.711   3.917   5.494
 6971SOL     OW21811   5.239   5.058   1.450
 6971SOL    HW121812   5.198   4.976   1.491
 6971SOL    HW221813   5.331   5.071   1.485
 6972SOL     OW21814   5.391   3.901   2.405
 6972SOL    HW121815   5.410   3.997   2.387
 6972SOL    HW221816   5.475   3.848   2.398
 6973SOL     OW21817   0.887   2.335   3.429
 6973SOL    HW121818   0.870   2.433   3.437
 6973SOL    HW221819   0.872   2.291   3.517
 6974SOL     OW21820   2.868   3.562   2.675
 6974SOL    HW121821   2.894   3.491   2.609
 6974SOL    HW221822   2.784   3.534   2.721
 6975SOL     OW21823   2.212   6.569   4.567
 6975SOL    HW121824   2.143   6.622   4.616
 6975SOL    HW221825   2.274   6.527   4.633
 6976SOL     OW21826   5.437   4.217   5.711
 6976SOL    HW121827   5.479   4.306   5.728
 6976SOL    HW221828   5.362   4.227   5.645
 6977SOL     OW21829   4.038   4.092   1.379
 6977SOL    HW121830   4.060   4.029   1.304
 6977SOL    HW221831   4.072   4.056   1.465
 6978SOL     OW21832   5.150   3.168   1.278
 6978SOL    HW121833   5.074   3.111   1.307
 6978SOL    HW221834   5.149   3.254   1.329
 6979SOL     OW21835   1.464   2.777   1.298
 6979SOL    HW121836   1.540   2.834   1.330
 6979SOL    HW221837   1.393   2.773   1.368
 6980SOL     OW21838   1.841   1.303   3.579
 6980SOL    HW121839   1.858   1.362   3.500
 6980SOL    HW221840   1.750   1.263   3.572
 6981SOL     OW21841   3.492   3.843   6.240
 6981SOL    HW121842   3.493   3.759   6.185
 6981SOL    HW221843   3.538   3.916   6.189
 6982SOL     OW21844   0.889   0.785   3.509
 6982SOL    HW121845   0.822   0.756   3.441
 6982SOL    HW221846   0.852   0.771   3.600
 6983SOL     OW21847   4.674   1.511   5.390
 6983SOL    HW121848   4.660   1.504   5.291
 6983SOL    HW221849   4.634   1.597   5.423
 6984SOL     OW21850   1.626   1.984   2.611
 6984SOL    HW121851   1.556   2.055   2.600
 6984SOL    HW221852   1.603   1.906   2.553
 6985SOL     OW21853   6.549   4.990   6.842
 6985SOL    HW121854   6.475   5.011   6.779
 6985SOL    HW221855   6.520   4.919   6.906
 6986SOL     OW21856   3.449   0.051   6.774
 6986SOL    HW121857   3.541   0.064   6.739
 6986SOL    HW221858   3.453   0.005   6.862
 6987SOL     OW21859   0.076   1.664   5.587
 6987SOL    HW121860   0.104   1.749   5.630
 6987SOL    HW221861   0.107   1.663   5.491
 6988SOL     OW21862   2.006   6.910   6.068
 6988SOL    HW121863   2.046   6.967   5.996
 6988SOL    HW221864   1.934   6.960   6.115
 6989SOL     OW21865   6.294   4.852   2.481
 6989SOL    HW121866   6.261   4.909   2.556
 6989SOL    HW221867   6.394   4.857   2.477
 6990SOL     OW21868   4.022   2.721   1.699
 6990SOL    HW121869   3.940   2.665   1.693
 6990SOL    HW221870   4.101   2.664   1.722
 6991SOL     OW21871   5.392   4.284   3.229
 6991SOL    HW121872   5.491   4.286   3.214
 6991SOL    HW221873   5.369   4.335   3.312
 6992SOL     OW21874   6.993   5.940   0.158
 6992SOL    HW121875   6.974   5.842   0.163
 6992SOL    HW221876   6.960   5.984   0.242
 6993SOL     OW21877   6.197   0.369   1.390
 6993SOL    HW121878   6.184   0.347   1.486
 6993SOL    HW221879   6.173   0.291   1.333
 6994SOL     OW21880   1.429   0.420   3.949
 6994SOL    HW121881   1.512   0.415   3.893
 6994SOL    HW221882   1.352   0.449   3.892
 6995SOL     OW21883   0.280   3.961   0.266
 6995SOL    HW121884   0.301   3.967   0.364
 6995SOL    HW221885   0.287   4.052   0.225
 6996SOL     OW21886   1.037   0.689   0.598
 6996SOL    HW121887   1.071   0.598   0.574
 6996SOL    HW221888   0.945   0.701   0.560
 6997SOL     OW21889   6.982   4.979   5.162
 6997SOL    HW121890   6.959   4.898   5.107
 6997SOL    HW221891   0.029   5.037   5.110
 6998SOL     OW21892   0.570   1.658   1.467
 6998SOL    HW121893   0.591   1.567   1.430
 6998SOL    HW221894   0.578   1.727   1.395
 6999SOL     OW21895   1.118   2.326   6.148
 6999SOL    HW121896   1.058   2.259   6.103
 6999SOL    HW221897   1.065   2.381   6.212
 7000SOL     OW21898   6.113   0.366   2.006
 7000SOL    HW121899   6.157   0.402   1.924
 7000SOL    HW221900   6.175   0.305   2.054
 7001SOL     OW21901   1.173   1.723   5.271
 7001SOL    HW121902   1.093   1.782   5.259
 7001SOL    HW221903   1.255   1.774   5.245
 7002SOL     OW21904   1.484   5.312   3.804
 7002SOL    HW121905   1.574   5.326   3.844
 7002SOL    HW221906   1.475   5.368   3.721
 7003SOL     OW21907   5.098   5.237   1.625
 7003SOL    HW121908   5.009   5.277   1.600
 7003SOL    HW221909   5.122   5.166   1.559
 7004SOL     OW21910   1.093   5.259   0.370
 7004SOL    HW121911   1.030   5.225   0.440
 7004SOL    HW221912   1.150   5.184   0.338
 7005SOL     OW21913   0.973   0.343   6.793
 7005SOL    HW121914   1.037   0.355   6.869
 7005SOL    HW221915   1.024   0.334   6.707
 7006SOL     OW21916   6.665   6.589   3.228
 7006SOL    HW121917   6.719   6.593   3.312
 7006SOL    HW221918   6.707   6.525   3.164
 7007SOL     OW21919   4.329   1.005   5.012
 7007SOL    HW121920   4.402   0.960   5.064
 7007SOL    HW221921   4.241   0.989   5.057
 7008SOL     OW21922   6.414   4.484   4.147
 7008SOL    HW121923   6.466   4.488   4.062
 7008SOL    HW221924   6.445   4.406   4.202
 7009SOL     OW21925   3.900   6.882   1.897
 7009SOL    HW121926   3.958   6.839   1.828
 7009SOL    HW221927   3.867   6.970   1.863
 7010SOL     OW21928   6.062   4.124   2.910
 7010SOL    HW121929   6.122   4.083   2.978
 7010SOL    HW221930   5.967   4.097   2.928
 7011SOL     OW21931   3.915   6.688   0.666
 7011SOL    HW121932   3.904   6.596   0.629
 7011SOL    HW221933   3.900   6.755   0.594
 7012SOL     OW21934   1.461   2.341   1.145
 7012SOL    HW121935   1.417   2.430   1.147
 7012SOL    HW221936   1.558   2.352   1.168
 7013SOL     OW21937   2.524   0.523   6.713
 7013SOL    HW121938   2.548   0.615   6.681
 7013SOL    HW221939   2.596   0.491   6.775
 7014SOL     OW21940   5.800   3.271   1.032
 7014SOL    HW121941   5.858   3.189   1.038
 7014SOL    HW221942   5.719   3.251   0.978
 7015SOL     OW21943   5.820   4.825   2.525
 7015SOL    HW121944   5.805   4.901   2.588
 7015SOL    HW221945   5.906   4.838   2.476
 7016SOL     OW21946   3.293   5.316   0.835
 7016SOL    HW121947   3.364   5.283   0.773
 7016SOL    HW221948   3.332   5.329   0.926
 7017SOL     OW21949   3.076   4.868   3.048
 7017SOL    HW121950   3.005   4.870   2.977
 7017SOL    HW221951   3.123   4.780   3.045
 7018SOL     OW21952   5.464   3.381   4.354
 7018SOL    HW121953   5.472   3.427   4.266
 7018SOL    HW221954   5.527   3.423   4.420
 7019SOL     OW21955   4.607   5.426   2.339
 7019SOL    HW121956   4.695   5.379   2.331
 7019SOL    HW221957   4.616   5.501   2.405
 7020SOL     OW21958   0.343   3.534   6.842
 7020SOL    HW121959   0.337   3.451   6.787
 7020SOL    HW221960   0.252   3.559   6.876
 7021SOL     OW21961   1.253   2.859   4.769
 7021SOL    HW121962   1.335   2.883   4.718
 7021SOL    HW221963   1.202   2.942   4.791
 7022SOL     OW21964   4.306   0.859   0.513
 7022SOL    HW121965   4.289   0.801   0.592
 7022SOL    HW221966   4.227   0.856   0.451
 7023SOL     OW21967   0.574   2.233   1.563
 7023SOL    HW121968   0.571   2.279   1.652
 7023SOL    HW221969   0.482   2.225   1.527
 7024SOL     OW21970   3.621   3.223   3.217
 7024SOL    HW121971   3.590   3.135   3.252
 7024SOL    HW221972   3.615   3.291   3.290
 7025SOL     OW21973   3.462   0.610   0.572
 7025SOL    HW121974   3.460   0.690   0.632
 7025SOL    HW221975   3.529   0.624   0.499
 7026SOL     OW21976   3.894   2.106   2.136
 7026SOL    HW121977   3.888   2.094   2.235
 7026SOL    HW221978   3.806   2.135   2.100
 7027SOL     OW21979   2.700   6.251   3.576
 7027SOL    HW121980   2.719   6.199   3.660
 7027SOL    HW221981   2.681   6.187   3.502
 7028SOL     OW21982   2.608   7.004   3.920
 7028SOL    HW121983   2.584   6.921   3.871
 7028SOL    HW221984   2.678   6.983   3.989
 7029SOL     OW21985   3.366   3.728   5.544
 7029SOL    HW121986   3.328   3.655   5.489
 7029SOL    HW221987   3.441   3.772   5.495
 7030SOL     OW21988   0.904   2.155   5.022
 7030SOL    HW121989   0.881   2.073   5.075
 7030SOL    HW221990   0.925   2.128   4.928
 7031SOL     OW21991   4.449   6.241   0.773
 7031SOL    HW121992   4.380   6.259   0.843
 7031SOL    HW221993   4.514   6.173   0.806
 7032SOL     OW21994   4.289   0.580   4.152
 7032SOL    HW121995   4.272   0.668   4.109
 7032SOL    HW221996   4.226   0.568   4.229
 7033SOL     OW21997   1.457   2.834   4.121
 7033SOL    HW121998   1.441   2.920   4.074
 7033SOL    HW221999   1.483   2.852   4.216
 7034SOL     OW22000   6.373   2.699   3.367
 7034SOL    HW122001   6.444   2.655   3.312
 7034SOL    HW222002   6.361   2.794   3.335
 7035SOL     OW22003   2.577   6.962   1.572
 7035SOL    HW122004   2.610   6.872   1.600
 7035SOL    HW222005   2.486   6.953   1.531
 7036SOL     OW22006   0.377   2.182   2.561
 7036SOL    HW122007   0.384   2.191   2.660
 7036SOL    HW222008   0.300   2.235   2.527
 7037SOL     OW22009   0.718   1.291   5.890
 7037SOL    HW122010   0.800   1.238   5.867
 7037SOL    HW222011   0.722   1.381   5.846
 7038SOL     OW22012   2.529   4.375   5.693
 7038SOL    HW122013   2.610   4.319   5.676
 7038SOL    HW222014   2.550   4.443   5.764
 7039SOL     OW22015   0.560   5.646   3.573
 7039SOL    HW122016   0.514   5.647   3.662
 7039SOL    HW222017   0.500   5.602   3.506
 7040SOL     OW22018   4.253   2.143   5.201
 7040SOL    HW122019   4.305   2.057   5.204
 7040SOL    HW222020   4.160   2.124   5.167
 7041SOL     OW22021   1.244   1.467   3.507
 7041SOL    HW122022   1.342   1.481   3.488
 7041SOL    HW222023   1.196   1.553   3.496
 7042SOL     OW22024   4.487   5.765   4.834
 7042SOL    HW122025   4.436   5.757   4.748
 7042SOL    HW222026   4.426   5.794   4.907
 7043SOL     OW22027   2.415   4.322   3.796
 7043SOL    HW122028   2.452   4.349   3.707
 7043SOL    HW222029   2.355   4.394   3.831
 7044SOL     OW22030   5.093   0.613   4.825
 7044SOL    HW122031   5.067   0.554   4.901
 7044SOL    HW222032   5.022   0.683   4.813
 7045SOL     OW22033   5.805   5.587   2.675
 7045SOL    HW122034   5.827   5.587   2.577
 7045SOL    HW222035   5.890   5.586   2.728
 7046SOL     OW22036   3.124   2.186   4.145
 7046SOL    HW122037   3.096   2.209   4.053
 7046SOL    HW222038   3.054   2.215   4.210
 7047SOL     OW22039   0.213   0.779   0.861
 7047SOL    HW122040   0.197   0.712   0.933
 7047SOL    HW222041   0.308   0.809   0.864
 7048SOL     OW22042   5.773   6.291   5.061
 7048SOL    HW122043   5.709   6.292   5.138
 7048SOL    HW222044   5.835   6.370   5.068
 7049SOL     OW22045   4.098   1.087   2.159
 7049SOL    HW122046   4.061   1.004   2.117
 7049SOL    HW222047   4.023   1.148   2.184
 7050SOL     OW22048   3.564   4.917   0.769
 7050SOL    HW122049   3.605   4.826   0.760
 7050SOL    HW222050   3.602   4.962   0.850
 7051SOL     OW22051   6.684   6.701   1.101
 7051SOL    HW122052   6.687   6.801   1.110
 7051SOL    HW222053   6.609   6.675   1.040
 7052SOL     OW22054   5.560   6.852   3.111
 7052SOL    HW122055   5.591   6.913   3.038
 7052SOL    HW222056   5.512   6.906   3.181
 7053SOL     OW22057   1.953   3.912   4.013
 7053SOL    HW122058   2.007   3.865   4.083
 7053SOL    HW222059   2.014   3.954   3.946
 7054SOL     OW22060   0.196   6.875   1.026
 7054SOL    HW122061   0.186   6.964   1.070
 7054SOL    HW222062   0.196   6.803   1.095
 7055SOL     OW22063   2.761   0.200   0.329
 7055SOL    HW122064   2.825   0.215   0.254
 7055SOL    HW222065   2.793   0.248   0.411
 7056SOL     OW22066   0.005   5.375   1.169
 7056SOL    HW122067   6.927   5.380   1.135
 7056SOL    HW222068   0.059   5.449   1.130
 7057SOL     OW22069   3.161   5.613   4.321
 7057SOL    HW122070   3.158   5.518   4.353
 7057SOL    HW222071   3.240   5.658   4.362
 7058SOL     OW22072   5.607   2.194   6.168
 7058SOL    HW122073   5.571   2.259   6.234
 7058SOL    HW222074   5.707   2.193   6.173
 7059SOL     OW22075   1.639   1.326   5.014
 7059SOL    HW122076   1.567   1.268   4.977
 7059SOL    HW222077   1.727   1.279   5.009
 7060SOL     OW22078   3.532   6.468   2.070
 7060SOL    HW122079   3.438   6.434   2.065
 7060SOL    HW222080   3.540   6.552   2.017
 7061SOL     OW22081   0.692   2.226   2.021
 7061SOL    HW122082   0.661   2.311   1.978
 7061SOL    HW222083   0.709   2.157   1.950
 7062SOL     OW22084   4.255   1.763   4.112
 7062SOL    HW122085   4.351   1.774   4.138
 7062SOL    HW222086   4.224   1.671   4.136
 7063SOL     OW22087   0.557   6.378   2.348
 7063SOL    HW122088   0.527   6.304   2.408
 7063SOL    HW222089   0.543   6.351   2.252
 7064SOL     OW22090   4.877   1.810   6.200
 7064SOL    HW122091   4.925   1.841   6.282
 7064SOL    HW222092   4.937   1.750   6.147
 7065SOL     OW22093   3.531   4.519   5.428
 7065SOL    HW122094   3.615   4.465   5.440
 7065SOL    HW222095   3.469   4.470   5.367
 7066SOL     OW22096   4.597   0.782   6.922
 7066SOL    HW122097   4.556   0.804   6.833
 7066SOL    HW222098   4.694   0.803   6.919
 7067SOL     OW22099   1.387   3.489   6.773
 7067SOL    HW122100   1.478   3.530   6.770
 7067SOL    HW222101   1.389   3.405   6.827
 7068SOL     OW22102   5.699   4.298   3.998
 7068SOL    HW122103   5.674   4.365   4.068
 7068SOL    HW222104   5.702   4.207   4.040
 7069SOL     OW22105   6.026   1.795   5.624
 7069SOL    HW122106   6.045   1.721   5.560
 7069SOL    HW222107   6.023   1.882   5.575
 7070SOL     OW22108   0.476   6.374   4.557
 7070SOL    HW122109   0.518   6.363   4.467
 7070SOL    HW222110   0.376   6.380   4.547
 7071SOL     OW22111   4.860   6.136   6.498
 7071SOL    HW122112   4.771   6.142   6.451
 7071SOL    HW222113   4.855   6.185   6.585
 7072SOL     OW22114   1.394   4.409   6.515
 7072SOL    HW122115   1.427   4.393   6.422
 7072SOL    HW222116   1.442   4.349   6.578
 7073SOL     OW22117   3.743   0.547   3.218
 7073SOL    HW122118   3.680   0.586   3.151
 7073SOL    HW222119   3.832   0.591   3.210
 7074SOL     OW22120   6.697   3.726   3.888
 7074SOL    HW122121   6.708   3.809   3.832
 7074SOL    HW222122   6.600   3.706   3.898
 7075SOL     OW22123   3.321   4.837   5.153
 7075SOL    HW122124   3.388   4.773   5.191
 7075SOL    HW222125   3.232   4.819   5.195
 7076SOL     OW22126   6.242   2.960   1.805
 7076SOL    HW122127   6.185   3.042   1.811
 7076SOL    HW222128   6.247   2.930   1.709
 7077SOL     OW22129   2.355   4.520   2.832
 7077SOL    HW122130   2.434   4.491   2.779
 7077SOL    HW222131   2.315   4.603   2.791
 7078SOL     OW22132   5.270   6.582   0.759
 7078SOL    HW122133   5.229   6.673   0.752
 7078SOL    HW222134   5.262   6.548   0.852
 7079SOL     OW22135   1.515   6.856   4.206
 7079SOL    HW122136   1.513   6.843   4.106
 7079SOL    HW222137   1.605   6.831   4.240
 7080SOL     OW22138   3.812   1.806   4.472
 7080SOL    HW122139   3.877   1.786   4.398
 7080SOL    HW222140   3.720   1.813   4.435
 7081SOL     OW22141   1.423   0.016   0.236
 7081SOL    HW122142   1.406   0.044   0.331
 7081SOL    HW222143   1.507   6.976   0.233
 7082SOL     OW22144   6.855   3.720   1.634
 7082SOL    HW122145   6.776   3.755   1.685
 7082SOL    HW222146   6.938   3.734   1.687
 7083SOL     OW22147   6.846   2.230   2.115
 7083SOL    HW122148   6.826   2.132   2.115
 7083SOL    HW222149   6.938   2.246   2.151
 7084SOL     OW22150   0.432   5.828   5.231
 7084SOL    HW122151   0.376   5.746   5.244
 7084SOL    HW222152   0.377   5.909   5.251
 7085SOL     OW22153   6.911   2.428   2.446
 7085SOL    HW122154   6.826   2.410   2.398
 7085SOL    HW222155   6.912   2.522   2.479
 7086SOL     OW22156   5.743   0.597   6.764
 7086SOL    HW122157   5.792   0.659   6.825
 7086SOL    HW222158   5.802   0.519   6.742
 7087SOL     OW22159   5.240   3.472   2.520
 7087SOL    HW122160   5.165   3.427   2.472
 7087SOL    HW222161   5.272   3.550   2.466
 7088SOL     OW22162   5.671   1.905   4.955
 7088SOL    HW122163   5.703   1.936   4.866
 7088SOL    HW222164   5.587   1.851   4.944
 7089SOL     OW22165   3.225   5.173   2.751
 7089SOL    HW122166   3.268   5.128   2.830
 7089SOL    HW222167   3.172   5.106   2.700
 7090SOL     OW22168   2.950   1.231   0.941
 7090SOL    HW122169   2.974   1.228   1.038
 7090SOL    HW222170   2.934   1.138   0.908
 7091SOL     OW22171   0.876   0.396   0.768
 7091SOL    HW122172   0.863   0.412   0.866
 7091SOL    HW222173   0.826   0.313   0.741
 7092SOL     OW22174   4.232   2.542   6.602
 7092SOL    HW122175   4.281   2.608   6.659
 7092SOL    HW222176   4.264   2.548   6.508
 7093SOL     OW22177   3.530   4.002   1.384
 7093SOL    HW122178   3.556   4.003   1.287
 7093SOL    HW222179   3.547   4.093   1.423
 7094SOL     OW22180   1.756   6.581   5.650
 7094SOL    HW122181   1.795   6.523   5.579
 7094SOL    HW222182   1.823   6.594   5.724
 7095SOL     OW22183   3.210   4.588   5.418
 7095SOL    HW122184   3.190   4.666   5.359
 7095SOL    HW222185   3.227   4.620   5.511
 7096SOL     OW22186   6.630   0.741   1.253
 7096SOL    HW122187   6.651   0.821   1.310
 7096SOL    HW222188   6.604   0.772   1.162
 7097SOL     OW22189   5.634   0.526   2.189
 7097SOL    HW122190   5.649   0.442   2.242
 7097SOL    HW222191   5.626   0.503   2.092
 7098SOL     OW22192   2.019   6.758   4.669
 7098SOL    HW122193   1.973   6.688   4.723
 7098SOL    HW222194   1.980   6.847   4.689
 7099SOL     OW22195   3.235   1.946   4.045
 7099SOL    HW122196   3.208   2.026   4.098
 7099SOL    HW222197   3.306   1.973   3.979
 7100SOL     OW22198   0.334   3.490   0.846
 7100SOL    HW122199   0.377   3.552   0.912
 7100SOL    HW222200   0.238   3.476   0.871
 7101SOL     OW22201   2.643   6.164   5.067
 7101SOL    HW122202   2.594   6.095   5.014
 7101SOL    HW222203   2.738   6.170   5.035
 7102SOL     OW22204   5.213   0.752   1.126
 7102SOL    HW122205   5.147   0.769   1.200
 7102SOL    HW222206   5.206   0.824   1.057
 7103SOL     OW22207   5.075   5.004   2.385
 7103SOL    HW122208   5.001   5.006   2.317
 7103SOL    HW222209   5.141   4.933   2.360
 7104SOL     OW22210   5.305   3.025   3.006
 7104SOL    HW122211   5.274   2.936   3.041
 7104SOL    HW222212   5.405   3.028   3.007
 7105SOL     OW22213   3.405   4.049   4.080
 7105SOL    HW122214   3.421   4.100   3.995
 7105SOL    HW222215   3.453   4.094   4.155
 7106SOL     OW22216   3.417   2.702   1.012
 7106SOL    HW122217   3.499   2.759   1.002
 7106SOL    HW222218   3.407   2.644   0.931
 7107SOL     OW22219   4.166   0.629   0.188
 7107SOL    HW122220   4.231   0.555   0.204
 7107SOL    HW222221   4.105   0.605   0.113
 7108SOL     OW22222   2.712   6.706   2.801
 7108SOL    HW122223   2.731   6.686   2.704
 7108SOL    HW222224   2.757   6.792   2.827
 7109SOL     OW22225   1.485   0.696   6.982
 7109SOL    HW122226   1.546   0.618   6.991
 7109SOL    HW222227   1.459   0.707   6.886
 7110SOL     OW22228   3.329   6.687   4.425
 7110SOL    HW122229   3.377   6.769   4.457
 7110SOL    HW222230   3.356   6.666   4.332
 7111SOL     OW22231   1.137   1.167   3.772
 7111SOL    HW122232   1.074   1.205   3.839
 7111SOL    HW222233   1.095   1.170   3.681
 7112SOL     OW22234   2.471   4.479   4.546
 7112SOL    HW122235   2.424   4.544   4.605
 7112SOL    HW222236   2.439   4.386   4.565
 7113SOL     OW22237   3.079   5.095   4.929
 7113SOL    HW122238   3.009   5.051   4.985
 7113SOL    HW222239   3.036   5.136   4.848
 7114SOL     OW22240   4.416   5.469   1.628
 7114SOL    HW122241   4.431   5.482   1.530
 7114SOL    HW222242   4.370   5.550   1.665
 7115SOL     OW22243   6.007   4.449   6.952
 7115SOL    HW122244   5.982   4.463   0.032
 7115SOL    HW222245   6.019   4.537   6.907
 7116SOL     OW22246   5.869   4.269   3.593
 7116SOL    HW122247   5.776   4.251   3.561
 7116SOL    HW222248   5.884   4.367   3.600
 7117SOL     OW22249   5.965   6.761   4.125
 7117SOL    HW122250   5.872   6.765   4.160
 7117SOL    HW222251   6.014   6.845   4.151
 7118SOL     OW22252   3.941   4.297   5.396
 7118SOL    HW122253   3.907   4.212   5.356
 7118SOL    HW222254   4.041   4.293   5.404
 7119SOL     OW22255   5.107   0.989   5.052
 7119SOL    HW122256   5.172   0.924   5.090
 7119SOL    HW222257   5.014   0.952   5.061
 7120SOL     OW22258   5.458   1.365   1.261
 7120SOL    HW122259   5.434   1.416   1.178
 7120SOL    HW222260   5.536   1.306   1.243
 7121SOL     OW22261   1.075   6.503   3.698
 7121SOL    HW122262   1.130   6.439   3.643
 7121SOL    HW222263   1.108   6.502   3.792
 7122SOL     OW22264   2.577   6.510   5.915
 7122SOL    HW122265   2.575   6.411   5.903
 7122SOL    HW222266   2.640   6.533   5.989
 7123SOL     OW22267   6.079   4.692   5.028
 7123SOL    HW122268   6.048   4.728   5.116
 7123SOL    HW222269   6.140   4.758   4.985
 7124SOL     OW22270   1.377   2.541   1.948
 7124SOL    HW122271   1.472   2.534   1.980
 7124SOL    HW222272   1.376   2.568   1.852
 7125SOL     OW22273   0.754   0.198   2.198
 7125SOL    HW122274   0.803   0.123   2.153
 7125SOL    HW222275   0.809   0.281   2.194
 7126SOL     OW22276   4.035   6.259   1.425
 7126SOL    HW122277   4.031   6.248   1.525
 7126SOL    HW222278   4.110   6.204   1.389
 7127SOL     OW22279   3.494   6.022   5.389
 7127SOL    HW122280   3.590   5.996   5.383
 7127SOL    HW222281   3.476   6.066   5.477
 7128SOL     OW22282   3.552   4.460   6.890
 7128SOL    HW122283   3.587   4.377   6.934
 7128SOL    HW222284   3.621   4.532   6.898
 7129SOL     OW22285   6.689   1.805   0.504
 7129SOL    HW122286   6.721   1.763   0.589
 7129SOL    HW222287   6.758   1.869   0.471
 7130SOL     OW22288   2.913   0.050   4.572
 7130SOL    HW122289   2.967   0.132   4.593
 7130SOL    HW222290   2.971   7.000   4.523
 7131SOL     OW22291   3.689   1.074   2.305
 7131SOL    HW122292   3.630   1.060   2.226
 7131SOL    HW222293   3.732   0.988   2.330
 7132SOL     OW22294   5.183   4.279   6.869
 7132SOL    HW122295   5.204   4.362   6.818
 7132SOL    HW222296   5.132   4.216   6.810
 7133SOL     OW22297   3.636   5.538   3.702
 7133SOL    HW122298   3.677   5.569   3.788
 7133SOL    HW222299   3.547   5.496   3.721
 7134SOL     OW22300   5.784   5.913   1.430
 7134SOL    HW122301   5.691   5.946   1.448
 7134SOL    HW222302   5.841   5.989   1.400
 7135SOL     OW22303   2.078   3.270   2.057
 7135SOL    HW122304   2.049   3.301   2.148
 7135SOL    HW222305   2.141   3.337   2.017
 7136SOL     OW22306   2.991   1.974   1.466
 7136SOL    HW122307   2.984   1.884   1.509
 7136SOL    HW222308   3.049   2.034   1.521
 7137SOL     OW22309   2.742   2.009   1.330
 7137SOL    HW122310   2.833   1.987   1.365
 7137SOL    HW222311   2.704   1.929   1.284
 7138SOL     OW22312   2.295   0.960   1.319
 7138SOL    HW122313   2.323   0.872   1.357
 7138SOL    HW222314   2.206   0.986   1.358
 7139SOL     OW22315   5.000   5.548   2.205
 7139SOL    HW122316   5.098   5.540   2.217
 7139SOL    HW222317   4.967   5.473   2.147
 7140SOL     OW22318   6.044   4.140   1.143
 7140SOL    HW122319   6.040   4.041   1.159
 7140SOL    HW222320   5.972   4.167   1.080
 7141SOL     OW22321   3.965   6.387   1.184
 7141SOL    HW122322   4.055   6.421   1.157
 7141SOL    HW222323   3.971   6.346   1.276
 7142SOL     OW22324   3.107   0.775   4.425
 7142SOL    HW122325   3.052   0.766   4.342
 7142SOL    HW222326   3.092   0.696   4.484
 7143SOL     OW22327   2.189   4.389   6.549
 7143SOL    HW122328   2.265   4.439   6.591
 7143SOL    HW222329   2.225   4.321   6.485
 7144SOL     OW22330   0.033   1.206   4.435
 7144SOL    HW122331   0.025   1.295   4.391
 7144SOL    HW222332   6.986   1.141   4.389
 7145SOL     OW22333   4.796   1.811   0.327
 7145SOL    HW122334   4.847   1.730   0.355
 7145SOL    HW222335   4.855   1.892   0.337
 7146SOL     OW22336   2.220   1.322   5.069
 7146SOL    HW122337   2.175   1.410   5.059
 7146SOL    HW222338   2.298   1.317   5.007
 7147SOL     OW22339   5.357   5.181   3.082
 7147SOL    HW122340   5.411   5.259   3.049
 7147SOL    HW222341   5.274   5.215   3.126
 7148SOL     OW22342   6.138   6.500   1.182
 7148SOL    HW122343   6.071   6.538   1.118
 7148SOL    HW222344   6.230   6.533   1.159
 7149SOL     OW22345   6.763   4.533   3.231
 7149SOL    HW122346   6.855   4.503   3.257
 7149SOL    HW222347   6.739   4.615   3.283
 7150SOL     OW22348   4.265   3.477   0.004
 7150SOL    HW122349   4.272   3.486   0.103
 7150SOL    HW222350   4.296   3.562   6.976
 7151SOL     OW22351   3.304   0.490   1.059
 7151SOL    HW122352   3.394   0.448   1.071
 7151SOL    HW222353   3.258   0.494   1.148
 7152SOL     OW22354   6.714   0.920   6.760
 7152SOL    HW122355   6.631   0.874   6.728
 7152SOL    HW222356   6.792   0.890   6.705
 7153SOL     OW22357   4.070   6.153   1.734
 7153SOL    HW122358   4.147   6.148   1.798
 7153SOL    HW222359   3.989   6.112   1.776
 7154SOL     OW22360   4.743   1.361   2.322
 7154SOL    HW122361   4.659   1.325   2.364
 7154SOL    HW222362   4.748   1.460   2.336
 7155SOL     OW22363   3.324   1.751   1.587
 7155SOL    HW122364   3.357   1.832   1.539
 7155SOL    HW222365   3.234   1.725   1.552
 7156SOL     OW22366   5.801   3.136   1.755
 7156SOL    HW122367   5.702   3.143   1.761
 7156SOL    HW222368   5.827   3.045   1.722
 7157SOL     OW22369   6.248   4.235   6.879
 7157SOL    HW122370   6.156   4.239   6.918
 7157SOL    HW222371   6.314   4.271   6.944
 7158SOL     OW22372   5.797   6.936   3.907
 7158SOL    HW122373   5.787   6.845   3.948
 7158SOL    HW222374   5.872   6.934   3.842
 7159SOL     OW22375   6.356   4.958   4.060
 7159SOL    HW122376   6.391   4.875   4.017
 7159SOL    HW222377   6.385   5.038   4.008
 7160SOL     OW22378   5.807   6.551   2.562
 7160SOL    HW122379   5.736   6.568   2.493
 7160SOL    HW222380   5.764   6.525   2.648
 7161SOL     OW22381   3.897   3.431   3.135
 7161SOL    HW122382   3.890   3.369   3.213
 7161SOL    HW222383   3.957   3.392   3.066
 7162SOL     OW22384   6.975   4.855   1.662
 7162SOL    HW122385   6.975   4.760   1.695
 7162SOL    HW222386   6.985   4.856   1.563
 7163SOL     OW22387   1.047   1.702   2.635
 7163SOL    HW122388   0.955   1.661   2.636
 7163SOL    HW222389   1.049   1.777   2.569
 7164SOL     OW22390   1.781   0.695   6.202
 7164SOL    HW122391   1.687   0.663   6.216
 7164SOL    HW222392   1.845   0.620   6.220
 7165SOL     OW22393   5.592   6.948   0.304
 7165SOL    HW122394   5.555   6.988   0.221
 7165SOL    HW222395   5.692   6.954   0.303
 7166SOL     OW22396   5.326   0.406   5.783
 7166SOL    HW122397   5.356   0.467   5.709
 7166SOL    HW222398   5.226   0.406   5.788
 7167SOL     OW22399   5.928   1.981   4.974
 7167SOL    HW122400   5.944   1.940   4.884
 7167SOL    HW222401   5.861   1.926   5.024
 7168SOL     OW22402   2.423   0.826   2.530
 7168SOL    HW122403   2.519   0.799   2.523
 7168SOL    HW222404   2.368   0.749   2.560
 7169SOL     OW22405   1.696   4.645   4.979
 7169SOL    HW122406   1.612   4.645   5.032
 7169SOL    HW222407   1.681   4.602   4.890
 7170SOL     OW22408   4.429   0.354   1.754
 7170SOL    HW122409   4.504   0.352   1.820
 7170SOL    HW222410   4.371   0.433   1.771
 7171SOL     OW22411   5.723   5.145   0.764
 7171SOL    HW122412   5.750   5.056   0.728
 7171SOL    HW222413   5.803   5.205   0.766
 7172SOL     OW22414   1.906   1.293   5.043
 7172SOL    HW122415   1.959   1.372   5.013
 7172SOL    HW222416   1.963   1.211   5.039
 7173SOL     OW22417   6.082   5.893   7.009
 7173SOL    HW122418   6.121   5.894   0.086
 7173SOL    HW222419   6.147   5.852   6.945
 7174SOL     OW22420   5.412   4.726   1.604
 7174SOL    HW122421   5.355   4.649   1.574
 7174SOL    HW222422   5.475   4.752   1.531
 7175SOL     OW22423   5.811   3.833   5.106
 7175SOL    HW122424   5.736   3.889   5.141
 7175SOL    HW222425   5.894   3.851   5.160
 7176SOL     OW22426   0.408   1.363   4.140
 7176SOL    HW122427   0.467   1.315   4.205
 7176SOL    HW222428   0.320   1.315   4.133
 7177SOL     OW22429   1.677   5.385   5.432
 7177SOL    HW122430   1.632   5.473   5.439
 7177SOL    HW222431   1.774   5.398   5.412
 7178SOL     OW22432   0.136   0.774   5.587
 7178SOL    HW122433   0.144   0.700   5.520
 7178SOL    HW222434   0.150   0.737   5.679
 7179SOL     OW22435   2.441   4.807   5.925
 7179SOL    HW122436   2.525   4.855   5.953
 7179SOL    HW222437   2.388   4.866   5.864
 7180SOL     OW22438   1.824   4.885   1.362
 7180SOL    HW122439   1.740   4.871   1.310
 7180SOL    HW222440   1.832   4.815   1.433
 7181SOL     OW22441   2.503   1.529   5.660
 7181SOL    HW122442   2.534   1.621   5.640
 7181SOL    HW222443   2.565   1.463   5.617
 7182SOL     OW22444   0.333   3.123   4.160
 7182SOL    HW122445   0.309   3.083   4.249
 7182SOL    HW222446   0.423   3.167   4.167
 7183SOL     OW22447   2.012   6.365   1.750
 7183SOL    HW122448   2.066   6.382   1.832
 7183SOL    HW222449   1.981   6.452   1.712
 7184SOL     OW22450   5.945   1.108   3.505
 7184SOL    HW122451   5.955   1.027   3.447
 7184SOL    HW222452   5.971   1.085   3.599
 7185SOL     OW22453   4.899   1.278   5.278
 7185SOL    HW122454   4.860   1.289   5.369
 7185SOL    HW222455   4.955   1.358   5.256
 7186SOL     OW22456   0.081   0.085   0.401
 7186SOL    HW122457   0.089   0.107   0.304
 7186SOL    HW222458   0.014   0.011   0.413
 7187SOL     OW22459   2.847   3.610   4.754
 7187SOL    HW122460   2.862   3.511   4.757
 7187SOL    HW222461   2.780   3.636   4.823
 7188SOL     OW22462   4.233   4.874   6.789
 7188SOL    HW122463   4.260   4.953   6.734
 7188SOL    HW222464   4.254   4.891   6.885
 7189SOL     OW22465   6.412   2.837   5.360
 7189SOL    HW122466   6.413   2.889   5.445
 7189SOL    HW222467   6.490   2.773   5.360
 7190SOL     OW22468   6.183   5.587   0.918
 7190SOL    HW122469   6.210   5.622   1.007
 7190SOL    HW222470   6.241   5.628   0.847
 7191SOL     OW22471   0.851   4.335   2.911
 7191SOL    HW122472   0.878   4.351   3.006
 7191SOL    HW222473   0.917   4.378   2.850
 7192SOL     OW22474   1.579   4.634   6.354
 7192SOL    HW122475   1.630   4.561   6.400
 7192SOL    HW222476   1.488   4.601   6.330
 7193SOL     OW22477   2.797   1.926   2.292
 7193SOL    HW122478   2.725   1.910   2.358
 7193SOL    HW222479   2.868   1.856   2.302
 7194SOL     OW22480   2.520   2.379   0.409
 7194SOL    HW122481   2.548   2.439   0.483
 7194SOL    HW222482   2.572   2.401   0.326
 7195SOL     OW22483   0.040   3.621   6.838
 7195SOL    HW122484   0.077   3.602   6.747
 7195SOL    HW222485   6.998   3.702   6.834
 7196SOL     OW22486   3.067   3.975   2.630
 7196SOL    HW122487   3.114   4.022   2.556
 7196SOL    HW222488   3.124   3.977   2.712
 7197SOL     OW22489   1.471   3.923   5.266
 7197SOL    HW122490   1.447   3.863   5.342
 7197SOL    HW222491   1.474   3.870   5.182
 7198SOL     OW22492   0.002   0.546   0.360
 7198SOL    HW122493   0.082   0.490   0.379
 7198SOL    HW222494   6.941   0.516   0.417
 7199SOL     OW22495   0.621   0.524   2.498
 7199SOL    HW122496   0.601   0.547   2.593
 7199SOL    HW222497   0.535   0.526   2.446
 7200SOL     OW22498   1.943   2.143   0.624
 7200SOL    HW122499   1.916   2.120   0.718
 7200SOL    HW222500   2.022   2.088   0.598
 7201SOL     OW22501   6.605   5.446   4.071
 7201SOL    HW122502   6.522   5.485   4.110
 7201SOL    HW222503   6.630   5.364   4.123
 7202SOL     OW22504   5.158   6.690   6.234
 7202SOL    HW122505   5.083   6.636   6.271
 7202SOL    HW222506   5.150   6.695   6.135
 7203SOL     OW22507   0.568   1.038   1.800
 7203SOL    HW122508   0.586   1.085   1.886
 7203SOL    HW222509   0.636   1.066   1.732
 7204SOL     OW22510   6.314   1.035   0.666
 7204SOL    HW122511   6.404   1.046   0.624
 7204SOL    HW222512   6.323   1.044   0.765
 7205SOL     OW22513   1.648   2.665   4.745
 7205SOL    HW122514   1.734   2.696   4.787
 7205SOL    HW222515   1.626   2.574   4.778
 7206SOL     OW22516   1.431   1.754   1.287
 7206SOL    HW122517   1.526   1.767   1.259
 7206SOL    HW222518   1.381   1.707   1.214
 7207SOL     OW22519   1.779   2.246   4.177
 7207SOL    HW122520   1.835   2.327   4.190
 7207SOL    HW222521   1.821   2.168   4.223
 7208SOL     OW22522   3.821   0.684   4.401
 7208SOL    HW122523   3.790   0.651   4.311
 7208SOL    HW222524   3.765   0.762   4.428
 7209SOL     OW22525   2.153   2.466   2.559
 7209SOL    HW122526   2.061   2.474   2.521
 7209SOL    HW222527   2.208   2.546   2.531
 7210SOL     OW22528   2.778   1.910   3.251
 7210SOL    HW122529   2.760   1.880   3.158
 7210SOL    HW222530   2.765   1.834   3.314
 7211SOL     OW22531   2.460   6.287   5.256
 7211SOL    HW122532   2.483   6.231   5.176
 7211SOL    HW222533   2.544   6.324   5.295
 7212SOL     OW22534   6.247   5.723   6.021
 7212SOL    HW122535   6.300   5.755   5.942
 7212SOL    HW222536   6.158   5.690   5.990
 7213SOL     OW22537   3.580   0.081   0.421
 7213SOL    HW122538   3.531   0.089   0.508
 7213SOL    HW222539   3.640   0.160   0.410
 7214SOL     OW22540   0.159   1.169   6.233
 7214SOL    HW122541   0.228   1.150   6.164
 7214SOL    HW222542   0.156   1.268   6.250
 7215SOL     OW22543   6.730   2.478   3.577
 7215SOL    HW122544   6.692   2.532   3.652
 7215SOL    HW222545   6.812   2.523   3.542
 7216SOL     OW22546   3.106   6.423   2.380
 7216SOL    HW122547   3.129   6.504   2.327
 7216SOL    HW222548   3.140   6.433   2.474
 7217SOL     OW22549   1.233   4.568   3.678
 7217SOL    HW122550   1.330   4.583   3.699
 7217SOL    HW222551   1.210   4.472   3.693
 7218SOL     OW22552   0.098   2.844   4.676
 7218SOL    HW122553   0.033   2.914   4.707
 7218SOL    HW222554   0.060   2.753   4.694
 7219SOL     OW22555   3.051   6.464   1.562
 7219SOL    HW122556   2.993   6.543   1.544
 7219SOL    HW222557   2.993   6.386   1.589
 7220SOL     OW22558   6.560   4.024   4.777
 7220SOL    HW122559   6.506   4.100   4.814
 7220SOL    HW222560   6.628   3.996   4.845
 7221SOL     OW22561   3.072   6.096   4.748
 7221SOL    HW122562   3.059   6.018   4.810
 7221SOL    HW222563   3.065   6.065   4.653
 7222SOL     OW22564   5.888   6.586   3.209
 7222SOL    HW122565   5.857   6.533   3.131
 7222SOL    HW222566   5.810   6.614   3.265
 7223SOL     OW22567   2.367   2.078   0.965
 7223SOL    HW122568   2.438   2.049   0.900
 7223SOL    HW222569   2.360   2.177   0.964
 7224SOL     OW22570   4.354   2.362   4.085
 7224SOL    HW122571   4.281   2.331   4.024
 7224SOL    HW222572   4.418   2.287   4.101
 7225SOL     OW22573   2.194   6.351   0.270
 7225SOL    HW122574   2.215   6.361   0.368
 7225SOL    HW222575   2.097   6.368   0.255
 7226SOL     OW22576   6.214   0.593   0.709
 7226SOL    HW122577   6.145   0.666   0.706
 7226SOL    HW222578   6.172   0.506   0.682
 7227SOL     OW22579   2.885   1.033   2.396
 7227SOL    HW122580   2.978   1.022   2.432
 7227SOL    HW222581   2.888   1.032   2.296
 7228SOL     OW22582   0.305   1.593   3.237
 7228SOL    HW122583   0.385   1.577   3.180
 7228SOL    HW222584   0.231   1.632   3.182
 7229SOL     OW22585   7.005   6.704   4.611
 7229SOL    HW122586   6.985   6.621   4.663
 7229SOL    HW222587   0.086   6.702   4.583
 7230SOL     OW22588   2.667   5.067   3.917
 7230SOL    HW122589   2.595   5.008   3.879
 7230SOL    HW222590   2.726   5.012   3.976
 7231SOL     OW22591   3.438   0.054   1.018
 7231SOL    HW122592   3.532   0.090   1.016
 7231SOL    HW222593   3.441   6.972   1.041
 7232SOL     OW22594   4.821   6.459   2.611
 7232SOL    HW122595   4.810   6.556   2.629
 7232SOL    HW222596   4.784   6.406   2.687
 7233SOL     OW22597   6.176   2.042   5.593
 7233SOL    HW122598   6.225   1.956   5.581
 7233SOL    HW222599   6.242   2.117   5.604
 7234SOL     OW22600   5.270   4.150   2.806
 7234SOL    HW122601   5.334   4.087   2.850
 7234SOL    HW222602   5.194   4.098   2.767
 7235SOL     OW22603   6.162   5.882   1.516
 7235SOL    HW122604   6.209   5.813   1.460
 7235SOL    HW222605   6.142   5.843   1.606
 7236SOL     OW22606   1.439   2.497   3.068
 7236SOL    HW122607   1.467   2.584   3.025
 7236SOL    HW222608   1.485   2.421   3.022
 7237SOL     OW22609   4.808   6.841   6.841
 7237SOL    HW122610   4.887   6.794   6.802
 7237SOL    HW222611   4.786   6.800   6.930
 7238SOL     OW22612   4.630   2.600   0.088
 7238SOL    HW122613   4.544   2.563   0.052
 7238SOL    HW222614   4.706   2.544   0.057
 7239SOL     OW22615   0.635   3.402   2.492
 7239SOL    HW122616   0.697   3.370   2.421
 7239SOL    HW222617   0.623   3.331   2.561
 7240SOL     OW22618   6.638   2.143   6.644
 7240SOL    HW122619   6.571   2.069   6.636
 7240SOL    HW222620   6.730   2.104   6.648
 7241SOL     OW22621   2.114   0.490   0.462
 7241SOL    HW122622   2.158   0.411   0.504
 7241SOL    HW222623   2.116   0.480   0.362
 7242SOL     OW22624   0.055   6.044   5.146
 7242SOL    HW122625   0.115   6.108   5.098
 7242SOL    HW222626   6.997   6.095   5.191
 7243SOL     OW22627   6.738   3.578   6.627
 7243SOL    HW122628   6.747   3.659   6.686
 7243SOL    HW222629   6.694   3.504   6.679
 7244SOL     OW22630   0.577   6.842   0.670
 7244SOL    HW122631   0.673   6.856   0.696
 7244SOL    HW222632   0.518   6.862   0.748
 7245SOL     OW22633   1.428   2.525   5.768
 7245SOL    HW122634   1.498   2.472   5.721
 7245SOL    HW222635   1.414   2.487   5.860
 7246SOL     OW22636   2.405   0.375   4.406
 7246SOL    HW122637   2.478   0.435   4.376
 7246SOL    HW222638   2.426   0.340   4.497
 7247SOL     OW22639   3.202   2.379   5.590
 7247SOL    HW122640   3.288   2.374   5.540
 7247SOL    HW222641   3.127   2.398   5.526
 7248SOL     OW22642   2.813   0.386   4.164
 7248SOL    HW122643   2.747   0.337   4.107
 7248SOL    HW222644   2.818   0.481   4.134
 7249SOL     OW22645   4.168   4.993   1.864
 7249SOL    HW122646   4.193   4.908   1.911
 7249SOL    HW222647   4.090   5.035   1.910
 7250SOL     OW22648   5.511   4.932   5.968
 7250SOL    HW122649   5.441   4.883   5.915
 7250SOL    HW222650   5.524   4.886   6.055
 7251SOL     OW22651   0.614   0.150   6.021
 7251SOL    HW122652   0.553   0.180   5.948
 7251SOL    HW222653   0.709   0.168   5.995
 7252SOL     OW22654   2.986   3.813   2.136
 7252SOL    HW122655   2.919   3.838   2.206
 7252SOL    HW222656   3.015   3.719   2.150
 7253SOL     OW22657   1.908   6.471   6.040
 7253SOL    HW122658   1.971   6.548   6.045
 7253SOL    HW222659   1.874   6.461   5.946
 7254SOL     OW22660   5.645   5.453   4.036
 7254SOL    HW122661   5.660   5.500   3.949
 7254SOL    HW222662   5.712   5.379   4.046
 7255SOL     OW22663   4.650   3.523   6.999
 7255SOL    HW122664   4.715   3.543   6.926
 7255SOL    HW222665   4.591   3.603   7.014
 7256SOL     OW22666   4.081   6.163   5.726
 7256SOL    HW122667   4.102   6.258   5.704
 7256SOL    HW222668   4.166   6.115   5.749
 7257SOL     OW22669   0.036   2.012   4.991
 7257SOL    HW122670   6.995   2.065   5.054
 7257SOL    HW222671   0.124   2.059   4.978
 7258SOL     OW22672   5.643   2.254   2.175
 7258SOL    HW122673   5.709   2.181   2.160
 7258SOL    HW222674   5.569   2.247   2.108
 7259SOL     OW22675   1.318   3.561   2.401
 7259SOL    HW122676   1.228   3.596   2.426
 7259SOL    HW222677   1.369   3.537   2.483
 7260SOL     OW22678   5.023   2.349   0.977
 7260SOL    HW122679   4.967   2.408   0.919
 7260SOL    HW222680   5.035   2.392   1.067
 7261SOL     OW22681   0.429   4.098   1.222
 7261SOL    HW122682   0.504   4.049   1.267
 7261SOL    HW222683   0.389   4.163   1.287
 7262SOL     OW22684   5.496   1.082   6.595
 7262SOL    HW122685   5.437   1.022   6.650
 7262SOL    HW222686   5.472   1.074   6.499
 7263SOL     OW22687   0.065   6.278   0.340
 7263SOL    HW122688   0.155   6.251   0.374
 7263SOL    HW222689   0.002   6.201   0.350
 7264SOL     OW22690   5.379   0.944   0.983
 7264SOL    HW122691   5.471   0.907   0.980
 7264SOL    HW222692   5.365   0.995   1.068
 7265SOL     OW22693   6.060   5.065   5.093
 7265SOL    HW122694   5.976   5.039   5.141
 7265SOL    HW222695   6.089   4.990   5.033
 7266SOL     OW22696   6.515   0.570   3.793
 7266SOL    HW122697   6.489   0.664   3.814
 7266SOL    HW222698   6.539   0.563   3.696
 7267SOL     OW22699   6.602   6.840   5.107
 7267SOL    HW122700   6.607   6.911   5.036
 7267SOL    HW222701   6.695   6.813   5.133
 7268SOL     OW22702   0.054   5.892   4.210
 7268SOL    HW122703   7.006   5.838   4.154
 7268SOL    HW222704   0.021   5.986   4.216
 7269SOL     OW22705   1.873   6.126   5.904
 7269SOL    HW122706   1.811   6.178   5.845
 7269SOL    HW222707   1.869   6.029   5.880
 7270SOL     OW22708   0.239   1.790   4.005
 7270SOL    HW122709   0.235   1.843   3.920
 7270SOL    HW222710   0.237   1.693   3.983
 7271SOL     OW22711   1.577   5.062   3.988
 7271SOL    HW122712   1.531   5.113   3.916
 7271SOL    HW222713   1.640   5.122   4.038
 7272SOL     OW22714   6.444   5.772   2.018
 7272SOL    HW122715   6.363   5.714   2.015
 7272SOL    HW222716   6.517   5.724   2.066
 7273SOL     OW22717   5.083   3.501   0.010
 7273SOL    HW122718   5.089   3.599   0.028
 7273SOL    HW222719   5.017   3.485   6.951
 7274SOL     OW22720   0.255   4.371   6.917
 7274SOL    HW122721   0.273   4.410   6.827
 7274SOL    HW222722   0.160   4.340   6.921
 7275SOL     OW22723   0.349   6.045   2.847
 7275SOL    HW122724   0.249   6.053   2.849
 7275SOL    HW222725   0.390   6.135   2.861
 7276SOL     OW22726   5.677   0.446   3.639
 7276SOL    HW122727   5.672   0.393   3.723
 7276SOL    HW222728   5.701   0.386   3.563
 7277SOL     OW22729   4.790   0.938   5.415
 7277SOL    HW122730   4.738   1.020   5.440
 7277SOL    HW222731   4.819   0.891   5.498
 7278SOL     OW22732   3.248   3.918   1.282
 7278SOL    HW122733   3.161   3.966   1.290
 7278SOL    HW222734   3.312   3.955   1.349
 7279SOL     OW22735   4.440   5.880   7.015
 7279SOL    HW122736   4.383   5.918   0.073
 7279SOL    HW222737   4.467   5.787   0.024
 7280SOL     OW22738   6.745   0.217   3.790
 7280SOL    HW122739   6.674   0.271   3.836
 7280SOL    HW222740   6.831   0.267   3.792
 7281SOL     OW22741   3.216   1.948   7.006
 7281SOL    HW122742   3.295   2.006   0.014
 7281SOL    HW222743   3.132   1.992   0.024
 7282SOL     OW22744   6.013   5.372   2.472
 7282SOL    HW122745   5.918   5.366   2.439
 7282SOL    HW222746   6.028   5.302   2.542
 7283SOL     OW22747   2.719   1.626   3.326
 7283SOL    HW122748   2.681   1.630   3.234
 7283SOL    HW222749   2.810   1.585   3.322
 7284SOL     OW22750   0.747   3.333   5.831
 7284SOL    HW122751   0.680   3.286   5.773
 7284SOL    HW222752   0.778   3.416   5.785
 7285SOL     OW22753   5.401   3.559   1.923
 7285SOL    HW122754   5.336   3.602   1.986
 7285SOL    HW222755   5.400   3.460   1.935
 7286SOL     OW22756   2.787   1.829   0.941
 7286SOL    HW122757   2.804   1.737   0.907
 7286SOL    HW222758   2.865   1.887   0.921
 7287SOL     OW22759   7.011   2.064   6.381
 7287SOL    HW122760   6.951   2.007   6.437
 7287SOL    HW222761   0.035   2.137   6.437
 7288SOL     OW22762   3.319   1.080   0.001
 7288SOL    HW122763   3.241   1.088   0.063
 7288SOL    HW222764   3.343   1.170   6.981
 7289SOL     OW22765   6.305   1.726   3.402
 7289SOL    HW122766   6.231   1.783   3.440
 7289SOL    HW222767   6.267   1.640   3.369
 7290SOL     OW22768   3.706   6.924   5.298
 7290SOL    HW122769   3.618   6.905   5.255
 7290SOL    HW222770   3.757   6.990   5.243
 7291SOL     OW22771   1.497   6.787   0.907
 7291SOL    HW122772   1.444   6.705   0.885
 7291SOL    HW222773   1.507   6.843   0.824
 7292SOL     OW22774   2.524   1.074   4.071
 7292SOL    HW122775   2.452   1.039   4.011
 7292SOL    HW222776   2.613   1.042   4.038
 7293SOL     OW22777   1.723   1.911   5.521
 7293SOL    HW122778   1.710   1.972   5.599
 7293SOL    HW222779   1.733   1.817   5.553
 7294SOL     OW22780   2.425   5.133   0.341
 7294SOL    HW122781   2.378   5.194   0.277
 7294SOL    HW222782   2.448   5.048   0.295
 7295SOL     OW22783   0.975   2.340   0.880
 7295SOL    HW122784   1.054   2.401   0.870
 7295SOL    HW222785   0.976   2.271   0.807
 7296SOL     OW22786   2.679   5.350   1.116
 7296SOL    HW122787   2.621   5.384   1.042
 7296SOL    HW222788   2.677   5.250   1.118
 7297SOL     OW22789   3.618   5.671   1.242
 7297SOL    HW122790   3.652   5.578   1.228
 7297SOL    HW222791   3.532   5.667   1.293
 7298SOL     OW22792   4.541   4.476   5.450
 7298SOL    HW122793   4.553   4.386   5.491
 7298SOL    HW222794   4.602   4.542   5.495
 7299SOL     OW22795   0.259   1.872   0.434
 7299SOL    HW122796   0.172   1.896   0.477
 7299SOL    HW222797   0.328   1.857   0.505
 7300SOL     OW22798   6.250   5.751   2.371
 7300SOL    HW122799   6.208   5.786   2.287
 7300SOL    HW222800   6.223   5.809   2.448
 7301SOL     OW22801   6.631   0.991   4.607
 7301SOL    HW122802   6.705   1.052   4.582
 7301SOL    HW222803   6.550   1.011   4.551
 7302SOL     OW22804   0.973   1.480   5.925
 7302SOL    HW122805   0.981   1.412   5.998
 7302SOL    HW222806   1.022   1.446   5.844
 7303SOL     OW22807   4.535   0.368   6.220
 7303SOL    HW122808   4.621   0.322   6.242
 7303SOL    HW222809   4.553   0.465   6.202
 7304SOL     OW22810   3.969   4.403   0.545
 7304SOL    HW122811   3.975   4.440   0.638
 7304SOL    HW222812   3.944   4.307   0.549
 7305SOL     OW22813   4.823   1.064   0.592
 7305SOL    HW122814   4.787   1.157   0.591
 7305SOL    HW222815   4.748   0.999   0.580
 7306SOL     OW22816   5.261   2.341   1.597
 7306SOL    HW122817   5.271   2.322   1.499
 7306SOL    HW222818   5.260   2.440   1.612
 7307SOL     OW22819   2.588   0.391   2.323
 7307SOL    HW122820   2.550   0.458   2.260
 7307SOL    HW222821   2.683   0.371   2.298
 7308SOL     OW22822   0.058   4.116   5.484
 7308SOL    HW122823   0.143   4.162   5.455
 7308SOL    HW222824   0.080   4.022   5.513
 7309SOL     OW22825   5.291   5.967   0.369
 7309SOL    HW122826   5.270   5.888   0.426
 7309SOL    HW222827   5.346   5.938   0.290
 7310SOL     OW22828   2.015   3.955   1.490
 7310SOL    HW122829   2.112   3.980   1.493
 7310SOL    HW222830   1.989   3.912   1.577
 7311SOL     OW22831   3.546   2.022   2.110
 7311SOL    HW122832   3.603   2.099   2.080
 7311SOL    HW222833   3.540   1.955   2.037
 7312SOL     OW22834   0.078   3.442   6.177
 7312SOL    HW122835   0.112   3.530   6.210
 7312SOL    HW222836   7.007   3.456   6.128
 7313SOL     OW22837   3.754   1.872   6.326
 7313SOL    HW122838   3.810   1.840   6.250
 7313SOL    HW222839   3.809   1.931   6.386
 7314SOL     OW22840   6.412   3.556   5.111
 7314SOL    HW122841   6.473   3.576   5.034
 7314SOL    HW222842   6.457   3.492   5.173
 7315SOL     OW22843   6.597   0.512   2.704
 7315SOL    HW122844   6.594   0.577   2.780
 7315SOL    HW222845   6.691   0.480   2.691
 7316SOL     OW22846   2.924   3.882   5.966
 7316SOL    HW122847   3.018   3.915   5.962
 7316SOL    HW222848   2.915   3.799   5.911
 7317SOL     OW22849   4.664   0.937   2.659
 7317SOL    HW122850   4.630   1.021   2.702
 7317SOL    HW222851   4.642   0.939   2.561
 7318SOL     OW22852   1.109   1.501   0.897
 7318SOL    HW122853   1.167   1.582   0.902
 7318SOL    HW222854   1.163   1.419   0.915
 7319SOL     OW22855   6.041   3.918   6.022
 7319SOL    HW122856   6.133   3.923   6.061
 7319SOL    HW222857   6.048   3.894   5.925
 7320SOL     OW22858   6.384   3.598   1.801
 7320SOL    HW122859   6.370   3.656   1.882
 7320SOL    HW222860   6.315   3.620   1.732
 7321SOL     OW22861   2.902   6.231   5.029
 7321SOL    HW122862   2.911   6.325   5.063
 7321SOL    HW222863   2.940   6.226   4.936
 7322SOL     OW22864   6.955   2.419   3.241
 7322SOL    HW122865   0.012   2.451   3.180
 7322SOL    HW222866   6.972   2.324   3.266
 7323SOL     OW22867   1.980   1.904   1.669
 7323SOL    HW122868   1.916   1.977   1.643
 7323SOL    HW222869   1.932   1.833   1.719
 7324SOL     OW22870   4.737   6.167   2.436
 7324SOL    HW122871   4.654   6.212   2.470
 7324SOL    HW222872   4.806   6.166   2.509
 7325SOL     OW22873   3.613   6.419   6.929
 7325SOL    HW122874   3.624   6.322   6.948
 7325SOL    HW222875   3.702   6.459   6.906
 7326SOL     OW22876   2.981   6.473   5.336
 7326SOL    HW122877   2.986   6.546   5.405
 7326SOL    HW222878   2.989   6.384   5.381
 7327SOL     OW22879   6.567   2.587   5.223
 7327SOL    HW122880   6.543   2.501   5.180
 7327SOL    HW222881   6.568   2.661   5.155
 7328SOL     OW22882   3.401   1.164   5.953
 7328SOL    HW122883   3.442   1.225   5.886
 7328SOL    HW222884   3.305   1.189   5.968
 7329SOL     OW22885   4.805   3.979   1.585
 7329SOL    HW122886   4.730   3.975   1.651
 7329SOL    HW222887   4.892   3.976   1.634
 7330SOL     OW22888   2.997   2.161   0.093
 7330SOL    HW122889   3.064   2.132   0.162
 7330SOL    HW222890   2.928   2.089   0.081
 7331SOL     OW22891   5.667   0.031   2.049
 7331SOL    HW122892   5.608   0.112   2.046
 7331SOL    HW222893   5.721   0.026   1.965
 7332SOL     OW22894   1.948   5.998   0.535
 7332SOL    HW122895   1.889   5.932   0.581
 7332SOL    HW222896   2.004   5.951   0.467
 7333SOL     OW22897   0.180   3.681   3.664
 7333SOL    HW122898   0.138   3.641   3.583
 7333SOL    HW222899   0.276   3.654   3.669
 7334SOL     OW22900   3.476   6.487   6.638
 7334SOL    HW122901   3.447   6.404   6.590
 7334SOL    HW222902   3.490   6.465   6.735
 7335SOL     OW22903   1.964   2.691   2.762
 7335SOL    HW122904   1.963   2.693   2.862
 7335SOL    HW222905   1.881   2.735   2.727
 7336SOL     OW22906   1.637   6.776   3.106
 7336SOL    HW122907   1.658   6.783   3.204
 7336SOL    HW222908   1.631   6.867   3.067
 7337SOL     OW22909   0.531   2.950   1.812
 7337SOL    HW122910   0.436   2.964   1.787
 7337SOL    HW222911   0.576   2.893   1.743
 7338SOL     OW22912   6.364   3.116   1.266
 7338SOL    HW122913   6.349   3.024   1.230
 7338SOL    HW222914   6.277   3.166   1.265
 7339SOL     OW22915   5.069   6.425   3.630
 7339SOL    HW122916   5.051   6.327   3.629
 7339SOL    HW222917   5.088   6.455   3.723
 7340SOL     OW22918   1.982   0.921   0.782
 7340SOL    HW122919   2.070   0.904   0.826
 7340SOL    HW222920   1.985   1.010   0.736
 7341SOL     OW22921   6.712   2.862   0.064
 7341SOL    HW122922   6.757   2.793   0.120
 7341SOL    HW222923   6.680   2.937   0.122
 7342SOL     OW22924   6.626   1.640   1.676
 7342SOL    HW122925   6.571   1.702   1.733
 7342SOL    HW222926   6.565   1.588   1.615
 7343SOL     OW22927   4.820   3.165   0.167
 7343SOL    HW122928   4.833   3.158   0.068
 7343SOL    HW222929   4.785   3.078   0.201
 7344SOL     OW22930   0.737   0.148   6.315
 7344SOL    HW122931   0.670   0.134   6.243
 7344SOL    HW222932   0.706   0.104   6.400
 7345SOL     OW22933   4.112   3.381   5.342
 7345SOL    HW122934   4.034   3.332   5.304
 7345SOL    HW222935   4.108   3.376   5.442
 7346SOL     OW22936   3.624   5.873   2.740
 7346SOL    HW122937   3.683   5.856   2.819
 7346SOL    HW222938   3.537   5.911   2.771
 7347SOL     OW22939   0.492   1.815   0.595
 7347SOL    HW122940   0.570   1.771   0.551
 7347SOL    HW222941   0.479   1.777   0.687
 7348SOL     OW22942   1.412   3.748   3.773
 7348SOL    HW122943   1.361   3.671   3.734
 7348SOL    HW222944   1.458   3.798   3.700
 7349SOL     OW22945   4.357   0.504   2.305
 7349SOL    HW122946   4.315   0.529   2.393
 7349SOL    HW222947   4.456   0.515   2.311
 7350SOL     OW22948   2.784   1.925   5.721
 7350SOL    HW122949   2.812   1.932   5.626
 7350SOL    HW222950   2.845   1.861   5.769
 7351SOL     OW22951   5.742   6.015   3.460
 7351SOL    HW122952   5.663   5.974   3.415
 7351SOL    HW222953   5.730   6.011   3.559
 7352SOL     OW22954   0.197   1.271   2.682
 7352SOL    HW122955   0.274   1.312   2.731
 7352SOL    HW222956   0.205   1.293   2.584
 7353SOL     OW22957   0.325   0.221   6.504
 7353SOL    HW122958   0.399   0.264   6.554
 7353SOL    HW222959   0.346   0.221   6.406
 7354SOL     OW22960   1.757   1.247   5.305
 7354SOL    HW122961   1.725   1.238   5.210
 7354SOL    HW222962   1.851   1.281   5.305
 7355SOL     OW22963   0.633   1.746   6.927
 7355SOL    HW122964   0.638   1.714   0.006
 7355SOL    HW222965   0.552   1.707   6.883
 7356SOL     OW22966   3.660   3.546   6.344
 7356SOL    HW122967   3.750   3.522   6.308
 7356SOL    HW222968   3.638   3.486   6.422
 7357SOL     OW22969   2.959   5.457   2.569
 7357SOL    HW122970   3.004   5.491   2.486
 7357SOL    HW222971   2.923   5.366   2.553
 7358SOL     OW22972   6.790   3.842   2.855
 7358SOL    HW122973   6.831   3.917   2.906
 7358SOL    HW222974   6.691   3.841   2.870
 7359SOL     OW22975   4.427   2.336   5.760
 7359SOL    HW122976   4.385   2.361   5.673
 7359SOL    HW222977   4.393   2.398   5.832
 7360SOL     OW22978   2.539   3.206   5.387
 7360SOL    HW122979   2.503   3.190   5.479
 7360SOL    HW222980   2.493   3.146   5.322
 7361SOL     OW22981   5.361   0.909   2.794
 7361SOL    HW122982   5.451   0.902   2.753
 7361SOL    HW222983   5.329   0.818   2.821
 7362SOL     OW22984   2.743   5.787   6.362
 7362SOL    HW122985   2.646   5.802   6.343
 7362SOL    HW222986   2.757   5.772   6.460
 7363SOL     OW22987   4.704   1.046   1.399
 7363SOL    HW122988   4.774   1.115   1.385
 7363SOL    HW222989   4.742   0.971   1.454
 7364SOL     OW22990   4.236   0.331   2.129
 7364SOL    HW122991   4.277   0.383   2.204
 7364SOL    HW222992   4.247   0.381   2.044
 7365SOL     OW22993   0.594   5.759   2.049
 7365SOL    HW122994   0.661   5.709   1.993
 7365SOL    HW222995   0.625   5.760   2.144
 7366SOL     OW22996   2.379   6.406   5.563
 7366SOL    HW122997   2.432   6.323   5.543
 7366SOL    HW222998   2.337   6.439   5.478
 7367SOL     OW22999   3.763   2.566   0.454
 7367SOL    HW123000   3.735   2.536   0.363
 7367SOL    HW223001   3.794   2.487   0.507
 7368SOL     OW23002   3.916   3.028   2.657
 7368SOL    HW123003   3.976   2.955   2.624
 7368SOL    HW223004   3.824   2.992   2.671
 7369SOL     OW23005   3.788   2.932   1.339
 7369SOL    HW123006   3.797   2.840   1.300
 7369SOL    HW223007   3.712   2.980   1.293
 7370SOL     OW23008   2.842   2.175   6.039
 7370SOL    HW123009   2.750   2.215   6.037
 7370SOL    HW223010   2.898   2.220   5.970
 7371SOL     OW23011   3.292   6.529   3.911
 7371SOL    HW123012   3.336   6.451   3.955
 7371SOL    HW223013   3.337   6.549   3.824
 7372SOL     OW23014   4.324   6.981   4.919
 7372SOL    HW123015   4.306   6.886   4.943
 7372SOL    HW223016   4.253   0.024   4.959
 7373SOL     OW23017   5.566   2.129   5.091
 7373SOL    HW123018   5.625   2.058   5.053
 7373SOL    HW223019   5.616   2.184   5.157
 7374SOL     OW23020   1.730   1.651   4.671
 7374SOL    HW123021   1.752   1.746   4.694
 7374SOL    HW223022   1.749   1.592   4.750
 7375SOL     OW23023   2.106   2.518   2.038
 7375SOL    HW123024   2.102   2.435   1.983
 7375SOL    HW223025   2.198   2.556   2.035
 7376SOL     OW23026   1.266   2.818   1.481
 7376SOL    HW123027   1.223   2.734   1.515
 7376SOL    HW223028   1.268   2.887   1.553
 7377SOL     OW23029   4.204   4.989   0.898
 7377SOL    HW123030   4.158   5.012   0.813
 7377SOL    HW223031   4.161   4.908   0.938
 7378SOL     OW23032   1.442   7.003   5.020
 7378SOL    HW123033   1.413   0.068   5.072
 7378SOL    HW223034   1.537   7.013   4.992
 7379SOL     OW23035   3.023   0.756   2.085
 7379SOL    HW123036   2.988   0.745   1.992
 7379SOL    HW223037   3.009   0.850   2.115
 7380SOL     OW23038   6.487   4.261   3.571
 7380SOL    HW123039   6.433   4.273   3.488
 7380SOL    HW223040   6.445   4.190   3.628
 7381SOL     OW23041   3.757   3.038   0.608
 7381SOL    HW123042   3.677   3.079   0.650
 7381SOL    HW223043   3.836   3.097   0.622
 7382SOL     OW23044   6.863   2.251   5.857
 7382SOL    HW123045   6.776   2.298   5.871
 7382SOL    HW223046   6.846   2.153   5.842
 7383SOL     OW23047   2.467   5.549   1.973
 7383SOL    HW123048   2.559   5.584   1.957
 7383SOL    HW223049   2.473   5.459   2.018
 7384SOL     OW23050   6.724   0.174   1.507
 7384SOL    HW123051   6.629   0.157   1.483
 7384SOL    HW223052   6.774   0.087   1.508
 7385SOL     OW23053   2.660   4.880   2.951
 7385SOL    HW123054   2.561   4.866   2.953
 7385SOL    HW223055   2.683   4.965   2.999
 7386SOL     OW23056   6.334   2.772   6.735
 7386SOL    HW123057   6.422   2.757   6.689
 7386SOL    HW223058   6.272   2.696   6.715
 7387SOL     OW23059   0.067   5.375   5.474
 7387SOL    HW123060   0.047   5.371   5.376
 7387SOL    HW223061   0.004   5.440   5.517
 7388SOL     OW23062   1.417   4.959   1.987
 7388SOL    HW123063   1.461   4.986   1.901
 7388SOL    HW223064   1.401   4.860   1.987
 7389SOL     OW23065   6.764   3.588   0.613
 7389SOL    HW123066   6.819   3.660   0.570
 7389SOL    HW223067   6.675   3.582   0.568
 7390SOL     OW23068   2.774   1.880   1.983
 7390SOL    HW123069   2.763   1.879   2.082
 7390SOL    HW223070   2.848   1.942   1.958
 7391SOL     OW23071   4.166   3.464   2.542
 7391SOL    HW123072   4.123   3.464   2.632
 7391SOL    HW223073   4.153   3.374   2.500
 7392SOL     OW23074   3.479   5.832   6.957
 7392SOL    HW123075   3.427   5.829   6.872
 7392SOL    HW223076   3.571   5.866   6.938
 7393SOL     OW23077   6.063   4.451   3.347
 7393SOL    HW123078   6.153   4.409   3.354
 7393SOL    HW223079   6.065   4.541   3.389
 7394SOL     OW23080   1.709   2.899   6.032
 7394SOL    HW123081   1.761   2.978   5.999
 7394SOL    HW223082   1.659   2.857   5.956
 7395SOL     OW23083   2.051   2.968   1.275
 7395SOL    HW123084   2.102   3.035   1.329
 7395SOL    HW223085   2.034   2.886   1.331
 7396SOL     OW23086   2.474   6.469   1.681
 7396SOL    HW123087   2.541   6.431   1.744
 7396SOL    HW223088   2.389   6.490   1.729
 7397SOL     OW23089   4.913   3.488   4.580
 7397SOL    HW123090   4.912   3.396   4.539
 7397SOL    HW223091   4.906   3.480   4.679
 7398SOL     OW23092   0.983   5.467   3.318
 7398SOL    HW123093   1.013   5.526   3.392
 7398SOL    HW223094   1.058   5.408   3.289
 7399SOL     OW23095   6.452   3.223   4.970
 7399SOL    HW123096   6.430   3.257   4.879
 7399SOL    HW223097   6.367   3.208   5.021
 7400SOL     OW23098   5.187   2.277   5.587
 7400SOL    HW123099   5.102   2.244   5.547
 7400SOL    HW223100   5.261   2.212   5.568
 7401SOL     OW23101   1.865   2.746   3.607
 7401SOL    HW123102   1.906   2.676   3.665
 7401SOL    HW223103   1.820   2.814   3.664
 7402SOL     OW23104   3.041   4.222   5.981
 7402SOL    HW123105   2.979   4.164   6.032
 7402SOL    HW223106   3.024   4.318   6.004
 7403SOL     OW23107   1.624   2.907   2.844
 7403SOL    HW123108   1.664   2.982   2.792
 7403SOL    HW223109   1.664   2.904   2.936
 7404SOL     OW23110   2.847   3.847   1.595
 7404SOL    HW123111   2.763   3.882   1.636
 7404SOL    HW223112   2.908   3.812   1.666
 7405SOL     OW23113   2.720   5.452   4.917
 7405SOL    HW123114   2.706   5.371   4.860
 7405SOL    HW223115   2.782   5.429   4.992
 7406SOL     OW23116   0.824   1.661   5.177
 7406SOL    HW123117   0.877   1.582   5.208
 7406SOL    HW223118   0.728   1.635   5.167
 7407SOL     OW23119   1.392   6.490   6.337
 7407SOL    HW123120   1.299   6.459   6.315
 7407SOL    HW223121   1.403   6.585   6.307
 7408SOL     OW23122   3.387   4.350   5.264
 7408SOL    HW123123   3.291   4.368   5.284
 7408SOL    HW223124   3.394   4.275   5.199
 7409SOL     OW23125   5.399   4.313   0.149
 7409SOL    HW123126   5.315   4.348   0.191
 7409SOL    HW223127   5.378   4.227   0.101
 7410SOL     OW23128   0.681   0.193   0.421
 7410SOL    HW123129   0.621   0.225   0.494
 7410SOL    HW223130   0.652   0.102   0.392
 7411SOL     OW23131   1.818   0.723   6.600
 7411SOL    HW123132   1.906   0.689   6.632
 7411SOL    HW223133   1.831   0.776   6.516
 7412SOL     OW23134   3.763   6.259   0.758
 7412SOL    HW123135   3.777   6.344   0.708
 7412SOL    HW223136   3.693   6.205   0.712
 7413SOL     OW23137   4.562   4.371   3.527
 7413SOL    HW123138   4.620   4.302   3.484
 7413SOL    HW223139   4.519   4.428   3.457
 7414SOL     OW23140   1.703   1.541   4.416
 7414SOL    HW123141   1.773   1.476   4.388
 7414SOL    HW223142   1.733   1.589   4.499
 7415SOL     OW23143   2.948   5.666   5.940
 7415SOL    HW123144   2.921   5.759   5.967
 7415SOL    HW223145   3.016   5.672   5.866
 7416SOL     OW23146   2.086   1.347   2.501
 7416SOL    HW123147   2.023   1.296   2.441
 7416SOL    HW223148   2.048   1.438   2.518
 7417SOL     OW23149   1.845   2.074   2.393
 7417SOL    HW123150   1.800   1.997   2.347
 7417SOL    HW223151   1.939   2.048   2.417
 7418SOL     OW23152   1.987   4.378   6.940
 7418SOL    HW123153   2.057   4.440   6.906
 7418SOL    HW223154   1.965   4.402   0.020
 7419SOL     OW23155   6.426   3.713   3.928
 7419SOL    HW123156   6.378   3.768   3.860
 7419SOL    HW223157   6.384   3.727   4.018
 7420SOL     OW23158   6.828   5.807   1.228
 7420SOL    HW123159   6.754   5.786   1.292
 7420SOL    HW223160   6.913   5.766   1.261
 7421SOL     OW23161   4.120   3.738   1.400
 7421SOL    HW123162   4.129   3.774   1.307
 7421SOL    HW223163   4.029   3.759   1.435
 7422SOL     OW23164   6.375   4.057   2.070
 7422SOL    HW123165   6.286   4.044   2.112
 7422SOL    HW223166   6.384   4.153   2.041
 7423SOL     OW23167   5.919   2.876   5.309
 7423SOL    HW123168   5.827   2.848   5.278
 7423SOL    HW223169   5.923   2.976   5.313
 7424SOL     OW23170   6.906   1.891   5.320
 7424SOL    HW123171   6.850   1.920   5.397
 7424SOL    HW223172   6.847   1.848   5.251
 7425SOL     OW23173   5.384   0.223   0.233
 7425SOL    HW123174   5.297   0.192   0.273
 7425SOL    HW223175   5.458   0.208   0.298
 7426SOL     OW23176   3.505   2.098   5.698
 7426SOL    HW123177   3.555   2.060   5.620
 7426SOL    HW223178   3.567   2.155   5.752
 7427SOL     OW23179   3.317   0.941   4.064
 7427SOL    HW123180   3.319   0.916   3.968
 7427SOL    HW223181   3.378   0.882   4.116
 7428SOL     OW23182   4.546   0.666   5.273
 7428SOL    HW123183   4.548   0.761   5.241
 7428SOL    HW223184   4.469   0.618   5.231
 7429SOL     OW23185   1.127   6.274   2.778
 7429SOL    HW123186   1.101   6.197   2.835
 7429SOL    HW223187   1.117   6.249   2.681
 7430SOL     OW23188   6.697   4.102   1.860
 7430SOL    HW123189   6.675   4.020   1.806
 7430SOL    HW223190   6.794   4.103   1.882
 7431SOL     OW23191   1.851   2.301   3.625
 7431SOL    HW123192   1.760   2.259   3.627
 7431SOL    HW223193   1.896   2.279   3.539
 7432SOL     OW23194   1.713   0.332   3.411
 7432SOL    HW123195   1.735   0.234   3.411
 7432SOL    HW223196   1.797   0.385   3.397
 7433SOL     OW23197   3.428   6.781   6.580
 7433SOL    HW123198   3.510   6.833   6.604
 7433SOL    HW223199   3.441   6.685   6.608
 7434SOL     OW23200   4.846   6.028   5.624
 7434SOL    HW123201   4.830   6.057   5.718
 7434SOL    HW223202   4.759   6.013   5.578
 7435SOL     OW23203   4.547   6.068   1.797
 7435SOL    HW123204   4.599   5.985   1.815
 7435SOL    HW223205   4.449   6.049   1.807
 7436SOL     OW23206   4.631   4.535   6.236
 7436SOL    HW123207   4.688   4.616   6.225
 7436SOL    HW223208   4.583   4.515   6.150
 7437SOL     OW23209   3.092   6.122   1.816
 7437SOL    HW123210   3.139   6.093   1.733
 7437SOL    HW223211   3.099   6.221   1.825
 7438SOL     OW23212   1.843   0.559   0.445
 7438SOL    HW123213   1.935   0.559   0.483
 7438SOL    HW223214   1.842   0.508   0.359
 7439SOL     OW23215   1.513   5.378   5.160
 7439SOL    HW123216   1.600   5.330   5.153
 7439SOL    HW223217   1.454   5.331   5.227
 7440SOL     OW23218   6.008   3.280   3.847
 7440SOL    HW123219   5.934   3.296   3.781
 7440SOL    HW223220   6.085   3.340   3.825
 7441SOL     OW23221   6.141   6.645   3.766
 7441SOL    HW123222   6.136   6.725   3.827
 7441SOL    HW223223   6.050   6.604   3.760
 7442SOL     OW23224   5.888   1.240   6.552
 7442SOL    HW123225   5.917   1.260   6.458
 7442SOL    HW223226   5.897   1.323   6.608
 7443SOL     OW23227   6.960   5.441   1.632
 7443SOL    HW123228   6.870   5.474   1.658
 7443SOL    HW223229   6.963   5.341   1.639
 7444SOL     OW23230   6.507   1.415   6.172
 7444SOL    HW123231   6.502   1.499   6.117
 7444SOL    HW223232   6.444   1.423   6.250
 7445SOL     OW23233   3.931   6.998   1.354
 7445SOL    HW123234   3.991   0.005   1.278
 7445SOL    HW223235   3.842   0.025   1.340
 7446SOL     OW23236   4.937   2.461   0.569
 7446SOL    HW123237   4.922   2.457   0.471
 7446SOL    HW223238   4.857   2.501   0.614
 7447SOL     OW23239   6.984   4.276   6.384
 7447SOL    HW123240   6.907   4.309   6.438
 7447SOL    HW223241   6.992   4.177   6.396
 7448SOL     OW23242   5.312   6.249   5.462
 7448SOL    HW123243   5.280   6.339   5.430
 7448SOL    HW223244   5.245   6.179   5.438
 7449SOL     OW23245   0.345   5.374   0.145
 7449SOL    HW123246   0.424   5.379   0.206
 7449SOL    HW223247   0.327   5.464   0.105
 7450SOL     OW23248   5.121   2.555   5.453
 7450SOL    HW123249   5.080   2.608   5.527
 7450SOL    HW223250   5.180   2.484   5.493
 7451SOL     OW23251   5.392   5.235   2.725
 7451SOL    HW123252   5.352   5.307   2.783
 7451SOL    HW223253   5.348   5.237   2.635
 7452SOL     OW23254   6.455   6.179   4.273
 7452SOL    HW123255   6.482   6.136   4.187
 7452SOL    HW223256   6.358   6.203   4.269
 7453SOL     OW23257   5.070   5.168   6.660
 7453SOL    HW123258   5.031   5.260   6.656
 7453SOL    HW223259   5.075   5.130   6.567
 7454SOL     OW23260   2.831   1.730   0.500
 7454SOL    HW123261   2.915   1.749   0.449
 7454SOL    HW223262   2.751   1.753   0.444
 7455SOL     OW23263   6.313   2.969   2.330
 7455SOL    HW123264   6.358   2.961   2.241
 7455SOL    HW223265   6.371   2.929   2.401
 7456SOL     OW23266   2.641   1.894   5.301
 7456SOL    HW123267   2.600   1.983   5.316
 7456SOL    HW223268   2.731   1.905   5.258
 7457SOL     OW23269   2.947   0.147   4.222
 7457SOL    HW123270   2.870   0.209   4.241
 7457SOL    HW223271   3.007   0.190   4.154
 7458SOL     OW23272   1.099   0.379   5.641
 7458SOL    HW123273   1.077   0.342   5.550
 7458SOL    HW223274   1.193   0.353   5.665
 7459SOL     OW23275   6.239   1.300   2.233
 7459SOL    HW123276   6.145   1.273   2.212
 7459SOL    HW223277   6.300   1.267   2.161
 7460SOL     OW23278   1.558   6.583   0.092
 7460SOL    HW123279   1.553   6.657   0.159
 7460SOL    HW223280   1.490   6.513   0.115
 7461SOL     OW23281   6.170   6.243   5.205
 7461SOL    HW123282   6.104   6.172   5.178
 7461SOL    HW223283   6.142   6.283   5.292
 7462SOL     OW23284   1.645   5.234   1.310
 7462SOL    HW123285   1.736   5.252   1.274
 7462SOL    HW223286   1.641   5.258   1.406
 7463SOL     OW23287   3.233   4.274   0.633
 7463SOL    HW123288   3.166   4.303   0.702
 7463SOL    HW223289   3.325   4.281   0.672
 7464SOL     OW23290   6.571   6.392   4.943
 7464SOL    HW123291   6.515   6.309   4.949
 7464SOL    HW223292   6.654   6.380   4.998
 7465SOL     OW23293   2.820   5.547   0.462
 7465SOL    HW123294   2.726   5.531   0.431
 7465SOL    HW223295   2.878   5.470   0.432
 7466SOL     OW23296   0.857   0.713   6.316
 7466SOL    HW123297   0.809   0.632   6.283
 7466SOL    HW223298   0.803   0.794   6.295
 7467SOL     OW23299   0.669   2.319   6.329
 7467SOL    HW123300   0.636   2.413   6.333
 7467SOL    HW223301   0.634   2.268   6.407
 7468SOL     OW23302   4.973   2.620   4.036
 7468SOL    HW123303   5.015   2.694   3.983
 7468SOL    HW223304   4.967   2.647   4.132
 7469SOL     OW23305   6.404   1.926   0.190
 7469SOL    HW123306   6.472   1.946   0.120
 7469SOL    HW223307   6.313   1.954   0.158
 7470SOL     OW23308   5.453   4.247   3.902
 7470SOL    HW123309   5.429   4.228   3.997
 7470SOL    HW223310   5.536   4.304   3.900
 7471SOL     OW23311   5.015   6.071   6.052
 7471SOL    HW123312   4.999   5.975   6.075
 7471SOL    HW223313   5.045   6.120   6.134
 7472SOL     OW23314   6.260   1.210   5.231
 7472SOL    HW123315   6.212   1.196   5.144
 7472SOL    HW223316   6.317   1.131   5.251
 7473SOL     OW23317   5.110   6.759   4.031
 7473SOL    HW123318   5.202   6.762   4.071
 7473SOL    HW223319   5.101   6.830   3.962
 7474SOL     OW23320   6.232   2.482   6.669
 7474SOL    HW123321   6.134   2.466   6.667
 7474SOL    HW223322   6.276   2.412   6.726
 7475SOL     OW23323   4.323   2.346   2.032
 7475SOL    HW123324   4.237   2.315   1.991
 7475SOL    HW223325   4.339   2.297   2.118
 7476SOL     OW23326   2.195   1.992   3.006
 7476SOL    HW123327   2.208   2.090   2.993
 7476SOL    HW223328   2.283   1.949   3.027
 7477SOL     OW23329   0.608   3.211   5.099
 7477SOL    HW123330   0.521   3.218   5.049
 7477SOL    HW223331   0.667   3.288   5.075
 7478SOL     OW23332   5.529   3.574   5.268
 7478SOL    HW123333   5.613   3.537   5.308
 7478SOL    HW223334   5.452   3.514   5.291
 7479SOL     OW23335   5.338   2.983   0.442
 7479SOL    HW123336   5.282   3.045   0.497
 7479SOL    HW223337   5.309   2.987   0.346
 7480SOL     OW23338   1.972   5.149   2.668
 7480SOL    HW123339   2.027   5.122   2.589
 7480SOL    HW223340   1.917   5.229   2.645
 7481SOL     OW23341   6.402   4.600   6.751
 7481SOL    HW123342   6.329   4.543   6.712
 7481SOL    HW223343   6.422   4.675   6.688
 7482SOL     OW23344   4.548   2.165   2.805
 7482SOL    HW123345   4.493   2.244   2.777
 7482SOL    HW223346   4.525   2.087   2.748
 7483SOL     OW23347   4.512   2.609   4.821
 7483SOL    HW123348   4.486   2.512   4.818
 7483SOL    HW223349   4.437   2.662   4.860
 7484SOL     OW23350   1.794   5.549   4.596
 7484SOL    HW123351   1.812   5.627   4.535
 7484SOL    HW223352   1.749   5.476   4.545
 7485SOL     OW23353   2.944   6.768   3.633
 7485SOL    HW123354   2.922   6.820   3.551
 7485SOL    HW223355   3.005   6.821   3.691
 7486SOL     OW23356   0.703   5.975   0.278
 7486SOL    HW123357   0.714   6.065   0.237
 7486SOL    HW223358   0.791   5.940   0.308
 7487SOL     OW23359   4.145   0.982   3.028
 7487SOL    HW123360   4.222   1.044   3.011
 7487SOL    HW223361   4.080   0.990   2.953
 7488SOL     OW23362   1.429   6.120   4.611
 7488SOL    HW123363   1.382   6.201   4.575
 7488SOL    HW223364   1.523   6.119   4.578
 7489SOL     OW23365   6.385   3.618   6.696
 7489SOL    HW123366   6.392   3.590   6.600
 7489SOL    HW223367   6.324   3.556   6.745
 7490SOL     OW23368   1.475   1.661   1.847
 7490SOL    HW123369   1.388   1.653   1.799
 7490SOL    HW223370   1.529   1.579   1.833
 7491SOL     OW23371   4.584   2.773   0.604
 7491SOL    HW123372   4.578   2.691   0.547
 7491SOL    HW223373   4.495   2.791   0.646
 7492SOL     OW23374   1.907   0.873   4.182
 7492SOL    HW123375   1.912   0.900   4.086
 7492SOL    HW223376   1.997   0.884   4.224
 7493SOL     OW23377   6.554   3.388   5.307
 7493SOL    HW123378   6.515   3.385   5.399
 7493SOL    HW223379   6.583   3.296   5.280
 7494SOL     OW23380   5.538   1.118   3.910
 7494SOL    HW123381   5.626   1.137   3.953
 7494SOL    HW223382   5.528   1.019   3.898
 7495SOL     OW23383   2.249   2.925   4.500
 7495SOL    HW123384   2.318   2.924   4.573
 7495SOL    HW223385   2.177   2.859   4.521
 7496SOL     OW23386   5.567   3.315   3.845
 7496SOL    HW123387   5.654   3.328   3.894
 7496SOL    HW223388   5.573   3.359   3.755
 7497SOL     OW23389   1.703   6.252   1.342
 7497SOL    HW123390   1.790   6.296   1.362
 7497SOL    HW223391   1.714   6.188   1.266
 7498SOL     OW23392   2.408   0.491   4.033
 7498SOL    HW123393   2.362   0.407   4.003
 7498SOL    HW223394   2.506   0.482   4.017
 7499SOL     OW23395   4.216   1.667   3.402
 7499SOL    HW123396   4.138   1.725   3.423
 7499SOL    HW223397   4.214   1.641   3.306
 7500SOL     OW23398   3.559   6.009   3.854
 7500SOL    HW123399   3.611   5.932   3.816
 7500SOL    HW223400   3.463   5.984   3.863
 7501SOL     OW23401   5.782   3.106   4.148
 7501SOL    HW123402   5.880   3.089   4.145
 7501SOL    HW223403   5.759   3.156   4.231
 7502SOL     OW23404   3.899   0.009   4.130
 7502SOL    HW123405   3.909   0.103   4.165
 7502SOL    HW223406   3.803   7.009   4.105
 7503SOL     OW23407   1.854   6.251   0.480
 7503SOL    HW123408   1.883   6.327   0.540
 7503SOL    HW223409   1.886   6.165   0.519
 7504SOL     OW23410   0.850   6.410   2.009
 7504SOL    HW123411   0.751   6.419   2.017
 7504SOL    HW223412   0.889   6.394   2.100
 7505SOL     OW23413   0.516   1.644   5.718
 7505SOL    HW123414   0.611   1.639   5.749
 7505SOL    HW223415   0.477   1.552   5.714
 7506SOL     OW23416   3.654   2.096   3.561
 7506SOL    HW123417   3.660   2.115   3.463
 7506SOL    HW223418   3.559   2.103   3.591
 7507SOL     OW23419   6.698   3.164   4.439
 7507SOL    HW123420   6.665   3.114   4.520
 7507SOL    HW223421   6.656   3.125   4.357
 7508SOL     OW23422   1.699   5.611   0.411
 7508SOL    HW123423   1.753   5.541   0.364
 7508SOL    HW223424   1.640   5.657   0.346
 7509SOL     OW23425   5.459   3.791   0.364
 7509SOL    HW123426   5.427   3.708   0.410
 7509SOL    HW223427   5.381   3.840   0.325
 7510SOL     OW23428   4.098   3.376   3.711
 7510SOL    HW123429   4.078   3.465   3.752
 7510SOL    HW223430   4.117   3.309   3.783
 7511SOL     OW23431   2.960   6.100   3.374
 7511SOL    HW123432   2.988   6.138   3.286
 7511SOL    HW223433   2.874   6.049   3.363
 7512SOL     OW23434   3.025   0.876   6.437
 7512SOL    HW123435   3.110   0.847   6.393
 7512SOL    HW223436   2.947   0.851   6.380
 7513SOL     OW23437   2.109   1.989   3.267
 7513SOL    HW123438   2.074   2.083   3.263
 7513SOL    HW223439   2.140   1.962   3.176
 7514SOL     OW23440   1.732   4.908   3.792
 7514SOL    HW123441   1.773   4.829   3.838
 7514SOL    HW223442   1.653   4.940   3.845
 7515SOL     OW23443   6.758   4.076   5.186
 7515SOL    HW123444   6.851   4.091   5.153
 7515SOL    HW223445   6.734   4.147   5.252
 7516SOL     OW23446   0.849   5.552   5.916
 7516SOL    HW123447   0.784   5.485   5.951
 7516SOL    HW223448   0.842   5.557   5.817
 7517SOL     OW23449   1.615   2.324   0.070
 7517SOL    HW123450   1.631   2.413   0.111
 7517SOL    HW223451   1.563   2.266   0.133
 7518SOL     OW23452   4.760   2.951   3.731
 7518SOL    HW123453   4.720   2.869   3.773
 7518SOL    HW223454   4.698   3.028   3.743
 7519SOL     OW23455   5.425   6.911   4.685
 7519SOL    HW123456   5.425   6.841   4.614
 7519SOL    HW223457   5.344   6.969   4.675
 7520SOL     OW23458   1.279   1.611   2.573
 7520SOL    HW123459   1.188   1.645   2.598
 7520SOL    HW223460   1.269   1.524   2.523
 7521SOL     OW23461   4.780   1.972   4.519
 7521SOL    HW123462   4.865   2.021   4.502
 7521SOL    HW223463   4.770   1.955   4.617
 7522SOL     OW23464   0.741   0.514   4.683
 7522SOL    HW123465   0.700   0.555   4.601
 7522SOL    HW223466   0.822   0.461   4.656
 7523SOL     OW23467   5.007   0.954   6.182
 7523SOL    HW123468   4.942   1.008   6.236
 7523SOL    HW223469   5.059   0.894   6.242
 7524SOL     OW23470   0.357   2.813   4.741
 7524SOL    HW123471   0.410   2.890   4.708
 7524SOL    HW223472   0.259   2.831   4.726
 7525SOL     OW23473   4.179   6.523   6.671
 7525SOL    HW123474   4.167   6.617   6.703
 7525SOL    HW223475   4.115   6.505   6.595
 7526SOL     OW23476   2.346   2.844   1.776
 7526SOL    HW123477   2.347   2.810   1.871
 7526SOL    HW223478   2.302   2.933   1.774
 7527SOL     OW23479   3.483   5.866   4.162
 7527SOL    HW123480   3.453   5.771   4.158
 7527SOL    HW223481   3.432   5.920   4.096
 7528SOL     OW23482   5.282   2.201   6.772
 7528SOL    HW123483   5.317   2.218   6.680
 7528SOL    HW223484   5.286   2.285   6.825
 7529SOL     OW23485   5.458   1.970   3.829
 7529SOL    HW123486   5.465   1.985   3.730
 7529SOL    HW223487   5.439   2.057   3.874
 7530SOL     OW23488   6.359   1.532   1.930
 7530SOL    HW123489   6.433   1.520   1.997
 7530SOL    HW223490   6.371   1.466   1.856
 7531SOL     OW23491   4.926   3.310   3.024
 7531SOL    HW123492   4.903   3.369   3.101
 7531SOL    HW223493   5.012   3.263   3.042
 7532SOL     OW23494   4.456   6.276   6.049
 7532SOL    HW123495   4.503   6.324   6.122
 7532SOL    HW223496   4.494   6.184   6.038
 7533SOL     OW23497   4.481   2.624   1.639
 7533SOL    HW123498   4.448   2.718   1.653
 7533SOL    HW223499   4.553   2.625   1.569
 7534SOL     OW23500   4.856   6.538   4.374
 7534SOL    HW123501   4.788   6.559   4.304
 7534SOL    HW223502   4.810   6.523   4.462
 7535SOL     OW23503   1.702   6.532   5.172
 7535SOL    HW123504   1.734   6.443   5.204
 7535SOL    HW223505   1.742   6.552   5.082
 7536SOL     OW23506   5.371   5.901   3.943
 7536SOL    HW123507   5.336   5.992   3.919
 7536SOL    HW223508   5.368   5.890   4.042
 7537SOL     OW23509   1.647   5.222   1.871
 7537SOL    HW123510   1.682   5.177   1.953
 7537SOL    HW223511   1.675   5.318   1.872
 7538SOL     OW23512   1.884   2.741   1.309
 7538SOL    HW123513   1.914   2.711   1.400
 7538SOL    HW223514   1.927   2.684   1.240
 7539SOL     OW23515   1.463   5.339   3.057
 7539SOL    HW123516   1.519   5.396   2.996
 7539SOL    HW223517   1.515   5.317   3.140
 7540SOL     OW23518   4.909   6.037   4.484
 7540SOL    HW123519   4.947   6.079   4.401
 7540SOL    HW223520   4.820   6.078   4.504
 7541SOL     OW23521   0.603   4.155   6.676
 7541SOL    HW123522   0.623   4.217   6.600
 7541SOL    HW223523   0.561   4.205   6.751
 7542SOL     OW23524   6.863   5.793   5.024
 7542SOL    HW123525   6.903   5.879   5.058
 7542SOL    HW223526   6.770   5.784   5.058
 7543SOL     OW23527   2.678   0.850   5.012
 7543SOL    HW123528   2.582   0.846   4.984
 7543SOL    HW223529   2.700   0.770   5.066
 7544SOL     OW23530   0.441   2.735   4.342
 7544SOL    HW123531   0.373   2.808   4.336
 7544SOL    HW223532   0.516   2.763   4.400
 7545SOL     OW23533   0.314   5.791   5.985
 7545SOL    HW123534   0.236   5.788   5.922
 7545SOL    HW223535   0.393   5.748   5.942
 7546SOL     OW23536   4.735   2.426   1.681
 7546SOL    HW123537   4.730   2.364   1.602
 7546SOL    HW223538   4.646   2.431   1.726
 7547SOL     OW23539   4.732   0.691   1.203
 7547SOL    HW123540   4.654   0.739   1.243
 7547SOL    HW223541   4.699   0.622   1.137
 7548SOL     OW23542   4.422   2.182   6.681
 7548SOL    HW123543   4.397   2.102   6.735
 7548SOL    HW223544   4.358   2.193   6.605
 7549SOL     OW23545   3.553   2.579   6.466
 7549SOL    HW123546   3.521   2.559   6.559
 7549SOL    HW223547   3.548   2.496   6.411
 7550SOL     OW23548   1.709   4.502   3.583
 7550SOL    HW123549   1.775   4.436   3.549
 7550SOL    HW223550   1.740   4.595   3.559
 7551SOL     OW23551   5.206   3.015   5.510
 7551SOL    HW123552   5.220   3.105   5.467
 7551SOL    HW223553   5.250   2.945   5.455
 7552SOL     OW23554   1.744   5.844   4.863
 7552SOL    HW123555   1.646   5.835   4.880
 7552SOL    HW223556   1.774   5.937   4.887
 7553SOL     OW23557   5.974   5.970   6.051
 7553SOL    HW123558   5.904   5.918   6.100
 7553SOL    HW223559   6.063   5.956   6.094
 7554SOL     OW23560   5.062   0.942   0.263
 7554SOL    HW123561   5.089   0.993   0.345
 7554SOL    HW223562   5.144   0.914   0.213
 7555SOL     OW23563   3.476   5.930   5.938
 7555SOL    HW123564   3.401   5.886   5.888
 7555SOL    HW223565   3.482   6.026   5.913
 7556SOL     OW23566   1.051   1.620   0.283
 7556SOL    HW123567   1.002   1.704   0.306
 7556SOL    HW223568   1.014   1.582   0.199
 7557SOL     OW23569   4.499   6.908   0.220
 7557SOL    HW123570   4.499   6.847   0.299
 7557SOL    HW223571   4.561   6.872   0.150
 7558SOL     OW23572   1.486   2.984   3.503
 7558SOL    HW123573   1.427   2.994   3.423
 7558SOL    HW223574   1.430   2.962   3.583
 7559SOL     OW23575   3.659   2.376   5.348
 7559SOL    HW123576   3.744   2.326   5.366
 7559SOL    HW223577   3.681   2.465   5.309
 7560SOL     OW23578   6.192   0.078   0.101
 7560SOL    HW123579   6.198   0.026   0.016
 7560SOL    HW223580   6.201   0.016   0.179
 7561SOL     OW23581   5.607   3.332   5.579
 7561SOL    HW123582   5.599   3.233   5.574
 7561SOL    HW223583   5.696   3.357   5.618
 7562SOL     OW23584   1.158   4.972   4.617
 7562SOL    HW123585   1.215   4.894   4.643
 7562SOL    HW223586   1.205   5.057   4.641
 7563SOL     OW23587   2.779   6.394   2.731
 7563SOL    HW123588   2.802   6.421   2.824
 7563SOL    HW223589   2.690   6.348   2.731
 7564SOL     OW23590   4.414   0.642   4.839
 7564SOL    HW123591   4.425   0.643   4.740
 7564SOL    HW223592   4.502   0.622   4.883
 7565SOL     OW23593   5.926   4.422   5.879
 7565SOL    HW123594   6.012   4.457   5.917
 7565SOL    HW223595   5.944   4.338   5.828
 7566SOL     OW23596   5.346   4.860   2.520
 7566SOL    HW123597   5.338   4.788   2.589
 7566SOL    HW223598   5.324   4.822   2.430
 7567SOL     OW23599   1.145   1.325   4.858
 7567SOL    HW123600   1.182   1.412   4.826
 7567SOL    HW223601   1.057   1.308   4.815
 7568SOL     OW23602   5.544   5.434   2.180
 7568SOL    HW123603   5.553   5.369   2.104
 7568SOL    HW223604   5.611   5.412   2.250
 7569SOL     OW23605   3.956   4.507   6.644
 7569SOL    HW123606   4.046   4.505   6.599
 7569SOL    HW223607   3.954   4.580   6.712
 7570SOL     OW23608   0.104   2.341   3.781
 7570SOL    HW123609   0.147   2.421   3.740
 7570SOL    HW223610   0.132   2.334   3.877
 7571SOL     OW23611   5.439   3.681   3.102
 7571SOL    HW123612   5.508   3.671   3.031
 7571SOL    HW223613   5.363   3.736   3.067
 7572SOL     OW23614   4.884   6.604   2.985
 7572SOL    HW123615   4.895   6.702   2.965
 7572SOL    HW223616   4.973   6.565   3.009
 7573SOL     OW23617   5.765   0.625   5.937
 7573SOL    HW123618   5.833   0.688   5.975
 7573SOL    HW223619   5.731   0.565   6.010
 7574SOL     OW23620   5.905   1.521   4.275
 7574SOL    HW123621   5.849   1.552   4.198
 7574SOL    HW223622   6.002   1.536   4.253
 7575SOL     OW23623   6.076   6.500   0.735
 7575SOL    HW123624   6.159   6.445   0.726
 7575SOL    HW223625   6.004   6.461   0.677
 7576SOL     OW23626   4.768   2.589   0.762
 7576SOL    HW123627   4.729   2.663   0.709
 7576SOL    HW223628   4.800   2.624   0.850
 7577SOL     OW23629   0.152   6.482   0.168
 7577SOL    HW123630   0.140   6.411   0.238
 7577SOL    HW223631   0.072   6.483   0.108
 7578SOL     OW23632   0.892   5.197   2.375
 7578SOL    HW123633   0.912   5.191   2.277
 7578SOL    HW223634   0.836   5.120   2.403
 7579SOL     OW23635   6.771   1.876   1.370
 7579SOL    HW123636   6.701   1.857   1.438
 7579SOL    HW223637   6.862   1.868   1.411
 7580SOL     OW23638   1.871   4.705   3.423
 7580SOL    HW123639   1.961   4.733   3.389
 7580SOL    HW223640   1.806   4.779   3.407
 7581SOL     OW23641   0.641   1.072   0.961
 7581SOL    HW123642   0.658   1.158   1.009
 7581SOL    HW223643   0.544   1.066   0.937
 7582SOL     OW23644   4.490   1.486   4.014
 7582SOL    HW123645   4.561   1.548   4.047
 7582SOL    HW223646   4.526   1.430   3.939
 7583SOL     OW23647   5.342   3.753   3.360
 7583SOL    HW123648   5.324   3.846   3.326
 7583SOL    HW223649   5.376   3.696   3.286
 7584SOL     OW23650   1.118   6.729   2.405
 7584SOL    HW123651   1.132   6.820   2.445
 7584SOL    HW223652   1.061   6.736   2.324
 7585SOL     OW23653   0.935   2.476   6.983
 7585SOL    HW123654   0.844   2.504   6.952
 7585SOL    HW223655   0.998   2.478   6.905
 7586SOL     OW23656   1.536   0.374   2.050
 7586SOL    HW123657   1.606   0.407   1.987
 7586SOL    HW223658   1.541   0.425   2.136
 7587SOL     OW23659   3.070   1.346   0.738
 7587SOL    HW123660   3.053   1.286   0.659
 7587SOL    HW223661   3.026   1.307   0.819
 7588SOL     OW23662   1.215   2.714   4.008
 7588SOL    HW123663   1.145   2.701   4.077
 7588SOL    HW223664   1.301   2.740   4.052
 7589SOL     OW23665   0.243   1.381   3.479
 7589SOL    HW123666   0.184   1.441   3.533
 7589SOL    HW223667   0.265   1.424   3.392
 7590SOL     OW23668   6.149   1.330   6.764
 7590SOL    HW123669   6.127   1.240   6.727
 7590SOL    HW223670   6.074   1.362   6.822
 7591SOL     OW23671   4.782   2.931   6.735
 7591SOL    HW123672   4.818   2.839   6.754
 7591SOL    HW223673   4.696   2.944   6.784
 7592SOL     OW23674   5.903   4.547   4.870
 7592SOL    HW123675   5.841   4.487   4.919
 7592SOL    HW223676   5.968   4.588   4.934
 7593SOL     OW23677   6.752   2.440   6.229
 7593SOL    HW123678   6.830   2.391   6.190
 7593SOL    HW223679   6.690   2.468   6.156
 7594SOL     OW23680   0.929   4.540   1.477
 7594SOL    HW123681   1.017   4.588   1.484
 7594SOL    HW223682   0.858   4.605   1.449
 7595SOL     OW23683   6.674   3.390   5.936
 7595SOL    HW123684   6.660   3.325   6.010
 7595SOL    HW223685   6.755   3.446   5.954
 7596SOL     OW23686   3.206   0.421   5.034
 7596SOL    HW123687   3.228   0.383   4.944
 7596SOL    HW223688   3.287   0.465   5.072
 7597SOL     OW23689   1.920   6.236   2.746
 7597SOL    HW123690   1.841   6.177   2.757
 7597SOL    HW223691   1.889   6.331   2.736
 7598SOL     OW23692   5.903   0.644   2.899
 7598SOL    HW123693   5.982   0.639   2.960
 7598SOL    HW223694   5.872   0.739   2.892
 7599SOL     OW23695   4.951   2.989   1.378
 7599SOL    HW123696   4.883   3.056   1.348
 7599SOL    HW223697   4.906   2.911   1.420
 7600SOL     OW23698   1.577   1.263   3.630
 7600SOL    HW123699   1.544   1.292   3.720
 7600SOL    HW223700   1.530   1.179   3.603
 7601SOL     OW23701   3.251   5.122   1.985
 7601SOL    HW123702   3.154   5.113   2.010
 7601SOL    HW223703   3.293   5.032   1.983
 7602SOL     OW23704   0.003   2.824   0.292
 7602SOL    HW123705   7.009   2.904   0.233
 7602SOL    HW223706   7.014   2.852   0.388
 7603SOL     OW23707   2.372   6.713   6.096
 7603SOL    HW123708   2.362   6.696   6.194
 7603SOL    HW223709   2.467   6.698   6.069
 7604SOL     OW23710   1.623   1.843   4.957
 7604SOL    HW123711   1.580   1.922   5.002
 7604SOL    HW223712   1.564   1.763   4.967
 7605SOL     OW23713   0.775   0.251   0.134
 7605SOL    HW123714   0.764   0.200   0.219
 7605SOL    HW223715   0.834   0.330   0.150
 7606SOL     OW23716   5.756   2.635   4.568
 7606SOL    HW123717   5.795   2.715   4.523
 7606SOL    HW223718   5.790   2.629   4.662
 7607SOL     OW23719   3.768   6.037   0.457
 7607SOL    HW123720   3.675   6.000   0.453
 7607SOL    HW223721   3.832   5.963   0.481
 7608SOL     OW23722   5.221   2.504   6.390
 7608SOL    HW123723   5.132   2.546   6.406
 7608SOL    HW223724   5.209   2.408   6.367
 7609SOL     OW23725   0.283   3.366   3.868
 7609SOL    HW123726   0.287   3.370   3.968
 7609SOL    HW223727   0.204   3.311   3.840
 7610SOL     OW23728   3.629   5.057   6.770
 7610SOL    HW123729   3.706   5.120   6.766
 7610SOL    HW223730   3.588   5.060   6.861
 7611SOL     OW23731   4.902   3.673   1.557
 7611SOL    HW123732   4.987   3.710   1.518
 7611SOL    HW223733   4.876   3.728   1.637
 7612SOL     OW23734   3.918   2.176   2.958
 7612SOL    HW123735   3.871   2.089   2.946
 7612SOL    HW223736   3.992   2.183   2.891
 7613SOL     OW23737   0.644   2.038   1.783
 7613SOL    HW123738   0.736   1.999   1.785
 7613SOL    HW223739   0.614   2.048   1.688
 7614SOL     OW23740   5.140   3.149   1.004
 7614SOL    HW123741   5.148   3.158   1.103
 7614SOL    HW223742   5.062   3.089   0.983
 7615SOL     OW23743   5.644   3.793   5.555
 7615SOL    HW123744   5.737   3.760   5.539
 7615SOL    HW223745   5.647   3.879   5.607
 7616SOL     OW23746   5.889   0.168   3.264
 7616SOL    HW123747   5.987   0.151   3.270
 7616SOL    HW223748   5.872   0.244   3.202
 7617SOL     OW23749   5.000   5.119   2.966
 7617SOL    HW123750   4.948   5.163   3.039
 7617SOL    HW223751   5.069   5.058   3.006
 7618SOL     OW23752   1.346   2.746   0.471
 7618SOL    HW123753   1.298   2.818   0.421
 7618SOL    HW223754   1.433   2.726   0.426
 7619SOL     OW23755   0.337   2.304   4.725
 7619SOL    HW123756   0.430   2.327   4.756
 7619SOL    HW223757   0.295   2.385   4.684
 7620SOL     OW23758   3.539   4.498   0.620
 7620SOL    HW123759   3.472   4.557   0.575
 7620SOL    HW223760   3.551   4.415   0.565
 7621SOL     OW23761   0.293   6.174   0.706
 7621SOL    HW123762   0.199   6.164   0.738
 7621SOL    HW223763   0.293   6.191   0.607
 7622SOL     OW23764   4.340   4.338   0.291
 7622SOL    HW123765   4.353   4.260   0.352
 7622SOL    HW223766   4.401   4.329   0.212
 7623SOL     OW23767   4.080   4.784   1.024
 7623SOL    HW123768   4.013   4.777   1.098
 7623SOL    HW223769   4.045   4.736   0.943
 7624SOL     OW23770   0.344   2.774   2.721
 7624SOL    HW123771   0.254   2.817   2.733
 7624SOL    HW223772   0.359   2.707   2.794
 7625SOL     OW23773   5.572   2.193   0.215
 7625SOL    HW123774   5.670   2.198   0.236
 7625SOL    HW223775   5.544   2.097   0.214
 7626SOL     OW23776   6.310   0.965   5.737
 7626SOL    HW123777   6.358   0.968   5.825
 7626SOL    HW223778   6.319   0.874   5.697
 7627SOL     OW23779   3.572   2.126   0.498
 7627SOL    HW123780   3.638   2.116   0.572
 7627SOL    HW223781   3.481   2.102   0.531
 7628SOL     OW23782   4.124   3.107   1.233
 7628SOL    HW123783   4.150   3.195   1.193
 7628SOL    HW223784   4.129   3.035   1.163
 7629SOL     OW23785   6.141   3.812   4.335
 7629SOL    HW123786   6.125   3.714   4.329
 7629SOL    HW223787   6.185   3.833   4.423
 7630SOL     OW23788   1.336   0.085   5.578
 7630SOL    HW123789   1.247   0.069   5.535
 7630SOL    HW223790   1.344   0.181   5.603
 7631SOL     OW23791   1.957   0.107   5.615
 7631SOL    HW123792   1.980   0.105   5.712
 7631SOL    HW223793   1.947   0.202   5.585
 7632SOL     OW23794   4.493   5.283   1.217
 7632SOL    HW123795   4.460   5.362   1.269
 7632SOL    HW223796   4.531   5.215   1.280
 7633SOL     OW23797   5.939   0.024   1.538
 7633SOL    HW123798   5.959   0.007   1.441
 7633SOL    HW223799   5.869   6.975   1.569
 7634SOL     OW23800   1.338   1.536   1.099
 7634SOL    HW123801   1.262   1.503   1.154
 7634SOL    HW223802   1.391   1.459   1.065
 7635SOL     OW23803   2.498   5.022   4.861
 7635SOL    HW123804   2.539   5.059   4.944
 7635SOL    HW223805   2.404   4.994   4.880
 7636SOL     OW23806   6.963   4.327   4.306
 7636SOL    HW123807   6.868   4.322   4.336
 7636SOL    HW223808   0.005   4.358   4.381
 7637SOL     OW23809   1.010   6.141   3.884
 7637SOL    HW123810   1.000   6.050   3.844
 7637SOL    HW223811   0.929   6.162   3.938
 7638SOL     OW23812   1.387   5.366   1.269
 7638SOL    HW123813   1.446   5.288   1.246
 7638SOL    HW223814   1.296   5.350   1.233
 7639SOL     OW23815   0.044   0.814   0.386
 7639SOL    HW123816   0.141   0.834   0.369
 7639SOL    HW223817   0.025   0.719   0.362
 7640SOL     OW23818   3.581   1.874   6.576
 7640SOL    HW123819   3.564   1.972   6.588
 7640SOL    HW223820   3.650   1.844   6.643
 7641SOL     OW23821   6.848   4.002   3.103
 7641SOL    HW123822   6.789   3.931   3.141
 7641SOL    HW223823   6.937   4.000   3.148
 7642SOL     OW23824   5.702   1.171   2.833
 7642SOL    HW123825   5.672   1.223   2.753
 7642SOL    HW223826   5.675   1.220   2.917
 7643SOL     OW23827   5.316   2.064   2.947
 7643SOL    HW123828   5.390   2.095   2.889
 7643SOL    HW223829   5.272   2.142   2.991
 7644SOL     OW23830   4.869   3.187   2.258
 7644SOL    HW123831   4.785   3.157   2.304
 7644SOL    HW223832   4.913   3.109   2.215
 7645SOL     OW23833   3.762   3.505   5.244
 7645SOL    HW123834   3.663   3.518   5.248
 7645SOL    HW223835   3.786   3.415   5.279
 7646SOL     OW23836   0.809   3.003   3.183
 7646SOL    HW123837   0.854   2.929   3.234
 7646SOL    HW223838   0.850   3.090   3.208
 7647SOL     OW23839   0.620   2.787   4.562
 7647SOL    HW123840   0.683   2.863   4.575
 7647SOL    HW223841   0.585   2.756   4.650
 7648SOL     OW23842   2.378   1.793   3.122
 7648SOL    HW123843   2.363   1.784   3.221
 7648SOL    HW223844   2.337   1.715   3.075
 7649SOL     OW23845   0.855   1.093   4.830
 7649SOL    HW123846   0.877   1.112   4.925
 7649SOL    HW223847   0.771   1.142   4.804
 7650SOL     OW23848   4.905   1.387   1.024
 7650SOL    HW123849   4.982   1.349   1.075
 7650SOL    HW223850   4.882   1.477   1.061
 7651SOL     OW23851   2.237   5.149   4.444
 7651SOL    HW123852   2.171   5.194   4.504
 7651SOL    HW223853   2.318   5.122   4.496
 7652SOL     OW23854   5.798   2.317   4.885
 7652SOL    HW123855   5.827   2.289   4.977
 7652SOL    HW223856   5.715   2.268   4.860
 7653SOL     OW23857   1.055   1.541   6.865
 7653SOL    HW123858   1.034   1.508   6.957
 7653SOL    HW223859   1.002   1.624   6.847
 7654SOL     OW23860   5.668   2.973   4.685
 7654SOL    HW123861   5.698   2.989   4.591
 7654SOL    HW223862   5.600   2.900   4.686
 7655SOL     OW23863   3.315   0.232   3.536
 7655SOL    HW123864   3.325   0.132   3.537
 7655SOL    HW223865   3.261   0.260   3.457
 7656SOL     OW23866   6.463   2.922   5.633
 7656SOL    HW123867   6.394   2.875   5.689
 7656SOL    HW223868   6.449   3.020   5.638
 7657SOL     OW23869   1.800   3.396   4.522
 7657SOL    HW123870   1.785   3.451   4.605
 7657SOL    HW223871   1.896   3.400   4.496
 7658SOL     OW23872   3.021   0.419   0.924
 7658SOL    HW123873   2.934   0.369   0.924
 7658SOL    HW223874   3.004   0.515   0.945
 7659SOL     OW23875   4.386   4.049   6.127
 7659SOL    HW123876   4.408   4.001   6.212
 7659SOL    HW223877   4.329   3.991   6.069
 7660SOL     OW23878   6.424   5.818   4.760
 7660SOL    HW123879   6.450   5.863   4.675
 7660SOL    HW223880   6.350   5.869   4.804
 7661SOL     OW23881   4.593   2.376   6.295
 7661SOL    HW123882   4.574   2.422   6.208
 7661SOL    HW223883   4.575   2.279   6.285
 7662SOL     OW23884   0.648   2.145   2.998
 7662SOL    HW123885   0.662   2.225   3.056
 7662SOL    HW223886   0.723   2.138   2.932
 7663SOL     OW23887   5.453   5.770   6.145
 7663SOL    HW123888   5.362   5.766   6.186
 7663SOL    HW223889   5.450   5.730   6.053
 7664SOL     OW23890   3.964   1.104   3.216
 7664SOL    HW123891   3.904   1.031   3.251
 7664SOL    HW223892   4.015   1.070   3.138
 7665SOL     OW23893   5.453   2.255   3.813
 7665SOL    HW123894   5.447   2.346   3.854
 7665SOL    HW223895   5.384   2.248   3.740
 7666SOL     OW23896   6.199   6.231   4.233
 7666SOL    HW123897   6.233   6.206   4.143
 7666SOL    HW223898   6.139   6.311   4.225
 7667SOL     OW23899   4.543   6.895   2.145
 7667SOL    HW123900   4.474   6.959   2.112
 7667SOL    HW223901   4.603   6.868   2.070
 7668SOL     OW23902   2.629   5.025   1.129
 7668SOL    HW123903   2.722   5.039   1.164
 7668SOL    HW223904   2.563   5.045   1.202
 7669SOL     OW23905   4.140   0.658   5.970
 7669SOL    HW123906   4.180   0.728   6.029
 7669SOL    HW223907   4.183   0.570   5.988
 7670SOL     OW23908   0.782   6.845   0.338
 7670SOL    HW123909   0.697   6.889   0.364
 7670SOL    HW223910   0.859   6.907   0.354
 7671SOL     OW23911   5.448   6.770   2.534
 7671SOL    HW123912   5.399   6.854   2.511
 7671SOL    HW223913   5.526   6.793   2.593
 7672SOL     OW23914   6.676   4.776   2.753
 7672SOL    HW123915   6.651   4.679   2.759
 7672SOL    HW223916   6.626   4.827   2.823
 7673SOL     OW23917   1.570   5.941   2.958
 7673SOL    HW123918   1.472   5.953   2.976
 7673SOL    HW223919   1.594   5.982   2.870
 7674SOL     OW23920   3.898   0.995   4.225
 7674SOL    HW123921   3.898   1.087   4.264
 7674SOL    HW223922   3.949   0.934   4.285
 7675SOL     OW23923   3.536   6.710   3.477
 7675SOL    HW123924   3.504   6.691   3.384
 7675SOL    HW223925   3.604   6.641   3.503
 7676SOL     OW23926   2.936   2.568   6.089
 7676SOL    HW123927   2.968   2.661   6.068
 7676SOL    HW223928   2.953   2.509   6.010
 7677SOL     OW23929   6.796   4.317   1.006
 7677SOL    HW123930   6.872   4.284   1.062
 7677SOL    HW223931   6.830   4.374   0.931
 7678SOL     OW23932   1.863   2.165   5.402
 7678SOL    HW123933   1.819   2.144   5.315
 7678SOL    HW223934   1.826   2.105   5.473
 7679SOL     OW23935   2.004   5.247   5.558
 7679SOL    HW123936   1.960   5.161   5.534
 7679SOL    HW223937   2.023   5.299   5.475
 7680SOL     OW23938   1.353   0.310   5.751
 7680SOL    HW123939   1.388   0.403   5.737
 7680SOL    HW223940   1.430   0.247   5.753
 7681SOL     OW23941   2.869   2.310   6.574
 7681SOL    HW123942   2.788   2.321   6.632
 7681SOL    HW223943   2.932   2.244   6.616
 7682SOL     OW23944   3.466   1.713   2.667
 7682SOL    HW123945   3.418   1.626   2.677
 7682SOL    HW223946   3.421   1.769   2.598
 7683SOL     OW23947   0.604   1.164   4.707
 7683SOL    HW123948   0.518   1.116   4.691
 7683SOL    HW223949   0.594   1.260   4.682
 7684SOL     OW23950   4.261   1.980   1.944
 7684SOL    HW123951   4.201   2.058   1.922
 7684SOL    HW223952   4.355   2.012   1.952
 7685SOL     OW23953   3.869   1.555   6.832
 7685SOL    HW123954   3.822   1.467   6.840
 7685SOL    HW223955   3.903   1.583   6.922
 7686SOL     OW23956   4.823   0.463   4.490
 7686SOL    HW123957   4.736   0.424   4.462
 7686SOL    HW223958   4.857   0.415   4.571
 7687SOL     OW23959   5.408   5.370   5.112
 7687SOL    HW123960   5.446   5.281   5.085
 7687SOL    HW223961   5.365   5.413   5.033
 7688SOL     OW23962   0.264   5.724   5.650
 7688SOL    HW123963   0.270   5.636   5.602
 7688SOL    HW223964   0.347   5.738   5.705
 7689SOL     OW23965   4.494   0.182   1.561
 7689SOL    HW123966   4.412   0.157   1.512
 7689SOL    HW223967   4.475   0.261   1.620
 7690SOL     OW23968   5.985   4.892   0.092
 7690SOL    HW123969   6.082   4.907   0.073
 7690SOL    HW223970   5.966   4.913   0.188
 7691SOL     OW23971   4.454   4.675   2.277
 7691SOL    HW123972   4.455   4.673   2.178
 7691SOL    HW223973   4.485   4.586   2.313
 7692SOL     OW23974   1.038   5.756   1.295
 7692SOL    HW123975   1.019   5.764   1.197
 7692SOL    HW223976   1.134   5.773   1.313
 7693SOL     OW23977   3.198   1.196   1.077
 7693SOL    HW123978   3.206   1.117   1.016
 7693SOL    HW223979   3.193   1.280   1.023
 7694SOL     OW23980   5.630   2.783   4.324
 7694SOL    HW123981   5.618   2.836   4.240
 7694SOL    HW223982   5.722   2.744   4.326
 7695SOL     OW23983   5.947   0.358   2.226
 7695SOL    HW123984   5.987   0.426   2.288
 7695SOL    HW223985   6.004   0.350   2.144
 7696SOL     OW23986   0.253   1.927   6.086
 7696SOL    HW123987   0.310   1.887   6.015
 7696SOL    HW223988   0.302   1.925   6.173
 7697SOL     OW23989   3.291   0.469   2.696
 7697SOL    HW123990   3.361   0.465   2.767
 7697SOL    HW223991   3.333   0.448   2.607
 7698SOL     OW23992   5.996   2.724   6.141
 7698SOL    HW123993   6.028   2.673   6.061
 7698SOL    HW223994   6.006   2.667   6.223
 7699SOL     OW23995   2.208   5.001   6.760
 7699SOL    HW123996   2.283   4.936   6.751
 7699SOL    HW223997   2.122   4.957   6.733
 7700SOL     OW23998   4.545   6.416   3.123
 7700SOL    HW123999   4.470   6.460   3.073
 7700SOL    HW224000   4.520   6.410   3.220
 7701SOL     OW24001   7.014   1.868   6.188
 7701SOL    HW124002   7.010   1.951   6.245
 7701SOL    HW224003   0.084   1.867   6.137
 7702SOL     OW24004   4.320   6.806   5.746
 7702SOL    HW124005   4.372   6.721   5.742
 7702SOL    HW224006   4.272   6.812   5.834
 7703SOL     OW24007   6.349   0.494   4.782
 7703SOL    HW124008   6.335   0.397   4.800
 7703SOL    HW224009   6.425   0.528   4.838
 7704SOL     OW24010   6.718   1.493   4.096
 7704SOL    HW124011   6.756   1.550   4.023
 7704SOL    HW224012   6.681   1.552   4.168
 7705SOL     OW24013   2.218   5.132   0.793
 7705SOL    HW124014   2.193   5.038   0.815
 7705SOL    HW224015   2.136   5.185   0.771
 7706SOL     OW24016   3.469   3.115   2.955
 7706SOL    HW124017   3.411   3.062   3.017
 7706SOL    HW224018   3.563   3.082   2.961
 7707SOL     OW24019   0.158   5.285   6.200
 7707SOL    HW124020   0.110   5.212   6.151
 7707SOL    HW224021   0.098   5.320   6.273
 7708SOL     OW24022   1.451   6.831   3.917
 7708SOL    HW124023   1.405   6.745   3.893
 7708SOL    HW224024   1.513   6.858   3.843
 7709SOL     OW24025   6.768   5.328   1.087
 7709SOL    HW124026   6.767   5.259   1.014
 7709SOL    HW224027   6.692   5.311   1.150
 7710SOL     OW24028   1.901   2.619   0.754
 7710SOL    HW124029   1.821   2.594   0.809
 7710SOL    HW224030   1.924   2.543   0.693
 7711SOL     OW24031   6.457   5.555   5.657
 7711SOL    HW124032   6.433   5.645   5.693
 7711SOL    HW224033   6.489   5.565   5.563
 7712SOL     OW24034   6.565   4.536   6.368
 7712SOL    HW124035   6.553   4.467   6.440
 7712SOL    HW224036   6.528   4.502   6.282
 7713SOL     OW24037   1.841   4.154   0.769
 7713SOL    HW124038   1.859   4.129   0.864
 7713SOL    HW224039   1.806   4.248   0.765
 7714SOL     OW24040   0.193   6.857   4.899
 7714SOL    HW124041   0.177   6.937   4.841
 7714SOL    HW224042   0.205   6.776   4.842
 7715SOL     OW24043   2.625   2.579   6.292
 7715SOL    HW124044   2.525   2.570   6.296
 7715SOL    HW224045   2.651   2.670   6.325
 7716SOL     OW24046   0.691   4.740   6.722
 7716SOL    HW124047   0.651   4.718   6.634
 7716SOL    HW224048   0.764   4.676   6.743
 7717SOL     OW24049   1.563   1.984   5.327
 7717SOL    HW124050   1.516   1.901   5.296
 7717SOL    HW224051   1.631   1.959   5.397
 7718SOL     OW24052   0.562   3.222   2.907
 7718SOL    HW124053   0.595   3.209   2.813
 7718SOL    HW224054   0.640   3.242   2.967
 7719SOL     OW24055   1.707   4.239   4.660
 7719SOL    HW124056   1.780   4.171   4.648
 7719SOL    HW224057   1.720   4.313   4.594
 7720SOL     OW24058   5.858   2.347   6.339
 7720SOL    HW124059   5.824   2.317   6.250
 7720SOL    HW224060   5.819   2.290   6.411
 7721SOL     OW24061   1.343   0.638   2.328
 7721SOL    HW124062   1.344   0.723   2.380
 7721SOL    HW224063   1.261   0.586   2.352
 7722SOL     OW24064   2.384   4.972   3.884
 7722SOL    HW124065   2.311   4.956   3.951
 7722SOL    HW224066   2.379   5.066   3.850
 7723SOL     OW24067   4.911   3.220   6.892
 7723SOL    HW124068   4.868   3.303   6.857
 7723SOL    HW224069   4.939   3.162   6.816
 7724SOL     OW24070   3.037   4.070   0.851
 7724SOL    HW124071   3.123   4.038   0.812
 7724SOL    HW224072   3.020   4.164   0.822
 7725SOL     OW24073   6.147   2.622   2.501
 7725SOL    HW124074   6.069   2.655   2.448
 7725SOL    HW224075   6.117   2.550   2.563
 7726SOL     OW24076   1.327   3.020   6.194
 7726SOL    HW124077   1.245   3.054   6.240
 7726SOL    HW224078   1.302   2.944   6.134
 7727SOL     OW24079   5.821   2.440   1.696
 7727SOL    HW124080   5.864   2.401   1.777
 7727SOL    HW224081   5.806   2.538   1.711
 7728SOL     OW24082   2.334   2.635   5.364
 7728SOL    HW124083   2.361   2.730   5.375
 7728SOL    HW224084   2.358   2.603   5.272
 7729SOL     OW24085   6.097   1.676   1.889
 7729SOL    HW124086   6.101   1.756   1.829
 7729SOL    HW224087   6.189   1.639   1.902
 7730SOL     OW24088   5.628   4.583   5.163
 7730SOL    HW124089   5.706   4.569   5.224
 7730SOL    HW224090   5.650   4.652   5.094
 7731SOL     OW24091   5.868   0.102   0.907
 7731SOL    HW124092   5.773   0.135   0.903
 7731SOL    HW224093   5.930   0.180   0.909
 7732SOL     OW24094   3.872   0.344   0.118
 7732SOL    HW124095   3.960   0.311   0.153
 7732SOL    HW224096   3.850   0.294   0.034
 7733SOL     OW24097   6.332   5.633   2.682
 7733SOL    HW124098   6.236   5.606   2.691
 7733SOL    HW224099   6.337   5.729   2.655
 7734SOL     OW24100   2.506   4.407   5.128
 7734SOL    HW124101   2.548   4.450   5.047
 7734SOL    HW224102   2.415   4.446   5.142
 7735SOL     OW24103   6.612   6.381   0.144
 7735SOL    HW124104   6.663   6.319   0.204
 7735SOL    HW224105   6.519   6.346   0.133
 7736SOL     OW24106   2.617   2.841   0.574
 7736SOL    HW124107   2.536   2.814   0.625
 7736SOL    HW224108   2.693   2.780   0.597
 7737SOL     OW24109   3.609   5.068   1.409
 7737SOL    HW124110   3.573   4.987   1.455
 7737SOL    HW224111   3.546   5.144   1.420
 7738SOL     OW24112   2.749   5.903   6.754
 7738SOL    HW124113   2.785   5.956   6.677
 7738SOL    HW224114   2.743   5.806   6.729
 7739SOL     OW24115   1.115   2.148   2.135
 7739SOL    HW124116   1.180   2.109   2.201
 7739SOL    HW224117   1.164   2.176   2.053
 7740SOL     OW24118   2.048   0.793   2.684
 7740SOL    HW124119   1.976   0.764   2.621
 7740SOL    HW224120   2.071   0.889   2.667
 7741SOL     OW24121   1.573   4.886   5.730
 7741SOL    HW124122   1.509   4.957   5.703
 7741SOL    HW224123   1.531   4.827   5.799
 7742SOL     OW24124   3.787   1.245   3.806
 7742SOL    HW124125   3.816   1.172   3.869
 7742SOL    HW224126   3.863   1.269   3.746
 7743SOL     OW24127   4.892   1.185   6.813
 7743SOL    HW124128   4.873   1.096   6.772
 7743SOL    HW224129   4.966   1.176   6.880
 7744SOL     OW24130   0.769   5.975   4.738
 7744SOL    HW124131   0.738   5.958   4.831
 7744SOL    HW224132   0.853   5.924   4.721
 7745SOL     OW24133   2.300   6.439   6.967
 7745SOL    HW124134   2.206   6.461   6.941
 7745SOL    HW224135   2.327   6.495   0.031
 7746SOL     OW24136   1.054   6.166   1.106
 7746SOL    HW124137   1.144   6.160   1.149
 7746SOL    HW224138   1.038   6.084   1.050
 7747SOL     OW24139   6.998   6.052   0.573
 7747SOL    HW124140   6.985   6.110   0.653
 7747SOL    HW224141   0.079   6.027   0.565
 7748SOL     OW24142   3.726   2.885   5.149
 7748SOL    HW124143   3.631   2.861   5.132
 7748SOL    HW224144   3.750   2.965   5.094
 7749SOL     OW24145   3.461   3.984   3.141
 7749SOL    HW124146   3.531   3.995   3.212
 7749SOL    HW224147   3.472   3.895   3.096
 7750SOL     OW24148   5.321   5.427   6.331
 7750SOL    HW124149   5.241   5.409   6.273
 7750SOL    HW224150   5.404   5.392   6.285
 7751SOL     OW24151   0.343   1.535   3.920
 7751SOL    HW124152   0.366   1.465   3.987
 7751SOL    HW224153   0.249   1.522   3.888
 7752SOL     OW24154   5.702   5.278   5.202
 7752SOL    HW124155   5.691   5.329   5.288
 7752SOL    HW224156   5.719   5.182   5.223
 7753SOL     OW24157   2.554   0.510   4.706
 7753SOL    HW124158   2.531   0.505   4.804
 7753SOL    HW224159   2.644   0.470   4.691
 7754SOL     OW24160   5.729   0.562   1.052
 7754SOL    HW124161   5.777   0.522   0.973
 7754SOL    HW224162   5.791   0.564   1.130
 7755SOL     OW24163   0.531   6.471   5.453
 7755SOL    HW124164   0.590   6.395   5.426
 7755SOL    HW224165   0.465   6.490   5.381
 7756SOL     OW24166   2.474   5.559   2.404
 7756SOL    HW124167   2.569   5.561   2.372
 7756SOL    HW224168   2.472   5.532   2.500
 7757SOL     OW24169   4.673   5.884   5.041
 7757SOL    HW124170   4.640   5.852   4.953
 7757SOL    HW224171   4.750   5.827   5.070
 7758SOL     OW24172   1.932   2.467   6.221
 7758SOL    HW124173   1.988   2.475   6.303
 7758SOL    HW224174   1.991   2.444   6.143
 7759SOL     OW24175   2.335   0.671   5.461
 7759SOL    HW124176   2.258   0.713   5.413
 7759SOL    HW224177   2.409   0.737   5.471
 7760SOL     OW24178   6.194   2.681   2.092
 7760SOL    HW124179   6.146   2.679   2.179
 7760SOL    HW224180   6.273   2.620   2.096
 7761SOL     OW24181   2.703   6.759   6.070
 7761SOL    HW124182   2.768   6.821   6.024
 7761SOL    HW224183   2.659   6.807   6.145
 7762SOL     OW24184   3.718   0.853   6.213
 7762SOL    HW124185   3.659   0.850   6.133
 7762SOL    HW224186   3.813   0.870   6.184
 7763SOL     OW24187   1.564   1.611   0.776
 7763SOL    HW124188   1.499   1.657   0.716
 7763SOL    HW224189   1.563   1.513   0.757
 7764SOL     OW24190   3.953   3.298   2.623
 7764SOL    HW124191   3.865   3.345   2.618
 7764SOL    HW224192   3.939   3.200   2.610
 7765SOL     OW24193   6.419   3.518   4.332
 7765SOL    HW124194   6.451   3.485   4.421
 7765SOL    HW224195   6.460   3.464   4.259
 7766SOL     OW24196   5.251   1.943   6.903
 7766SOL    HW124197   5.153   1.952   6.919
 7766SOL    HW224198   5.277   2.002   6.826
 7767SOL     OW24199   3.749   6.320   3.244
 7767SOL    HW124200   3.668   6.287   3.195
 7767SOL    HW224201   3.761   6.267   3.328
 7768SOL     OW24202   3.736   5.076   2.974
 7768SOL    HW124203   3.761   4.992   3.023
 7768SOL    HW224204   3.804   5.095   2.904
 7769SOL     OW24205   5.070   1.459   1.761
 7769SOL    HW124206   5.009   1.419   1.693
 7769SOL    HW224207   5.037   1.550   1.786
 7770SOL     OW24208   2.409   4.624   2.259
 7770SOL    HW124209   2.477   4.622   2.186
 7770SOL    HW224210   2.326   4.669   2.226
 7771SOL     OW24211   2.550   2.504   4.676
 7771SOL    HW124212   2.539   2.564   4.597
 7771SOL    HW224213   2.479   2.523   4.743
 7772SOL     OW24214   5.281   1.554   3.531
 7772SOL    HW124215   5.262   1.461   3.562
 7772SOL    HW224216   5.350   1.595   3.591
 7773SOL     OW24217   3.522   4.825   5.812
 7773SOL    HW124218   3.519   4.886   5.733
 7773SOL    HW224219   3.431   4.819   5.853
 7774SOL     OW24220   5.563   1.527   5.659
 7774SOL    HW124221   5.507   1.521   5.577
 7774SOL    HW224222   5.623   1.607   5.653
 7775SOL     OW24223   3.413   6.880   3.070
 7775SOL    HW124224   3.349   6.874   3.146
 7775SOL    HW224225   3.363   6.878   2.983
 7776SOL     OW24226   3.441   3.286   5.819
 7776SOL    HW124227   3.414   3.281   5.723
 7776SOL    HW224228   3.407   3.370   5.859
 7777SOL     OW24229   2.558   1.784   5.550
 7777SOL    HW124230   2.575   1.787   5.452
 7777SOL    HW224231   2.612   1.855   5.596
 7778SOL     OW24232   5.360   0.171   6.988
 7778SOL    HW124233   5.274   0.219   6.970
 7778SOL    HW224234   5.391   0.191   0.066
 7779SOL     OW24235   3.452   2.596   0.456
 7779SOL    HW124236   3.544   2.580   0.420
 7779SOL    HW224237   3.456   2.606   0.555
 7780SOL     OW24238   1.922   5.784   4.463
 7780SOL    HW124239   1.932   5.737   4.375
 7780SOL    HW224240   1.843   5.845   4.458
 7781SOL     OW24241   0.765   3.770   5.810
 7781SOL    HW124242   0.776   3.761   5.711
 7781SOL    HW224243   0.833   3.714   5.856
 7782SOL     OW24244   1.629   3.962   5.547
 7782SOL    HW124245   1.643   4.046   5.495
 7782SOL    HW224246   1.578   3.983   5.630
 7783SOL     OW24247   2.905   6.597   5.912
 7783SOL    HW124248   2.850   6.600   5.995
 7783SOL    HW224249   2.928   6.502   5.891
 7784SOL     OW24250   1.506   2.757   6.943
 7784SOL    HW124251   1.443   2.833   6.928
 7784SOL    HW224252   1.573   2.783   7.013
 7785SOL     OW24253   1.645   6.426   4.227
 7785SOL    HW124254   1.666   6.469   4.316
 7785SOL    HW224255   1.702   6.469   4.156
 7786SOL     OW24256   3.334   4.858   5.498
 7786SOL    HW124257   3.251   4.900   5.462
 7786SOL    HW224258   3.310   4.790   5.567
 7787SOL     OW24259   2.335   2.266   5.585
 7787SOL    HW124260   2.332   2.364   5.567
 7787SOL    HW224261   2.256   2.222   5.542
 7788SOL     OW24262   1.523   0.967   1.919
 7788SOL    HW124263   1.424   0.967   1.932
 7788SOL    HW224264   1.544   0.955   1.822
 7789SOL     OW24265   2.608   0.109   1.209
 7789SOL    HW124266   2.542   0.110   1.134
 7789SOL    HW224267   2.673   0.184   1.198
 7790SOL     OW24268   6.259   4.591   3.045
 7790SOL    HW124269   6.162   4.584   3.022
 7790SOL    HW224270   6.299   4.499   3.052
 7791SOL     OW24271   2.528   5.968   4.063
 7791SOL    HW124272   2.585   5.995   3.986
 7791SOL    HW224273   2.439   6.014   4.057
 7792SOL     OW24274   1.567   5.287   5.838
 7792SOL    HW124275   1.590   5.384   5.833
 7792SOL    HW224276   1.519   5.259   5.755
 7793SOL     OW24277   1.692   1.336   5.977
 7793SOL    HW124278   1.775   1.383   5.948
 7793SOL    HW224279   1.693   1.242   5.942
 7794SOL     OW24280   5.213   4.982   4.329
 7794SOL    HW124281   5.117   4.953   4.340
 7794SOL    HW224282   5.217   5.081   4.324
 7795SOL     OW24283   2.038   4.123   5.185
 7795SOL    HW124284   2.109   4.177   5.139
 7795SOL    HW224285   2.066   4.027   5.189
 7796SOL     OW24286   3.569   4.179   3.544
 7796SOL    HW124287   3.609   4.256   3.495
 7796SOL    HW224288   3.475   4.165   3.513
 7797SOL     OW24289   0.072   5.587   3.294
 7797SOL    HW124290   6.999   5.554   3.329
 7797SOL    HW224291   0.143   5.569   3.361
 7798SOL     OW24292   2.195   5.220   6.949
 7798SOL    HW124293   2.153   5.290   6.891
 7798SOL    HW224294   2.239   5.151   6.892
 7799SOL     OW24295   6.890   5.636   1.986
 7799SOL    HW124296   6.881   5.634   1.886
 7799SOL    HW224297   6.890   5.731   2.018
 7800SOL     OW24298   1.200   4.061   1.268
 7800SOL    HW124299   1.114   4.044   1.220
 7800SOL    HW224300   1.196   4.149   1.315
 7801SOL     OW24301   2.680   1.519   1.655
 7801SOL    HW124302   2.590   1.517   1.611
 7801SOL    HW224303   2.669   1.511   1.754
 7802SOL     OW24304   6.004   3.085   0.975
 7802SOL    HW124305   6.073   3.027   0.931
 7802SOL    HW224306   6.019   3.084   1.074
 7803SOL     OW24307   4.474   3.753   5.656
 7803SOL    HW124308   4.478   3.654   5.670
 7803SOL    HW224309   4.524   3.777   5.573
 7804SOL     OW24310   6.195   1.306   4.220
 7804SOL    HW124311   6.123   1.310   4.289
 7804SOL    HW224312   6.164   1.250   4.143
 7805SOL     OW24313   5.609   1.910   1.195
 7805SOL    HW124314   5.647   1.823   1.164
 7805SOL    HW224315   5.520   1.926   1.151
 7806SOL     OW24316   5.880   3.432   5.754
 7806SOL    HW124317   5.973   3.467   5.758
 7806SOL    HW224318   5.817   3.507   5.733
 7807SOL     OW24319   0.275   4.905   6.169
 7807SOL    HW124320   0.219   4.954   6.102
 7807SOL    HW224321   0.364   4.950   6.177
 7808SOL     OW24322   0.491   3.040   4.694
 7808SOL    HW124323   0.565   3.026   4.760
 7808SOL    HW224324   0.472   3.137   4.685
 7809SOL     OW24325   2.515   6.369   4.632
 7809SOL    HW124326   2.465   6.392   4.715
 7809SOL    HW224327   2.487   6.279   4.600
 7810SOL     OW24328   2.990   0.587   5.803
 7810SOL    HW124329   2.960   0.492   5.802
 7810SOL    HW224330   3.024   0.613   5.713
 7811SOL     OW24331   6.421   4.235   4.297
 7811SOL    HW124332   6.463   4.153   4.335
 7811SOL    HW224333   6.372   4.284   4.368
 7812SOL     OW24334   1.636   1.904   3.974
 7812SOL    HW124335   1.591   1.847   3.906
 7812SOL    HW224336   1.593   1.891   4.063
 7813SOL     OW24337   4.833   2.702   6.231
 7813SOL    HW124338   4.901   2.775   6.231
 7813SOL    HW224339   4.745   2.738   6.261
 7814SOL     OW24340   6.716   2.414   3.094
 7814SOL    HW124341   6.671   2.326   3.104
 7814SOL    HW224342   6.789   2.422   3.162
 7815SOL     OW24343   4.793   1.402   6.362
 7815SOL    HW124344   4.822   1.452   6.443
 7815SOL    HW224345   4.700   1.430   6.337
 7816SOL     OW24346   2.347   2.809   5.989
 7816SOL    HW124347   2.419   2.741   6.007
 7816SOL    HW224348   2.388   2.900   5.985
 7817SOL     OW24349   6.283   3.557   3.726
 7817SOL    HW124350   6.372   3.602   3.727
 7817SOL    HW224351   6.225   3.598   3.797
 7818SOL     OW24352   5.523   0.714   2.351
 7818SOL    HW124353   5.556   0.628   2.314
 7818SOL    HW224354   5.468   0.761   2.282
 7819SOL     OW24355   0.305   3.026   1.679
 7819SOL    HW124356   0.333   3.057   1.588
 7819SOL    HW224357   0.205   3.023   1.684
 7820SOL     OW24358   1.741   1.903   4.735
 7820SOL    HW124359   1.683   1.879   4.813
 7820SOL    HW224360   1.780   1.994   4.749
 7821SOL     OW24361   4.411   5.799   0.946
 7821SOL    HW124362   4.432   5.701   0.947
 7821SOL    HW224363   4.319   5.812   0.909
 7822SOL     OW24364   0.109   0.562   5.414
 7822SOL    HW124365   0.077   0.622   5.342
 7822SOL    HW224366   0.048   0.483   5.423
 7823SOL     OW24367   2.324   4.255   4.656
 7823SOL    HW124368   2.228   4.276   4.638
 7823SOL    HW224369   2.333   4.158   4.682
 7824SOL     OW24370   6.404   2.421   4.874
 7824SOL    HW124371   6.453   2.389   4.955
 7824SOL    HW224372   6.364   2.342   4.826
 7825SOL     OW24373   2.459   2.944   0.116
 7825SOL    HW124374   2.516   2.871   0.079
 7825SOL    HW224375   2.438   2.924   0.212
 7826SOL     OW24376   6.683   1.175   0.365
 7826SOL    HW124377   6.692   1.231   0.283
 7826SOL    HW224378   6.744   1.096   0.360
 7827SOL     OW24379   0.768   5.727   1.770
 7827SOL    HW124380   0.850   5.677   1.742
 7827SOL    HW224381   0.789   5.825   1.776
 7828SOL     OW24382   6.448   4.331   6.532
 7828SOL    HW124383   6.410   4.247   6.492
 7828SOL    HW224384   6.390   4.360   6.609
 7829SOL     OW24385   3.187   3.182   1.506
 7829SOL    HW124386   3.190   3.082   1.495
 7829SOL    HW224387   3.255   3.224   1.446
 7830SOL     OW24388   3.477   5.111   5.617
 7830SOL    HW124389   3.418   5.039   5.580
 7830SOL    HW224390   3.517   5.163   5.541
 7831SOL     OW24391   2.308   0.884   1.757
 7831SOL    HW124392   2.400   0.847   1.769
 7831SOL    HW224393   2.310   0.955   1.687
 7832SOL     OW24394   5.365   6.976   4.333
 7832SOL    HW124395   5.284   0.003   4.375
 7832SOL    HW224396   5.424   0.033   4.295
 7833SOL     OW24397   1.397   0.491   4.434
 7833SOL    HW124398   1.460   0.452   4.502
 7833SOL    HW224399   1.448   0.552   4.373
 7834SOL     OW24400   0.101   1.566   3.626
 7834SOL    HW124401   0.087   1.527   3.717
 7834SOL    HW224402   0.021   1.622   3.601
 7835SOL     OW24403   3.541   1.829   4.385
 7835SOL    HW124404   3.507   1.922   4.403
 7835SOL    HW224405   3.464   1.766   4.382
 7836SOL     OW24406   3.655   3.766   5.374
 7836SOL    HW124407   3.639   3.821   5.293
 7836SOL    HW224408   3.627   3.671   5.357
 7837SOL     OW24409   5.128   6.296   0.095
 7837SOL    HW124410   5.103   6.380   0.047
 7837SOL    HW224411   5.178   6.318   0.178
 7838SOL     OW24412   4.897   5.395   1.488
 7838SOL    HW124413   4.896   5.379   1.389
 7838SOL    HW224414   4.932   5.487   1.505
 7839SOL     OW24415   5.664   4.010   4.813
 7839SOL    HW124416   5.677   4.072   4.735
 7839SOL    HW224417   5.616   3.928   4.783
 7840SOL     OW24418   0.786   4.451   4.307
 7840SOL    HW124419   0.744   4.398   4.382
 7840SOL    HW224420   0.825   4.388   4.240
 7841SOL     OW24421   4.759   2.019   6.492
 7841SOL    HW124422   4.790   1.976   6.577
 7841SOL    HW224423   4.754   2.118   6.504
 7842SOL     OW24424   2.033   1.611   2.516
 7842SOL    HW124425   2.068   1.624   2.423
 7842SOL    HW224426   2.109   1.612   2.581
 7843SOL     OW24427   6.801   6.716   4.128
 7843SOL    HW124428   6.806   6.778   4.207
 7843SOL    HW224429   6.864   6.639   4.143
 7844SOL     OW24430   3.760   0.759   2.127
 7844SOL    HW124431   3.793   0.665   2.119
 7844SOL    HW224432   3.722   0.774   2.219
 7845SOL     OW24433   5.139   1.750   1.232
 7845SOL    HW124434   5.237   1.728   1.223
 7845SOL    HW224435   5.098   1.694   1.303
 7846SOL     OW24436   1.285   2.121   0.517
 7846SOL    HW124437   1.226   2.139   0.438
 7846SOL    HW224438   1.368   2.175   0.510
 7847SOL     OW24439   6.172   1.595   3.789
 7847SOL    HW124440   6.156   1.637   3.700
 7847SOL    HW224441   6.247   1.642   3.835
 7848SOL     OW24442   2.750   4.600   0.802
 7848SOL    HW124443   2.731   4.593   0.900
 7848SOL    HW224444   2.664   4.603   0.751
 7849SOL     OW24445   5.839   3.394   5.030
 7849SOL    HW124446   5.754   3.358   5.068
 7849SOL    HW224447   5.872   3.469   5.088
 7850SOL     OW24448   6.777   1.629   3.795
 7850SOL    HW124449   6.691   1.584   3.772
 7850SOL    HW224450   6.816   1.671   3.713
 7851SOL     OW24451   0.915   3.085   1.876
 7851SOL    HW124452   0.850   3.160   1.858
 7851SOL    HW224453   0.898   3.047   1.966
 7852SOL     OW24454   2.815   1.116   0.191
 7852SOL    HW124455   2.815   1.020   0.218
 7852SOL    HW224456   2.771   1.171   0.262
 7853SOL     OW24457   4.421   2.924   1.696
 7853SOL    HW124458   4.485   2.982   1.747
 7853SOL    HW224459   4.342   2.979   1.667
 7854SOL     OW24460   4.046   2.234   6.336
 7854SOL    HW124461   4.144   2.224   6.349
 7854SOL    HW224462   4.018   2.326   6.362
 7855SOL     OW24463   4.666   6.082   4.290
 7855SOL    HW124464   4.664   6.022   4.370
 7855SOL    HW224465   4.728   6.159   4.307
 7856SOL     OW24466   1.396   4.721   5.501
 7856SOL    HW124467   1.313   4.774   5.485
 7856SOL    HW224468   1.433   4.743   5.591
 7857SOL     OW24469   4.719   4.130   0.496
 7857SOL    HW124470   4.741   4.213   0.549
 7857SOL    HW224471   4.670   4.156   0.413
 7858SOL     OW24472   6.832   5.804   4.590
 7858SOL    HW124473   6.923   5.845   4.589
 7858SOL    HW224474   6.779   5.842   4.667
 7859SOL     OW24475   4.551   3.408   6.663
 7859SOL    HW124476   4.455   3.430   6.645
 7859SOL    HW224477   4.609   3.455   6.597
 7860SOL     OW24478   3.694   1.483   3.888
 7860SOL    HW124479   3.728   1.544   3.816
 7860SOL    HW224480   3.735   1.392   3.877
 7861SOL     OW24481   2.787   5.569   2.008
 7861SOL    HW124482   2.853   5.514   2.059
 7861SOL    HW224483   2.794   5.665   2.038
 7862SOL     OW24484   2.698   5.287   2.189
 7862SOL    HW124485   2.617   5.309   2.136
 7862SOL    HW224486   2.670   5.255   2.280
 7863SOL     OW24487   0.538   4.369   3.334
 7863SOL    HW124488   0.464   4.390   3.398
 7863SOL    HW224489   0.606   4.311   3.379
 7864SOL     OW24490   1.841   5.832   6.259
 7864SOL    HW124491   1.907   5.761   6.283
 7864SOL    HW224492   1.858   5.913   6.315
 7865SOL     OW24493   6.215   6.135   3.986
 7865SOL    HW124494   6.118   6.113   3.995
 7865SOL    HW224495   6.234   6.159   3.890
 7866SOL     OW24496   2.121   0.343   4.641
 7866SOL    HW124497   2.182   0.264   4.649
 7866SOL    HW224498   2.141   0.408   4.714
 7867SOL     OW24499   5.637   0.025   3.607
 7867SOL    HW124500   5.661   6.943   3.605
 7867SOL    HW224501   5.711   0.078   3.565
 7868SOL     OW24502   3.625   5.380   1.127
 7868SOL    HW124503   3.705   5.358   1.183
 7868SOL    HW224504   3.652   5.388   1.031
 7869SOL     OW24505   4.985   5.025   5.950
 7869SOL    HW124506   4.965   4.929   5.929
 7869SOL    HW224507   5.049   5.062   5.883
 7870SOL     OW24508   4.843   0.430   5.054
 7870SOL    HW124509   4.780   0.358   5.081
 7870SOL    HW224510   4.934   0.411   5.092
 7871SOL     OW24511   5.800   1.394   2.035
 7871SOL    HW124512   5.728   1.366   1.972
 7871SOL    HW224513   5.887   1.398   1.987
 7872SOL     OW24514   1.566   4.566   2.799
 7872SOL    HW124515   1.557   4.473   2.763
 7872SOL    HW224516   1.496   4.582   2.868
 7873SOL     OW24517   6.110   1.217   0.602
 7873SOL    HW124518   6.149   1.292   0.549
 7873SOL    HW224519   6.173   1.139   0.600
 7874SOL     OW24520   5.501   2.639   1.184
 7874SOL    HW124521   5.571   2.699   1.145
 7874SOL    HW224522   5.545   2.563   1.231
 7875SOL     OW24523   3.937   3.704   0.102
 7875SOL    HW124524   3.848   3.669   0.130
 7875SOL    HW224525   3.928   3.800   0.075
 7876SOL     OW24526   0.820   0.203   3.096
 7876SOL    HW124527   0.874   0.119   3.099
 7876SOL    HW224528   0.724   0.181   3.084
 7877SOL     OW24529   6.757   1.629   2.910
 7877SOL    HW124530   6.741   1.668   3.001
 7877SOL    HW224531   6.847   1.658   2.877
 7878SOL     OW24532   4.860   3.750   3.387
 7878SOL    HW124533   4.956   3.734   3.412
 7878SOL    HW224534   4.829   3.836   3.428
 7879SOL     OW24535   3.018   5.455   3.256
 7879SOL    HW124536   3.081   5.533   3.253
 7879SOL    HW224537   3.021   5.413   3.347
 7880SOL     OW24538   2.302   3.559   0.840
 7880SOL    HW124539   2.286   3.651   0.803
 7880SOL    HW224540   2.346   3.502   0.771
 7881SOL     OW24541   5.252   3.884   4.375
 7881SOL    HW124542   5.233   3.965   4.431
 7881SOL    HW224543   5.278   3.808   4.435
 7882SOL     OW24544   2.366   3.829   1.751
 7882SOL    HW124545   2.438   3.883   1.795
 7882SOL    HW224546   2.325   3.883   1.677
 7883SOL     OW24547   0.840   0.351   5.758
 7883SOL    HW124548   0.938   0.368   5.744
 7883SOL    HW224549   0.818   0.358   5.855
 7884SOL     OW24550   0.993   4.065   4.031
 7884SOL    HW124551   0.917   4.028   4.086
 7884SOL    HW224552   1.079   4.047   4.077
 7885SOL     OW24553   6.373   5.275   0.867
 7885SOL    HW124554   6.421   5.226   0.940
 7885SOL    HW224555   6.275   5.255   0.873
 7886SOL     OW24556   4.647   6.090   0.508
 7886SOL    HW124557   4.671   6.182   0.539
 7886SOL    HW224558   4.549   6.086   0.488
 7887SOL     OW24559   3.803   1.990   0.075
 7887SOL    HW124560   3.799   2.082   0.035
 7887SOL    HW224561   3.717   1.942   0.056
 7888SOL     OW24562   5.227   0.447   3.786
 7888SOL    HW124563   5.250   0.397   3.870
 7888SOL    HW224564   5.297   0.429   3.716
 7889SOL     OW24565   0.968   5.488   1.357
 7889SOL    HW124566   1.019   5.433   1.290
 7889SOL    HW224567   0.982   5.585   1.338
 7890SOL     OW24568   1.786   3.833   2.219
 7890SOL    HW124569   1.701   3.878   2.193
 7890SOL    HW224570   1.850   3.836   2.142
 7891SOL     OW24571   2.283   4.903   2.362
 7891SOL    HW124572   2.320   4.824   2.412
 7891SOL    HW224573   2.242   4.967   2.426
 7892SOL     OW24574   1.984   2.404   4.889
 7892SOL    HW124575   1.944   2.448   4.970
 7892SOL    HW224576   2.055   2.340   4.917
 7893SOL     OW24577   5.787   6.537   1.365
 7893SOL    HW124578   5.783   6.489   1.278
 7893SOL    HW224579   5.697   6.578   1.385
 7894SOL     OW24580   2.648   6.460   2.077
 7894SOL    HW124581   2.559   6.488   2.112
 7894SOL    HW224582   2.717   6.527   2.105
 7895SOL     OW24583   6.452   1.419   4.997
 7895SOL    HW124584   6.424   1.327   4.968
 7895SOL    HW224585   6.431   1.431   5.094
 7896SOL     OW24586   4.782   4.058   5.758
 7896SOL    HW124587   4.686   4.060   5.783
 7896SOL    HW224588   4.803   4.137   5.700
 7897SOL     OW24589   2.375   3.942   6.200
 7897SOL    HW124590   2.289   3.957   6.249
 7897SOL    HW224591   2.423   4.029   6.190
 7898SOL     OW24592   4.736   2.139   3.644
 7898SOL    HW124593   4.810   2.201   3.620
 7898SOL    HW224594   4.706   2.090   3.562
 7899SOL     OW24595   6.611   2.084   2.002
 7899SOL    HW124596   6.669   2.005   2.018
 7899SOL    HW224597   6.518   2.064   2.033
 7900SOL     OW24598   1.897   5.278   1.173
 7900SOL    HW124599   1.935   5.214   1.240
 7900SOL    HW224600   1.938   5.261   1.084
 7901SOL     OW24601   5.846   0.295   5.778
 7901SOL    HW124602   5.773   0.362   5.771
 7901SOL    HW224603   5.886   0.297   5.870
 7902SOL     OW24604   4.905   4.987   1.519
 7902SOL    HW124605   4.874   4.942   1.435
 7902SOL    HW224606   4.946   4.919   1.580
 7903SOL     OW24607   5.864   1.886   0.282
 7903SOL    HW124608   5.951   1.873   0.330
 7903SOL    HW224609   5.837   1.982   0.286
 7904SOL     OW24610   6.401   1.191   2.428
 7904SOL    HW124611   6.338   1.217   2.354
 7904SOL    HW224612   6.444   1.104   2.406
 7905SOL     OW24613   4.577   1.538   1.125
 7905SOL    HW124614   4.482   1.510   1.141
 7905SOL    HW224615   4.579   1.632   1.090
 7906SOL     OW24616   6.650   6.219   6.773
 7906SOL    HW124617   6.710   6.144   6.744
 7906SOL    HW224618   6.683   6.305   6.734
 7907SOL     OW24619   6.348   2.545   4.293
 7907SOL    HW124620   6.268   2.602   4.312
 7907SOL    HW224621   6.369   2.548   4.195
 7908SOL     OW24622   1.120   0.715   3.653
 7908SOL    HW124623   1.167   0.793   3.693
 7908SOL    HW224624   1.077   0.742   3.567
 7909SOL     OW24625   4.963   3.730   4.853
 7909SOL    HW124626   4.946   3.826   4.874
 7909SOL    HW224627   4.908   3.672   4.913
 7910SOL     OW24628   3.944   2.945   5.376
 7910SOL    HW124629   4.035   2.916   5.404
 7910SOL    HW224630   3.910   2.883   5.304
 7911SOL     OW24631   6.778   4.875   0.715
 7911SOL    HW124632   6.850   4.847   0.651
 7911SOL    HW224633   6.785   4.822   0.799
 7912SOL     OW24634   6.539   5.525   6.733
 7912SOL    HW124635   6.511   5.619   6.711
 7912SOL    HW224636   6.498   5.497   6.819
 7913SOL     OW24637   0.421   5.398   6.262
 7913SOL    HW124638   0.385   5.490   6.277
 7913SOL    HW224639   0.349   5.339   6.226
 7914SOL     OW24640   6.713   5.180   0.561
 7914SOL    HW124641   6.696   5.270   0.602
 7914SOL    HW224642   6.707   5.187   0.461
 7915SOL     OW24643   5.039   2.376   2.815
 7915SOL    HW124644   4.995   2.417   2.895
 7915SOL    HW224645   4.978   2.307   2.776
 7916SOL     OW24646   5.415   3.565   5.634
 7916SOL    HW124647   5.477   3.487   5.635
 7916SOL    HW224648   5.461   3.643   5.590
 7917SOL     OW24649   4.092   3.310   4.085
 7917SOL    HW124650   3.993   3.325   4.085
 7917SOL    HW224651   4.139   3.398   4.085
 7918SOL     OW24652   6.056   1.572   1.306
 7918SOL    HW124653   6.115   1.491   1.308
 7918SOL    HW224654   5.968   1.549   1.265
 7919SOL     OW24655   6.471   4.021   3.217
 7919SOL    HW124656   6.476   4.093   3.147
 7919SOL    HW224657   6.376   3.991   3.226
 7920SOL     OW24658   0.020   4.452   1.531
 7920SOL    HW124659   0.103   4.396   1.530
 7920SOL    HW224660   0.010   4.495   1.620
 7921SOL     OW24661   3.055   6.670   1.258
 7921SOL    HW124662   3.117   6.689   1.183
 7921SOL    HW224663   2.962   6.659   1.223
 7922SOL     OW24664   6.706   5.615   6.987
 7922SOL    HW124665   6.716   5.630   0.070
 7922SOL    HW224666   6.736   5.697   6.938
 7923SOL     OW24667   1.733   1.592   3.099
 7923SOL    HW124668   1.777   1.515   3.145
 7923SOL    HW224669   1.801   1.641   3.043
 7924SOL     OW24670   2.939   6.236   3.882
 7924SOL    HW124671   2.854   6.289   3.886
 7924SOL    HW224672   3.005   6.284   3.825
 7925SOL     OW24673   6.533   1.953   6.285
 7925SOL    HW124674   6.553   1.994   6.374
 7925SOL    HW224675   6.446   1.905   6.289
 7926SOL     OW24676   3.287   0.620   3.693
 7926SOL    HW124677   3.255   0.626   3.599
 7926SOL    HW224678   3.246   0.695   3.746
 7927SOL     OW24679   4.239   5.212   4.871
 7927SOL    HW124680   4.185   5.284   4.828
 7927SOL    HW224681   4.197   5.123   4.851
 7928SOL     OW24682   1.612   4.630   3.213
 7928SOL    HW124683   1.691   4.646   3.272
 7928SOL    HW224684   1.531   4.612   3.270
 7929SOL     OW24685   4.035   3.745   4.584
 7929SOL    HW124686   4.049   3.650   4.557
 7929SOL    HW224687   4.084   3.762   4.670
 7930SOL     OW24688   4.806   5.743   3.762
 7930SOL    HW124689   4.794   5.731   3.664
 7930SOL    HW224690   4.824   5.839   3.783
 7931SOL     OW24691   1.970   2.845   0.002
 7931SOL    HW124692   2.015   2.785   0.068
 7931SOL    HW224693   2.003   2.825   6.925
 7932SOL     OW24694   2.672   0.517   0.189
 7932SOL    HW124695   2.647   0.450   0.259
 7932SOL    HW224696   2.772   0.524   0.184
 7933SOL     OW24697   0.857   6.539   6.950
 7933SOL    HW124698   0.788   6.594   6.903
 7933SOL    HW224699   0.945   6.587   6.947
 7934SOL     OW24700   2.341   3.148   0.510
 7934SOL    HW124701   2.378   3.181   0.597
 7934SOL    HW224702   2.325   3.225   0.449
 7935SOL     OW24703   4.790   5.990   6.799
 7935SOL    HW124704   4.852   6.066   6.815
 7935SOL    HW224705   4.827   5.907   6.840
 7936SOL     OW24706   3.703   6.018   3.100
 7936SOL    HW124707   3.640   6.096   3.095
 7936SOL    HW224708   3.650   5.933   3.098
 7937SOL     OW24709   5.176   0.016   4.993
 7937SOL    HW124710   5.269   0.002   5.029
 7937SOL    HW224711   5.179   0.081   4.917
 7938SOL     OW24712   4.602   4.906   4.848
 7938SOL    HW124713   4.521   4.878   4.899
 7938SOL    HW224714   4.601   5.005   4.836
 7939SOL     OW24715   0.902   1.072   5.858
 7939SOL    HW124716   0.968   1.085   5.932
 7939SOL    HW224717   0.917   0.984   5.814
 7940SOL     OW24718   2.681   5.143   1.896
 7940SOL    HW124719   2.715   5.050   1.912
 7940SOL    HW224720   2.661   5.186   1.984
 7941SOL     OW24721   6.927   0.729   0.960
 7941SOL    HW124722   6.992   0.802   0.943
 7941SOL    HW224723   6.920   0.712   1.058
 7942SOL     OW24724   0.373   6.453   1.936
 7942SOL    HW124725   0.326   6.510   2.004
 7942SOL    HW224726   0.313   6.438   1.858
 7943SOL     OW24727   5.749   2.119   1.330
 7943SOL    HW124728   5.738   2.167   1.417
 7943SOL    HW224729   5.670   2.059   1.315
 7944SOL     OW24730   0.324   3.159   1.423
 7944SOL    HW124731   0.340   3.243   1.473
 7944SOL    HW224732   0.308   3.180   1.327
 7945SOL     OW24733   5.152   0.308   2.601
 7945SOL    HW124734   5.188   0.317   2.694
 7945SOL    HW224735   5.131   0.398   2.564
 7946SOL     OW24736   1.915   2.106   6.147
 7946SOL    HW124737   1.983   2.179   6.135
 7946SOL    HW224738   1.839   2.140   6.202
 7947SOL     OW24739   3.939   2.969   6.691
 7947SOL    HW124740   4.030   3.005   6.713
 7947SOL    HW224741   3.948   2.887   6.634
 7948SOL     OW24742   6.846   6.778   0.709
 7948SOL    HW124743   6.781   6.771   0.785
 7948SOL    HW224744   6.797   6.775   0.622
 7949SOL     OW24745   5.389   4.706   4.324
 7949SOL    HW124746   5.422   4.694   4.230
 7949SOL    HW224747   5.379   4.803   4.344
 7950SOL     OW24748   4.491   5.047   3.542
 7950SOL    HW124749   4.518   4.997   3.460
 7950SOL    HW224750   4.448   5.133   3.516
 7951SOL     OW24751   2.495   3.495   1.033
 7951SOL    HW124752   2.418   3.492   0.969
 7951SOL    HW224753   2.552   3.574   1.012
 7952SOL     OW24754   6.643   2.957   6.480
 7952SOL    HW124755   6.605   2.877   6.526
 7952SOL    HW224756   6.729   2.983   6.524
 7953SOL     OW24757   1.959   2.687   3.041
 7953SOL    HW124758   2.020   2.644   3.107
 7953SOL    HW224759   1.865   2.681   3.073
 7954SOL     OW24760   4.468   5.387   4.483
 7954SOL    HW124761   4.374   5.353   4.487
 7954SOL    HW224762   4.467   5.483   4.453
 7955SOL     OW24763   0.092   6.394   6.853
 7955SOL    HW124764   0.186   6.417   6.875
 7955SOL    HW224765   0.063   6.315   6.907
 7956SOL     OW24766   0.564   6.173   3.528
 7956SOL    HW124767   0.606   6.125   3.451
 7956SOL    HW224768   0.615   6.257   3.547
 7957SOL     OW24769   1.575   1.752   0.344
 7957SOL    HW124770   1.477   1.767   0.353
 7957SOL    HW224771   1.603   1.769   0.249
 7958SOL     OW24772   3.703   5.756   4.436
 7958SOL    HW124773   3.723   5.718   4.527
 7958SOL    HW224774   3.676   5.852   4.446
 7959SOL     OW24775   5.399   4.612   0.460
 7959SOL    HW124776   5.471   4.580   0.399
 7959SOL    HW224777   5.329   4.540   0.469
 7960SOL     OW24778   3.632   1.816   1.425
 7960SOL    HW124779   3.597   1.888   1.484
 7960SOL    HW224780   3.725   1.839   1.396
 7961SOL     OW24781   1.974   6.480   6.352
 7961SOL    HW124782   2.071   6.501   6.341
 7961SOL    HW224783   1.935   6.456   6.263
 7962SOL     OW24784   2.235   0.865   0.891
 7962SOL    HW124785   2.298   0.896   0.963
 7962SOL    HW224786   2.267   0.777   0.856
 7963SOL     OW24787   0.061   1.223   5.283
 7963SOL    HW124788   0.122   1.156   5.326
 7963SOL    HW224789   0.022   1.282   5.353
 7964SOL     OW24790   5.701   5.007   3.918
 7964SOL    HW124791   5.758   4.929   3.945
 7964SOL    HW224792   5.731   5.089   3.966
 7965SOL     OW24793   4.050   2.582   7.008
 7965SOL    HW124794   3.986   2.563   6.935
 7965SOL    HW224795   4.005   2.638   0.063
 7966SOL     OW24796   1.421   4.196   5.027
 7966SOL    HW124797   1.503   4.167   5.077
 7966SOL    HW224798   1.342   4.189   5.087
 7967SOL     OW24799   3.113   5.831   3.505
 7967SOL    HW124800   3.071   5.744   3.528
 7967SOL    HW224801   3.072   5.904   3.561
 7968SOL     OW24802   2.271   2.651   3.393
 7968SOL    HW124803   2.181   2.611   3.412
 7968SOL    HW224804   2.303   2.701   3.473
 7969SOL     OW24805   3.686   0.005   2.409
 7969SOL    HW124806   3.658   6.990   2.501
 7969SOL    HW224807   3.605   0.011   2.350
 7970SOL     OW24808   0.086   3.736   3.168
 7970SOL    HW124809   0.165   3.796   3.155
 7970SOL    HW224810   0.054   3.702   3.080
 7971SOL     OW24811   2.922   1.033   2.119
 7971SOL    HW124812   2.981   1.109   2.093
 7971SOL    HW224813   2.842   1.030   2.060
 7972SOL     OW24814   6.380   4.391   1.232
 7972SOL    HW124815   6.443   4.433   1.167
 7972SOL    HW224816   6.354   4.300   1.201
 7973SOL     OW24817   5.315   3.677   3.837
 7973SOL    HW124818   5.323   3.777   3.841
 7973SOL    HW224819   5.263   3.645   3.917
 7974SOL     OW24820   5.648   0.489   4.451
 7974SOL    HW124821   5.747   0.504   4.439
 7974SOL    HW224822   5.631   0.393   4.469
 7975SOL     OW24823   4.425   0.933   3.994
 7975SOL    HW124824   4.473   0.928   4.081
 7975SOL    HW224825   4.327   0.920   4.009
 7976SOL     OW24826   0.791   6.789   5.351
 7976SOL    HW124827   0.763   6.756   5.261
 7976SOL    HW224828   0.829   6.882   5.342
 7977SOL     OW24829   4.641   5.992   2.697
 7977SOL    HW124830   4.620   6.035   2.610
 7977SOL    HW224831   4.580   6.026   2.768
 7978SOL     OW24832   4.656   4.011   6.311
 7978SOL    HW124833   4.571   3.970   6.345
 7978SOL    HW224834   4.649   4.025   6.212
 7979SOL     OW24835   3.331   0.277   4.832
 7979SOL    HW124836   3.372   0.186   4.835
 7979SOL    HW224837   3.398   0.344   4.865
 7980SOL     OW24838   3.776   5.750   0.136
 7980SOL    HW124839   3.835   5.722   0.212
 7980SOL    HW224840   3.680   5.737   0.162
 7981SOL     OW24841   0.860   5.331   1.751
 7981SOL    HW124842   0.887   5.415   1.703
 7981SOL    HW224843   0.763   5.336   1.773
 7982SOL     OW24844   6.850   2.445   0.465
 7982SOL    HW124845   6.945   2.447   0.436
 7982SOL    HW224846   6.845   2.453   0.565
 7983SOL     OW24847   5.616   1.854   3.227
 7983SOL    HW124848   5.660   1.915   3.293
 7983SOL    HW224849   5.539   1.901   3.185
 7984SOL     OW24850   0.903   1.953   1.795
 7984SOL    HW124851   0.908   1.891   1.717
 7984SOL    HW224852   0.902   1.900   1.880
 7985SOL     OW24853   1.617   0.513   2.260
 7985SOL    HW124854   1.532   0.495   2.309
 7985SOL    HW224855   1.616   0.606   2.223
 7986SOL     OW24856   3.604   1.395   6.896
 7986SOL    HW124857   3.517   1.348   6.911
 7986SOL    HW224858   3.619   1.462   6.968
 7987SOL     OW24859   0.301   3.531   5.725
 7987SOL    HW124860   0.236   3.490   5.661
 7987SOL    HW224861   0.377   3.572   5.675
 7988SOL     OW24862   2.736   2.351   4.899
 7988SOL    HW124863   2.749   2.386   4.992
 7988SOL    HW224864   2.700   2.425   4.841
 7989SOL     OW24865   3.431   2.844   5.163
 7989SOL    HW124866   3.431   2.915   5.233
 7989SOL    HW224867   3.382   2.764   5.196
 7990SOL     OW24868   1.060   3.436   3.819
 7990SOL    HW124869   0.980   3.395   3.863
 7990SOL    HW224870   1.082   3.523   3.864
 7991SOL     OW24871   0.192   2.645   6.288
 7991SOL    HW124872   0.273   2.696   6.259
 7991SOL    HW224873   0.165   2.676   6.380
 7992SOL     OW24874   1.139   6.585   1.194
 7992SOL    HW124875   1.041   6.571   1.207
 7992SOL    HW224876   1.153   6.661   1.129
 7993SOL     OW24877   2.140   5.668   6.934
 7993SOL    HW124878   2.071   5.632   6.996
 7993SOL    HW224879   2.110   5.755   6.896
 7994SOL     OW24880   4.634   0.726   3.924
 7994SOL    HW124881   4.673   0.671   3.998
 7994SOL    HW224882   4.588   0.806   3.964
 7995SOL     OW24883   4.037   5.659   4.067
 7995SOL    HW124884   3.957   5.719   4.076
 7995SOL    HW224885   4.051   5.637   3.970
 7996SOL     OW24886   3.627   6.846   4.299
 7996SOL    HW124887   3.647   6.751   4.275
 7996SOL    HW224888   3.614   6.900   4.216
 7997SOL     OW24889   6.633   1.806   1.124
 7997SOL    HW124890   6.678   1.843   1.205
 7997SOL    HW224891   6.650   1.707   1.119
 7998SOL     OW24892   4.905   5.226   0.264
 7998SOL    HW124893   4.974   5.256   0.330
 7998SOL    HW224894   4.949   5.202   0.178
 7999SOL     OW24895   1.329   0.221   5.127
 7999SOL    HW124896   1.254   0.223   5.061
 7999SOL    HW224897   1.304   0.275   5.207
 8000SOL     OW24898   5.699   0.421   6.466
 8000SOL    HW124899   5.738   0.510   6.441
 8000SOL    HW224900   5.602   0.431   6.487
 8001SOL     OW24901   2.594   6.286   1.869
 8001SOL    HW124902   2.582   6.345   1.949
 8001SOL    HW224903   2.571   6.192   1.893
 8002SOL     OW24904   0.156   3.472   5.257
 8002SOL    HW124905   0.228   3.488   5.189
 8002SOL    HW224906   0.096   3.399   5.225
 8003SOL     OW24907   2.898   4.851   2.832
 8003SOL    HW124908   2.924   4.878   2.739
 8003SOL    HW224909   2.799   4.862   2.843
 8004SOL     OW24910   2.171   4.360   2.963
 8004SOL    HW124911   2.081   4.398   2.941
 8004SOL    HW224912   2.242   4.419   2.926
 8005SOL     OW24913   3.401   1.089   2.227
 8005SOL    HW124914   3.384   1.039   2.142
 8005SOL    HW224915   3.410   1.186   2.208
 8006SOL     OW24916   2.524   5.982   0.185
 8006SOL    HW124917   2.435   6.024   0.168
 8006SOL    HW224918   2.585   6.049   0.228
 8007SOL     OW24919   0.758   0.236   3.955
 8007SOL    HW124920   0.749   0.321   3.903
 8007SOL    HW224921   0.854   0.217   3.972
 8008SOL     OW24922   5.214   6.431   6.401
 8008SOL    HW124923   5.160   6.494   6.344
 8008SOL    HW224924   5.296   6.403   6.351
 8009SOL     OW24925   6.420   0.594   2.497
 8009SOL    HW124926   6.386   0.513   2.449
 8009SOL    HW224927   6.483   0.565   2.570
 8010SOL     OW24928   2.666   1.610   6.837
 8010SOL    HW124929   2.687   1.699   6.797
 8010SOL    HW224930   2.611   1.623   6.920
 8011SOL     OW24931   2.373   1.949   1.366
 8011SOL    HW124932   2.342   2.035   1.407
 8011SOL    HW224933   2.319   1.931   1.283
 8012SOL     OW24934   1.408   6.223   1.006
 8012SOL    HW124935   1.462   6.304   0.981
 8012SOL    HW224936   1.466   6.158   1.054
 8013SOL     OW24937   6.180   5.005   4.586
 8013SOL    HW124938   6.242   5.080   4.609
 8013SOL    HW224939   6.201   4.972   4.494
 8014SOL     OW24940   1.482   5.784   6.470
 8014SOL    HW124941   1.467   5.767   6.373
 8014SOL    HW224942   1.532   5.707   6.510
 8015SOL     OW24943   3.095   2.413   1.025
 8015SOL    HW124944   3.138   2.468   1.098
 8015SOL    HW224945   2.996   2.411   1.039
 8016SOL     OW24946   4.562   0.361   0.412
 8016SOL    HW124947   4.578   0.267   0.444
 8016SOL    HW224948   4.600   0.425   0.479
 8017SOL     OW24949   0.456   4.461   5.743
 8017SOL    HW124950   0.472   4.365   5.721
 8017SOL    HW224951   0.478   4.478   5.839
 8018SOL     OW24952   5.016   1.991   5.768
 8018SOL    HW124953   4.951   1.951   5.832
 8018SOL    HW224954   5.090   2.034   5.819
 8019SOL     OW24955   1.598   4.232   0.355
 8019SOL    HW124956   1.654   4.173   0.297
 8019SOL    HW224957   1.579   4.184   0.442
 8020SOL     OW24958   5.622   6.144   6.707
 8020SOL    HW124959   5.642   6.200   6.627
 8020SOL    HW224960   5.531   6.167   6.743
 8021SOL     OW24961   1.032   1.292   1.893
 8021SOL    HW124962   1.127   1.271   1.870
 8021SOL    HW224963   1.027   1.384   1.932
 8022SOL     OW24964   3.927   0.951   2.872
 8022SOL    HW124965   3.873   1.029   2.903
 8022SOL    HW224966   3.952   0.964   2.776
 8023SOL     OW24967   6.220   6.544   2.748
 8023SOL    HW124968   6.313   6.545   2.784
 8023SOL    HW224969   6.214   6.605   2.669
 8024SOL     OW24970   3.761   5.330   6.479
 8024SOL    HW124971   3.676   5.356   6.526
 8024SOL    HW224972   3.794   5.243   6.515
 8025SOL     OW24973   3.285   6.502   6.158
 8025SOL    HW124974   3.343   6.557   6.098
 8025SOL    HW224975   3.296   6.532   6.252
 8026SOL     OW24976   0.232   3.933   6.954
 8026SOL    HW124977   0.158   3.949   6.889
 8026SOL    HW224978   0.198   3.947   0.032
 8027SOL     OW24979   4.826   2.191   5.080
 8027SOL    HW124980   4.885   2.228   5.008
 8027SOL    HW224981   4.860   2.221   5.169
 8028SOL     OW24982   4.270   5.251   6.021
 8028SOL    HW124983   4.228   5.163   6.041
 8028SOL    HW224984   4.272   5.306   6.104
 8029SOL     OW24985   5.048   4.420   6.396
 8029SOL    HW124986   4.987   4.371   6.334
 8029SOL    HW224987   5.095   4.355   6.456
 8030SOL     OW24988   5.355   4.404   5.996
 8030SOL    HW124989   5.327   4.463   5.921
 8030SOL    HW224990   5.418   4.453   6.055
 8031SOL     OW24991   4.328   5.231   2.350
 8031SOL    HW124992   4.343   5.144   2.398
 8031SOL    HW224993   4.414   5.281   2.344
 8032SOL     OW24994   6.180   3.808   4.857
 8032SOL    HW124995   6.105   3.873   4.850
 8032SOL    HW224996   6.264   3.857   4.880
 8033SOL     OW24997   5.382   2.876   0.006
 8033SOL    HW124998   5.459   2.818   0.031
 8033SOL    HW224999   5.298   2.841   0.049
 8034SOL     OW25000   6.448   0.243   5.132
 8034SOL    HW125001   6.408   0.234   5.224
 8034SOL    HW225002   6.459   0.340   5.110
 8035SOL     OW25003   5.741   6.455   5.456
 8035SOL    HW125004   5.691   6.369   5.464
 8035SOL    HW225005   5.833   6.444   5.492
 8036SOL     OW25006   1.749   3.583   1.396
 8036SOL    HW125007   1.824   3.592   1.462
 8036SOL    HW225008   1.665   3.559   1.444
 8037SOL     OW25009   1.760   3.364   1.012
 8037SOL    HW125010   1.814   3.383   0.930
 8037SOL    HW225011   1.755   3.265   1.026
 8038SOL     OW25012   5.945   2.092   3.498
 8038SOL    HW125013   6.033   2.058   3.465
 8038SOL    HW225014   5.955   2.127   3.591
 8039SOL     OW25015   1.359   6.676   3.051
 8039SOL    HW125016   1.324   6.731   3.127
 8039SOL    HW225017   1.452   6.705   3.028
 8040SOL     OW25018   0.502   5.409   0.608
 8040SOL    HW125019   0.591   5.424   0.651
 8040SOL    HW225020   0.435   5.472   0.648
 8041SOL     OW25021   3.523   1.674   1.210
 8041SOL    HW125022   3.570   1.717   1.287
 8041SOL    HW225023   3.583   1.673   1.130
 8042SOL     OW25024   3.524   3.024   1.838
 8042SOL    HW125025   3.566   2.986   1.921
 8042SOL    HW225026   3.551   3.120   1.829
 8043SOL     OW25027   2.718   0.456   0.907
 8043SOL    HW125028   2.628   0.455   0.951
 8043SOL    HW225029   2.718   0.392   0.830
 8044SOL     OW25030   3.275   3.047   1.228
 8044SOL    HW125031   3.341   3.120   1.212
 8044SOL    HW225032   3.323   2.966   1.262
 8045SOL     OW25033   5.773   1.536   2.536
 8045SOL    HW125034   5.808   1.539   2.442
 8045SOL    HW225035   5.847   1.553   2.600
 8046SOL     OW25036   5.750   4.697   5.914
 8046SOL    HW125037   5.702   4.709   5.827
 8046SOL    HW225038   5.807   4.616   5.909
 8047SOL     OW25039   3.507   5.427   4.911
 8047SOL    HW125040   3.448   5.424   4.992
 8047SOL    HW225041   3.506   5.337   4.866
 8048SOL     OW25042   5.385   0.947   5.342
 8048SOL    HW125043   5.400   1.021   5.277
 8048SOL    HW225044   5.403   0.979   5.435
 8049SOL     OW25045   0.867   6.590   1.193
 8049SOL    HW125046   0.786   6.536   1.214
 8049SOL    HW225047   0.875   6.666   1.258
 8050SOL     OW25048   1.361   3.252   1.127
 8050SOL    HW125049   1.283   3.248   1.065
 8050SOL    HW225050   1.334   3.215   1.217
 8051SOL     OW25051   4.964   6.879   3.425
 8051SOL    HW125052   4.928   6.972   3.426
 8051SOL    HW225053   4.894   6.816   3.457
 8052SOL     OW25054   3.389   1.649   2.220
 8052SOL    HW125055   3.318   1.711   2.187
 8052SOL    HW225056   3.354   1.594   2.296
 8053SOL     OW25057   3.785   3.788   2.816
 8053SOL    HW125058   3.782   3.720   2.889
 8053SOL    HW225059   3.819   3.746   2.732
 8054SOL     OW25060   4.395   6.701   4.570
 8054SOL    HW125061   4.385   6.793   4.607
 8054SOL    HW225062   4.309   6.650   4.583
 8055SOL     OW25063   0.280   0.411   6.129
 8055SOL    HW125064   0.258   0.402   6.031
 8055SOL    HW225065   0.364   0.465   6.139
 8056SOL     OW25066   4.084   1.328   3.025
 8056SOL    HW125067   4.017   1.268   2.982
 8056SOL    HW225068   4.127   1.385   2.955
 8057SOL     OW25069   2.771   0.538   2.604
 8057SOL    HW125070   2.735   0.446   2.619
 8057SOL    HW225071   2.870   0.533   2.588
 8058SOL     OW25072   2.896   0.147   2.792
 8058SOL    HW125073   2.889   0.168   2.694
 8058SOL    HW225074   2.874   0.229   2.845
 8059SOL     OW25075   3.798   2.014   4.705
 8059SOL    HW125076   3.785   1.969   4.616
 8059SOL    HW225077   3.867   2.086   4.696
 8060SOL     OW25078   0.471   1.348   5.093
 8060SOL    HW125079   0.419   1.277   5.141
 8060SOL    HW225080   0.564   1.316   5.076
 8061SOL     OW25081   6.856   5.776   2.363
 8061SOL    HW125082   6.800   5.759   2.444
 8061SOL    HW225083   6.801   5.820   2.293
 8062SOL     OW25084   1.649   4.423   4.469
 8062SOL    HW125085   1.636   4.520   4.451
 8062SOL    HW225086   1.567   4.373   4.444
 8063SOL     OW25087   2.117   3.902   6.969
 8063SOL    HW125088   2.199   3.943   6.929
 8063SOL    HW225089   2.074   3.968   0.016
 8064SOL     OW25090   0.323   4.600   0.044
 8064SOL    HW125091   0.323   4.501   0.028
 8064SOL    HW225092   0.407   4.627   0.091
 8065SOL     OW25093   4.323   6.957   4.646
 8065SOL    HW125094   4.268   0.006   4.593
 8065SOL    HW225095   4.330   6.989   4.741
 8066SOL     OW25096   1.537   1.151   6.977
 8066SOL    HW125097   1.536   1.062   6.931
 8066SOL    HW225098   1.547   1.138   0.061
 8067SOL     OW25099   3.921   2.904   1.889
 8067SOL    HW125100   3.979   2.863   1.820
 8067SOL    HW225101   3.880   2.988   1.853
 8068SOL     OW25102   6.593   5.792   5.057
 8068SOL    HW125103   6.605   5.733   4.977
 8068SOL    HW225104   6.508   5.844   5.048
 8069SOL     OW25105   2.543   6.122   1.644
 8069SOL    HW125106   2.571   6.179   1.723
 8069SOL    HW225107   2.544   6.026   1.671
 8070SOL     OW25108   3.006   5.560   1.452
 8070SOL    HW125109   2.954   5.516   1.525
 8070SOL    HW225110   2.951   5.563   1.368
 8071SOL     OW25111   4.315   6.709   5.016
 8071SOL    HW125112   4.216   6.707   5.024
 8071SOL    HW225113   4.356   6.721   5.107
 8072SOL     OW25114   4.363   1.156   0.512
 8072SOL    HW125115   4.440   1.093   0.522
 8072SOL    HW225116   4.277   1.105   0.508
 8073SOL     OW25117   4.969   0.259   6.406
 8073SOL    HW125118   5.014   0.327   6.349
 8073SOL    HW225119   5.030   0.181   6.420
 8074SOL     OW25120   2.843   3.288   0.478
 8074SOL    HW125121   2.867   3.307   0.573
 8074SOL    HW225122   2.769   3.347   0.450
 8075SOL     OW25123   6.709   1.323   1.592
 8075SOL    HW125124   6.781   1.323   1.523
 8075SOL    HW225125   6.745   1.364   1.676
 8076SOL     OW25126   4.889   2.623   5.275
 8076SOL    HW125127   4.819   2.660   5.336
 8076SOL    HW225128   4.845   2.586   5.193
 8077SOL     OW25129   0.892   6.814   1.337
 8077SOL    HW125130   0.991   6.805   1.349
 8077SOL    HW225131   0.852   6.849   1.422
 8078SOL     OW25132   6.629   1.483   0.420
 8078SOL    HW125133   6.637   1.582   0.413
 8078SOL    HW225134   6.579   1.459   0.504
 8079SOL     OW25135   6.555   2.230   2.912
 8079SOL    HW125136   6.508   2.244   3.000
 8079SOL    HW225137   6.524   2.299   2.846
 8080SOL     OW25138   2.240   3.673   0.543
 8080SOL    HW125139   2.166   3.714   0.597
 8080SOL    HW225140   2.321   3.731   0.548
 8081SOL     OW25141   5.456   1.282   5.396
 8081SOL    HW125142   5.536   1.274   5.337
 8081SOL    HW225143   5.459   1.212   5.467
 8082SOL     OW25144   5.919   2.415   3.190
 8082SOL    HW125145   6.018   2.400   3.184
 8082SOL    HW225146   5.901   2.512   3.206
 8083SOL     OW25147   5.067   3.364   2.339
 8083SOL    HW125148   5.155   3.326   2.311
 8083SOL    HW225149   4.993   3.310   2.299
 8084SOL     OW25150   6.421   6.061   1.177
 8084SOL    HW125151   6.400   6.042   1.272
 8084SOL    HW225152   6.485   6.138   1.172
 8085SOL     OW25153   5.536   6.693   1.157
 8085SOL    HW125154   5.516   6.616   1.096
 8085SOL    HW225155   5.515   6.779   1.110
 8086SOL     OW25156   4.062   0.308   3.962
 8086SOL    HW125157   4.123   0.293   4.040
 8086SOL    HW225158   4.117   0.326   3.881
 8087SOL     OW25159   2.823   2.369   1.080
 8087SOL    HW125160   2.786   2.276   1.075
 8087SOL    HW225161   2.805   2.406   1.171
 8088SOL     OW25162   5.942   1.094   1.724
 8088SOL    HW125163   6.025   1.148   1.736
 8088SOL    HW225164   5.916   1.052   1.810
 8089SOL     OW25165   5.125   3.247   0.043
 8089SOL    HW125166   5.040   3.217   7.014
 8089SOL    HW225167   5.135   3.346   0.031
 8090SOL     OW25168   5.333   2.206   6.501
 8090SOL    HW125169   5.285   2.147   6.436
 8090SOL    HW225170   5.402   2.259   6.452
 8091SOL     OW25171   3.178   4.427   0.162
 8091SOL    HW125172   3.139   4.476   0.240
 8091SOL    HW225173   3.138   4.463   0.078
 8092SOL     OW25174   0.973   1.171   4.597
 8092SOL    HW125175   0.887   1.203   4.556
 8092SOL    HW225176   0.956   1.147   4.693
 8093SOL     OW25177   6.522   5.456   1.260
 8093SOL    HW125178   6.511   5.384   1.328
 8093SOL    HW225179   6.584   5.526   1.295
 8094SOL     OW25180   1.594   4.295   6.075
 8094SOL    HW125181   1.671   4.272   6.015
 8094SOL    HW225182   1.530   4.218   6.076
 8095SOL     OW25183   5.950   3.741   4.616
 8095SOL    HW125184   5.972   3.763   4.711
 8095SOL    HW225185   5.958   3.642   4.601
 8096SOL     OW25186   2.582   5.504   3.016
 8096SOL    HW125187   2.669   5.457   3.004
 8096SOL    HW225188   2.592   5.600   2.990
 8097SOL     OW25189   4.861   0.112   3.459
 8097SOL    HW125190   4.888   0.201   3.493
 8097SOL    HW225191   4.767   0.116   3.425
 8098SOL     OW25192   2.344   5.668   4.037
 8098SOL    HW125193   2.320   5.707   3.948
 8098SOL    HW225194   2.267   5.679   4.100
 8099SOL     OW25195   6.383   0.453   4.093
 8099SOL    HW125196   6.343   0.375   4.142
 8099SOL    HW225197   6.437   0.420   4.016
 8100SOL     OW25198   0.277   6.645   0.455
 8100SOL    HW125199   0.335   6.617   0.378
 8100SOL    HW225200   0.330   6.642   0.539
 8101SOL     OW25201   1.413   0.314   4.811
 8101SOL    HW125202   1.489   0.347   4.755
 8101SOL    HW225203   1.434   0.222   4.844
 8102SOL     OW25204   0.677   5.198   6.264
 8102SOL    HW125205   0.634   5.272   6.212
 8102SOL    HW225206   0.708   5.232   6.353
 8103SOL     OW25207   4.382   1.533   1.849
 8103SOL    HW125208   4.421   1.452   1.892
 8103SOL    HW225209   4.380   1.608   1.915
 8104SOL     OW25210   3.852   6.987   5.721
 8104SOL    HW125211   3.857   6.975   5.820
 8104SOL    HW225212   3.941   6.967   5.680
 8105SOL     OW25213   2.332   2.187   3.747
 8105SOL    HW125214   2.365   2.232   3.664
 8105SOL    HW225215   2.297   2.096   3.724
 8106SOL     OW25216   1.498   4.629   3.452
 8106SOL    HW125217   1.541   4.551   3.498
 8106SOL    HW225218   1.416   4.657   3.502
 8107SOL     OW25219   2.302   6.097   5.964
 8107SOL    HW125220   2.268   6.019   5.910
 8107SOL    HW225221   2.248   6.178   5.943
 8108SOL     OW25222   0.087   3.671   4.461
 8108SOL    HW125223   0.003   3.647   4.413
 8108SOL    HW225224   0.084   3.768   4.486
 8109SOL     OW25225   2.382   4.738   5.233
 8109SOL    HW125226   2.342   4.651   5.205
 8109SOL    HW225227   2.482   4.731   5.229
 8110SOL     OW25228   2.239   6.375   0.538
 8110SOL    HW125229   2.191   6.311   0.599
 8110SOL    HW225230   2.230   6.468   0.574
 8111SOL     OW25231   2.569   6.440   5.038
 8111SOL    HW125232   2.581   6.492   5.122
 8111SOL    HW225233   2.584   6.343   5.056
 8112SOL     OW25234   2.763   0.648   5.485
 8112SOL    HW125235   2.735   0.586   5.558
 8112SOL    HW225236   2.742   0.742   5.512
 8113SOL     OW25237   3.330   2.390   0.311
 8113SOL    HW125238   3.381   2.454   0.368
 8113SOL    HW225239   3.251   2.436   0.271
 8114SOL     OW25240   2.036   3.080   2.556
 8114SOL    HW125241   1.940   3.079   2.586
 8114SOL    HW225242   2.086   3.006   2.602
 8115SOL     OW25243   3.971   1.348   1.433
 8115SOL    HW125244   3.998   1.254   1.413
 8115SOL    HW225245   3.951   1.358   1.530
 8116SOL     OW25246   6.022   6.512   5.223
 8116SOL    HW125247   6.078   6.547   5.148
 8116SOL    HW225248   6.071   6.439   5.270
 8117SOL     OW25249   1.504   1.882   4.225
 8117SOL    HW125250   1.492   1.980   4.240
 8117SOL    HW225251   1.453   1.831   4.295
 8118SOL     OW25252   0.979   4.137   5.541
 8118SOL    HW125253   1.032   4.220   5.521
 8118SOL    HW225254   0.928   4.109   5.460
 8119SOL     OW25255   0.598   4.867   3.621
 8119SOL    HW125256   0.514   4.847   3.572
 8119SOL    HW225257   0.583   4.857   3.719
 8120SOL     OW25258   4.097   4.466   0.325
 8120SOL    HW125259   4.060   4.435   0.413
 8120SOL    HW225260   4.191   4.432   0.314
 8121SOL     OW25261   0.427   6.382   2.611
 8121SOL    HW125262   0.468   6.471   2.592
 8121SOL    HW225263   0.327   6.391   2.616
 8122SOL     OW25264   0.806   5.105   1.550
 8122SOL    HW125265   0.904   5.100   1.565
 8122SOL    HW225266   0.769   5.185   1.598
 8123SOL     OW25267   0.992   0.060   6.358
 8123SOL    HW125268   0.899   0.095   6.350
 8123SOL    HW225269   1.039   0.069   6.271
 8124SOL     OW25270   1.778   6.063   1.172
 8124SOL    HW125271   1.859   6.026   1.218
 8124SOL    HW225272   1.772   6.024   1.080
 8125SOL     OW25273   6.007   4.638   2.920
 8125SOL    HW125274   5.954   4.599   2.996
 8125SOL    HW225275   5.980   4.734   2.908
 8126SOL     OW25276   5.582   4.298   2.911
 8126SOL    HW125277   5.544   4.211   2.944
 8126SOL    HW225278   5.547   4.316   2.819
 8127SOL     OW25279   2.260   5.490   0.864
 8127SOL    HW125280   2.273   5.587   0.842
 8127SOL    HW225281   2.186   5.453   0.808
 8128SOL     OW25282   3.140   2.777   6.638
 8128SOL    HW125283   3.090   2.691   6.629
 8128SOL    HW225284   3.161   2.793   6.734
 8129SOL     OW25285   5.626   0.859   6.231
 8129SOL    HW125286   5.543   0.803   6.223
 8129SOL    HW225287   5.621   0.935   6.166
 8130SOL     OW25288   0.914   5.213   6.020
 8130SOL    HW125289   0.967   5.291   6.053
 8130SOL    HW225290   0.834   5.200   6.079
 8131SOL     OW25291   3.282   1.426   0.597
 8131SOL    HW125292   3.208   1.418   0.664
 8131SOL    HW225293   3.328   1.337   0.589
 8132SOL     OW25294   6.296   5.207   4.678
 8132SOL    HW125295   6.208   5.194   4.723
 8132SOL    HW225296   6.368   5.220   4.746
 8133SOL     OW25297   3.259   5.232   3.565
 8133SOL    HW125298   3.344   5.254   3.516
 8133SOL    HW225299   3.278   5.166   3.637
 8134SOL     OW25300   1.932   2.062   4.298
 8134SOL    HW125301   1.881   1.977   4.306
 8134SOL    HW225302   2.016   2.056   4.353
 8135SOL     OW25303   3.079   4.890   2.355
 8135SOL    HW125304   3.011   4.826   2.318
 8135SOL    HW225305   3.156   4.896   2.292
 8136SOL     OW25306   3.846   5.483   2.409
 8136SOL    HW125307   3.890   5.427   2.478
 8136SOL    HW225308   3.749   5.493   2.431
 8137SOL     OW25309   1.770   3.246   4.952
 8137SOL    HW125310   1.757   3.228   4.855
 8137SOL    HW225311   1.868   3.260   4.970
 8138SOL     OW25312   5.382   1.604   1.740
 8138SOL    HW125313   5.376   1.507   1.764
 8138SOL    HW225314   5.464   1.644   1.781
 8139SOL     OW25315   0.678   3.143   3.540
 8139SOL    HW125316   0.612   3.218   3.546
 8139SOL    HW225317   0.661   3.090   3.457
 8140SOL     OW25318   4.386   6.600   0.037
 8140SOL    HW125319   4.306   6.658   0.053
 8140SOL    HW225320   4.383   6.564   6.959
 8141SOL     OW25321   5.108   1.305   5.647
 8141SOL    HW125322   5.117   1.389   5.593
 8141SOL    HW225323   5.171   1.309   5.725
 8142SOL     OW25324   2.080   5.790   0.396
 8142SOL    HW125325   2.156   5.770   0.459
 8142SOL    HW225326   2.037   5.705   0.368
 8143SOL     OW25327   5.512   4.546   0.866
 8143SOL    HW125328   5.556   4.522   0.779
 8143SOL    HW225329   5.434   4.606   0.849
 8144SOL     OW25330   0.457   6.050   5.600
 8144SOL    HW125331   0.358   6.052   5.614
 8144SOL    HW225332   0.503   6.075   5.686
 8145SOL     OW25333   5.551   5.756   0.548
 8145SOL    HW125334   5.527   5.844   0.507
 8145SOL    HW225335   5.540   5.761   0.647
 8146SOL     OW25336   5.991   0.197   4.559
 8146SOL    HW125337   5.943   0.123   4.513
 8146SOL    HW225338   5.935   0.231   4.635
 8147SOL     OW25339   1.023   0.594   6.481
 8147SOL    HW125340   0.971   0.639   6.408
 8147SOL    HW225341   0.966   0.522   6.522
 8148SOL     OW25342   4.264   3.968   0.057
 8148SOL    HW125343   4.241   3.871   0.044
 8148SOL    HW225344   4.340   3.976   0.121
 8149SOL     OW25345   1.366   6.915   4.536
 8149SOL    HW125346   1.436   6.976   4.497
 8149SOL    HW225347   1.299   6.893   4.465
 8150SOL     OW25348   0.930   3.168   1.067
 8150SOL    HW125349   0.834   3.163   1.041
 8150SOL    HW225350   0.974   3.080   1.047
 8151SOL     OW25351   6.014   4.994   3.697
 8151SOL    HW125352   5.997   4.949   3.784
 8151SOL    HW225353   6.096   4.956   3.654
 8152SOL     OW25354   4.457   1.826   3.027
 8152SOL    HW125355   4.357   1.825   3.016
 8152SOL    HW225356   4.480   1.831   3.124
 8153SOL     OW25357   0.942   0.270   3.697
 8153SOL    HW125358   1.022   0.290   3.754
 8153SOL    HW225359   0.965   0.200   3.630
 8154SOL     OW25360   2.362   1.474   3.514
 8154SOL    HW125361   2.296   1.399   3.513
 8154SOL    HW225362   2.449   1.442   3.477
 8155SOL     OW25363   1.391   4.220   2.442
 8155SOL    HW125364   1.351   4.292   2.499
 8155SOL    HW225365   1.443   4.157   2.499
 8156SOL     OW25366   6.036   5.335   1.042
 8156SOL    HW125367   5.979   5.377   1.112
 8156SOL    HW225368   6.099   5.403   1.005
 8157SOL     OW25369   6.120   3.532   5.888
 8157SOL    HW125370   6.160   3.505   5.976
 8157SOL    HW225371   6.185   3.591   5.839
 8158SOL     OW25372   5.536   4.851   6.282
 8158SOL    HW125373   5.604   4.922   6.303
 8158SOL    HW225374   5.477   4.837   6.362
 8159SOL     OW25375   3.921   6.569   5.746
 8159SOL    HW125376   3.966   6.513   5.676
 8159SOL    HW225377   3.836   6.607   5.709
 8160SOL     OW25378   5.104   1.800   3.371
 8160SOL    HW125379   5.084   1.893   3.403
 8160SOL    HW225380   5.132   1.744   3.448
 8161SOL     OW25381   5.391   3.245   0.212
 8161SOL    HW125382   5.300   3.243   0.170
 8161SOL    HW225383   5.458   3.213   0.146
 8162SOL     OW25384   0.125   5.028   6.980
 8162SOL    HW125385   0.132   5.049   0.062
 8162SOL    HW225386   0.038   5.062   6.945
 8163SOL     OW25387   4.166   4.805   5.584
 8163SOL    HW125388   4.130   4.739   5.649
 8163SOL    HW225389   4.176   4.761   5.494
 8164SOL     OW25390   4.579   0.515   0.036
 8164SOL    HW125391   4.587   0.600   6.999
 8164SOL    HW225392   4.610   0.438   6.996
 8165SOL     OW25393   6.594   3.218   6.162
 8165SOL    HW125394   6.518   3.174   6.210
 8165SOL    HW225395   6.678   3.165   6.176
 8166SOL     OW25396   1.577   2.159   4.017
 8166SOL    HW125397   1.603   2.067   3.985
 8166SOL    HW225398   1.644   2.190   4.085
 8167SOL     OW25399   6.422   0.996   3.996
 8167SOL    HW125400   6.458   1.032   4.082
 8167SOL    HW225401   6.345   1.051   3.966
 8168SOL     OW25402   2.122   0.607   1.413
 8168SOL    HW125403   2.105   0.660   1.330
 8168SOL    HW225404   2.102   0.510   1.395
 8169SOL     OW25405   4.555   1.766   0.206
 8169SOL    HW125406   4.645   1.778   0.247
 8169SOL    HW225407   4.555   1.685   0.148
 8170SOL     OW25408   6.838   3.925   2.078
 8170SOL    HW125409   6.812   3.870   1.999
 8170SOL    HW225410   6.927   3.895   2.112
 8171SOL     OW25411   1.879   1.252   6.979
 8171SOL    HW125412   1.915   1.175   0.016
 8171SOL    HW225413   1.792   1.281   0.003
 8172SOL     OW25414   0.299   1.825   1.781
 8172SOL    HW125415   0.238   1.783   1.848
 8172SOL    HW225416   0.363   1.757   1.747
 8173SOL     OW25417   5.896   2.299   2.475
 8173SOL    HW125418   5.928   2.282   2.568
 8173SOL    HW225419   5.951   2.247   2.410
 8174SOL     OW25420   1.486   6.185   2.443
 8174SOL    HW125421   1.409   6.246   2.429
 8174SOL    HW225422   1.552   6.196   2.368
 8175SOL     OW25423   1.121   2.372   4.155
 8175SOL    HW125424   1.114   2.272   4.160
 8175SOL    HW225425   1.205   2.396   4.105
 8176SOL     OW25426   1.901   4.426   1.537
 8176SOL    HW125427   1.881   4.328   1.544
 8176SOL    HW225428   1.999   4.438   1.520
 8177SOL     OW25429   3.430   1.153   2.939
 8177SOL    HW125430   3.359   1.094   2.899
 8177SOL    HW225431   3.446   1.231   2.879
 8178SOL     OW25432   2.943   6.683   0.699
 8178SOL    HW125433   2.981   6.773   0.720
 8178SOL    HW225434   3.013   6.628   0.653
 8179SOL     OW25435   5.257   0.687   4.391
 8179SOL    HW125436   5.345   0.704   4.348
 8179SOL    HW225437   5.236   0.759   4.457
 8180SOL     OW25438   5.795   6.889   6.628
 8180SOL    HW125439   5.695   6.896   6.628
 8180SOL    HW225440   5.827   6.864   6.537
 8181SOL     OW25441   0.880   0.925   0.941
 8181SOL    HW125442   0.791   0.958   0.973
 8181SOL    HW225443   0.929   0.999   0.895
 8182SOL     OW25444   3.785   3.537   4.664
 8182SOL    HW125445   3.763   3.601   4.737
 8182SOL    HW225446   3.881   3.512   4.668
 8183SOL     OW25447   6.345   0.827   4.958
 8183SOL    HW125448   6.297   0.876   4.885
 8183SOL    HW225449   6.295   0.839   5.044
 8184SOL     OW25450   1.269   0.062   6.752
 8184SOL    HW125451   1.274   6.998   6.692
 8184SOL    HW225452   1.361   0.089   6.780
 8185SOL     OW25453   1.891   0.784   1.003
 8185SOL    HW125454   1.907   0.854   0.933
 8185SOL    HW225455   1.804   0.802   1.049
 8186SOL     OW25456   1.617   4.857   6.643
 8186SOL    HW125457   1.519   4.852   6.625
 8186SOL    HW225458   1.665   4.871   6.557
 8187SOL     OW25459   2.179   1.942   5.331
 8187SOL    HW125460   2.259   1.980   5.286
 8187SOL    HW225461   2.109   1.920   5.263
 8188SOL     OW25462   4.113   2.007   3.942
 8188SOL    HW125463   4.176   2.015   4.019
 8188SOL    HW225464   4.135   2.077   3.874
 8189SOL     OW25465   4.883   4.591   3.591
 8189SOL    HW125466   4.908   4.686   3.608
 8189SOL    HW225467   4.810   4.565   3.654
 8190SOL     OW25468   5.698   3.860   3.142
 8190SOL    HW125469   5.690   3.775   3.090
 8190SOL    HW225470   5.663   3.845   3.235
 8191SOL     OW25471   4.549   5.146   2.051
 8191SOL    HW125472   4.621   5.095   2.004
 8191SOL    HW225473   4.521   5.096   2.133
 8192SOL     OW25474   1.550   5.282   2.699
 8192SOL    HW125475   1.523   5.368   2.742
 8192SOL    HW225476   1.518   5.205   2.754
 8193SOL     OW25477   6.920   5.483   4.339
 8193SOL    HW125478   6.946   5.458   4.246
 8193SOL    HW225479   6.857   5.561   4.336
 8194SOL     OW25480   4.568   0.044   0.918
 8194SOL    HW125481   4.594   0.062   1.013
 8194SOL    HW225482   4.586   0.125   0.862
 8195SOL     OW25483   6.053   6.469   4.057
 8195SOL    HW125484   6.139   6.457   4.007
 8195SOL    HW225485   6.027   6.566   4.055
 8196SOL     OW25486   4.798   0.417   0.238
 8196SOL    HW125487   4.703   0.439   0.216
 8196SOL    HW225488   4.859   0.470   0.178
 8197SOL     OW25489   4.978   1.693   1.819
 8197SOL    HW125490   5.057   1.737   1.862
 8197SOL    HW225491   4.908   1.762   1.800
 8198SOL     OW25492   2.737   0.730   2.097
 8198SOL    HW125493   2.809   0.752   2.163
 8198SOL    HW225494   2.777   0.684   2.018
 8199SOL     OW25495   4.537   3.142   6.101
 8199SOL    HW125496   4.630   3.143   6.063
 8199SOL    HW225497   4.495   3.232   6.088
 8200SOL     OW25498   5.804   4.321   1.981
 8200SOL    HW125499   5.795   4.359   1.889
 8200SOL    HW225500   5.898   4.331   2.013
 8201SOL     OW25501   0.240   0.751   4.953
 8201SOL    HW125502   0.336   0.726   4.965
 8201SOL    HW225503   0.182   0.678   4.988
 8202SOL     OW25504   0.567   6.333   2.057
 8202SOL    HW125505   0.590   6.236   2.046
 8202SOL    HW225506   0.501   6.359   1.987
 8203SOL     OW25507   2.014   2.215   6.918
 8203SOL    HW125508   1.927   2.171   6.895
 8203SOL    HW225509   2.009   2.254   7.010
 8204SOL     OW25510   3.979   3.610   0.808
 8204SOL    HW125511   3.961   3.588   0.904
 8204SOL    HW225512   4.020   3.531   0.763
 8205SOL     OW25513   0.619   2.457   0.203
 8205SOL    HW125514   0.599   2.446   0.301
 8205SOL    HW225515   0.655   2.372   0.167
 8206SOL     OW25516   4.705   1.204   0.025
 8206SOL    HW125517   4.645   1.140   6.993
 8206SOL    HW225518   4.767   1.153   0.086
 8207SOL     OW25519   3.104   3.622   4.277
 8207SOL    HW125520   3.083   3.716   4.303
 8207SOL    HW225521   3.112   3.615   4.178
 8208SOL     OW25522   0.512   1.347   0.378
 8208SOL    HW125523   0.443   1.320   0.445
 8208SOL    HW225524   0.602   1.314   0.408
 8209SOL     OW25525   0.018   0.797   5.194
 8209SOL    HW125526   7.015   0.781   5.097
 8209SOL    HW225527   0.115   0.815   5.207
 8210SOL     OW25528   2.067   2.663   0.196
 8210SOL    HW125529   2.030   2.576   0.229
 8210SOL    HW225530   2.166   2.665   0.210
 8211SOL     OW25531   3.363   4.294   1.266
 8211SOL    HW125532   3.435   4.284   1.336
 8211SOL    HW225533   3.273   4.289   1.310
 8212SOL     OW25534   1.109   2.034   3.312
 8212SOL    HW125535   1.126   1.966   3.241
 8212SOL    HW225536   1.014   2.063   3.308
 8213SOL     OW25537   6.704   4.401   2.106
 8213SOL    HW125538   6.784   4.344   2.125
 8213SOL    HW225539   6.658   4.369   2.023
 8214SOL     OW25540   5.475   5.032   3.334
 8214SOL    HW125541   5.562   4.992   3.304
 8214SOL    HW225542   5.443   5.098   3.266
 8215SOL     OW25543   3.429   5.777   5.309
 8215SOL    HW125544   3.423   5.861   5.362
 8215SOL    HW225545   3.374   5.785   5.227
 8216SOL     OW25546   5.375   5.637   4.343
 8216SOL    HW125547   5.277   5.639   4.327
 8216SOL    HW225548   5.393   5.626   4.440
 8217SOL     OW25549   2.331   4.622   0.055
 8217SOL    HW125550   2.269   4.562   0.105
 8217SOL    HW225551   2.419   4.625   0.102
 8218SOL     OW25552   0.835   1.681   6.716
 8218SOL    HW125553   0.838   1.767   6.665
 8218SOL    HW225554   0.778   1.693   6.797
 8219SOL     OW25555   4.757   1.760   0.649
 8219SOL    HW125556   4.781   1.845   0.602
 8219SOL    HW225557   4.681   1.716   0.602
 8220SOL     OW25558   3.519   2.842   3.123
 8220SOL    HW125559   3.548   2.874   3.214
 8220SOL    HW225560   3.589   2.865   3.056
 8221SOL     OW25561   4.611   5.881   4.496
 8221SOL    HW125562   4.600   5.946   4.571
 8221SOL    HW225563   4.666   5.803   4.527
 8222SOL     OW25564   5.351   1.516   2.148
 8222SOL    HW125565   5.254   1.504   2.167
 8222SOL    HW225566   5.405   1.480   2.224
 8223SOL     OW25567   1.092   4.404   5.557
 8223SOL    HW125568   1.187   4.435   5.557
 8223SOL    HW225569   1.035   4.471   5.510
 8224SOL     OW25570   0.778   2.614   2.819
 8224SOL    HW125571   0.801   2.707   2.849
 8224SOL    HW225572   0.716   2.572   2.885
 8225SOL     OW25573   4.220   1.130   0.811
 8225SOL    HW125574   4.297   1.158   0.754
 8225SOL    HW225575   4.145   1.099   0.753
 8226SOL     OW25576   4.615   0.375   1.947
 8226SOL    HW125577   4.694   0.436   1.945
 8226SOL    HW225578   4.633   0.300   2.011
 8227SOL     OW25579   0.632   2.596   3.870
 8227SOL    HW125580   0.550   2.599   3.927
 8227SOL    HW225581   0.689   2.519   3.899
 8228SOL     OW25582   0.097   2.760   6.059
 8228SOL    HW125583   0.139   2.714   6.137
 8228SOL    HW225584   0.088   2.695   5.983
 8229SOL     OW25585   3.345   4.641   0.470
 8229SOL    HW125586   3.336   4.739   0.486
 8229SOL    HW225587   3.403   4.626   0.390
 8230SOL     OW25588   5.380   0.050   5.382
 8230SOL    HW125589   5.350   0.142   5.406
 8230SOL    HW225590   5.435   0.012   5.456
 8231SOL     OW25591   3.883   6.020   1.544
 8231SOL    HW125592   3.909   6.002   1.639
 8231SOL    HW225593   3.864   6.117   1.532
 8232SOL     OW25594   5.080   1.045   0.520
 8232SOL    HW125595   4.990   1.033   0.564
 8232SOL    HW225596   5.152   1.033   0.589
 8233SOL     OW25597   0.811   5.886   6.355
 8233SOL    HW125598   0.795   5.834   6.270
 8233SOL    HW225599   0.910   5.889   6.373
 8234SOL     OW25600   2.610   3.169   0.165
 8234SOL    HW125601   2.541   3.102   0.136
 8234SOL    HW225602   2.648   3.141   0.253
 8235SOL     OW25603   2.309   2.920   0.677
 8235SOL    HW125604   2.326   2.993   0.611
 8235SOL    HW225605   2.223   2.873   0.653
 8236SOL     OW25606   6.589   3.673   0.084
 8236SOL    HW125607   6.542   3.585   0.087
 8236SOL    HW225608   6.645   3.684   0.165
 8237SOL     OW25609   4.793   6.474   4.617
 8237SOL    HW125610   4.795   6.564   4.660
 8237SOL    HW225611   4.834   6.406   4.678
 8238SOL     OW25612   1.730   4.051   0.173
 8238SOL    HW125613   1.724   4.112   0.095
 8238SOL    HW225614   1.655   3.985   0.170
 8239SOL     OW25615   6.372   1.858   5.572
 8239SOL    HW125616   6.391   1.814   5.660
 8239SOL    HW225617   6.456   1.899   5.536
 8240SOL     OW25618   3.510   3.885   2.686
 8240SOL    HW125619   3.498   3.984   2.684
 8240SOL    HW225620   3.601   3.863   2.722
 8241SOL     OW25621   3.513   6.544   0.347
 8241SOL    HW125622   3.540   6.477   0.416
 8241SOL    HW225623   3.548   6.516   0.257
 8242SOL     OW25624   1.197   4.636   5.758
 8242SOL    HW125625   1.253   4.682   5.827
 8242SOL    HW225626   1.146   4.561   5.800
 8243SOL     OW25627   0.893   3.036   6.761
 8243SOL    HW125628   0.885   2.937   6.756
 8243SOL    HW225629   0.935   3.071   6.677
 8244SOL     OW25630   0.643   6.639   3.324
 8244SOL    HW125631   0.720   6.577   3.310
 8244SOL    HW225632   0.677   6.733   3.333
 8245SOL     OW25633   3.574   1.120   2.561
 8245SOL    HW125634   3.537   1.210   2.586
 8245SOL    HW225635   3.628   1.129   2.478
 8246SOL     OW25636   6.856   3.758   5.631
 8246SOL    HW125637   6.870   3.846   5.676
 8246SOL    HW225638   6.936   3.736   5.575
 8247SOL     OW25639   0.935   0.866   1.698
 8247SOL    HW125640   0.946   0.766   1.698
 8247SOL    HW225641   0.968   0.903   1.611
 8248SOL     OW25642   5.757   4.715   3.129
 8248SOL    HW125643   5.684   4.663   3.085
 8248SOL    HW225644   5.836   4.655   3.144
 8249SOL     OW25645   1.984   3.572   4.756
 8249SOL    HW125646   1.942   3.630   4.686
 8249SOL    HW225647   2.015   3.630   4.832
 8250SOL     OW25648   3.192   4.076   2.410
 8250SOL    HW125649   3.289   4.089   2.394
 8250SOL    HW225650   3.143   4.162   2.395
 8251SOL     OW25651   6.087   2.622   4.387
 8251SOL    HW125652   6.074   2.524   4.402
 8251SOL    HW225653   6.022   2.673   4.442
 8252SOL     OW25654   3.351   3.316   0.128
 8252SOL    HW125655   3.435   3.338   0.078
 8252SOL    HW225656   3.290   3.261   0.070
 8253SOL     OW25657   3.691   3.971   4.903
 8253SOL    HW125658   3.640   4.030   4.840
 8253SOL    HW225659   3.766   4.023   4.943
 8254SOL     OW25660   4.451   4.594   4.646
 8254SOL    HW125661   4.421   4.548   4.562
 8254SOL    HW225662   4.422   4.689   4.644
 8255SOL     OW25663   3.797   6.083   4.810
 8255SOL    HW125664   3.785   6.144   4.889
 8255SOL    HW225665   3.727   6.012   4.813
 8256SOL     OW25666   6.292   0.335   2.470
 8256SOL    HW125667   6.259   0.317   2.563
 8256SOL    HW225668   6.229   0.398   2.424
 8257SOL     OW25669   6.537   3.900   3.599
 8257SOL    HW125670   6.627   3.913   3.641
 8257SOL    HW225671   6.474   3.970   3.633
 8258SOL     OW25672   5.303   1.169   0.261
 8258SOL    HW125673   5.398   1.139   0.270
 8258SOL    HW225674   5.288   1.251   0.317
 8259SOL     OW25675   4.052   1.762   3.833
 8259SOL    HW125676   4.067   1.848   3.881
 8259SOL    HW225677   4.120   1.752   3.760
 8260SOL     OW25678   3.056   0.685   1.105
 8260SOL    HW125679   3.053   0.709   1.008
 8260SOL    HW225680   3.109   0.753   1.155
 8261SOL     OW25681   6.232   1.323   1.392
 8261SOL    HW125682   6.299   1.252   1.413
 8261SOL    HW225683   6.139   1.287   1.405
 8262SOL     OW25684   1.245   2.478   0.777
 8262SOL    HW125685   1.341   2.504   0.779
 8262SOL    HW225686   1.192   2.549   0.731
 8263SOL     OW25687   7.012   2.183   0.311
 8263SOL    HW125688   0.014   2.269   0.359
 8263SOL    HW225689   0.084   2.140   0.286
 8264SOL     OW25690   1.470   5.908   2.337
 8264SOL    HW125691   1.394   5.895   2.274
 8264SOL    HW225692   1.475   6.004   2.363
 8265SOL     OW25693   1.150   6.767   1.394
 8265SOL    HW125694   1.228   6.744   1.452
 8265SOL    HW225695   1.168   6.737   1.300
 8266SOL     OW25696   1.876   0.529   3.058
 8266SOL    HW125697   1.891   0.498   3.152
 8266SOL    HW225698   1.917   0.463   2.994
 8267SOL     OW25699   1.763   3.108   1.107
 8267SOL    HW125700   1.745   3.013   1.081
 8267SOL    HW225701   1.848   3.112   1.160
 8268SOL     OW25702   2.355   6.293   6.302
 8268SOL    HW125703   2.351   6.372   6.240
 8268SOL    HW225704   2.405   6.219   6.258
 8269SOL     OW25705   5.701   1.277   1.380
 8269SOL    HW125706   5.661   1.344   1.442
 8269SOL    HW225707   5.670   1.185   1.403
 8270SOL     OW25708   2.713   0.305   4.967
 8270SOL    HW125709   2.652   0.382   4.985
 8270SOL    HW225710   2.748   0.269   5.054
 8271SOL     OW25711   0.183   0.839   2.218
 8271SOL    HW125712   0.280   0.865   2.209
 8271SOL    HW225713   0.167   0.755   2.166
 8272SOL     OW25714   5.104   1.181   1.104
 8272SOL    HW125715   5.045   1.125   1.047
 8272SOL    HW225716   5.191   1.134   1.120
 8273SOL     OW25717   1.830   6.393   0.895
 8273SOL    HW125718   1.769   6.457   0.941
 8273SOL    HW225719   1.776   6.328   0.842
 8274SOL     OW25720   4.743   4.654   3.333
 8274SOL    HW125721   4.797   4.628   3.414
 8274SOL    HW225722   4.805   4.677   3.258
 8275SOL     OW25723   4.234   1.160   6.033
 8275SOL    HW125724   4.333   1.179   6.038
 8275SOL    HW225725   4.209   1.141   5.938
 8276SOL     OW25726   1.014   2.219   3.873
 8276SOL    HW125727   1.059   2.224   3.784
 8276SOL    HW225728   1.065   2.157   3.933
 8277SOL     OW25729   0.232   0.407   6.794
 8277SOL    HW125730   0.294   0.471   6.839
 8277SOL    HW225731   0.146   0.454   6.773
 8278SOL     OW25732   2.658   1.850   6.235
 8278SOL    HW125733   2.664   1.756   6.202
 8278SOL    HW225734   2.596   1.902   6.177
 8279SOL     OW25735   1.187   0.173   4.197
 8279SOL    HW125736   1.175   0.272   4.193
 8279SOL    HW225737   1.260   0.151   4.262
 8280SOL     OW25738   2.427   2.927   0.379
 8280SOL    HW125739   2.377   3.000   0.426
 8280SOL    HW225740   2.432   2.847   0.438
 8281SOL     OW25741   1.507   5.006   1.298
 8281SOL    HW125742   1.512   4.982   1.201
 8281SOL    HW225743   1.552   5.094   1.313
 8282SOL     OW25744   5.321   3.625   6.638
 8282SOL    HW125745   5.371   3.686   6.578
 8282SOL    HW225746   5.377   3.545   6.659
 8283SOL     OW25747   1.222   4.564   6.311
 8283SOL    HW125748   1.152   4.596   6.247
 8283SOL    HW225749   1.267   4.482   6.275
 8284SOL     OW25750   0.899   3.863   1.471
 8284SOL    HW125751   0.938   3.809   1.546
 8284SOL    HW225752   0.938   3.832   1.384
 8285SOL     OW25753   3.763   3.131   5.009
 8285SOL    HW125754   3.702   3.119   4.931
 8285SOL    HW225755   3.807   3.221   5.004
 8286SOL     OW25756   5.093   3.475   6.698
 8286SOL    HW125757   5.147   3.399   6.736
 8286SOL    HW225758   5.153   3.553   6.680
 8287SOL     OW25759   2.189   5.144   4.181
 8287SOL    HW125760   2.205   5.145   4.280
 8287SOL    HW225761   2.261   5.196   4.135
 8288SOL     OW25762   2.905   1.783   1.687
 8288SOL    HW125763   2.921   1.797   1.785
 8288SOL    HW225764   2.812   1.748   1.674
 8289SOL     OW25765   0.411   6.644   1.546
 8289SOL    HW125766   0.454   6.656   1.636
 8289SOL    HW225767   0.469   6.684   1.475
 8290SOL     OW25768   6.091   0.864   0.607
 8290SOL    HW125769   6.055   0.918   0.531
 8290SOL    HW225770   6.189   0.882   0.617
 8291SOL     OW25771   4.614   5.827   6.503
 8291SOL    HW125772   4.615   5.916   6.548
 8291SOL    HW225773   4.554   5.764   6.553
 8292SOL     OW25774   2.734   6.448   6.840
 8292SOL    HW125775   2.760   6.403   6.754
 8292SOL    HW225776   2.653   6.504   6.824
 8293SOL     OW25777   3.153   6.952   0.205
 8293SOL    HW125778   3.182   0.031   0.222
 8293SOL    HW225779   3.231   6.890   0.212
 8294SOL     OW25780   5.880   4.554   5.256
 8294SOL    HW125781   5.928   4.498   5.188
 8294SOL    HW225782   5.936   4.560   5.338
 8295SOL     OW25783   5.555   5.259   1.959
 8295SOL    HW125784   5.616   5.180   1.971
 8295SOL    HW225785   5.473   5.231   1.910
 8296SOL     OW25786   2.567   6.895   6.444
 8296SOL    HW125787   2.615   6.889   6.531
 8296SOL    HW225788   2.478   6.939   6.457
 8297SOL     OW25789   6.799   2.907   2.379
 8297SOL    HW125790   6.731   2.881   2.447
 8297SOL    HW225791   6.887   2.862   2.400
 8298SOL     OW25792   6.123   2.266   1.332
 8298SOL    HW125793   6.220   2.244   1.344
 8298SOL    HW225794   6.073   2.246   1.416
 8299SOL     OW25795   6.925   2.709   1.827
 8299SOL    HW125796   6.880   2.798   1.826
 8299SOL    HW225797   0.009   2.722   1.827
 8300SOL     OW25798   1.034   5.620   5.512
 8300SOL    HW125799   1.083   5.554   5.455
 8300SOL    HW225800   1.018   5.704   5.461
 8301SOL     OW25801   4.165   1.867   1.664
 8301SOL    HW125802   4.114   1.952   1.646
 8301SOL    HW225803   4.101   1.791   1.671
 8302SOL     OW25804   5.616   5.889   6.352
 8302SOL    HW125805   5.521   5.880   6.323
 8302SOL    HW225806   5.676   5.850   6.282
 8303SOL     OW25807   6.895   0.740   3.766
 8303SOL    HW125808   6.806   0.711   3.733
 8303SOL    HW225809   6.937   0.803   3.701
 8304SOL     OW25810   1.349   2.967   6.874
 8304SOL    HW125811   1.376   2.986   6.968
 8304SOL    HW225812   1.423   2.994   6.812
 8305SOL     OW25813   3.964   4.954   4.267
 8305SOL    HW125814   3.926   4.938   4.176
 8305SOL    HW225815   4.055   4.994   4.259
 8306SOL     OW25816   0.397   2.953   5.085
 8306SOL    HW125817   0.314   2.904   5.059
 8306SOL    HW225818   0.467   2.941   5.014
 8307SOL     OW25819   4.233   5.203   1.473
 8307SOL    HW125820   4.222   5.273   1.402
 8307SOL    HW225821   4.237   5.113   1.431
 8308SOL     OW25822   4.237   6.126   1.316
 8308SOL    HW125823   4.178   6.071   1.258
 8308SOL    HW225824   4.293   6.186   1.258
 8309SOL     OW25825   6.299   5.706   3.392
 8309SOL    HW125826   6.385   5.696   3.342
 8309SOL    HW225827   6.286   5.803   3.415
 8310SOL     OW25828   1.144   3.961   0.621
 8310SOL    HW125829   1.222   3.921   0.572
 8310SOL    HW225830   1.164   4.057   0.642
 8311SOL     OW25831   0.342   1.041   5.024
 8311SOL    HW125832   0.418   1.068   5.083
 8311SOL    HW225833   0.378   0.989   4.946
 8312SOL     OW25834   4.217   5.957   1.556
 8312SOL    HW125835   4.222   6.022   1.480
 8312SOL    HW225836   4.158   5.994   1.628
 8313SOL     OW25837   4.665   1.023   2.116
 8313SOL    HW125838   4.635   1.117   2.107
 8313SOL    HW225839   4.754   1.012   2.070
 8314SOL     OW25840   4.544   6.733   1.600
 8314SOL    HW125841   4.500   6.715   1.512
 8314SOL    HW225842   4.538   6.830   1.621
 8315SOL     OW25843   3.914   3.633   1.069
 8315SOL    HW125844   3.829   3.631   1.121
 8315SOL    HW225845   3.981   3.690   1.116
 8316SOL     OW25846   1.179   2.601   1.644
 8316SOL    HW125847   1.139   2.511   1.626
 8316SOL    HW225848   1.124   2.649   1.712
 8317SOL     OW25849   2.219   2.934   2.137
 8317SOL    HW125850   2.189   2.971   2.049
 8317SOL    HW225851   2.208   3.004   2.208
 8318SOL     OW25852   4.172   1.717   4.675
 8318SOL    HW125853   4.079   1.685   4.692
 8318SOL    HW225854   4.169   1.798   4.617
 8319SOL     OW25855   3.403   1.731   6.725
 8319SOL    HW125856   3.320   1.775   6.758
 8319SOL    HW225857   3.452   1.792   6.663
 8320SOL     OW25858   3.670   4.727   1.337
 8320SOL    HW125859   3.599   4.793   1.316
 8320SOL    HW225860   3.689   4.728   1.436
 8321SOL     OW25861   6.929   1.411   6.933
 8321SOL    HW125862   7.004   1.346   6.919
 8321SOL    HW225863   6.871   1.413   6.852
 8322SOL     OW25864   0.279   0.116   0.125
 8322SOL    HW125865   0.227   0.105   0.040
 8322SOL    HW225866   0.275   0.031   0.178
 8323SOL     OW25867   6.653   6.526   2.869
 8323SOL    HW125868   6.616   6.437   2.898
 8323SOL    HW225869   6.577   6.586   2.843
 8324SOL     OW25870   6.279   0.531   1.841
 8324SOL    HW125871   6.319   0.515   1.751
 8324SOL    HW225872   6.329   0.604   1.888
 8325SOL     OW25873   3.304   3.227   4.878
 8325SOL    HW125874   3.289   3.249   4.782
 8325SOL    HW225875   3.268   3.136   4.898
 8326SOL     OW25876   4.533   3.181   5.384
 8326SOL    HW125877   4.513   3.175   5.482
 8326SOL    HW225878   4.497   3.267   5.348
 8327SOL     OW25879   5.190   2.740   6.083
 8327SOL    HW125880   5.246   2.728   6.165
 8327SOL    HW225881   5.145   2.830   6.087
 8328SOL     OW25882   2.594   4.179   6.278
 8328SOL    HW125883   2.627   4.207   6.188
 8328SOL    HW225884   2.660   4.115   6.319
 8329SOL     OW25885   0.056   3.816   6.238
 8329SOL    HW125886   0.117   3.761   6.181
 8329SOL    HW225887   0.017   3.758   6.310
 8330SOL     OW25888   1.989   6.903   0.764
 8330SOL    HW125889   2.066   6.882   0.823
 8330SOL    HW225890   1.908   6.854   0.795
 8331SOL     OW25891   2.764   0.991   1.094
 8331SOL    HW125892   2.763   1.068   1.158
 8331SOL    HW225893   2.791   1.023   1.003
 8332SOL     OW25894   4.887   4.895   2.576
 8332SOL    HW125895   4.945   4.816   2.597
 8332SOL    HW225896   4.929   4.947   2.501
 8333SOL     OW25897   0.677   6.335   6.584
 8333SOL    HW125898   0.646   6.251   6.540
 8333SOL    HW225899   0.702   6.315   6.679
 8334SOL     OW25900   4.757   1.654   3.744
 8334SOL    HW125901   4.782   1.694   3.656
 8334SOL    HW225902   4.831   1.667   3.810
 8335SOL     OW25903   6.363   5.152   5.480
 8335SOL    HW125904   6.311   5.211   5.542
 8335SOL    HW225905   6.431   5.101   5.532
 8336SOL     OW25906   0.375   0.334   1.557
 8336SOL    HW125907   0.302   0.380   1.507
 8336SOL    HW225908   0.335   0.273   1.626
 8337SOL     OW25909   0.706   6.461   2.983
 8337SOL    HW125910   0.698   6.363   2.998
 8337SOL    HW225911   0.802   6.487   2.978
 8338SOL     OW25912   1.621   5.063   2.124
 8338SOL    HW125913   1.535   5.031   2.085
 8338SOL    HW225914   1.688   4.989   2.119
 8339SOL     OW25915   5.635   0.526   1.390
 8339SOL    HW125916   5.592   0.449   1.437
 8339SOL    HW225917   5.571   0.565   1.324
 8340SOL     OW25918   4.971   4.084   0.832
 8340SOL    HW125919   4.920   4.022   0.773
 8340SOL    HW225920   5.057   4.041   0.859
 8341SOL     OW25921   2.720   6.378   0.091
 8341SOL    HW125922   2.711   6.398   7.008
 8341SOL    HW225923   2.644   6.420   0.140
 8342SOL     OW25924   3.770   0.849   1.458
 8342SOL    HW125925   3.787   0.946   1.440
 8342SOL    HW225926   3.694   0.818   1.402
 8343SOL     OW25927   0.958   4.925   6.559
 8343SOL    HW125928   0.992   4.832   6.577
 8343SOL    HW225929   0.915   4.927   6.469
 8344SOL     OW25930   4.680   0.222   5.556
 8344SOL    HW125931   4.625   0.139   5.547
 8344SOL    HW225932   4.655   0.286   5.483
 8345SOL     OW25933   5.323   2.267   3.369
 8345SOL    HW125934   5.226   2.251   3.351
 8345SOL    HW225935   5.337   2.362   3.397
 8346SOL     OW25936   3.023   4.793   0.221
 8346SOL    HW125937   2.964   4.839   0.287
 8346SOL    HW225938   3.054   4.858   0.152
 8347SOL     OW25939   3.402   0.008   4.737
 8347SOL    HW125940   3.354   6.940   4.766
 8347SOL    HW225941   3.439   7.010   4.645
 8348SOL     OW25942   1.384   6.910   1.611
 8348SOL    HW125943   1.368   7.000   1.570
 8348SOL    HW225944   1.432   6.852   1.544
 8349SOL     OW25945   6.421   5.215   1.346
 8349SOL    HW125946   6.385   5.227   1.438
 8349SOL    HW225947   6.361   5.155   1.294
 8350SOL     OW25948   4.476   1.142   4.421
 8350SOL    HW125949   4.539   1.153   4.345
 8350SOL    HW225950   4.493   1.055   4.467
 8351SOL     OW25951   4.767   5.142   4.553
 8351SOL    HW125952   4.750   5.236   4.582
 8351SOL    HW225953   4.819   5.094   4.624
 8352SOL     OW25954   6.861   6.919   2.011
 8352SOL    HW125955   6.772   6.892   1.974
 8352SOL    HW225956   6.899   6.844   2.066
 8353SOL     OW25957   5.711   3.858   2.041
 8353SOL    HW125958   5.686   3.946   1.999
 8353SOL    HW225959   5.693   3.785   1.976
 8354SOL     OW25960   3.352   0.905   6.729
 8354SOL    HW125961   3.291   0.880   6.803
 8354SOL    HW225962   3.440   0.861   6.741
 8355SOL     OW25963   3.297   0.516   6.815
 8355SOL    HW125964   3.318   0.577   6.891
 8355SOL    HW225965   3.241   0.564   6.748
 8356SOL     OW25966   1.495   6.691   0.430
 8356SOL    HW125967   1.405   6.694   0.388
 8356SOL    HW225968   1.529   6.597   0.431
 8357SOL     OW25969   3.572   6.620   5.960
 8357SOL    HW125970   3.592   6.682   6.035
 8357SOL    HW225971   3.519   6.668   5.890
 8358SOL     OW25972   1.321   2.666   4.931
 8358SOL    HW125973   1.250   2.599   4.955
 8358SOL    HW225974   1.279   2.740   4.878
 8359SOL     OW25975   3.291   6.005   4.393
 8359SOL    HW125976   3.291   6.087   4.336
 8359SOL    HW225977   3.343   5.933   4.348
 8360SOL     OW25978   3.031   6.230   2.213
 8360SOL    HW125979   3.075   6.310   2.256
 8360SOL    HW225980   3.064   6.147   2.257
 8361SOL     OW25981   1.921   0.743   1.863
 8361SOL    HW125982   1.861   0.799   1.807
 8361SOL    HW225983   2.001   0.796   1.890
 8362SOL     OW25984   2.267   2.294   0.659
 8362SOL    HW125985   2.293   2.200   0.639
 8362SOL    HW225986   2.304   2.322   0.747
 8363SOL     OW25987   0.675   2.542   6.935
 8363SOL    HW125988   0.664   2.638   6.910
 8363SOL    HW225989   0.614   2.520   7.012
 8364SOL     OW25990   6.884   3.388   3.590
 8364SOL    HW125991   6.863   3.386   3.493
 8364SOL    HW225992   6.876   3.482   3.624
 8365SOL     OW25993   1.577   4.083   1.548
 8365SOL    HW125994   1.493   4.041   1.514
 8365SOL    HW225995   1.607   4.035   1.631
 8366SOL     OW25996   3.870   5.697   2.584
 8366SOL    HW125997   3.863   5.788   2.544
 8366SOL    HW225998   3.879   5.629   2.511
 8367SOL     OW25999   3.877   6.051   4.044
 8367SOL    HW126000   3.964   6.085   4.080
 8367SOL    HW226001   3.811   6.126   4.042
 8368SOL     OW26002   2.803   6.354   6.066
 8368SOL    HW126003   2.898   6.381   6.078
 8368SOL    HW226004   2.799   6.259   6.035
 8369SOL     OW26005   1.999   0.610   7.003
 8369SOL    HW126006   2.053   0.694   7.010
 8369SOL    HW226007   1.946   0.612   6.918
 8370SOL     OW26008   3.123   2.145   5.834
 8370SOL    HW126009   3.182   2.139   5.754
 8370SOL    HW226010   3.144   2.070   5.897
 8371SOL     OW26011   1.689   4.380   0.830
 8371SOL    HW126012   1.640   4.415   0.750
 8371SOL    HW226013   1.623   4.358   0.903
 8372SOL     OW26014   0.609   6.218   3.079
 8372SOL    HW126015   0.536   6.261   3.131
 8372SOL    HW226016   0.588   6.223   2.981
 8373SOL     OW26017   0.805   0.568   5.041
 8373SOL    HW126018   0.894   0.522   5.039
 8373SOL    HW226019   0.781   0.598   4.949
 8374SOL     OW26020   6.461   0.455   6.511
 8374SOL    HW126021   6.443   0.360   6.485
 8374SOL    HW226022   6.419   0.516   6.444
 8375SOL     OW26023   3.200   6.527   5.733
 8375SOL    HW126024   3.163   6.468   5.805
 8375SOL    HW226025   3.232   6.469   5.657
 8376SOL     OW26026   2.211   6.725   4.194
 8376SOL    HW126027   2.283   6.762   4.253
 8376SOL    HW226028   2.242   6.724   4.099
 8377SOL     OW26029   5.533   5.964   1.508
 8377SOL    HW126030   5.460   5.908   1.469
 8377SOL    HW226031   5.504   6.001   1.596
 8378SOL     OW26032   4.491   4.527   2.985
 8378SOL    HW126033   4.559   4.591   2.948
 8378SOL    HW226034   4.537   4.444   3.016
 8379SOL     OW26035   6.930   2.844   0.781
 8379SOL    HW126036   6.999   2.792   0.831
 8379SOL    HW226037   6.843   2.795   0.785
 8380SOL     OW26038   6.778   1.386   2.231
 8380SOL    HW126039   6.748   1.414   2.322
 8380SOL    HW226040   6.789   1.286   2.229
 8381SOL     OW26041   0.598   4.093   4.939
 8381SOL    HW126042   0.573   3.996   4.932
 8381SOL    HW226043   0.628   4.126   4.849
 8382SOL     OW26044   1.113   1.477   2.206
 8382SOL    HW126045   1.197   1.431   2.234
 8382SOL    HW226046   1.109   1.568   2.248
 8383SOL     OW26047   2.273   0.961   6.291
 8383SOL    HW126048   2.315   0.900   6.358
 8383SOL    HW226049   2.330   1.043   6.280
 8384SOL     OW26050   0.262   6.908   0.293
 8384SOL    HW126051   0.272   6.812   0.268
 8384SOL    HW226052   0.210   6.914   0.379
 8385SOL     OW26053   5.870   2.864   1.495
 8385SOL    HW126054   5.948   2.925   1.507
 8385SOL    HW226055   5.807   2.904   1.428
 8386SOL     OW26056   1.081   3.974   2.424
 8386SOL    HW126057   1.018   4.039   2.467
 8386SOL    HW226058   1.030   3.917   2.359
 8387SOL     OW26059   0.895   1.563   1.038
 8387SOL    HW126060   0.965   1.534   0.972
 8387SOL    HW226061   0.940   1.605   1.117
 8388SOL     OW26062   1.652   6.236   0.722
 8388SOL    HW126063   1.698   6.244   0.633
 8388SOL    HW226064   1.563   6.279   0.717
 8389SOL     OW26065   5.632   3.547   2.391
 8389SOL    HW126066   5.694   3.545   2.469
 8389SOL    HW226067   5.665   3.484   2.320
 8390SOL     OW26068   3.809   1.587   6.385
 8390SOL    HW126069   3.769   1.676   6.409
 8390SOL    HW226070   3.849   1.593   6.293
 8391SOL     OW26071   6.022   6.171   0.449
 8391SOL    HW126072   6.117   6.168   0.419
 8391SOL    HW226073   6.009   6.107   0.525
 8392SOL     OW26074   5.866   3.595   3.830
 8392SOL    HW126075   5.841   3.533   3.905
 8392SOL    HW226076   5.846   3.550   3.743
 8393SOL     OW26077   5.834   0.867   2.594
 8393SOL    HW126078   5.894   0.914   2.658
 8393SOL    HW226079   5.830   0.918   2.508
 8394SOL     OW26080   5.883   2.888   2.069
 8394SOL    HW126081   5.946   2.953   2.112
 8394SOL    HW226082   5.924   2.852   1.985
 8395SOL     OW26083   3.135   6.817   5.809
 8395SOL    HW126084   3.122   6.861   5.720
 8395SOL    HW226085   3.157   6.721   5.795
 8396SOL     OW26086   4.517   4.850   3.309
 8396SOL    HW126087   4.538   4.907   3.229
 8396SOL    HW226088   4.571   4.766   3.305
 8397SOL     OW26089   0.759   0.943   3.769
 8397SOL    HW126090   0.717   1.001   3.839
 8397SOL    HW226091   0.809   0.869   3.814
 8398SOL     OW26092   5.071   2.110   6.649
 8398SOL    HW126093   5.143   2.138   6.713
 8398SOL    HW226094   5.112   2.092   6.559
 8399SOL     OW26095   6.109   6.432   6.691
 8399SOL    HW126096   6.189   6.464   6.741
 8399SOL    HW226097   6.048   6.510   6.671
 8400SOL     OW26098   1.516   2.400   4.201
 8400SOL    HW126099   1.464   2.413   4.116
 8400SOL    HW226100   1.609   2.370   4.179
 8401SOL     OW26101   2.041   1.104   5.559
 8401SOL    HW126102   2.102   1.040   5.605
 8401SOL    HW226103   2.068   1.198   5.582
 8402SOL     OW26104   5.367   1.502   5.852
 8402SOL    HW126105   5.319   1.589   5.867
 8402SOL    HW226106   5.443   1.516   5.789
 8403SOL     OW26107   0.897   3.869   4.644
 8403SOL    HW126108   0.938   3.778   4.637
 8403SOL    HW226109   0.893   3.911   4.552
 8404SOL     OW26110   3.296   0.514   5.791
 8404SOL    HW126111   3.375   0.479   5.740
 8404SOL    HW226112   3.295   0.474   5.882
 8405SOL     OW26113   3.559   1.582   6.135
 8405SOL    HW126114   3.589   1.661   6.080
 8405SOL    HW226115   3.503   1.614   6.211
 8406SOL     OW26116   3.937   0.057   0.653
 8406SOL    HW126117   3.947   0.040   0.751
 8406SOL    HW226118   3.947   0.155   0.634
 8407SOL     OW26119   4.565   6.419   3.424
 8407SOL    HW126120   4.650   6.420   3.370
 8407SOL    HW226121   4.571   6.487   3.496
 8408SOL     OW26122   5.209   5.638   0.267
 8408SOL    HW126123   5.144   5.562   0.268
 8408SOL    HW226124   5.232   5.662   0.173
 8409SOL     OW26125   4.875   2.282   1.859
 8409SOL    HW126126   4.881   2.184   1.838
 8409SOL    HW226127   4.820   2.328   1.790
 8410SOL     OW26128   6.014   2.248   1.612
 8410SOL    HW126129   5.969   2.208   1.693
 8410SOL    HW226130   5.952   2.314   1.569
 8411SOL     OW26131   0.513   6.178   0.867
 8411SOL    HW126132   0.587   6.209   0.808
 8411SOL    HW226133   0.429   6.170   0.814
 8412SOL     OW26134   4.168   2.936   0.983
 8412SOL    HW126135   4.213   2.856   1.024
 8412SOL    HW226136   4.086   2.906   0.934
 8413SOL     OW26137   4.245   5.481   6.189
 8413SOL    HW126138   4.284   5.560   6.237
 8413SOL    HW226139   4.195   5.424   6.254
 8414SOL     OW26140   2.160   1.165   2.236
 8414SOL    HW126141   2.063   1.188   2.249
 8414SOL    HW226142   2.197   1.129   2.321
 8415SOL     OW26143   2.493   6.536   4.219
 8415SOL    HW126144   2.408   6.496   4.184
 8415SOL    HW226145   2.477   6.631   4.244
 8416SOL     OW26146   6.423   1.648   4.840
 8416SOL    HW126147   6.387   1.647   4.746
 8416SOL    HW226148   6.444   1.555   4.869
 8417SOL     OW26149   2.036   3.213   5.410
 8417SOL    HW126150   2.115   3.231   5.352
 8417SOL    HW226151   2.025   3.287   5.476
 8418SOL     OW26152   0.327   5.744   2.061
 8418SOL    HW126153   0.289   5.744   2.154
 8418SOL    HW226154   0.426   5.755   2.065
 8419SOL     OW26155   6.145   1.528   3.275
 8419SOL    HW126156   6.159   1.570   3.185
 8419SOL    HW226157   6.068   1.573   3.321
 8420SOL     OW26158   3.182   6.635   2.226
 8420SOL    HW126159   3.269   6.673   2.258
 8420SOL    HW226160   3.169   6.655   2.129
 8421SOL     OW26161   3.064   5.410   7.006
 8421SOL    HW126162   3.095   5.361   6.924
 8421SOL    HW226163   2.971   5.381   0.013
 8422SOL     OW26164   4.454   2.391   2.443
 8422SOL    HW126165   4.490   2.301   2.420
 8422SOL    HW226166   4.471   2.454   2.367
 8423SOL     OW26167   4.417   4.175   5.496
 8423SOL    HW126168   4.481   4.165   5.572
 8423SOL    HW226169   4.466   4.168   5.409
 8424SOL     OW26170   2.100   1.640   3.597
 8424SOL    HW126171   2.168   1.704   3.634
 8424SOL    HW226172   2.146   1.554   3.575
 8425SOL     OW26173   3.824   3.726   4.154
 8425SOL    HW126174   3.776   3.700   4.071
 8425SOL    HW226175   3.846   3.823   4.151
 8426SOL     OW26176   3.689   3.352   2.549
 8426SOL    HW126177   3.679   3.451   2.554
 8426SOL    HW226178   3.639   3.317   2.470
 8427SOL     OW26179   3.207   3.594   3.302
 8427SOL    HW126180   3.117   3.565   3.336
 8427SOL    HW226181   3.203   3.605   3.203
 8428SOL     OW26182   0.497   6.744   1.301
 8428SOL    HW126183   0.407   6.734   1.259
 8428SOL    HW226184   0.539   6.829   1.270
 8429SOL     OW26185   1.792   5.226   5.968
 8429SOL    HW126186   1.724   5.251   5.899
 8429SOL    HW226187   1.748   5.214   6.056
 8430SOL     OW26188   3.848   4.897   4.015
 8430SOL    HW126189   3.925   4.874   3.956
 8430SOL    HW226190   3.772   4.931   3.960
 8431SOL     OW26191   3.224   4.081   6.955
 8431SOL    HW126192   3.210   4.180   6.946
 8431SOL    HW226193   3.244   4.058   0.035
 8432SOL     OW26194   0.192   5.130   5.637
 8432SOL    HW126195   0.178   5.065   5.563
 8432SOL    HW226196   0.127   5.206   5.628
 8433SOL     OW26197   4.308   2.715   1.037
 8433SOL    HW126198   4.267   2.624   1.027
 8433SOL    HW226199   4.405   2.711   1.013
 8434SOL     OW26200   2.192   5.732   4.276
 8434SOL    HW126201   2.131   5.810   4.288
 8434SOL    HW226202   2.287   5.761   4.281
 8435SOL     OW26203   5.195   0.539   3.081
 8435SOL    HW126204   5.108   0.506   3.119
 8435SOL    HW226205   5.207   0.504   2.988
 8436SOL     OW26206   2.685   6.069   3.852
 8436SOL    HW126207   2.775   6.100   3.883
 8436SOL    HW226208   2.696   5.992   3.789
 8437SOL     OW26209   1.875   2.451   2.536
 8437SOL    HW126210   1.784   2.421   2.508
 8437SOL    HW226211   1.870   2.496   2.625
 8438SOL     OW26212   2.220   3.973   3.179
 8438SOL    HW126213   2.133   4.016   3.205
 8438SOL    HW226214   2.250   4.011   3.091
 8439SOL     OW26215   6.426   5.254   3.279
 8439SOL    HW126216   6.389   5.340   3.247
 8439SOL    HW226217   6.489   5.217   3.210
 8440SOL     OW26218   2.241   1.871   3.653
 8440SOL    HW126219   2.275   1.881   3.746
 8440SOL    HW226220   2.318   1.855   3.591
 8441SOL     OW26221   5.370   5.658   5.904
 8441SOL    HW126222   5.276   5.629   5.921
 8441SOL    HW226223   5.418   5.587   5.851
 8442SOL     OW26224   3.670   0.607   5.123
 8442SOL    HW126225   3.758   0.619   5.077
 8442SOL    HW226226   3.683   0.613   5.222
 8443SOL     OW26227   2.140   4.910   3.624
 8443SOL    HW126228   2.216   4.873   3.570
 8443SOL    HW226229   2.098   4.837   3.676
 8444SOL     OW26230   3.289   6.602   3.634
 8444SOL    HW126231   3.220   6.609   3.562
 8444SOL    HW226232   3.375   6.641   3.602
 8445SOL     OW26233   2.664   0.580   0.510
 8445SOL    HW126234   2.666   0.658   0.573
 8445SOL    HW226235   2.748   0.579   0.455
 8446SOL     OW26236   6.762   6.101   4.980
 8446SOL    HW126237   6.780   6.073   5.075
 8446SOL    HW226238   6.821   6.177   4.955
 8447SOL     OW26239   3.625   1.556   1.906
 8447SOL    HW126240   3.632   1.461   1.937
 8447SOL    HW226241   3.529   1.577   1.886
 8448SOL     OW26242   4.778   6.154   3.722
 8448SOL    HW126243   4.829   6.095   3.784
 8448SOL    HW226244   4.783   6.117   3.629
 8449SOL     OW26245   0.626   3.370   3.892
 8449SOL    HW126246   0.586   3.299   3.835
 8449SOL    HW226247   0.659   3.445   3.835
 8450SOL     OW26248   0.197   0.590   1.047
 8450SOL    HW126249   0.265   0.518   1.055
 8450SOL    HW226250   0.106   0.552   1.059
 8451SOL     OW26251   3.025   1.196   0.506
 8451SOL    HW126252   2.945   1.137   0.493
 8451SOL    HW226253   3.012   1.282   0.456
 8452SOL     OW26254   4.687   2.368   4.178
 8452SOL    HW126255   4.627   2.439   4.215
 8452SOL    HW226256   4.722   2.396   4.089
 8453SOL     OW26257   0.353   5.322   6.842
 8453SOL    HW126258   0.368   5.249   6.775
 8453SOL    HW226259   0.302   5.286   6.920
 8454SOL     OW26260   0.556   4.748   0.106
 8454SOL    HW126261   0.528   4.794   0.190
 8454SOL    HW226262   0.565   4.815   0.032
 8455SOL     OW26263   0.066   1.478   3.054
 8455SOL    HW126264   0.034   1.558   3.106
 8455SOL    HW226265   7.011   1.407   3.055
 8456SOL     OW26266   4.630   0.772   3.548
 8456SOL    HW126267   4.713   0.786   3.602
 8456SOL    HW226268   4.653   0.776   3.451
 8457SOL     OW26269   6.576   6.342   4.666
 8457SOL    HW126270   6.559   6.371   4.760
 8457SOL    HW226271   6.674   6.327   4.653
 8458SOL     OW26272   1.116   0.417   0.626
 8458SOL    HW126273   1.032   0.411   0.681
 8458SOL    HW226274   1.195   0.419   0.687
 8459SOL     OW26275   1.917   5.897   3.257
 8459SOL    HW126276   1.902   5.823   3.322
 8459SOL    HW226277   1.828   5.932   3.226
 8460SOL     OW26278   4.358   3.695   5.333
 8460SOL    HW126279   4.288   3.764   5.352
 8460SOL    HW226280   4.443   3.720   5.379
 8461SOL     OW26281   0.610   2.356   5.618
 8461SOL    HW126282   0.707   2.351   5.642
 8461SOL    HW226283   0.600   2.365   5.519
 8462SOL     OW26284   3.332   1.976   1.056
 8462SOL    HW126285   3.258   1.978   1.123
 8462SOL    HW226286   3.335   1.886   1.012
 8463SOL     OW26287   6.525   0.070   1.697
 8463SOL    HW126288   6.458   7.011   1.693
 8463SOL    HW226289   6.509   0.134   1.621
 8464SOL     OW26290   5.599   3.841   4.375
 8464SOL    HW126291   5.556   3.807   4.291
 8464SOL    HW226292   5.595   3.941   4.377
 8465SOL     OW26293   1.572   2.025   0.571
 8465SOL    HW126294   1.601   1.930   0.556
 8465SOL    HW226295   1.646   2.087   0.544
 8466SOL     OW26296   1.253   5.895   3.814
 8466SOL    HW126297   1.231   5.830   3.887
 8466SOL    HW226298   1.238   5.851   3.725
 8467SOL     OW26299   2.973   5.965   0.685
 8467SOL    HW126300   2.911   5.915   0.624
 8467SOL    HW226301   3.054   5.910   0.702
 8468SOL     OW26302   3.739   2.076   0.759
 8468SOL    HW126303   3.758   1.978   0.760
 8468SOL    HW226304   3.717   2.107   0.851
 8469SOL     OW26305   3.147   3.347   6.492
 8469SOL    HW126306   3.159   3.397   6.578
 8469SOL    HW226307   3.191   3.397   6.418
 8470SOL     OW26308   2.046   2.707   1.563
 8470SOL    HW126309   2.144   2.686   1.557
 8470SOL    HW226310   2.027   2.752   1.651
 8471SOL     OW26311   2.652   0.434   3.616
 8471SOL    HW126312   2.681   0.364   3.682
 8471SOL    HW226313   2.592   0.392   3.548
 8472SOL     OW26314   0.451   6.869   4.614
 8472SOL    HW126315   0.405   6.945   4.567
 8472SOL    HW226316   0.500   6.813   4.547
 8473SOL     OW26317   0.147   5.806   6.857
 8473SOL    HW126318   0.143   5.880   6.789
 8473SOL    HW226319   0.191   5.726   6.816
 8474SOL     OW26320   3.115   3.110   1.845
 8474SOL    HW126321   3.178   3.069   1.911
 8474SOL    HW226322   3.141   3.205   1.828
 8475SOL     OW26323   6.357   1.775   2.532
 8475SOL    HW126324   6.372   1.850   2.597
 8475SOL    HW226325   6.274   1.793   2.479
 8476SOL     OW26326   6.337   6.882   1.706
 8476SOL    HW126327   6.268   6.939   1.751
 8476SOL    HW226328   6.321   6.786   1.730
 8477SOL     OW26329   2.775   6.585   1.106
 8477SOL    HW126330   2.783   6.487   1.120
 8477SOL    HW226331   2.776   6.606   1.009
 8478SOL     OW26332   1.842   0.687   5.714
 8478SOL    HW126333   1.803   0.702   5.805
 8478SOL    HW226334   1.915   0.620   5.721
 8479SOL     OW26335   6.083   0.781   0.239
 8479SOL    HW126336   6.081   0.781   0.139
 8479SOL    HW226337   6.177   0.790   0.270
 8480SOL     OW26338   3.318   1.432   1.440
 8480SOL    HW126339   3.354   1.426   1.533
 8480SOL    HW226340   3.235   1.488   1.440
 8481SOL     OW26341   3.984   1.265   4.339
 8481SOL    HW126342   4.017   1.290   4.430
 8481SOL    HW226343   4.060   1.227   4.286
 8482SOL     OW26344   2.075   0.254   2.013
 8482SOL    HW126345   2.075   0.175   1.952
 8482SOL    HW226346   2.043   0.335   1.963
 8483SOL     OW26347   3.348   5.608   2.896
 8483SOL    HW126348   3.392   5.531   2.851
 8483SOL    HW226349   3.256   5.620   2.858
 8484SOL     OW26350   0.045   4.854   3.096
 8484SOL    HW126351   7.009   4.816   3.019
 8484SOL    HW226352   0.134   4.887   3.064
 8485SOL     OW26353   1.973   3.643   0.379
 8485SOL    HW126354   2.056   3.656   0.434
 8485SOL    HW226355   1.997   3.644   0.282
 8486SOL     OW26356   5.250   1.177   2.793
 8486SOL    HW126357   5.187   1.181   2.715
 8486SOL    HW226358   5.288   1.085   2.800
 8487SOL     OW26359   5.145   0.142   0.908
 8487SOL    HW126360   5.128   0.162   0.811
 8487SOL    HW226361   5.059   0.118   0.952
 8488SOL     OW26362   5.767   5.618   4.784
 8488SOL    HW126363   5.690   5.628   4.848
 8488SOL    HW226364   5.736   5.567   4.704
 8489SOL     OW26365   5.861   5.476   1.237
 8489SOL    HW126366   5.847   5.441   1.329
 8489SOL    HW226367   5.814   5.564   1.227
 8490SOL     OW26368   4.751   5.676   3.509
 8490SOL    HW126369   4.691   5.608   3.467
 8490SOL    HW226370   4.735   5.765   3.465
 8491SOL     OW26371   2.519   0.546   1.709
 8491SOL    HW126372   2.467   0.471   1.749
 8491SOL    HW226373   2.590   0.510   1.649
 8492SOL     OW26374   5.023   3.704   5.448
 8492SOL    HW126375   5.107   3.757   5.450
 8492SOL    HW226376   4.967   3.732   5.369
 8493SOL     OW26377   3.281   1.656   0.449
 8493SOL    HW126378   3.195   1.669   0.401
 8493SOL    HW226379   3.281   1.567   0.495
 8494SOL     OW26380   2.032   4.736   6.698
 8494SOL    HW126381   2.079   4.785   6.624
 8494SOL    HW226382   1.954   4.686   6.660
 8495SOL     OW26383   0.027   3.262   1.035
 8495SOL    HW126384   6.984   3.294   1.110
 8495SOL    HW226385   0.063   3.340   0.984
 8496SOL     OW26386   0.762   1.577   3.346
 8496SOL    HW126387   0.804   1.488   3.330
 8496SOL    HW226388   0.665   1.565   3.364
 8497SOL     OW26389   5.378   5.890   4.214
 8497SOL    HW126390   5.342   5.954   4.282
 8497SOL    HW226391   5.398   5.803   4.258
 8498SOL     OW26392   0.149   6.536   1.509
 8498SOL    HW126393   0.070   6.589   1.539
 8498SOL    HW226394   0.233   6.584   1.537
 8499SOL     OW26395   2.418   4.993   6.488
 8499SOL    HW126396   2.450   4.944   6.569
 8499SOL    HW226397   2.440   4.939   6.407
 8500SOL     OW26398   2.408   7.008   5.467
 8500SOL    HW126399   2.449   0.061   5.406
 8500SOL    HW226400   2.480   6.946   5.499
 8501SOL     OW26401   1.496   2.607   6.707
 8501SOL    HW126402   1.494   2.674   6.781
 8501SOL    HW226403   1.591   2.590   6.681
 8502SOL     OW26404   0.845   5.059   1.279
 8502SOL    HW126405   0.843   5.077   1.377
 8502SOL    HW226406   0.887   4.969   1.263
 8503SOL     OW26407   0.802   5.221   3.356
 8503SOL    HW126408   0.859   5.152   3.400
 8503SOL    HW226409   0.853   5.307   3.347
 8504SOL     OW26410   1.475   6.162   3.460
 8504SOL    HW126411   1.548   6.218   3.421
 8504SOL    HW226412   1.487   6.067   3.430
 8505SOL     OW26413   5.029   4.160   3.734
 8505SOL    HW126414   4.973   4.085   3.700
 8505SOL    HW226415   4.972   4.221   3.790
 8506SOL     OW26416   1.038   6.685   0.159
 8506SOL    HW126417   1.061   6.653   0.067
 8506SOL    HW226418   0.948   6.649   0.185
 8507SOL     OW26419   2.551   0.872   5.475
 8507SOL    HW126420   2.621   0.897   5.409
 8507SOL    HW226421   2.492   0.951   5.493
 8508SOL     OW26422   6.245   2.994   4.850
 8508SOL    HW126423   6.228   3.084   4.810
 8508SOL    HW226424   6.247   3.001   4.949
 8509SOL     OW26425   6.023   1.339   4.439
 8509SOL    HW126426   6.018   1.363   4.536
 8509SOL    HW226427   5.972   1.406   4.385
 8510SOL     OW26428   6.526   5.729   3.251
 8510SOL    HW126429   6.580   5.690   3.177
 8510SOL    HW226430   6.588   5.764   3.322
 8511SOL     OW26431   5.560   4.195   1.671
 8511SOL    HW126432   5.530   4.288   1.695
 8511SOL    HW226433   5.498   4.157   1.603
 8512SOL     OW26434   4.026   2.213   0.354
 8512SOL    HW126435   4.046   2.280   0.426
 8512SOL    HW226436   4.060   2.123   0.382
 8513SOL     OW26437   5.035   3.749   1.195
 8513SOL    HW126438   5.041   3.724   1.291
 8513SOL    HW226439   5.019   3.667   1.140
 8514SOL     OW26440   2.492   2.495   3.667
 8514SOL    HW126441   2.577   2.459   3.628
 8514SOL    HW226442   2.414   2.445   3.628
 8515SOL     OW26443   0.140   1.237   6.992
 8515SOL    HW126444   0.175   1.295   0.050
 8515SOL    HW226445   0.080   1.167   0.015
 8516SOL     OW26446   6.054   2.929   2.438
 8516SOL    HW126447   5.982   2.993   2.411
 8516SOL    HW226448   6.140   2.957   2.395
 8517SOL     OW26449   2.271   2.528   5.607
 8517SOL    HW126450   2.173   2.517   5.619
 8517SOL    HW226451   2.290   2.560   5.514
 8518SOL     OW26452   4.826   4.295   5.933
 8518SOL    HW126453   4.904   4.232   5.928
 8518SOL    HW226454   4.806   4.330   5.841
 8519SOL     OW26455   0.682   4.425   0.397
 8519SOL    HW126456   0.601   4.482   0.383
 8519SOL    HW226457   0.759   4.482   0.424
 8520SOL     OW26458   3.191   3.387   5.105
 8520SOL    HW126459   3.257   3.342   5.165
 8520SOL    HW226460   3.227   3.389   5.012
 8521SOL     OW26461   2.120   6.625   5.592
 8521SOL    HW126462   2.204   6.572   5.575
 8521SOL    HW226463   2.137   6.721   5.570
 8522SOL     OW26464   0.780   0.324   1.031
 8522SOL    HW126465   0.779   0.270   1.115
 8522SOL    HW226466   0.709   0.290   0.969
 8523SOL     OW26467   2.878   6.984   6.871
 8523SOL    HW126468   2.801   6.953   6.927
 8523SOL    HW226469   2.850   0.049   6.818
 8524SOL     OW26470   1.627   4.533   4.731
 8524SOL    HW126471   1.542   4.584   4.719
 8524SOL    HW226472   1.621   4.446   4.682
 8525SOL     OW26473   5.790   4.995   1.377
 8525SOL    HW126474   5.782   4.902   1.341
 8525SOL    HW226475   5.832   4.993   1.467
 8526SOL     OW26476   3.133   6.489   0.561
 8526SOL    HW126477   3.096   6.399   0.580
 8526SOL    HW226478   3.142   6.502   0.463
 8527SOL     OW26479   3.583   0.982   0.019
 8527SOL    HW126480   3.492   1.010   7.003
 8527SOL    HW226481   3.575   0.934   0.106
 8528SOL     OW26482   4.498   1.793   1.043
 8528SOL    HW126483   4.403   1.764   1.059
 8528SOL    HW226484   4.506   1.827   0.949
 8529SOL     OW26485   1.281   6.863   6.581
 8529SOL    HW126486   1.200   6.808   6.562
 8529SOL    HW226487   1.341   6.863   6.501
 8530SOL     OW26488   3.464   4.028   4.608
 8530SOL    HW126489   3.377   4.040   4.559
 8530SOL    HW226490   3.481   3.930   4.620
 8531SOL     OW26491   6.925   5.612   2.718
 8531SOL    HW126492   7.011   5.634   2.672
 8531SOL    HW226493   6.885   5.531   2.677
 8532SOL     OW26494   3.971   6.768   4.388
 8532SOL    HW126495   4.047   6.731   4.334
 8532SOL    HW226496   3.889   6.771   4.332
 8533SOL     OW26497   1.335   5.909   6.940
 8533SOL    HW126498   1.356   5.910   6.842
 8533SOL    HW226499   1.418   5.930   6.992
 8534SOL     OW26500   4.460   2.482   3.657
 8534SOL    HW126501   4.511   2.482   3.571
 8534SOL    HW226502   4.380   2.422   3.649
 8535SOL     OW26503   5.656   1.350   4.252
 8535SOL    HW126504   5.730   1.411   4.279
 8535SOL    HW226505   5.693   1.276   4.195
 8536SOL     OW26506   1.196   2.337   5.031
 8536SOL    HW126507   1.197   2.286   4.945
 8536SOL    HW226508   1.114   2.394   5.035
 8537SOL     OW26509   5.868   1.603   3.362
 8537SOL    HW126510   5.802   1.548   3.412
 8537SOL    HW226511   5.839   1.611   3.266
 8538SOL     OW26512   1.794   1.607   0.015
 8538SOL    HW126513   1.755   1.521   6.998
 8538SOL    HW226514   1.850   1.648   6.958
 8539SOL     OW26515   6.587   1.683   2.350
 8539SOL    HW126516   6.663   1.642   2.401
 8539SOL    HW226517   6.522   1.723   2.415
 8540SOL     OW26518   5.473   0.492   6.779
 8540SOL    HW126519   5.472   0.396   6.752
 8540SOL    HW226520   5.566   0.528   6.770
 8541SOL     OW26521   3.301   1.766   3.454
 8541SOL    HW126522   3.357   1.787   3.373
 8541SOL    HW226523   3.361   1.744   3.531
 8542SOL     OW26524   3.299   4.254   6.436
 8542SOL    HW126525   3.288   4.307   6.520
 8542SOL    HW226526   3.308   4.317   6.358
 8543SOL     OW26527   1.698   1.541   1.038
 8543SOL    HW126528   1.690   1.626   1.090
 8543SOL    HW226529   1.670   1.557   0.943
 8544SOL     OW26530   5.619   2.881   4.032
 8544SOL    HW126531   5.667   2.795   4.015
 8544SOL    HW226532   5.685   2.954   4.048
 8545SOL     OW26533   4.496   6.724   6.098
 8545SOL    HW126534   4.474   6.775   6.181
 8545SOL    HW226535   4.594   6.707   6.095
 8546SOL     OW26536   6.199   2.250   3.826
 8546SOL    HW126537   6.195   2.222   3.922
 8546SOL    HW226538   6.113   2.225   3.781
 8547SOL     OW26539   1.408   6.023   6.362
 8547SOL    HW126540   1.334   6.077   6.402
 8547SOL    HW226541   1.430   5.946   6.423
 8548SOL     OW26542   5.965   2.304   4.655
 8548SOL    HW126543   5.968   2.403   4.665
 8548SOL    HW226544   5.892   2.266   4.712
 8549SOL     OW26545   0.292   3.509   4.586
 8549SOL    HW126546   0.374   3.568   4.583
 8549SOL    HW226547   0.223   3.546   4.524
 8550SOL     OW26548   1.926   4.833   0.126
 8550SOL    HW126549   2.015   4.847   0.083
 8550SOL    HW226550   1.859   4.893   0.083
 8551SOL     OW26551   3.476   4.360   6.641
 8551SOL    HW126552   3.472   4.443   6.587
 8551SOL    HW226553   3.497   4.383   6.736
 8552SOL     OW26554   2.997   5.964   3.756
 8552SOL    HW126555   2.996   6.057   3.792
 8552SOL    HW226556   2.904   5.933   3.739
 8553SOL     OW26557   5.215   5.731   0.012
 8553SOL    HW126558   5.171   5.819   0.028
 8553SOL    HW226559   5.204   5.704   6.931
 8554SOL     OW26560   0.464   4.872   0.341
 8554SOL    HW126561   0.442   4.854   0.437
 8554SOL    HW226562   0.422   4.957   0.313
 8555SOL     OW26563   1.110   0.694   3.120
 8555SOL    HW126564   1.181   0.730   3.059
 8555SOL    HW226565   1.153   0.657   3.203
 8556SOL     OW26566   0.499   0.189   2.858
 8556SOL    HW126567   0.506   0.147   2.949
 8556SOL    HW226568   0.447   0.274   2.865
 8557SOL     OW26569   6.414   0.476   1.628
 8557SOL    HW126570   6.488   0.526   1.673
 8557SOL    HW226571   6.435   0.466   1.531
 8558SOL     OW26572   2.399   5.305   3.022
 8558SOL    HW126573   2.427   5.234   3.087
 8558SOL    HW226574   2.468   5.377   3.021
 8559SOL     OW26575   0.377   0.573   2.404
 8559SOL    HW126576   0.306   0.597   2.471
 8559SOL    HW226577   0.401   0.654   2.350
 8560SOL     OW26578   6.864   0.091   0.952
 8560SOL    HW126579   6.840   0.012   0.896
 8560SOL    HW226580   6.804   0.168   0.931
 8561SOL     OW26581   4.059   5.818   2.390
 8561SOL    HW126582   4.110   5.882   2.333
 8561SOL    HW226583   4.053   5.854   2.483
 8562SOL     OW26584   5.426   6.447   4.699
 8562SOL    HW126585   5.341   6.395   4.709
 8562SOL    HW226586   5.494   6.412   4.763
 8563SOL     OW26587   2.882   3.155   6.747
 8563SOL    HW126588   2.831   3.140   6.832
 8563SOL    HW226589   2.824   3.203   6.682
 8564SOL     OW26590   1.647   0.775   3.395
 8564SOL    HW126591   1.599   0.853   3.354
 8564SOL    HW226592   1.677   0.713   3.323
 8565SOL     OW26593   4.050   7.001   1.610
 8565SOL    HW126594   3.979   0.019   1.672
 8565SOL    HW226595   4.011   6.986   1.519
 8566SOL     OW26596   1.137   1.354   2.599
 8566SOL    HW126597   1.170   1.393   2.685
 8566SOL    HW226598   1.041   1.328   2.609
 8567SOL     OW26599   6.675   1.534   1.229
 8567SOL    HW126600   6.632   1.513   1.317
 8567SOL    HW226601   6.774   1.524   1.237
 8568SOL     OW26602   4.897   1.564   0.033
 8568SOL    HW126603   4.840   1.508   6.987
 8568SOL    HW226604   4.963   1.506   0.080
 8569SOL     OW26605   4.687   1.756   5.739
 8569SOL    HW126606   4.773   1.716   5.770
 8569SOL    HW226607   4.677   1.744   5.640
 8570SOL     OW26608   1.049   3.651   5.871
 8570SOL    HW126609   1.127   3.589   5.877
 8570SOL    HW226610   1.057   3.706   5.788
 8571SOL     OW26611   0.312   5.489   5.518
 8571SOL    HW126612   0.248   5.421   5.482
 8571SOL    HW226613   0.387   5.442   5.566
 8572SOL     OW26614   2.417   5.412   5.790
 8572SOL    HW126615   2.371   5.369   5.711
 8572SOL    HW226616   2.358   5.405   5.870
 8573SOL     OW26617   4.043   6.161   6.598
 8573SOL    HW126618   3.949   6.132   6.613
 8573SOL    HW226619   4.093   6.160   6.685
 8574SOL     OW26620   0.849   4.719   5.702
 8574SOL    HW126621   0.942   4.686   5.710
 8574SOL    HW226622   0.836   4.763   5.613
 8575SOL     OW26623   2.495   2.449   6.851
 8575SOL    HW126624   2.575   2.509   6.855
 8575SOL    HW226625   2.519   2.360   6.888
 8576SOL     OW26626   0.517   0.078   1.413
 8576SOL    HW126627   0.550   0.021   1.338
 8576SOL    HW226628   0.446   0.029   1.463
 8577SOL     OW26629   6.197   5.242   4.266
 8577SOL    HW126630   6.235   5.323   4.312
 8577SOL    HW226631   6.223   5.244   4.169
 8578SOL     OW26632   4.583   0.340   4.459
 8578SOL    HW126633   4.563   0.243   4.471
 8578SOL    HW226634   4.510   0.394   4.501
 8579SOL     OW26635   1.090   5.558   3.677
 8579SOL    HW126636   1.040   5.473   3.698
 8579SOL    HW226637   1.185   5.536   3.654
 8580SOL     OW26638   2.705   0.131   2.111
 8580SOL    HW126639   2.606   0.144   2.107
 8580SOL    HW226640   2.726   0.053   2.170
 8581SOL     OW26641   3.512   2.345   1.331
 8581SOL    HW126642   3.494   2.303   1.420
 8581SOL    HW226643   3.453   2.303   1.262
 8582SOL     OW26644   4.749   4.315   2.557
 8582SOL    HW126645   4.709   4.385   2.616
 8582SOL    HW226646   4.764   4.232   2.610
 8583SOL     OW26647   5.880   0.979   6.368
 8583SOL    HW126648   5.787   0.966   6.332
 8583SOL    HW226649   5.880   1.051   6.436
 8584SOL     OW26650   0.181   4.564   0.440
 8584SOL    HW126651   0.128   4.517   0.370
 8584SOL    HW226652   0.122   4.581   0.520
 8585SOL     OW26653   0.261   0.306   0.749
 8585SOL    HW126654   0.212   0.221   0.730
 8585SOL    HW226655   0.198   0.383   0.742
 8586SOL     OW26656   2.846   6.311   3.000
 8586SOL    HW126657   2.860   6.216   2.972
 8586SOL    HW226658   2.881   6.323   3.093
 8587SOL     OW26659   0.423   0.832   3.154
 8587SOL    HW126660   0.477   0.889   3.216
 8587SOL    HW226661   0.473   0.819   3.069
 8588SOL     OW26662   3.411   1.748   0.940
 8588SOL    HW126663   3.414   1.662   0.990
 8588SOL    HW226664   3.469   1.741   0.859
 8589SOL     OW26665   3.710   1.317   4.387
 8589SOL    HW126666   3.701   1.260   4.469
 8589SOL    HW226667   3.806   1.338   4.371
 8590SOL     OW26668   6.720   5.671   4.392
 8590SOL    HW126669   6.645   5.729   4.361
 8590SOL    HW226670   6.760   5.709   4.475
 8591SOL     OW26671   0.913   4.531   6.812
 8591SOL    HW126672   0.888   4.439   6.784
 8591SOL    HW226673   0.899   4.542   6.910
 8592SOL     OW26674   0.083   4.466   0.189
 8592SOL    HW126675   7.005   4.449   0.159
 8592SOL    HW226676   0.119   4.548   0.144
 8593SOL     OW26677   1.222   6.758   1.793
 8593SOL    HW126678   1.287   6.806   1.735
 8593SOL    HW226679   1.172   6.690   1.739
 8594SOL     OW26680   3.105   4.033   4.194
 8594SOL    HW126681   3.127   4.016   4.098
 8594SOL    HW226682   3.045   3.961   4.228
 8595SOL     OW26683   1.991   2.129   2.732
 8595SOL    HW126684   2.045   2.147   2.650
 8595SOL    HW226685   2.037   2.168   2.812
 8596SOL     OW26686   5.983   5.461   2.135
 8596SOL    HW126687   5.973   5.559   2.114
 8596SOL    HW226688   5.922   5.437   2.210
 8597SOL     OW26689   4.082   2.012   1.247
 8597SOL    HW126690   4.149   2.002   1.321
 8597SOL    HW226691   4.031   2.097   1.261
 8598SOL     OW26692   0.304   4.988   1.174
 8598SOL    HW126693   0.368   5.057   1.210
 8598SOL    HW226694   0.212   5.009   1.206
 8599SOL     OW26695   0.983   3.007   3.972
 8599SOL    HW126696   0.997   2.927   3.914
 8599SOL    HW226697   0.975   2.978   4.068
 8600SOL     OW26698   6.214   4.418   6.674
 8600SOL    HW126699   6.221   4.360   6.755
 8600SOL    HW226700   6.143   4.487   6.688
 8601SOL     OW26701   0.072   1.102   5.031
 8601SOL    HW126702   0.167   1.072   5.020
 8601SOL    HW226703   0.060   1.141   5.122
 8602SOL     OW26704   2.896   6.910   2.888
 8602SOL    HW126705   2.906   7.009   2.878
 8602SOL    HW226706   2.892   6.886   2.985
 8603SOL     OW26707   3.564   3.967   6.814
 8603SOL    HW126708   3.473   3.928   6.826
 8603SOL    HW226709   3.588   3.967   6.717
 8604SOL     OW26710   6.147   2.796   3.563
 8604SOL    HW126711   6.113   2.711   3.525
 8604SOL    HW226712   6.236   2.781   3.607
 8605SOL     OW26713   3.622   5.234   4.510
 8605SOL    HW126714   3.645   5.137   4.500
 8605SOL    HW226715   3.583   5.268   4.424
 8606SOL     OW26716   2.400   4.113   5.831
 8606SOL    HW126717   2.356   4.133   5.743
 8606SOL    HW226718   2.489   4.071   5.815
 8607SOL     OW26719   3.406   5.645   1.437
 8607SOL    HW126720   3.393   5.691   1.524
 8607SOL    HW226721   3.339   5.571   1.428
 8608SOL     OW26722   4.390   5.216   2.677
 8608SOL    HW126723   4.348   5.152   2.614
 8608SOL    HW226724   4.470   5.174   2.720
 8609SOL     OW26725   3.519   0.433   4.355
 8609SOL    HW126726   3.487   0.510   4.411
 8609SOL    HW226727   3.473   0.435   4.266
 8610SOL     OW26728   1.102   0.142   2.821
 8610SOL    HW126729   1.170   0.195   2.770
 8610SOL    HW226730   1.011   0.179   2.806
 8611SOL     OW26731   1.353   2.371   4.658
 8611SOL    HW126732   1.346   2.437   4.583
 8611SOL    HW226733   1.415   2.297   4.631
 8612SOL     OW26734   3.196   3.618   6.388
 8612SOL    HW126735   3.202   3.702   6.334
 8612SOL    HW226736   3.221   3.540   6.331
 8613SOL     OW26737   2.225   1.281   1.315
 8613SOL    HW126738   2.177   1.368   1.303
 8613SOL    HW226739   2.194   1.216   1.246
 8614SOL     OW26740   0.917   4.059   2.851
 8614SOL    HW126741   0.931   4.035   2.948
 8614SOL    HW226742   0.907   4.158   2.842
 8615SOL     OW26743   4.744   2.027   5.398
 8615SOL    HW126744   4.644   2.026   5.401
 8615SOL    HW226745   4.778   1.934   5.379
 8616SOL     OW26746   0.451   4.566   0.398
 8616SOL    HW126747   0.476   4.662   0.390
 8616SOL    HW226748   0.352   4.559   0.413
 8617SOL     OW26749   6.430   1.892   0.473
 8617SOL    HW126750   6.526   1.879   0.497
 8617SOL    HW226751   6.419   1.884   0.374
 8618SOL     OW26752   4.334   0.004   2.004
 8618SOL    HW126753   4.315   6.988   1.911
 8618SOL    HW226754   4.248   0.032   2.048
 8619SOL     OW26755   4.131   5.097   0.602
 8619SOL    HW126756   4.036   5.082   0.628
 8619SOL    HW226757   4.161   5.186   0.636
 8620SOL     OW26758   5.907   6.877   2.449
 8620SOL    HW126759   6.007   6.880   2.451
 8620SOL    HW226760   5.872   6.953   2.394
 8621SOL     OW26761   6.229   1.227   3.869
 8621SOL    HW126762   6.309   1.274   3.905
 8621SOL    HW226763   6.146   1.272   3.902
 8622SOL     OW26764   4.656   4.396   0.215
 8622SOL    HW126765   4.688   4.423   0.306
 8622SOL    HW226766   4.640   4.478   0.160
 8623SOL     OW26767   0.583   4.304   2.883
 8623SOL    HW126768   0.682   4.315   2.878
 8623SOL    HW226769   0.554   4.298   2.978
 8624SOL     OW26770   1.170   4.605   3.416
 8624SOL    HW126771   1.196   4.597   3.512
 8624SOL    HW226772   1.089   4.663   3.408
 8625SOL     OW26773   4.546   0.511   4.246
 8625SOL    HW126774   4.548   0.423   4.294
 8625SOL    HW226775   4.459   0.522   4.198
 8626SOL     OW26776   3.841   3.358   4.116
 8626SOL    HW126777   3.762   3.298   4.099
 8626SOL    HW226778   3.820   3.419   4.193
 8627SOL     OW26779   1.060   0.507   2.036
 8627SOL    HW126780   1.125   0.451   1.986
 8627SOL    HW226781   1.030   0.459   2.118
 8628SOL     OW26782   6.122   6.734   0.608
 8628SOL    HW126783   6.041   6.792   0.606
 8628SOL    HW226784   6.103   6.652   0.663
 8629SOL     OW26785   1.924   4.688   4.256
 8629SOL    HW126786   1.958   4.722   4.168
 8629SOL    HW226787   1.997   4.636   4.301
 8630SOL     OW26788   5.959   4.110   5.124
 8630SOL    HW126789   6.018   4.104   5.043
 8630SOL    HW226790   5.984   4.036   5.188
 8631SOL     OW26791   3.686   6.403   5.843
 8631SOL    HW126792   3.635   6.475   5.890
 8631SOL    HW226793   3.770   6.442   5.804
 8632SOL     OW26794   3.424   6.625   4.164
 8632SOL    HW126795   3.408   6.695   4.095
 8632SOL    HW226796   3.463   6.544   4.121
 8633SOL     OW26797   5.236   1.447   4.239
 8633SOL    HW126798   5.283   1.375   4.189
 8633SOL    HW226799   5.274   1.454   4.331
 8634SOL     OW26800   6.304   3.717   1.379
 8634SOL    HW126801   6.397   3.755   1.380
 8634SOL    HW226802   6.271   3.708   1.473
 8635SOL     OW26803   5.674   4.078   5.720
 8635SOL    HW126804   5.730   4.091   5.802
 8635SOL    HW226805   5.586   4.125   5.732
 8636SOL     OW26806   6.485   4.776   6.575
 8636SOL    HW126807   6.560   4.756   6.512
 8636SOL    HW226808   6.471   4.874   6.581
 8637SOL     OW26809   1.440   1.074   0.428
 8637SOL    HW126810   1.358   1.027   0.396
 8637SOL    HW226811   1.415   1.157   0.477
 8638SOL     OW26812   2.097   3.230   0.240
 8638SOL    HW126813   2.123   3.136   0.216
 8638SOL    HW226814   1.997   3.236   0.242
 8639SOL     OW26815   5.902   2.409   1.987
 8639SOL    HW126816   5.918   2.364   2.075
 8639SOL    HW226817   5.805   2.427   1.976
 8640SOL     OW26818   4.990   3.762   0.563
 8640SOL    HW126819   4.988   3.754   0.463
 8640SOL    HW226820   5.054   3.835   0.589
 8641SOL     OW26821   6.907   3.741   4.075
 8641SOL    HW126822   6.838   3.745   4.003
 8641SOL    HW226823   6.997   3.721   4.035
 8642SOL     OW26824   4.610   0.509   2.395
 8642SOL    HW126825   4.642   0.464   2.479
 8642SOL    HW226826   4.684   0.509   2.328
 8643SOL     OW26827   4.642   6.688   0.067
 8643SOL    HW126828   4.701   6.612   0.040
 8643SOL    HW226829   4.551   6.654   0.088
 8644SOL     OW26830   5.506   2.805   5.543
 8644SOL    HW126831   5.532   2.861   5.622
 8644SOL    HW226832   5.454   2.725   5.575
 8645SOL     OW26833   5.985   4.928   1.578
 8645SOL    HW126834   6.012   4.838   1.543
 8645SOL    HW226835   6.053   4.961   1.642
 8646SOL     OW26836   5.384   0.735   0.759
 8646SOL    HW126837   5.317   0.663   0.775
 8646SOL    HW226838   5.365   0.812   0.820
 8647SOL     OW26839   3.570   4.740   0.269
 8647SOL    HW126840   3.628   4.680   0.214
 8647SOL    HW226841   3.626   4.787   0.337
 8648SOL     OW26842   5.821   1.048   4.623
 8648SOL    HW126843   5.767   1.036   4.706
 8648SOL    HW226844   5.839   1.145   4.609
 8649SOL     OW26845   5.921   4.913   5.661
 8649SOL    HW126846   5.914   4.938   5.758
 8649SOL    HW226847   5.928   4.997   5.607
 8650SOL     OW26848   2.047   5.040   3.977
 8650SOL    HW126849   2.011   5.115   3.922
 8650SOL    HW226850   2.075   5.075   4.067
 8651SOL     OW26851   4.035   0.965   0.529
 8651SOL    HW126852   3.984   1.051   0.521
 8651SOL    HW226853   4.076   0.942   0.441
 8652SOL     OW26854   1.843   4.465   3.129
 8652SOL    HW126855   1.822   4.368   3.142
 8652SOL    HW226856   1.762   4.520   3.151
 8653SOL     OW26857   6.586   2.724   6.627
 8653SOL    HW126858   6.603   2.642   6.572
 8653SOL    HW226859   6.615   2.709   6.721
 8654SOL     OW26860   0.643   6.029   2.297
 8654SOL    HW126861   0.635   6.009   2.395
 8654SOL    HW226862   0.554   6.057   2.261
 8655SOL     OW26863   5.765   0.251   4.158
 8655SOL    HW126864   5.818   0.334   4.178
 8655SOL    HW226865   5.783   0.221   4.065
 8656SOL     OW26866   6.002   1.005   1.104
 8656SOL    HW126867   5.974   1.015   1.199
 8656SOL    HW226868   6.043   1.090   1.072
 8657SOL     OW26869   4.164   5.292   6.370
 8657SOL    HW126870   4.121   5.290   6.460
 8657SOL    HW226871   4.155   5.203   6.326
 8658SOL     OW26872   4.676   5.336   0.200
 8658SOL    HW126873   4.659   5.290   0.112
 8658SOL    HW226874   4.762   5.303   0.238
 8659SOL     OW26875   4.625   0.834   3.288
 8659SOL    HW126876   4.532   0.833   3.251
 8659SOL    HW226877   4.687   0.788   3.224
 8660SOL     OW26878   5.890   3.751   0.395
 8660SOL    HW126879   5.830   3.723   0.470
 8660SOL    HW226880   5.837   3.762   0.311
 8661SOL     OW26881   6.099   4.301   2.030
 8661SOL    HW126882   6.086   4.218   2.084
 8661SOL    HW226883   6.178   4.289   1.970
 8662SOL     OW26884   5.582   6.527   1.814
 8662SOL    HW126885   5.568   6.538   1.716
 8662SOL    HW226886   5.588   6.430   1.837
 8663SOL     OW26887   2.443   5.776   0.385
 8663SOL    HW126888   2.460   5.820   0.473
 8663SOL    HW226889   2.491   5.827   0.313
 8664SOL     OW26890   4.389   5.133   0.236
 8664SOL    HW126891   4.479   5.177   0.236
 8664SOL    HW226892   4.317   5.203   0.234
 8665SOL     OW26893   5.022   5.776   5.829
 8665SOL    HW126894   5.032   5.677   5.836
 8665SOL    HW226895   5.082   5.811   5.758
 8666SOL     OW26896   5.459   2.468   5.177
 8666SOL    HW126897   5.475   2.433   5.269
 8666SOL    HW226898   5.403   2.402   5.126
 8667SOL     OW26899   5.171   2.247   3.077
 8667SOL    HW126900   5.118   2.324   3.043
 8667SOL    HW226901   5.134   2.216   3.165
 8668SOL     OW26902   5.067   2.453   3.725
 8668SOL    HW126903   5.100   2.531   3.672
 8668SOL    HW226904   4.990   2.483   3.782
 8669SOL     OW26905   3.645   0.196   6.469
 8669SOL    HW126906   3.704   0.229   6.396
 8669SOL    HW226907   3.605   0.274   6.518
 8670SOL     OW26908   3.617   5.296   5.458
 8670SOL    HW126909   3.583   5.373   5.405
 8670SOL    HW226910   3.715   5.286   5.444
 8671SOL     OW26911   5.246   0.749   4.010
 8671SOL    HW126912   5.210   0.838   4.037
 8671SOL    HW226913   5.230   0.735   3.912
 8672SOL     OW26914   2.471   5.887   4.346
 8672SOL    HW126915   2.495   5.974   4.389
 8672SOL    HW226916   2.488   5.893   4.247
 8673SOL     OW26917   0.447   0.479   6.946
 8673SOL    HW126918   0.397   0.452   0.013
 8673SOL    HW226919   0.516   0.410   6.924
 8674SOL     OW26920   6.862   5.878   2.060
 8674SOL    HW126921   6.820   5.914   1.976
 8674SOL    HW226922   6.941   5.934   2.084
 8675SOL     OW26923   3.333   2.120   4.313
 8675SOL    HW126924   3.399   2.116   4.238
 8675SOL    HW226925   3.267   2.193   4.296
 8676SOL     OW26926   3.215   6.856   3.296
 8676SOL    HW126927   3.197   6.761   3.324
 8676SOL    HW226928   3.137   6.914   3.321
 8677SOL     OW26929   2.062   5.676   6.380
 8677SOL    HW126930   2.127   5.733   6.331
 8677SOL    HW226931   2.111   5.602   6.426
 8678SOL     OW26932   0.573   6.884   6.974
 8678SOL    HW126933   0.520   6.965   6.947
 8678SOL    HW226934   0.655   6.912   0.008
 8679SOL     OW26935   5.682   2.370   4.176
 8679SOL    HW126936   5.739   2.366   4.258
 8679SOL    HW226937   5.636   2.283   4.163
 8680SOL     OW26938   0.750   3.476   1.011
 8680SOL    HW126939   0.837   3.427   1.017
 8680SOL    HW226940   0.712   3.466   0.919
 8681SOL     OW26941   4.680   4.556   6.998
 8681SOL    HW126942   4.756   4.621   6.999
 8681SOL    HW226943   4.595   4.606   6.979
 8682SOL     OW26944   3.581   6.470   2.935
 8682SOL    HW126945   3.639   6.513   3.004
 8682SOL    HW226946   3.625   6.476   2.845
 8683SOL     OW26947   1.409   2.301   2.332
 8683SOL    HW126948   1.468   2.321   2.254
 8683SOL    HW226949   1.390   2.202   2.335
 8684SOL     OW26950   0.566   3.369   4.650
 8684SOL    HW126951   0.654   3.349   4.692
 8684SOL    HW226952   0.506   3.415   4.716
 8685SOL     OW26953   1.612   1.943   5.984
 8685SOL    HW126954   1.670   1.862   5.992
 8685SOL    HW226955   1.571   1.965   6.072
 8686SOL     OW26956   6.420   1.774   1.805
 8686SOL    HW126957   6.407   1.695   1.865
 8686SOL    HW226958   6.331   1.815   1.785
 8687SOL     OW26959   3.616   6.177   2.652
 8687SOL    HW126960   3.579   6.218   2.569
 8687SOL    HW226961   3.542   6.132   2.703
 8688SOL     OW26962   3.023   6.345   6.717
 8688SOL    HW126963   3.030   6.392   6.805
 8688SOL    HW226964   2.933   6.362   6.677
 8689SOL     OW26965   3.252   5.906   0.264
 8689SOL    HW126966   3.247   5.852   0.180
 8689SOL    HW226967   3.345   5.903   0.301
 8690SOL     OW26968   1.512   2.550   3.794
 8690SOL    HW126969   1.540   2.561   3.698
 8690SOL    HW226970   1.530   2.455   3.822
 8691SOL     OW26971   4.247   2.840   6.305
 8691SOL    HW126972   4.227   2.923   6.358
 8691SOL    HW226973   4.276   2.866   6.213
 8692SOL     OW26974   3.470   2.050   2.534
 8692SOL    HW126975   3.550   2.030   2.477
 8692SOL    HW226976   3.390   2.061   2.475
 8693SOL     OW26977   5.957   1.791   0.871
 8693SOL    HW126978   5.936   1.766   0.966
 8693SOL    HW226979   5.902   1.734   0.809
 8694SOL     OW26980   4.470   0.455   6.661
 8694SOL    HW126981   4.499   0.403   6.742
 8694SOL    HW226982   4.442   0.547   6.689
 8695SOL     OW26983   4.498   2.524   6.100
 8695SOL    HW126984   4.419   2.545   6.043
 8695SOL    HW226985   4.579   2.571   6.063
 8696SOL     OW26986   3.528   5.913   0.811
 8696SOL    HW126987   3.555   5.825   0.772
 8696SOL    HW226988   3.455   5.953   0.755
 8697SOL     OW26989   6.416   3.735   0.779
 8697SOL    HW126990   6.474   3.653   0.785
 8697SOL    HW226991   6.433   3.781   0.692
 8698SOL     OW26992   5.546   5.955   3.740
 8698SOL    HW126993   5.516   6.044   3.707
 8698SOL    HW226994   5.488   5.927   3.817
 8699SOL     OW26995   0.975   2.097   5.732
 8699SOL    HW126996   0.895   2.037   5.733
 8699SOL    HW226997   0.945   2.191   5.711
 8700SOL     OW26998   2.424   0.809   4.961
 8700SOL    HW126999   2.330   0.785   4.938
 8700SOL    HW227000   2.424   0.885   5.026
 8701SOL     OW27001   1.265   0.885   6.470
 8701SOL    HW127002   1.291   0.792   6.443
 8701SOL    HW227003   1.172   0.905   6.438
 8702SOL     OW27004   5.493   4.863   0.262
 8702SOL    HW127005   5.483   4.764   0.252
 8702SOL    HW227006   5.580   4.892   0.223
 8703SOL     OW27007   2.961   5.890   1.472
 8703SOL    HW127008   2.914   5.813   1.430
 8703SOL    HW227009   2.895   5.964   1.490
 8704SOL     OW27010   6.530   3.640   2.868
 8704SOL    HW127011   6.553   3.632   2.771
 8704SOL    HW227012   6.435   3.611   2.882
 8705SOL     OW27013   5.096   1.149   6.979
 8705SOL    HW127014   5.183   1.113   7.012
 8705SOL    HW227015   5.078   1.237   0.007
 8706SOL     OW27016   4.745   2.612   5.967
 8706SOL    HW127017   4.777   2.645   6.055
 8706SOL    HW227018   4.808   2.543   5.932
 8707SOL     OW27019   4.987   2.217   0.202
 8707SOL    HW127020   4.958   2.153   0.273
 8707SOL    HW227021   5.041   2.168   0.133
 8708SOL     OW27022   4.316   1.777   2.127
 8708SOL    HW127023   4.299   1.832   2.045
 8708SOL    HW227024   4.414   1.779   2.148
 8709SOL     OW27025   6.794   5.513   6.717
 8709SOL    HW127026   6.830   5.591   6.769
 8709SOL    HW227027   6.696   5.506   6.732
 8710SOL     OW27028   2.206   3.055   3.141
 8710SOL    HW127029   2.225   2.986   3.071
 8710SOL    HW227030   2.220   3.015   3.231
 8711SOL     OW27031   0.110   6.427   2.297
 8711SOL    HW127032   0.051   6.355   2.261
 8711SOL    HW227033   0.147   6.481   2.221
 8712SOL     OW27034   3.901   2.117   4.312
 8712SOL    HW127035   3.978   2.180   4.318
 8712SOL    HW227036   3.936   2.023   4.308
 8713SOL     OW27037   6.949   4.382   3.481
 8713SOL    HW127038   6.975   4.348   3.390
 8713SOL    HW227039   6.992   4.325   3.551
 8714SOL     OW27040   0.560   1.024   5.836
 8714SOL    HW127041   0.600   0.954   5.777
 8714SOL    HW227042   0.610   1.110   5.823
 8715SOL     OW27043   5.123   0.493   1.387
 8715SOL    HW127044   5.065   0.417   1.415
 8715SOL    HW227045   5.089   0.532   1.302
 8716SOL     OW27046   1.272   1.753   0.938
 8716SOL    HW127047   1.258   1.819   1.012
 8716SOL    HW227048   1.301   1.665   0.976
 8717SOL     OW27049   4.082   3.686   2.371
 8717SOL    HW127050   4.123   3.615   2.428
 8717SOL    HW227051   4.017   3.740   2.425
 8718SOL     OW27052   1.177   2.302   5.433
 8718SOL    HW127053   1.277   2.301   5.428
 8718SOL    HW227054   1.147   2.362   5.507
 8719SOL     OW27055   2.182   0.371   6.079
 8719SOL    HW127056   2.218   0.301   6.141
 8719SOL    HW227057   2.244   0.383   6.002
 8720SOL     OW27058   6.820   5.207   5.276
 8720SOL    HW127059   6.727   5.243   5.268
 8720SOL    HW227060   6.831   5.129   5.214
 8721SOL     OW27061   6.137   2.139   4.057
 8721SOL    HW127062   6.186   2.133   4.144
 8721SOL    HW227063   6.150   2.054   4.006
 8722SOL     OW27064   4.161   0.523   0.814
 8722SOL    HW127065   4.247   0.525   0.865
 8722SOL    HW227066   4.140   0.615   0.780
 8723SOL     OW27067   5.614   6.076   1.251
 8723SOL    HW127068   5.525   6.079   1.295
 8723SOL    HW227069   5.603   6.070   1.152
 8724SOL     OW27070   6.003   6.826   4.945
 8724SOL    HW127071   6.063   6.746   4.943
 8724SOL    HW227072   5.935   6.818   4.872
 8725SOL     OW27073   2.348   0.348   0.052
 8725SOL    HW127074   2.295   0.284   7.012
 8725SOL    HW227075   2.386   0.300   0.131
 8726SOL     OW27076   6.499   0.416   1.380
 8726SOL    HW127077   6.428   0.434   1.312
 8726SOL    HW227078   6.589   0.430   1.338
 8727SOL     OW27079   6.835   6.318   1.716
 8727SOL    HW127080   6.804   6.303   1.622
 8727SOL    HW227081   6.828   6.416   1.738
 8728SOL     OW27082   4.094   0.334   4.803
 8728SOL    HW127083   4.026   0.360   4.734
 8728SOL    HW227084   4.093   0.234   4.815
 8729SOL     OW27085   5.082   5.932   3.365
 8729SOL    HW127086   5.129   5.866   3.306
 8729SOL    HW227087   5.086   6.023   3.324
 8730SOL     OW27088   6.698   5.723   2.596
 8730SOL    HW127089   6.612   5.682   2.626
 8730SOL    HW227090   6.774   5.682   2.647
 8731SOL     OW27091   2.024   1.757   3.004
 8731SOL    HW127092   2.054   1.729   2.913
 8731SOL    HW227093   2.056   1.850   3.023
 8732SOL     OW27094   5.125   4.347   1.742
 8732SOL    HW127095   5.091   4.292   1.818
 8732SOL    HW227096   5.159   4.286   1.670
 8733SOL     OW27097   1.514   5.900   3.356
 8733SOL    HW127098   1.583   5.935   3.293
 8733SOL    HW227099   1.424   5.907   3.315
 8734SOL     OW27100   1.211   4.609   1.773
 8734SOL    HW127101   1.251   4.659   1.850
 8734SOL    HW227102   1.279   4.545   1.736
 8735SOL     OW27103   0.743   2.005   6.928
 8735SOL    HW127104   0.702   1.914   6.930
 8735SOL    HW227105   0.841   1.998   6.947
 8736SOL     OW27106   0.557   6.501   0.062
 8736SOL    HW127107   0.575   6.549   6.991
 8736SOL    HW227108   0.554   6.402   0.046
 8737SOL     OW27109   3.465   6.982   6.349
 8737SOL    HW127110   3.496   0.038   6.413
 8737SOL    HW227111   3.399   6.922   6.395
 8738SOL     OW27112   1.660   4.051   4.181
 8738SOL    HW127113   1.756   4.076   4.194
 8738SOL    HW227114   1.649   3.952   4.189
 8739SOL     OW27115   6.568   5.517   6.375
 8739SOL    HW127116   6.547   5.534   6.472
 8739SOL    HW227117   6.523   5.586   6.319
 8740SOL     OW27118   4.150   1.123   5.779
 8740SOL    HW127119   4.067   1.070   5.800
 8740SOL    HW227120   4.147   1.152   5.683
 8741SOL     OW27121   1.855   1.674   1.799
 8741SOL    HW127122   1.877   1.621   1.717
 8741SOL    HW227123   1.869   1.618   1.880
 8742SOL     OW27124   4.990   5.803   1.885
 8742SOL    HW127125   4.927   5.726   1.872
 8742SOL    HW227126   4.959   5.859   1.962
 8743SOL     OW27127   2.076   6.795   2.549
 8743SOL    HW127128   2.035   6.874   2.503
 8743SOL    HW227129   2.171   6.816   2.572
 8744SOL     OW27130   3.704   2.536   6.192
 8744SOL    HW127131   3.743   2.590   6.117
 8744SOL    HW227132   3.604   2.540   6.187
 8745SOL     OW27133   6.201   2.725   5.736
 8745SOL    HW127134   6.260   2.651   5.703
 8745SOL    HW227135   6.107   2.692   5.745
 8746SOL     OW27136   4.220   4.290   5.360
 8746SOL    HW127137   4.298   4.254   5.410
 8746SOL    HW227138   4.250   4.325   5.271
 8747SOL     OW27139   0.793   2.614   3.559
 8747SOL    HW127140   0.843   2.601   3.644
 8747SOL    HW227141   0.694   2.612   3.577
 8748SOL     OW27142   0.522   0.845   6.868
 8748SOL    HW127143   0.507   0.788   6.788
 8748SOL    HW227144   0.442   0.904   6.884
 8749SOL     OW27145   2.808   0.366   4.699
 8749SOL    HW127146   2.782   0.334   4.789
 8749SOL    HW227147   2.872   0.443   4.707
 8750SOL     OW27148   2.218   3.203   5.200
 8750SOL    HW127149   2.275   3.280   5.228
 8750SOL    HW227150   2.276   3.122   5.186
 8751SOL     OW27151   6.539   0.151   2.147
 8751SOL    HW127152   6.579   0.061   2.166
 8751SOL    HW227153   6.566   0.181   2.055
 8752SOL     OW27154   2.868   4.002   0.529
 8752SOL    HW127155   2.786   4.040   0.486
 8752SOL    HW227156   2.947   4.015   0.469
 8753SOL     OW27157   5.012   1.676   4.788
 8753SOL    HW127158   5.016   1.744   4.714
 8753SOL    HW227159   5.041   1.588   4.752
 8754SOL     OW27160   0.767   1.941   5.820
 8754SOL    HW127161   0.828   1.910   5.893
 8754SOL    HW227162   0.676   1.957   5.858
 8755SOL     OW27163   2.978   1.545   6.705
 8755SOL    HW127164   2.906   1.572   6.769
 8755SOL    HW227165   3.056   1.509   6.755
 8756SOL     OW27166   2.166   3.136   3.618
 8756SOL    HW127167   2.145   3.115   3.714
 8756SOL    HW227168   2.193   3.053   3.571
 8757SOL     OW27169   5.819   6.468   6.026
 8757SOL    HW127170   5.781   6.498   5.939
 8757SOL    HW227171   5.795   6.372   6.042
 8758SOL     OW27172   5.358   5.973   2.278
 8758SOL    HW127173   5.302   6.050   2.249
 8758SOL    HW227174   5.423   6.003   2.349
 8759SOL     OW27175   4.256   1.551   6.412
 8759SOL    HW127176   4.199   1.574   6.491
 8759SOL    HW227177   4.216   1.473   6.364
 8760SOL     OW27178   1.816   1.557   4.937
 8760SOL    HW127179   1.769   1.469   4.944
 8760SOL    HW227180   1.754   1.630   4.967
 8761SOL     OW27181   4.732   0.518   0.989
 8761SOL    HW127182   4.751   0.511   0.891
 8761SOL    HW227183   4.810   0.483   1.041
 8762SOL     OW27184   1.534   3.431   2.912
 8762SOL    HW127185   1.535   3.335   2.940
 8762SOL    HW227186   1.609   3.480   2.956
 8763SOL     OW27187   6.035   6.038   4.932
 8763SOL    HW127188   6.103   6.082   4.874
 8763SOL    HW227189   5.943   6.059   4.899
 8764SOL     OW27190   5.063   1.432   3.841
 8764SOL    HW127191   5.012   1.514   3.865
 8764SOL    HW227192   5.053   1.364   3.914
 8765SOL     OW27193   6.101   6.388   4.851
 8765SOL    HW127194   6.073   6.448   4.777
 8765SOL    HW227195   6.144   6.306   4.813
 8766SOL     OW27196   3.644   4.966   3.557
 8766SOL    HW127197   3.641   5.049   3.503
 8766SOL    HW227198   3.735   4.924   3.549
 8767SOL     OW27199   4.240   0.684   2.893
 8767SOL    HW127200   4.196   0.595   2.892
 8767SOL    HW227201   4.181   0.752   2.849
 8768SOL     OW27202   2.317   2.973   6.916
 8768SOL    HW127203   2.346   2.952   7.009
 8768SOL    HW227204   2.326   2.891   6.859
 8769SOL     OW27205   1.155   7.006   5.394
 8769SOL    HW127206   1.201   6.921   5.370
 8769SOL    HW227207   1.060   7.003   5.365
 8770SOL     OW27208   5.080   3.897   2.166
 8770SOL    HW127209   5.127   3.823   2.119
 8770SOL    HW227210   5.135   3.981   2.160
 8771SOL     OW27211   2.261   0.750   6.139
 8771SOL    HW127212   2.185   0.706   6.092
 8771SOL    HW227213   2.232   0.840   6.173
 8772SOL     OW27214   5.725   0.266   6.963
 8772SOL    HW127215   5.819   0.276   6.928
 8772SOL    HW227216   5.729   0.231   0.042
 8773SOL     OW27217   4.003   2.219   3.380
 8773SOL    HW127218   3.912   2.197   3.346
 8773SOL    HW227219   4.060   2.252   3.305
 8774SOL     OW27220   1.554   1.330   0.688
 8774SOL    HW127221   1.622   1.362   0.622
 8774SOL    HW227222   1.467   1.316   0.641
 8775SOL     OW27223   5.550   6.999   4.011
 8775SOL    HW127224   5.492   0.062   3.989
 8775SOL    HW227225   5.640   7.012   3.970
 8776SOL     OW27226   3.429   2.930   4.635
 8776SOL    HW127227   3.342   2.941   4.587
 8776SOL    HW227228   3.413   2.935   4.734
 8777SOL     OW27229   0.281   4.648   1.518
 8777SOL    HW127230   0.268   4.744   1.545
 8777SOL    HW227231   0.191   4.607   1.499
 8778SOL     OW27232   0.530   1.882   4.011
 8778SOL    HW127233   0.488   1.797   3.978
 8778SOL    HW227234   0.482   1.960   3.973
 8779SOL     OW27235   1.753   5.358   2.523
 8779SOL    HW127236   1.754   5.443   2.471
 8779SOL    HW227237   1.663   5.347   2.567
 8780SOL     OW27238   1.558   5.679   3.538
 8780SOL    HW127239   1.514   5.763   3.506
 8780SOL    HW227240   1.588   5.625   3.459
 8781SOL     OW27241   6.566   1.433   3.506
 8781SOL    HW127242   6.493   1.412   3.571
 8781SOL    HW227243   6.547   1.388   3.419
 8782SOL     OW27244   5.703   1.035   1.590
 8782SOL    HW127245   5.708   0.953   1.533
 8782SOL    HW227246   5.796   1.066   1.613
 8783SOL     OW27247   6.138   3.959   3.893
 8783SOL    HW127248   6.055   4.013   3.905
 8783SOL    HW227249   6.218   4.014   3.917
 8784SOL     OW27250   4.917   4.541   5.332
 8784SOL    HW127251   4.827   4.542   5.288
 8784SOL    HW227252   4.988   4.546   5.263
 8785SOL     OW27253   5.528   3.498   0.174
 8785SOL    HW127254   5.621   3.484   0.139
 8785SOL    HW227255   5.489   3.409   0.201
 8786SOL     OW27256   2.224   6.868   0.057
 8786SOL    HW127257   2.307   6.923   0.055
 8786SOL    HW227258   2.166   6.899   0.133
 8787SOL     OW27259   1.538   3.043   2.372
 8787SOL    HW127260   1.606   2.975   2.401
 8787SOL    HW227261   1.512   3.026   2.277
 8788SOL     OW27262   6.371   2.282   5.281
 8788SOL    HW127263   6.304   2.208   5.289
 8788SOL    HW227264   6.329   2.369   5.306
 8789SOL     OW27265   6.047   0.093   6.238
 8789SOL    HW127266   5.960   0.063   6.277
 8789SOL    HW227267   6.080   0.024   6.174
 8790SOL     OW27268   6.567   1.242   6.920
 8790SOL    HW127269   6.565   1.307   6.996
 8790SOL    HW227270   6.661   1.210   6.907
 8791SOL     OW27271   5.282   0.122   5.779
 8791SOL    HW127272   5.240   0.122   5.688
 8791SOL    HW227273   5.301   0.216   5.806
 8792SOL     OW27274   3.909   6.896   3.165
 8792SOL    HW127275   3.863   6.914   3.252
 8792SOL    HW227276   3.941   6.801   3.163
 8793SOL     OW27277   1.945   5.498   3.969
 8793SOL    HW127278   2.025   5.439   3.957
 8793SOL    HW227279   1.973   5.594   3.961
 8794SOL     OW27280   3.205   6.493   2.659
 8794SOL    HW127281   3.303   6.505   2.644
 8794SOL    HW227282   3.162   6.582   2.675
 8795SOL     OW27283   1.545   6.619   5.380
 8795SOL    HW127284   1.503   6.545   5.432
 8795SOL    HW227285   1.595   6.581   5.302
 8796SOL     OW27286   4.209   1.699   5.439
 8796SOL    HW127287   4.286   1.651   5.396
 8796SOL    HW227288   4.187   1.657   5.526
 8797SOL     OW27289   1.645   6.095   6.471
 8797SOL    HW127290   1.571   6.093   6.403
 8797SOL    HW227291   1.721   6.039   6.439
 8798SOL     OW27292   5.812   4.031   5.458
 8798SOL    HW127293   5.772   4.076   5.538
 8798SOL    HW227294   5.740   4.009   5.393
 8799SOL     OW27295   2.457   4.374   3.536
 8799SOL    HW127296   2.490   4.392   3.444
 8799SOL    HW227297   2.373   4.425   3.552
 8800SOL     OW27298   5.226   3.900   5.534
 8800SOL    HW127299   5.193   3.896   5.628
 8800SOL    HW227300   5.253   3.994   5.512
 8801SOL     OW27301   2.151   1.072   3.804
 8801SOL    HW127302   2.206   1.021   3.870
 8801SOL    HW227303   2.179   1.168   3.805
 8802SOL     OW27304   1.273   0.382   1.235
 8802SOL    HW127305   1.215   0.459   1.208
 8802SOL    HW227306   1.215   0.306   1.266
 8803SOL     OW27307   1.397   4.729   6.152
 8803SOL    HW127308   1.397   4.811   6.208
 8803SOL    HW227309   1.331   4.663   6.188
 8804SOL     OW27310   4.410   0.975   1.839
 8804SOL    HW127311   4.490   1.034   1.830
 8804SOL    HW227312   4.409   0.935   1.931
 8805SOL     OW27313   1.792   6.936   3.660
 8805SOL    HW127314   1.814   6.839   3.653
 8805SOL    HW227315   1.694   6.949   3.643
 8806SOL     OW27316   2.170   4.918   1.434
 8806SOL    HW127317   2.211   4.946   1.520
 8806SOL    HW227318   2.084   4.968   1.421
 8807SOL     OW27319   6.697   5.629   5.785
 8807SOL    HW127320   6.617   5.577   5.757
 8807SOL    HW227321   6.684   5.666   5.877
 8808SOL     OW27322   5.312   1.384   0.421
 8808SOL    HW127323   5.229   1.359   0.470
 8808SOL    HW227324   5.374   1.434   0.482
 8809SOL     OW27325   5.653   3.623   1.854
 8809SOL    HW127326   5.706   3.548   1.814
 8809SOL    HW227327   5.567   3.587   1.891
 8810SOL     OW27328   5.912   1.679   5.010
 8810SOL    HW127329   5.936   1.757   4.953
 8810SOL    HW227330   5.813   1.667   5.011
 8811SOL     OW27331   2.219   1.719   4.043
 8811SOL    HW127332   2.259   1.746   4.131
 8811SOL    HW227333   2.121   1.706   4.053
 8812SOL     OW27334   0.580   0.544   0.524
 8812SOL    HW127335   0.546   0.614   0.461
 8812SOL    HW227336   0.627   0.589   0.600
 8813SOL     OW27337   1.191   5.011   1.342
 8813SOL    HW127338   1.286   4.989   1.364
 8813SOL    HW227339   1.186   5.047   1.249
 8814SOL     OW27340   6.937   0.769   0.040
 8814SOL    HW127341   0.009   0.736   0.076
 8814SOL    HW227342   6.866   0.701   0.056
 8815SOL     OW27343   6.642   5.729   0.582
 8815SOL    HW127344   6.640   5.734   0.682
 8815SOL    HW227345   6.580   5.658   0.551
 8816SOL     OW27346   1.163   6.754   0.990
 8816SOL    HW127347   1.220   6.719   0.916
 8816SOL    HW227348   1.183   6.851   1.006
 8817SOL     OW27349   0.729   5.933   5.539
 8817SOL    HW127350   0.637   5.943   5.578
 8817SOL    HW227351   0.796   5.927   5.612
 8818SOL     OW27352   0.154   3.954   3.403
 8818SOL    HW127353   0.228   3.892   3.378
 8818SOL    HW227354   0.173   3.996   3.491
 8819SOL     OW27355   4.357   6.649   3.971
 8819SOL    HW127356   4.352   6.617   3.877
 8819SOL    HW227357   4.401   6.579   4.028
 8820SOL     OW27358   1.966   2.338   4.364
 8820SOL    HW127359   2.036   2.402   4.335
 8820SOL    HW227360   1.975   2.252   4.313
 8821SOL     OW27361   1.870   6.727   6.433
 8821SOL    HW127362   1.796   6.744   6.498
 8821SOL    HW227363   1.883   6.628   6.423
 8822SOL     OW27364   0.621   0.705   2.994
 8822SOL    HW127365   0.625   0.605   2.988
 8822SOL    HW227366   0.698   0.738   3.049
 8823SOL     OW27367   2.130   0.458   1.057
 8823SOL    HW127368   2.083   0.424   0.976
 8823SOL    HW227369   2.070   0.521   1.107
 8824SOL     OW27370   2.623   3.435   0.454
 8824SOL    HW127371   2.556   3.432   0.528
 8824SOL    HW227372   2.579   3.411   0.367
 8825SOL     OW27373   1.328   0.659   2.832
 8825SOL    HW127374   1.247   0.712   2.805
 8825SOL    HW227375   1.398   0.722   2.867
 8826SOL     OW27376   6.096   2.147   0.346
 8826SOL    HW127377   6.145   2.234   0.347
 8826SOL    HW227378   6.136   2.085   0.413
 8827SOL     OW27379   3.004   0.653   3.149
 8827SOL    HW127380   3.060   0.734   3.165
 8827SOL    HW227381   2.917   0.663   3.198
 8828SOL     OW27382   4.014   5.439   3.689
 8828SOL    HW127383   4.064   5.403   3.768
 8828SOL    HW227384   3.978   5.529   3.711
 8829SOL     OW27385   6.823   3.437   0.288
 8829SOL    HW127386   6.906   3.467   0.335
 8829SOL    HW227387   6.812   3.488   0.203
 8830SOL     OW27388   6.747   1.417   6.707
 8830SOL    HW127389   6.722   1.480   6.781
 8830SOL    HW227390   6.664   1.388   6.658
 8831SOL     OW27391   5.596   1.316   3.384
 8831SOL    HW127392   5.553   1.245   3.440
 8831SOL    HW227393   5.525   1.376   3.347
 8832SOL     OW27394   0.269   6.598   2.136
 8832SOL    HW127395   0.343   6.624   2.198
 8832SOL    HW227396   0.213   6.678   2.116
 8833SOL     OW27397   2.003   5.940   5.340
 8833SOL    HW127398   2.057   5.998   5.278
 8833SOL    HW227399   1.908   5.941   5.312
 8834SOL     OW27400   5.510   3.054   4.348
 8834SOL    HW127401   5.446   3.028   4.276
 8834SOL    HW227402   5.500   3.151   4.368
 8835SOL     OW27403   6.155   0.590   5.425
 8835SOL    HW127404   6.091   0.535   5.371
 8835SOL    HW227405   6.180   0.672   5.374
 8836SOL     OW27406   4.381   0.956   1.073
 8836SOL    HW127407   4.461   0.929   1.020
 8836SOL    HW227408   4.387   1.052   1.098
 8837SOL     OW27409   1.002   0.228   2.446
 8837SOL    HW127410   1.058   0.243   2.528
 8837SOL    HW227411   0.908   0.210   2.473
 8838SOL     OW27412   2.991   5.301   3.512
 8838SOL    HW127413   2.951   5.210   3.507
 8838SOL    HW227414   3.088   5.294   3.535
 8839SOL     OW27415   5.552   6.279   3.061
 8839SOL    HW127416   5.621   6.349   3.041
 8839SOL    HW227417   5.461   6.320   3.061
 8840SOL     OW27418   6.461   2.378   2.447
 8840SOL    HW127419   6.537   2.427   2.402
 8840SOL    HW227420   6.471   2.280   2.430
 8841SOL     OW27421   1.137   0.815   5.001
 8841SOL    HW127422   1.225   0.777   4.975
 8841SOL    HW227423   1.150   0.901   5.050
 8842SOL     OW27424   3.941   2.854   0.834
 8842SOL    HW127425   3.871   2.858   0.762
 8842SOL    HW227426   3.936   2.766   0.881
 8843SOL     OW27427   1.468   2.845   5.444
 8843SOL    HW127428   1.382   2.810   5.407
 8843SOL    HW227429   1.539   2.775   5.437
 8844SOL     OW27430   5.648   1.464   6.262
 8844SOL    HW127431   5.687   1.515   6.185
 8844SOL    HW227432   5.552   1.443   6.243
 8845SOL     OW27433   4.416   3.559   0.262
 8845SOL    HW127434   4.322   3.593   0.257
 8845SOL    HW227435   4.416   3.459   0.260
 8846SOL     OW27436   2.077   5.583   3.701
 8846SOL    HW127437   2.011   5.653   3.729
 8846SOL    HW227438   2.050   5.495   3.739
 8847SOL     OW27439   2.694   0.776   2.483
 8847SOL    HW127440   2.725   0.684   2.511
 8847SOL    HW227441   2.755   0.844   2.522
 8848SOL     OW27442   2.444   1.047   1.056
 8848SOL    HW127443   2.402   1.022   1.143
 8848SOL    HW227444   2.530   0.997   1.044
 8849SOL     OW27445   2.172   5.914   3.094
 8849SOL    HW127446   2.090   5.892   3.148
 8849SOL    HW227447   2.224   5.830   3.079
 8850SOL     OW27448   2.763   1.749   0.189
 8850SOL    HW127449   2.679   1.718   0.233
 8850SOL    HW227450   2.811   1.671   0.150
 8851SOL     OW27451   1.639   4.592   2.159
 8851SOL    HW127452   1.651   4.630   2.067
 8851SOL    HW227453   1.575   4.649   2.210
 8852SOL     OW27454   1.372   1.907   5.591
 8852SOL    HW127455   1.336   1.943   5.677
 8852SOL    HW227456   1.455   1.957   5.566
 8853SOL     OW27457   3.152   1.166   2.059
 8853SOL    HW127458   3.220   1.135   1.992
 8853SOL    HW227459   3.189   1.245   2.109
 8854SOL     OW27460   1.684   2.995   4.980
 8854SOL    HW127461   1.703   3.093   4.979
 8854SOL    HW227462   1.768   2.945   4.958
 8855SOL     OW27463   6.353   5.672   1.471
 8855SOL    HW127464   6.429   5.679   1.536
 8855SOL    HW227465   6.383   5.619   1.392
 8856SOL     OW27466   6.245   5.721   6.390
 8856SOL    HW127467   6.243   5.742   6.488
 8856SOL    HW227468   6.246   5.622   6.378
 8857SOL     OW27469   6.772   2.226   5.136
 8857SOL    HW127470   6.823   2.282   5.070
 8857SOL    HW227471   6.821   2.226   5.223
 8858SOL     OW27472   0.492   4.755   5.145
 8858SOL    HW127473   0.549   4.674   5.147
 8858SOL    HW227474   0.460   4.775   5.238
 8859SOL     OW27475   0.737   0.454   3.750
 8859SOL    HW127476   0.803   0.382   3.729
 8859SOL    HW227477   0.786   0.540   3.765
 8860SOL     OW27478   6.865   2.927   1.405
 8860SOL    HW127479   6.961   2.927   1.377
 8860SOL    HW227480   6.858   2.945   1.503
 8861SOL     OW27481   4.049   1.036   1.029
 8861SOL    HW127482   4.142   1.054   0.996
 8861SOL    HW227483   4.045   0.943   1.065
 8862SOL     OW27484   4.716   5.414   4.605
 8862SOL    HW127485   4.617   5.403   4.614
 8862SOL    HW227486   4.737   5.454   4.515
 8863SOL     OW27487   2.218   4.524   3.509
 8863SOL    HW127488   2.194   4.503   3.414
 8863SOL    HW227489   2.152   4.482   3.571
 8864SOL     OW27490   4.818   3.801   6.492
 8864SOL    HW127491   4.916   3.784   6.498
 8864SOL    HW227492   4.801   3.862   6.414
 8865SOL     OW27493   2.889   1.597   5.465
 8865SOL    HW127494   2.920   1.628   5.555
 8865SOL    HW227495   2.896   1.497   5.460
 8866SOL     OW27496   5.424   6.329   2.459
 8866SOL    HW127497   5.337   6.339   2.411
 8866SOL    HW227498   5.486   6.402   2.432
 8867SOL     OW27499   6.705   3.434   2.988
 8867SOL    HW127500   6.641   3.510   2.985
 8867SOL    HW227501   6.687   3.372   2.912
 8868SOL     OW27502   6.760   3.160   2.574
 8868SOL    HW127503   6.789   3.255   2.584
 8868SOL    HW227504   6.712   3.148   2.487
 8869SOL     OW27505   4.500   5.157   4.790
 8869SOL    HW127506   4.538   5.226   4.851
 8869SOL    HW227507   4.402   5.176   4.776
 8870SOL     OW27508   2.304   6.835   1.977
 8870SOL    HW127509   2.378   6.840   2.044
 8870SOL    HW227510   2.217   6.824   2.025
 8871SOL     OW27511   1.297   0.911   3.073
 8871SOL    HW127512   1.375   0.933   3.131
 8871SOL    HW227513   1.212   0.923   3.125
 8872SOL     OW27514   0.661   4.285   6.455
 8872SOL    HW127515   0.625   4.277   6.362
 8872SOL    HW227516   0.734   4.354   6.457
 8873SOL     OW27517   1.973   0.489   1.899
 8873SOL    HW127518   1.970   0.451   1.806
 8873SOL    HW227519   1.965   0.589   1.894
 8874SOL     OW27520   1.942   5.174   0.918
 8874SOL    HW127521   1.981   5.116   0.989
 8874SOL    HW227522   1.856   5.133   0.886
 8875SOL     OW27523   6.927   3.026   3.899
 8875SOL    HW127524   6.866   2.950   3.922
 8875SOL    HW227525   6.960   3.068   3.984
 8876SOL     OW27526   3.006   0.518   6.257
 8876SOL    HW127527   3.049   0.593   6.206
 8876SOL    HW227528   2.925   0.552   6.304
 8877SOL     OW27529   1.672   3.362   1.919
 8877SOL    HW127530   1.618   3.363   1.836
 8877SOL    HW227531   1.719   3.450   1.930
 8878SOL     OW27532   3.694   4.681   0.740
 8878SOL    HW127533   3.784   4.702   0.700
 8878SOL    HW227534   3.646   4.616   0.682
 8879SOL     OW27535   6.576   4.834   2.462
 8879SOL    HW127536   6.617   4.744   2.480
 8879SOL    HW227537   6.577   4.888   2.546
 8880SOL     OW27538   4.033   6.630   3.665
 8880SOL    HW127539   4.027   6.690   3.586
 8880SOL    HW227540   4.010   6.536   3.639
 8881SOL     OW27541   4.692   4.852   3.940
 8881SOL    HW127542   4.723   4.761   3.911
 8881SOL    HW227543   4.593   4.851   3.955
 8882SOL     OW27544   3.514   0.848   0.238
 8882SOL    HW127545   3.442   0.893   0.291
 8882SOL    HW227546   3.561   0.781   0.296
 8883SOL     OW27547   7.013   6.936   6.087
 8883SOL    HW127548   6.921   6.949   6.125
 8883SOL    HW227549   0.063   6.995   6.135
 8884SOL     OW27550   5.267   4.378   4.669
 8884SOL    HW127551   5.304   4.434   4.595
 8884SOL    HW227552   5.265   4.431   4.753
 8885SOL     OW27553   5.549   5.194   0.234
 8885SOL    HW127554   5.648   5.184   0.245
 8885SOL    HW227555   5.523   5.170   0.140
 8886SOL     OW27556   3.782   5.286   6.796
 8886SOL    HW127557   3.852   5.230   6.841
 8886SOL    HW227558   3.761   5.365   6.853
 8887SOL     OW27559   4.236   0.241   0.537
 8887SOL    HW127560   4.142   0.273   0.551
 8887SOL    HW227561   4.295   0.320   0.517
 8888SOL     OW27562   1.971   1.980   3.701
 8888SOL    HW127563   2.053   1.942   3.658
 8888SOL    HW227564   1.985   1.987   3.800
 8889SOL     OW27565   6.991   6.637   6.161
 8889SOL    HW127566   6.962   6.573   6.091
 8889SOL    HW227567   0.048   6.697   6.125
 8890SOL     OW27568   0.004   6.202   7.007
 8890SOL    HW127569   0.076   6.140   0.023
 8890SOL    HW227570   6.957   6.222   0.068
 8891SOL     OW27571   5.658   4.468   6.709
 8891SOL    HW127572   5.711   4.384   6.717
 8891SOL    HW227573   5.654   4.515   6.797
 8892SOL     OW27574   3.621   5.033   3.849
 8892SOL    HW127575   3.620   5.133   3.855
 8892SOL    HW227576   3.664   5.006   3.762
 8893SOL     OW27577   1.440   4.931   5.272
 8893SOL    HW127578   1.391   4.846   5.291
 8893SOL    HW227579   1.474   4.929   5.178
 8894SOL     OW27580   5.192   1.951   0.852
 8894SOL    HW127581   5.178   2.050   0.844
 8894SOL    HW227582   5.129   1.913   0.919
 8895SOL     OW27583   0.847   3.001   0.777
 8895SOL    HW127584   0.817   2.916   0.732
 8895SOL    HW227585   0.876   2.981   0.870
 8896SOL     OW27586   0.714   3.056   4.847
 8896SOL    HW127587   0.755   3.005   4.771
 8896SOL    HW227588   0.751   3.021   4.934
 8897SOL     OW27589   2.136   3.699   3.770
 8897SOL    HW127590   2.039   3.693   3.746
 8897SOL    HW227591   2.178   3.609   3.762
 8898SOL     OW27592   5.317   3.652   2.315
 8898SOL    HW127593   5.396   3.595   2.294
 8898SOL    HW227594   5.348   3.742   2.347
 8899SOL     OW27595   6.878   4.805   6.136
 8899SOL    HW127596   6.810   4.783   6.206
 8899SOL    HW227597   6.939   4.727   6.123
 8900SOL     OW27598   5.685   2.003   3.487
 8900SOL    HW127599   5.760   2.067   3.506
 8900SOL    HW227600   5.688   1.927   3.551
 8901SOL     OW27601   0.790   2.198   3.671
 8901SOL    HW127602   0.820   2.106   3.646
 8901SOL    HW227603   0.830   2.223   3.759
 8902SOL     OW27604   1.265   4.635   0.241
 8902SOL    HW127605   1.336   4.637   0.171
 8902SOL    HW227606   1.294   4.577   0.317
 8903SOL     OW27607   1.405   1.228   4.898
 8903SOL    HW127608   1.422   1.146   4.843
 8903SOL    HW227609   1.309   1.253   4.892
 8904SOL     OW27610   0.203   1.335   2.404
 8904SOL    HW127611   0.267   1.260   2.388
 8904SOL    HW227612   0.230   1.414   2.349
 8905SOL     OW27613   1.756   2.939   2.542
 8905SOL    HW127614   1.702   2.858   2.566
 8905SOL    HW227615   1.748   3.007   2.615
 8906SOL     OW27616   0.844   6.869   0.660
 8906SOL    HW127617   0.845   6.829   0.569
 8906SOL    HW227618   0.854   6.797   0.728
 8907SOL     OW27619   3.286   2.672   5.286
 8907SOL    HW127620   3.254   2.591   5.237
 8907SOL    HW227621   3.207   2.728   5.313
 8908SOL     OW27622   1.399   4.582   0.509
 8908SOL    HW127623   1.371   4.663   0.560
 8908SOL    HW227624   1.404   4.504   0.571
 8909SOL     OW27625   2.756   0.889   6.191
 8909SOL    HW127626   2.685   0.822   6.170
 8909SOL    HW227627   2.719   0.981   6.186
 8910SOL     OW27628   0.992   2.625   5.309
 8910SOL    HW127629   0.957   2.661   5.395
 8910SOL    HW227630   0.972   2.528   5.302
 8911SOL     OW27631   5.091   1.874   4.151
 8911SOL    HW127632   5.109   1.929   4.233
 8911SOL    HW227633   5.093   1.934   4.071
 8912SOL     OW27634   4.029   3.404   5.600
 8912SOL    HW127635   3.945   3.448   5.568
 8912SOL    HW227636   4.079   3.468   5.658
 8913SOL     OW27637   5.567   4.913   6.883
 8913SOL    HW127638   5.483   4.859   6.880
 8913SOL    HW227639   5.546   5.010   6.881
 8914SOL     OW27640   5.249   6.752   4.915
 8914SOL    HW127641   5.222   6.830   4.973
 8914SOL    HW227642   5.338   6.771   4.874
 8915SOL     OW27643   1.309   1.331   3.905
 8915SOL    HW127644   1.237   1.385   3.947
 8915SOL    HW227645   1.268   1.255   3.855
 8916SOL     OW27646   5.685   1.598   6.779
 8916SOL    HW127647   5.630   1.515   6.777
 8916SOL    HW227648   5.729   1.613   6.691
 8917SOL     OW27649   6.180   1.361   0.840
 8917SOL    HW127650   6.172   1.317   0.751
 8917SOL    HW227651   6.265   1.413   0.845
 8918SOL     OW27652   1.792   5.515   1.298
 8918SOL    HW127653   1.839   5.432   1.269
 8918SOL    HW227654   1.710   5.529   1.242
 8919SOL     OW27655   5.441   4.603   6.585
 8919SOL    HW127656   5.512   4.545   6.625
 8919SOL    HW227657   5.370   4.620   6.653
 8920SOL     OW27658   0.286   1.440   0.123
 8920SOL    HW127659   0.376   1.436   0.080
 8920SOL    HW227660   0.290   1.501   0.203
 8921SOL     OW27661   1.335   2.588   1.144
 8921SOL    HW127662   1.321   2.678   1.185
 8921SOL    HW227663   1.251   2.535   1.150
 8922SOL     OW27664   3.846   6.779   2.810
 8922SOL    HW127665   3.847   6.866   2.860
 8922SOL    HW227666   3.895   6.790   2.723
 8923SOL     OW27667   1.435   1.707   5.926
 8923SOL    HW127668   1.483   1.790   5.896
 8923SOL    HW227669   1.472   1.678   6.015
 8924SOL     OW27670   5.402   5.576   4.608
 8924SOL    HW127671   5.406   5.672   4.634
 8924SOL    HW227672   5.319   5.535   4.644
 8925SOL     OW27673   0.615   0.964   2.575
 8925SOL    HW127674   0.518   0.981   2.588
 8925SOL    HW227675   0.659   1.048   2.543
 8926SOL     OW27676   6.400   3.991   5.589
 8926SOL    HW127677   6.478   4.048   5.613
 8926SOL    HW227678   6.432   3.902   5.555
 8927SOL     OW27679   6.344   2.292   5.663
 8927SOL    HW127680   6.357   2.389   5.644
 8927SOL    HW227681   6.370   2.273   5.758
 8928SOL     OW27682   2.436   0.424   5.536
 8928SOL    HW127683   2.421   0.516   5.500
 8928SOL    HW227684   2.349   0.376   5.544
 8929SOL     OW27685   6.144   2.589   4.795
 8929SOL    HW127686   6.243   2.572   4.793
 8929SOL    HW227687   6.127   2.686   4.778
 8930SOL     OW27688   1.140   3.782   2.891
 8930SOL    HW127689   1.085   3.822   2.817
 8930SOL    HW227690   1.133   3.683   2.887
 8931SOL     OW27691   3.548   2.727   1.635
 8931SOL    HW127692   3.494   2.734   1.719
 8931SOL    HW227693   3.521   2.799   1.572
 8932SOL     OW27694   0.331   1.754   3.450
 8932SOL    HW127695   0.319   1.680   3.383
 8932SOL    HW227696   0.245   1.804   3.459
 8933SOL     OW27697   2.997   2.549   6.596
 8933SOL    HW127698   3.047   2.513   6.674
 8933SOL    HW227699   2.919   2.489   6.576
 8934SOL     OW27700   3.517   5.522   4.608
 8934SOL    HW127701   3.577   5.442   4.597
 8934SOL    HW227702   3.489   5.530   4.703
 8935SOL     OW27703   0.317   5.069   0.907
 8935SOL    HW127704   0.327   5.167   0.925
 8935SOL    HW227705   0.277   5.024   0.987
 8936SOL     OW27706   1.863   3.419   0.770
 8936SOL    HW127707   1.846   3.367   0.686
 8936SOL    HW227708   1.962   3.434   0.780
 8937SOL     OW27709   0.228   6.775   5.152
 8937SOL    HW127710   0.194   6.843   5.216
 8937SOL    HW227711   0.210   6.805   5.058
 8938SOL     OW27712   0.570   5.168   1.298
 8938SOL    HW127713   0.649   5.128   1.251
 8938SOL    HW227714   0.597   5.255   1.339
 8939SOL     OW27715   4.752   2.591   5.031
 8939SOL    HW127716   4.813   2.587   4.952
 8939SOL    HW227717   4.668   2.640   5.006
 8940SOL     OW27718   0.033   1.064   3.956
 8940SOL    HW127719   6.958   1.031   3.985
 8940SOL    HW227720   0.103   0.996   3.979
 8941SOL     OW27721   5.842   2.168   5.623
 8941SOL    HW127722   5.847   2.123   5.534
 8941SOL    HW227723   5.920   2.140   5.679
 8942SOL     OW27724   0.272   3.198   5.909
 8942SOL    HW127725   0.268   3.288   5.865
 8942SOL    HW227726   0.260   3.210   6.008
 8943SOL     OW27727   5.028   4.335   0.450
 8943SOL    HW127728   4.993   4.351   0.542
 8943SOL    HW227729   5.062   4.241   0.443
 8944SOL     OW27730   5.110   5.354   5.724
 8944SOL    HW127731   5.126   5.268   5.772
 8944SOL    HW227732   5.011   5.372   5.719
 8945SOL     OW27733   1.856   0.453   4.623
 8945SOL    HW127734   1.937   0.393   4.630
 8945SOL    HW227735   1.838   0.474   4.527
 8946SOL     OW27736   3.387   2.072   4.870
 8946SOL    HW127737   3.316   2.076   4.940
 8946SOL    HW227738   3.346   2.047   4.782
 8947SOL     OW27739   1.703   4.050   5.028
 8947SOL    HW127740   1.745   4.000   4.953
 8947SOL    HW227741   1.666   3.985   5.095
 8948SOL     OW27742   5.531   5.337   3.770
 8948SOL    HW127743   5.452   5.393   3.798
 8948SOL    HW227744   5.508   5.287   3.687
 8949SOL     OW27745   1.911   0.200   0.150
 8949SOL    HW127746   1.846   0.221   0.223
 8949SOL    HW227747   1.946   0.286   0.112
 8950SOL     OW27748   4.835   3.078   5.729
 8950SOL    HW127749   4.793   3.034   5.808
 8950SOL    HW227750   4.872   3.008   5.667
 8951SOL     OW27751   1.763   2.094   5.158
 8951SOL    HW127752   1.730   2.161   5.091
 8951SOL    HW227753   1.687   2.039   5.192
 8952SOL     OW27754   1.329   0.864   2.457
 8952SOL    HW127755   1.282   0.834   2.540
 8952SOL    HW227756   1.262   0.888   2.387
 8953SOL     OW27757   1.128   3.632   6.790
 8953SOL    HW127758   1.212   3.583   6.770
 8953SOL    HW227759   1.148   3.711   6.848
 8954SOL     OW27760   0.364   6.094   5.321
 8954SOL    HW127761   0.399   6.117   5.412
 8954SOL    HW227762   0.299   6.164   5.292
 8955SOL     OW27763   0.190   4.420   2.953
 8955SOL    HW127764   0.239   4.352   2.899
 8955SOL    HW227765   0.161   4.495   2.894
 8956SOL     OW27766   0.031   1.385   6.633
 8956SOL    HW127767   0.033   1.285   6.635
 8956SOL    HW227768   6.952   1.417   6.641
 8957SOL     OW27769   3.106   4.289   1.348
 8957SOL    HW127770   3.039   4.215   1.341
 8957SOL    HW227771   3.081   4.348   1.425
 8958SOL     OW27772   0.767   0.432   4.156
 8958SOL    HW127773   0.704   0.504   4.125
 8958SOL    HW227774   0.728   0.342   4.136
 8959SOL     OW27775   1.099   4.242   0.551
 8959SOL    HW127776   1.039   4.239   0.471
 8959SOL    HW227777   1.095   4.332   0.593
 8960SOL     OW27778   4.190   5.489   2.912
 8960SOL    HW127779   4.289   5.475   2.910
 8960SOL    HW227780   4.155   5.486   2.819
 8961SOL     OW27781   1.412   2.159   4.295
 8961SOL    HW127782   1.452   2.230   4.237
 8961SOL    HW227783   1.404   2.194   4.389
 8962SOL     OW27784   5.800   6.702   2.210
 8962SOL    HW127785   5.809   6.710   2.309
 8962SOL    HW227786   5.711   6.739   2.182
 8963SOL     OW27787   4.728   6.423   4.020
 8963SOL    HW127788   4.697   6.499   4.077
 8963SOL    HW227789   4.815   6.389   4.055
 8964SOL     OW27790   5.885   4.489   2.422
 8964SOL    HW127791   5.869   4.532   2.510
 8964SOL    HW227792   5.983   4.485   2.404
 8965SOL     OW27793   1.565   4.909   1.046
 8965SOL    HW127794   1.621   4.932   0.966
 8965SOL    HW227795   1.585   4.816   1.075
 8966SOL     OW27796   1.806   3.072   5.504
 8966SOL    HW127797   1.841   2.996   5.558
 8966SOL    HW227798   1.882   3.117   5.457
 8967SOL     OW27799   2.978   6.484   2.002
 8967SOL    HW127800   2.932   6.401   2.032
 8967SOL    HW227801   3.043   6.462   1.929
 8968SOL     OW27802   4.558   5.444   2.651
 8968SOL    HW127803   4.548   5.528   2.597
 8968SOL    HW227804   4.475   5.390   2.644
 8969SOL     OW27805   6.143   0.544   3.974
 8969SOL    HW127806   6.232   0.540   4.020
 8969SOL    HW227807   6.070   0.546   4.042
 8970SOL     OW27808   3.231   2.788   0.421
 8970SOL    HW127809   3.207   2.828   0.509
 8970SOL    HW227810   3.314   2.734   0.431
 8971SOL     OW27811   3.134   5.984   2.304
 8971SOL    HW127812   3.166   5.940   2.389
 8971SOL    HW227813   3.085   5.917   2.249
 8972SOL     OW27814   4.543   6.050   6.808
 8972SOL    HW127815   4.631   6.016   6.775
 8972SOL    HW227816   4.503   5.982   6.871
 8973SOL     OW27817   0.999   3.857   1.840
 8973SOL    HW127818   0.966   3.941   1.798
 8973SOL    HW227819   1.070   3.816   1.783
 8974SOL     OW27820   1.051   4.529   6.072
 8974SOL    HW127821   0.952   4.540   6.069
 8974SOL    HW227822   1.074   4.434   6.052
 8975SOL     OW27823   2.493   1.023   6.922
 8975SOL    HW127824   2.568   1.083   6.950
 8975SOL    HW227825   2.521   0.927   6.934
 8976SOL     OW27826   1.126   5.091   5.229
 8976SOL    HW127827   1.188   5.123   5.157
 8976SOL    HW227828   1.093   5.170   5.281
 8977SOL     OW27829   5.902   1.542   6.569
 8977SOL    HW127830   5.856   1.603   6.504
 8977SOL    HW227831   5.983   1.589   6.607
 8978SOL     OW27832   6.434   6.162   6.917
 8978SOL    HW127833   6.518   6.193   6.873
 8978SOL    HW227834   6.365   6.141   6.847
 8979SOL     OW27835   1.498   3.212   4.342
 8979SOL    HW127836   1.469   3.255   4.428
 8979SOL    HW227837   1.425   3.218   4.275
 8980SOL     OW27838   2.390   3.154   5.600
 8980SOL    HW127839   2.322   3.096   5.646
 8980SOL    HW227840   2.389   3.245   5.642
 8981SOL     OW27841   3.977   1.496   4.813
 8981SOL    HW127842   3.974   1.497   4.913
 8981SOL    HW227843   3.925   1.573   4.777
 8982SOL     OW27844   1.382   2.997   0.136
 8982SOL    HW127845   1.288   2.977   0.163
 8982SOL    HW227846   1.442   2.989   0.216
 8983SOL     OW27847   3.045   5.642   6.684
 8983SOL    HW127848   3.068   5.636   6.587
 8983SOL    HW227849   3.098   5.574   6.735
 8984SOL     OW27850   1.404   6.950   3.389
 8984SOL    HW127851   1.341   6.885   3.346
 8984SOL    HW227852   1.382   0.027   3.361
 8985SOL     OW27853   3.984   2.290   1.055
 8985SOL    HW127854   3.894   2.328   1.038
 8985SOL    HW227855   4.005   2.294   1.153
 8986SOL     OW27856   4.126   4.852   2.551
 8986SOL    HW127857   4.090   4.818   2.638
 8986SOL    HW227858   4.168   4.777   2.501
 8987SOL     OW27859   3.976   6.413   2.610
 8987SOL    HW127860   4.033   6.340   2.648
 8987SOL    HW227861   3.950   6.389   2.516
 8988SOL     OW27862   0.950   5.380   4.010
 8988SOL    HW127863   1.049   5.391   4.012
 8988SOL    HW227864   0.925   5.292   4.049
 8989SOL     OW27865   4.338   3.224   6.971
 8989SOL    HW127866   4.290   3.311   6.984
 8989SOL    HW227867   4.431   3.242   6.939
 8990SOL     OW27868   0.807   4.951   3.945
 8990SOL    HW127869   0.812   5.040   3.990
 8990SOL    HW227870   0.840   4.880   4.008
 8991SOL     OW27871   1.717   3.699   4.631
 8991SOL    HW127872   1.710   3.680   4.729
 8991SOL    HW227873   1.668   3.784   4.610
 8992SOL     OW27874   4.845   1.876   0.880
 8992SOL    HW127875   4.851   1.975   0.873
 8992SOL    HW227876   4.808   1.839   0.795
 8993SOL     OW27877   3.920   3.417   0.476
 8993SOL    HW127878   3.956   3.505   0.509
 8993SOL    HW227879   3.822   3.413   0.493
 8994SOL     OW27880   1.518   4.928   4.998
 8994SOL    HW127881   1.492   4.834   4.972
 8994SOL    HW227882   1.585   4.963   4.932
 8995SOL     OW27883   0.177   1.890   0.019
 8995SOL    HW127884   0.169   1.819   6.964
 8995SOL    HW227885   0.095   1.889   0.076
 8996SOL     OW27886   5.352   4.158   6.600
 8996SOL    HW127887   5.435   4.112   6.569
 8996SOL    HW227888   5.292   4.174   6.521
 8997SOL     OW27889   4.443   1.364   5.866
 8997SOL    HW127890   4.481   1.453   5.889
 8997SOL    HW227891   4.477   1.296   5.931
 8998SOL     OW27892   5.777   3.325   4.356
 8998SOL    HW127893   5.759   3.421   4.375
 8998SOL    HW227894   5.874   3.313   4.334
 8999SOL     OW27895   4.966   6.526   6.326
 8999SOL    HW127896   4.943   6.452   6.263
 8999SOL    HW227897   4.919   6.511   6.413
 9000SOL     OW27898   1.754   2.855   2.271
 9000SOL    HW127899   1.774   2.862   2.368
 9000SOL    HW227900   1.802   2.927   2.221
 9001SOL     OW27901   1.075   5.052   1.582
 9001SOL    HW127902   1.106   5.129   1.637
 9001SOL    HW227903   1.134   5.043   1.501
 9002SOL     OW27904   1.846   5.000   5.526
 9002SOL    HW127905   1.818   4.961   5.439
 9002SOL    HW227906   1.851   4.927   5.595
 9003SOL     OW27907   5.570   3.874   1.380
 9003SOL    HW127908   5.602   3.852   1.472
 9003SOL    HW227909   5.481   3.831   1.365
 9004SOL     OW27910   4.468   5.141   0.748
 9004SOL    HW127911   4.418   5.055   0.742
 9004SOL    HW227912   4.483   5.177   0.656
 9005SOL     OW27913   6.742   2.001   5.535
 9005SOL    HW127914   6.748   2.055   5.619
 9005SOL    HW227915   6.659   2.025   5.485
 9006SOL     OW27916   3.157   6.333   0.962
 9006SOL    HW127917   3.205   6.412   0.922
 9006SOL    HW227918   3.059   6.342   0.944
 9007SOL     OW27919   2.677   1.328   2.827
 9007SOL    HW127920   2.653   1.298   2.735
 9007SOL    HW227921   2.630   1.414   2.848
 9008SOL     OW27922   0.121   4.955   2.711
 9008SOL    HW127923   0.118   5.051   2.683
 9008SOL    HW227924   0.168   4.902   2.641
 9009SOL     OW27925   3.352   5.247   1.100
 9009SOL    HW127926   3.320   5.201   1.183
 9009SOL    HW227927   3.437   5.296   1.119
 9010SOL     OW27928   1.774   6.189   4.255
 9010SOL    HW127929   1.702   6.255   4.235
 9010SOL    HW227930   1.863   6.232   4.243
 9011SOL     OW27931   4.204   0.774   1.375
 9011SOL    HW127932   4.209   0.798   1.472
 9011SOL    HW227933   4.214   0.856   1.319
 9012SOL     OW27934   2.331   5.318   0.157
 9012SOL    HW127935   2.279   5.258   0.096
 9012SOL    HW227936   2.404   5.362   0.105
 9013SOL     OW27937   1.337   0.763   6.069
 9013SOL    HW127938   1.336   0.862   6.083
 9013SOL    HW227939   1.346   0.743   5.971
 9014SOL     OW27940   6.258   2.317   0.682
 9014SOL    HW127941   6.244   2.222   0.711
 9014SOL    HW227942   6.206   2.378   0.742
 9015SOL     OW27943   4.855   2.069   1.658
 9015SOL    HW127944   4.941   2.067   1.709
 9015SOL    HW227945   4.872   2.099   1.565
 9016SOL     OW27946   6.326   5.762   6.938
 9016SOL    HW127947   6.347   5.668   6.967
 9016SOL    HW227948   6.392   5.825   6.978
 9017SOL     OW27949   4.767   1.236   3.986
 9017SOL    HW127950   4.803   1.158   3.935
 9017SOL    HW227951   4.742   1.309   3.922
 9018SOL     OW27952   2.378   3.466   5.303
 9018SOL    HW127953   2.430   3.394   5.350
 9018SOL    HW227954   2.380   3.550   5.358
 9019SOL     OW27955   1.148   4.905   2.560
 9019SOL    HW127956   1.116   4.826   2.509
 9019SOL    HW227957   1.199   4.874   2.641
 9020SOL     OW27958   6.673   4.193   0.771
 9020SOL    HW127959   6.689   4.184   0.869
 9020SOL    HW227960   6.651   4.103   0.733
 9021SOL     OW27961   6.487   1.038   3.224
 9021SOL    HW127962   6.390   1.026   3.241
 9021SOL    HW227963   6.504   1.129   3.186
 9022SOL     OW27964   3.361   1.284   6.847
 9022SOL    HW127965   3.378   1.205   6.787
 9022SOL    HW227966   3.329   1.361   6.791
 9023SOL     OW27967   3.942   3.763   1.670
 9023SOL    HW127968   3.997   3.706   1.730
 9023SOL    HW227969   3.845   3.742   1.684
 9024SOL     OW27970   1.389   4.347   5.300
 9024SOL    HW127971   1.403   4.372   5.395
 9024SOL    HW227972   1.312   4.283   5.293
 9025SOL     OW27973   0.309   5.345   0.926
 9025SOL    HW127974   0.337   5.373   1.018
 9025SOL    HW227975   0.313   5.423   0.864
 9026SOL     OW27976   3.582   2.208   0.972
 9026SOL    HW127977   3.491   2.185   0.938
 9026SOL    HW227978   3.604   2.148   1.049
 9027SOL     OW27979   0.795   3.343   3.033
 9027SOL    HW127980   0.889   3.316   3.052
 9027SOL    HW227981   0.746   3.358   3.120
 9028SOL     OW27982   3.383   3.249   5.242
 9028SOL    HW127983   3.374   3.157   5.279
 9028SOL    HW227984   3.464   3.254   5.185
 9029SOL     OW27985   4.026   6.768   4.934
 9029SOL    HW127986   3.935   6.787   4.972
 9029SOL    HW227987   4.018   6.715   4.850
 9030SOL     OW27988   2.305   2.080   4.086
 9030SOL    HW127989   2.249   2.000   4.105
 9030SOL    HW227990   2.323   2.086   3.988
 9031SOL     OW27991   4.425   6.776   4.296
 9031SOL    HW127992   4.331   6.762   4.264
 9031SOL    HW227993   4.431   6.749   4.392
 9032SOL     OW27994   5.065   4.224   1.076
 9032SOL    HW127995   5.086   4.190   0.984
 9032SOL    HW227996   4.998   4.163   1.119
 9033SOL     OW27997   0.736   4.549   2.339
 9033SOL    HW127998   0.696   4.640   2.353
 9033SOL    HW227999   0.769   4.514   2.427
 9034SOL     OW28000   3.364   6.034   4.664
 9034SOL    HW128001   3.358   6.069   4.570
 9034SOL    HW228002   3.331   5.940   4.667
 9035SOL     OW28003   2.200   5.376   0.387
 9035SOL    HW128004   2.249   5.373   0.300
 9035SOL    HW228005   2.237   5.450   0.443
 9036SOL     OW28006   1.729   3.747   5.359
 9036SOL    HW128007   1.803   3.796   5.405
 9036SOL    HW228008   1.644   3.798   5.367
 9037SOL     OW28009   1.065   3.687   3.952
 9037SOL    HW128010   1.048   3.783   3.932
 9037SOL    HW228011   1.107   3.679   4.043
 9038SOL     OW28012   4.324   2.678   6.951
 9038SOL    HW128013   4.231   2.662   6.981
 9038SOL    HW228014   4.371   2.590   6.938
 9039SOL     OW28015   2.813   4.628   6.147
 9039SOL    HW128016   2.716   4.606   6.139
 9039SOL    HW228017   2.826   4.696   6.219
 9040SOL     OW28018   2.747   2.349   2.358
 9040SOL    HW128019   2.832   2.297   2.348
 9040SOL    HW228020   2.720   2.387   2.269
 9041SOL     OW28021   1.287   2.265   0.949
 9041SOL    HW128022   1.343   2.312   1.017
 9041SOL    HW228023   1.264   2.328   0.875
 9042SOL     OW28024   3.834   0.297   4.200
 9042SOL    HW128025   3.843   0.328   4.105
 9042SOL    HW228026   3.744   0.323   4.235
 9043SOL     OW28027   2.421   1.181   6.249
 9043SOL    HW128028   2.431   1.208   6.344
 9043SOL    HW228029   2.506   1.197   6.200
 9044SOL     OW28030   6.967   1.055   0.067
 9044SOL    HW128031   6.961   1.046   0.166
 9044SOL    HW228032   6.964   0.965   0.024
 9045SOL     OW28033   3.385   0.854   2.388
 9045SOL    HW128034   3.299   0.847   2.438
 9045SOL    HW228035   3.402   0.949   2.363
 9046SOL     OW28036   3.990   3.851   2.605
 9046SOL    HW128037   4.063   3.908   2.567
 9046SOL    HW228038   4.022   3.807   2.689
 9047SOL     OW28039   1.574   3.933   4.590
 9047SOL    HW128040   1.507   3.895   4.527
 9047SOL    HW228041   1.529   3.996   4.653
 9048SOL     OW28042   6.048   2.502   5.919
 9048SOL    HW128043   5.972   2.475   5.978
 9048SOL    HW228044   6.012   2.536   5.833
 9049SOL     OW28045   4.254   6.279   5.519
 9049SOL    HW128046   4.279   6.182   5.519
 9049SOL    HW228047   4.337   6.334   5.528
 9050SOL     OW28048   0.342   3.278   1.821
 9050SOL    HW128049   0.344   3.291   1.921
 9050SOL    HW228050   0.361   3.183   1.800
 9051SOL     OW28051   2.356   0.071   1.850
 9051SOL    HW128052   2.258   0.056   1.845
 9051SOL    HW228053   2.388   0.054   1.943
 9052SOL     OW28054   2.074   2.606   4.235
 9052SOL    HW128055   2.133   2.685   4.249
 9052SOL    HW228056   1.994   2.613   4.295
 9053SOL     OW28057   2.029   1.246   1.114
 9053SOL    HW128058   1.968   1.199   1.177
 9053SOL    HW228059   2.002   1.224   1.020
 9054SOL     OW28060   2.420   6.071   4.909
 9054SOL    HW128061   2.344   6.007   4.915
 9054SOL    HW228062   2.471   6.054   4.824
 9055SOL     OW28063   6.478   2.797   3.941
 9055SOL    HW128064   6.407   2.727   3.944
 9055SOL    HW228065   6.439   2.886   3.966
 9056SOL     OW28066   6.601   1.925   1.610
 9056SOL    HW128067   6.556   2.014   1.615
 9056SOL    HW228068   6.571   1.868   1.687
 9057SOL     OW28069   4.500   2.432   5.197
 9057SOL    HW128070   4.555   2.352   5.171
 9057SOL    HW228071   4.552   2.515   5.179
 9058SOL     OW28072   1.506   0.719   1.088
 9058SOL    HW128073   1.505   0.636   1.143
 9058SOL    HW228074   1.414   0.736   1.052
 9059SOL     OW28075   0.939   2.272   3.151
 9059SOL    HW128076   0.902   2.293   3.241
 9059SOL    HW228077   1.032   2.306   3.144
 9060SOL     OW28078   6.062   2.455   4.104
 9060SOL    HW128079   6.055   2.435   4.202
 9060SOL    HW228080   6.119   2.385   4.060
 9061SOL     OW28081   3.165   5.567   2.362
 9061SOL    HW128082   3.124   5.639   2.306
 9061SOL    HW228083   3.225   5.511   2.304
 9062SOL     OW28084   1.270   5.877   1.354
 9062SOL    HW128085   1.346   5.836   1.404
 9062SOL    HW228086   1.222   5.943   1.412
 9063SOL     OW28087   2.947   0.442   3.513
 9063SOL    HW128088   2.858   0.487   3.507
 9063SOL    HW228089   2.964   0.415   3.607
 9064SOL     OW28090   6.565   3.569   6.226
 9064SOL    HW128091   6.628   3.499   6.260
 9064SOL    HW228092   6.614   3.656   6.216
 9065SOL     OW28093   3.915   0.434   0.518
 9065SOL    HW128094   3.949   0.398   0.605
 9065SOL    HW228095   3.899   0.533   0.527
 9066SOL     OW28096   5.174   0.229   0.641
 9066SOL    HW128097   5.163   0.219   0.542
 9066SOL    HW228098   5.249   0.292   0.660
 9067SOL     OW28099   1.441   0.436   3.407
 9067SOL    HW128100   1.531   0.469   3.379
 9067SOL    HW228101   1.415   0.357   3.351
 9068SOL     OW28102   0.767   0.152   4.899
 9068SOL    HW128103   0.864   0.179   4.902
 9068SOL    HW228104   0.744   0.121   4.807
 9069SOL     OW28105   1.156   2.959   6.656
 9069SOL    HW128106   1.190   2.868   6.634
 9069SOL    HW228107   1.191   2.988   6.745
 9070SOL     OW28108   2.239   3.978   4.699
 9070SOL    HW128109   2.229   3.888   4.658
 9070SOL    HW228110   2.273   3.968   4.793
 9071SOL     OW28111   6.512   6.230   0.735
 9071SOL    HW128112   6.585   6.297   0.723
 9071SOL    HW228113   6.550   6.146   0.773
 9072SOL     OW28114   6.750   3.031   0.946
 9072SOL    HW128115   6.823   2.975   0.906
 9072SOL    HW228116   6.727   2.996   1.036
 9073SOL     OW28117   1.833   6.743   1.951
 9073SOL    HW128118   1.877   6.702   2.031
 9073SOL    HW228119   1.863   6.838   1.942
 9074SOL     OW28120   1.594   0.715   2.694
 9074SOL    HW128121   1.569   0.811   2.680
 9074SOL    HW228122   1.596   0.668   2.605
 9075SOL     OW28123   6.831   1.112   2.275
 9075SOL    HW128124   6.798   1.025   2.239
 9075SOL    HW228125   6.930   1.106   2.289
 9076SOL     OW28126   0.763   1.298   6.359
 9076SOL    HW128127   0.722   1.387   6.376
 9076SOL    HW228128   0.744   1.237   6.437
 9077SOL     OW28129   4.241   6.462   1.900
 9077SOL    HW128130   4.333   6.487   1.931
 9077SOL    HW228131   4.241   6.450   1.801
 9078SOL     OW28132   3.930   3.046   4.764
 9078SOL    HW128133   3.830   3.049   4.761
 9078SOL    HW228134   3.959   2.971   4.824
 9079SOL     OW28135   2.803   0.630   4.447
 9079SOL    HW128136   2.868   0.563   4.411
 9079SOL    HW228137   2.845   0.680   4.522
 9080SOL     OW28138   5.194   2.748   0.194
 9080SOL    HW128139   5.100   2.715   0.189
 9080SOL    HW228140   5.255   2.673   0.218
 9081SOL     OW28141   5.278   6.245   2.697
 9081SOL    HW128142   5.259   6.151   2.668
 9081SOL    HW228143   5.336   6.290   2.628
 9082SOL     OW28144   1.737   6.759   4.330
 9082SOL    HW128145   1.719   6.670   4.373
 9082SOL    HW228146   1.832   6.785   4.348
 9083SOL     OW28147   4.719   4.557   5.875
 9083SOL    HW128148   4.627   4.542   5.912
 9083SOL    HW228149   4.712   4.601   5.786
 9084SOL     OW28150   3.564   3.582   2.719
 9084SOL    HW128151   3.584   3.486   2.738
 9084SOL    HW228152   3.649   3.631   2.697
 9085SOL     OW28153   2.620   0.836   0.657
 9085SOL    HW128154   2.655   0.811   0.747
 9085SOL    HW228155   2.523   0.859   0.664
 9086SOL     OW28156   0.336   3.995   0.526
 9086SOL    HW128157   0.401   3.931   0.566
 9086SOL    HW228158   0.386   4.074   0.489
 9087SOL     OW28159   5.225   2.998   2.575
 9087SOL    HW128160   5.138   2.976   2.532
 9087SOL    HW228161   5.249   3.093   2.556
 9088SOL     OW28162   6.148   0.127   0.430
 9088SOL    HW128163   6.226   0.164   0.381
 9088SOL    HW228164   6.157   0.147   0.528
 9089SOL     OW28165   5.099   6.194   5.827
 9089SOL    HW128166   5.077   6.157   5.917
 9089SOL    HW228167   5.157   6.129   5.778
 9090SOL     OW28168   6.197   1.024   4.797
 9090SOL    HW128169   6.198   1.036   4.697
 9090SOL    HW228170   6.110   0.984   4.824
 9091SOL     OW28171   2.875   3.699   6.917
 9091SOL    HW128172   2.832   3.617   6.954
 9091SOL    HW228173   2.881   3.690   6.817
 9092SOL     OW28174   6.412   1.419   6.734
 9092SOL    HW128175   6.479   1.353   6.769
 9092SOL    HW228176   6.322   1.375   6.729
 9093SOL     OW28177   1.497   5.929   5.171
 9093SOL    HW128178   1.499   5.831   5.188
 9093SOL    HW228179   1.423   5.950   5.106
 9094SOL     OW28180   0.907   3.616   3.063
 9094SOL    HW128181   0.854   3.536   3.032
 9094SOL    HW228182   0.857   3.699   3.041
 9095SOL     OW28183   4.355   4.675   5.835
 9095SOL    HW128184   4.384   4.701   5.743
 9095SOL    HW228185   4.255   4.684   5.842
 9096SOL     OW28186   6.724   4.801   3.420
 9096SOL    HW128187   6.808   4.752   3.445
 9096SOL    HW228188   6.749   4.885   3.371
 9097SOL     OW28189   1.143   2.643   6.325
 9097SOL    HW128190   1.197   2.655   6.241
 9097SOL    HW228191   1.063   2.587   6.306
 9098SOL     OW28192   2.110   2.186   5.009
 9098SOL    HW128193   2.194   2.152   5.050
 9098SOL    HW228194   2.036   2.121   5.026
 9099SOL     OW28195   2.509   3.103   5.915
 9099SOL    HW128196   2.560   3.089   5.830
 9099SOL    HW228197   2.573   3.117   5.990
 9100SOL     OW28198   1.343   3.871   2.433
 9100SOL    HW128199   1.247   3.895   2.424
 9100SOL    HW228200   1.361   3.785   2.384
 9101SOL     OW28201   2.964   1.732   2.346
 9101SOL    HW128202   3.011   1.647   2.326
 9101SOL    HW228203   2.962   1.747   2.445
 9102SOL     OW28204   4.441   6.149   2.843
 9102SOL    HW128205   4.437   6.210   2.923
 9102SOL    HW228206   4.360   6.092   2.841
 9103SOL     OW28207   6.270   1.656   6.875
 9103SOL    HW128208   6.182   1.695   6.845
 9103SOL    HW228209   6.318   1.618   6.797
 9104SOL     OW28210   0.118   1.139   0.987
 9104SOL    HW128211   0.033   1.118   1.035
 9104SOL    HW228212   0.142   1.235   1.003
 9105SOL     OW28213   1.580   0.154   5.410
 9105SOL    HW128214   1.484   0.172   5.391
 9105SOL    HW228215   1.594   0.145   5.508
 9106SOL     OW28216   0.656   4.089   0.155
 9106SOL    HW128217   0.694   4.017   0.213
 9106SOL    HW228218   0.667   4.065   0.059
 9107SOL     OW28219   2.632   0.435   6.281
 9107SOL    HW128220   2.727   0.402   6.276
 9107SOL    HW228221   2.582   0.380   6.348
 9108SOL     OW28222   5.031   5.153   5.444
 9108SOL    HW128223   5.092   5.232   5.441
 9108SOL    HW228224   5.085   5.069   5.442
 9109SOL     OW28225   5.295   3.206   2.275
 9109SOL    HW128226   5.239   3.138   2.229
 9109SOL    HW228227   5.384   3.166   2.298
 9110SOL     OW28228   1.524   5.668   5.186
 9110SOL    HW128229   1.503   5.647   5.282
 9110SOL    HW228230   1.540   5.583   5.136
 9111SOL     OW28231   4.720   2.926   5.921
 9111SOL    HW128232   4.627   2.914   5.887
 9111SOL    HW228233   4.765   2.837   5.927
 9112SOL     OW28234   1.786   4.972   2.783
 9112SOL    HW128235   1.834   5.014   2.706
 9112SOL    HW228236   1.795   5.030   2.864
 9113SOL     OW28237   5.425   2.367   3.065
 9113SOL    HW128238   5.419   2.390   2.968
 9113SOL    HW228239   5.339   2.326   3.095
 9114SOL     OW28240   1.691   6.099   4.510
 9114SOL    HW128241   1.691   6.131   4.415
 9114SOL    HW228242   1.736   6.167   4.568
 9115SOL     OW28243   5.363   4.905   3.556
 9115SOL    HW128244   5.436   4.878   3.619
 9115SOL    HW228245   5.403   4.952   3.477
 9116SOL     OW28246   0.434   6.470   3.359
 9116SOL    HW128247   0.486   6.547   3.321
 9116SOL    HW228248   0.394   6.418   3.284
 9117SOL     OW28249   4.243   1.022   6.915
 9117SOL    HW128250   4.233   0.924   6.899
 9117SOL    HW228251   4.292   1.038   7.000
 9118SOL     OW28252   6.124   3.622   0.324
 9118SOL    HW128253   6.040   3.671   0.347
 9118SOL    HW228254   6.168   3.667   0.246
 9119SOL     OW28255   3.623   6.160   1.250
 9119SOL    HW128256   3.548   6.124   1.306
 9119SOL    HW228257   3.612   6.127   1.156
 9120SOL     OW28258   6.406   2.448   6.091
 9120SOL    HW128259   6.374   2.532   6.046
 9120SOL    HW228260   6.367   2.442   6.183
 9121SOL     OW28261   4.118   0.586   5.691
 9121SOL    HW128262   4.139   0.614   5.785
 9121SOL    HW228263   4.164   0.499   5.671
 9122SOL     OW28264   2.174   4.067   2.104
 9122SOL    HW128265   2.224   4.052   2.189
 9122SOL    HW228266   2.106   4.138   2.117
 9123SOL     OW28267   1.346   0.886   3.366
 9123SOL    HW128268   1.327   0.789   3.383
 9123SOL    HW228269   1.260   0.935   3.355
 9124SOL     OW28270   3.305   5.069   1.320
 9124SOL    HW128271   3.326   5.135   1.392
 9124SOL    HW228272   3.363   4.988   1.332
 9125SOL     OW28273   3.285   6.325   6.807
 9125SOL    HW128274   3.277   6.230   6.837
 9125SOL    HW228275   3.217   6.343   6.735
 9126SOL     OW28276   4.029   4.531   0.798
 9126SOL    HW128277   3.983   4.473   0.865
 9126SOL    HW228278   4.127   4.530   0.815
 9127SOL     OW28279   6.874   3.475   5.045
 9127SOL    HW128280   6.833   3.521   5.124
 9127SOL    HW228281   6.932   3.400   5.076
 9128SOL     OW28282   6.049   2.855   4.718
 9128SOL    HW128283   6.131   2.903   4.748
 9128SOL    HW228284   5.969   2.891   4.765
 9129SOL     OW28285   2.230   1.908   1.143
 9129SOL    HW128286   2.157   1.857   1.099
 9129SOL    HW228287   2.272   1.971   1.077
 9130SOL     OW28288   2.931   4.257   5.524
 9130SOL    HW128289   3.028   4.253   5.496
 9130SOL    HW228290   2.880   4.310   5.456
 9131SOL     OW28291   6.238   2.950   0.910
 9131SOL    HW128292   6.236   2.910   1.001
 9131SOL    HW228293   6.327   2.993   0.895
 9132SOL     OW28294   1.063   4.509   3.109
 9132SOL    HW128295   1.032   4.427   3.157
 9132SOL    HW228296   1.161   4.522   3.127
 9133SOL     OW28297   4.235   0.592   1.157
 9133SOL    HW128298   4.291   0.512   1.178
 9133SOL    HW228299   4.223   0.647   1.239
 9134SOL     OW28300   4.741   5.226   0.919
 9134SOL    HW128301   4.818   5.247   0.980
 9134SOL    HW228302   4.735   5.295   0.847
 9135SOL     OW28303   0.974   6.122   1.570
 9135SOL    HW128304   0.941   6.171   1.489
 9135SOL    HW228305   1.070   6.146   1.586
 9136SOL     OW28306   5.430   4.899   6.576
 9136SOL    HW128307   5.339   4.924   6.607
 9136SOL    HW228308   5.461   4.818   6.625
 9137SOL     OW28309   4.293   6.146   6.441
 9137SOL    HW128310   4.290   6.176   6.345
 9137SOL    HW228311   4.207   6.171   6.486
 9138SOL     OW28312   3.138   2.572   0.236
 9138SOL    HW128313   3.174   2.636   0.304
 9138SOL    HW228314   3.049   2.604   0.204
 9139SOL     OW28315   0.047   0.104   1.246
 9139SOL    HW128316   0.096   0.139   1.166
 9139SOL    HW228317   7.001   0.175   1.280
 9140SOL     OW28318   0.655   3.969   2.759
 9140SOL    HW128319   0.663   3.880   2.716
 9140SOL    HW228320   0.746   4.007   2.775
 9141SOL     OW28321   6.838   5.555   6.063
 9141SOL    HW128322   6.788   5.641   6.053
 9141SOL    HW228323   6.813   5.513   6.150
 9142SOL     OW28324   1.065   3.628   2.479
 9142SOL    HW128325   1.041   3.680   2.561
 9142SOL    HW228326   0.999   3.649   2.406
 9143SOL     OW28327   0.456   3.582   3.148
 9143SOL    HW128328   0.428   3.669   3.189
 9143SOL    HW228329   0.402   3.565   3.066
 9144SOL     OW28330   2.691   5.120   5.055
 9144SOL    HW128331   2.778   5.170   5.057
 9144SOL    HW228332   2.684   5.061   5.136
 9145SOL     OW28333   1.072   6.787   6.322
 9145SOL    HW128334   1.057   6.754   6.416
 9145SOL    HW228335   1.045   6.883   6.316
 9146SOL     OW28336   5.582   3.388   3.544
 9146SOL    HW128337   5.539   3.335   3.471
 9146SOL    HW228338   5.550   3.483   3.538
 9147SOL     OW28339   5.310   0.151   3.950
 9147SOL    HW128340   5.300   0.188   4.042
 9147SOL    HW228341   5.236   0.087   3.930
 9148SOL     OW28342   6.454   0.164   1.465
 9148SOL    HW128343   6.403   0.143   1.382
 9148SOL    HW228344   6.478   0.261   1.465
 9149SOL     OW28345   5.847   4.292   1.634
 9149SOL    HW128346   5.752   4.280   1.605
 9149SOL    HW228347   5.908   4.251   1.567
 9150SOL     OW28348   2.890   3.905   0.134
 9150SOL    HW128349   2.882   3.861   0.044
 9150SOL    HW228350   2.854   3.998   0.129
 9151SOL     OW28351   1.838   3.690   3.765
 9151SOL    HW128352   1.833   3.684   3.865
 9151SOL    HW228353   1.761   3.641   3.725
 9152SOL     OW28354   1.672   4.339   3.843
 9152SOL    HW128355   1.656   4.389   3.758
 9152SOL    HW228356   1.687   4.404   3.918
 9153SOL     OW28357   0.645   2.599   6.469
 9153SOL    HW128358   0.571   2.661   6.496
 9153SOL    HW228359   0.700   2.643   6.398
 9154SOL     OW28360   5.900   4.891   2.965
 9154SOL    HW128361   5.845   4.835   3.028
 9154SOL    HW228362   5.865   4.985   2.965
 9155SOL     OW28363   0.813   5.802   2.271
 9155SOL    HW128364   0.904   5.796   2.230
 9155SOL    HW228365   0.773   5.891   2.250
 9156SOL     OW28366   6.685   4.109   0.335
 9156SOL    HW128367   6.763   4.146   0.385
 9156SOL    HW228368   6.600   4.133   0.382
 9157SOL     OW28369   2.988   4.289   6.353
 9157SOL    HW128370   3.069   4.238   6.381
 9157SOL    HW228371   3.007   4.339   6.269
 9158SOL     OW28372   0.449   3.551   3.699
 9158SOL    HW128373   0.547   3.568   3.711
 9158SOL    HW228374   0.411   3.512   3.783
 9159SOL     OW28375   3.651   0.602   3.514
 9159SOL    HW128376   3.721   0.584   3.445
 9159SOL    HW228377   3.578   0.534   3.507
 9160SOL     OW28378   0.266   4.707   6.660
 9160SOL    HW128379   0.323   4.629   6.635
 9160SOL    HW228380   0.297   4.744   6.748
 9161SOL     OW28381   5.674   3.798   1.630
 9161SOL    HW128382   5.642   3.735   1.701
 9161SOL    HW228383   5.710   3.881   1.673
 9162SOL     OW28384   5.209   2.036   2.136
 9162SOL    HW128385   5.233   2.083   2.220
 9162SOL    HW228386   5.286   2.038   2.073
 9163SOL     OW28387   1.343   2.085   3.027
 9163SOL    HW128388   1.369   2.014   2.961
 9163SOL    HW228389   1.288   2.044   3.099
 9164SOL     OW28390   2.688   0.438   6.900
 9164SOL    HW128391   2.775   0.406   6.864
 9164SOL    HW228392   2.693   0.441   7.000
 9165SOL     OW28393   4.673   2.767   5.427
 9165SOL    HW128394   4.656   2.763   5.525
 9165SOL    HW228395   4.619   2.841   5.386
 9166SOL     OW28396   4.914   5.337   2.016
 9166SOL    HW128397   4.987   5.276   1.985
 9166SOL    HW228398   4.871   5.299   2.098
 9167SOL     OW28399   1.512   0.567   5.452
 9167SOL    HW128400   1.413   0.557   5.450
 9167SOL    HW228401   1.552   0.523   5.371
 9168SOL     OW28402   6.464   5.996   4.551
 9168SOL    HW128403   6.425   6.070   4.497
 9168SOL    HW228404   6.564   6.003   4.551
 9169SOL     OW28405   6.124   6.363   0.119
 9169SOL    HW128406   6.097   6.441   0.174
 9169SOL    HW228407   6.049   6.297   0.116
 9170SOL     OW28408   1.404   1.410   5.966
 9170SOL    HW128409   1.331   1.357   5.923
 9170SOL    HW228410   1.493   1.371   5.940
 9171SOL     OW28411   3.361   4.882   0.619
 9171SOL    HW128412   3.286   4.859   0.681
 9171SOL    HW228413   3.445   4.895   0.671
 9172SOL     OW28414   4.993   1.434   4.388
 9172SOL    HW128415   4.968   1.524   4.424
 9172SOL    HW228416   5.069   1.444   4.323
 9173SOL     OW28417   6.270   2.596   3.963
 9173SOL    HW128418   6.187   2.586   4.019
 9173SOL    HW228419   6.325   2.512   3.970
 9174SOL     OW28420   0.510   5.858   0.114
 9174SOL    HW128421   0.425   5.908   0.127
 9174SOL    HW228422   0.578   5.891   0.180
 9175SOL     OW28423   1.603   0.423   0.031
 9175SOL    HW128424   1.679   0.384   6.995
 9175SOL    HW228425   1.539   0.351   0.057
 9176SOL     OW28426   1.520   1.618   2.697
 9176SOL    HW128427   1.437   1.629   2.643
 9176SOL    HW228428   1.500   1.563   2.779
 9177SOL     OW28429   0.135   4.265   3.658
 9177SOL    HW128430   0.152   4.302   3.749
 9177SOL    HW228431   0.122   4.166   3.664
 9178SOL     OW28432   1.542   6.376   0.412
 9178SOL    HW128433   1.487   6.342   0.336
 9178SOL    HW228434   1.635   6.395   0.380
 9179SOL     OW28435   4.524   6.313   4.963
 9179SOL    HW128436   4.483   6.223   4.978
 9179SOL    HW228437   4.458   6.374   4.920
 9180SOL     OW28438   6.919   1.312   4.169
 9180SOL    HW128439   6.845   1.377   4.153
 9180SOL    HW228440   6.882   1.219   4.178
 9181SOL     OW28441   3.701   1.898   3.924
 9181SOL    HW128442   3.759   1.962   3.975
 9181SOL    HW228443   3.680   1.819   3.981
 9182SOL     OW28444   1.848   1.394   3.262
 9182SOL    HW128445   1.915   1.360   3.195
 9182SOL    HW228446   1.796   1.317   3.299
 9183SOL     OW28447   5.790   2.886   6.158
 9183SOL    HW128448   5.870   2.828   6.142
 9183SOL    HW228449   5.708   2.829   6.164
 9184SOL     OW28450   3.685   3.324   1.412
 9184SOL    HW128451   3.750   3.333   1.488
 9184SOL    HW228452   3.735   3.320   1.326
 9185SOL     OW28453   0.774   0.452   6.284
 9185SOL    HW128454   0.827   0.393   6.344
 9185SOL    HW228455   0.677   0.427   6.289
 9186SOL     OW28456   5.186   0.616   6.061
 9186SOL    HW128457   5.193   0.697   6.119
 9186SOL    HW228458   5.277   0.576   6.049
 9187SOL     OW28459   5.080   1.708   0.326
 9187SOL    HW128460   5.141   1.751   0.392
 9187SOL    HW228461   5.047   1.621   0.362
 9188SOL     OW28462   0.956   6.980   2.254
 9188SOL    HW128463   1.039   0.002   2.213
 9188SOL    HW228464   0.942   0.007   2.344
 9189SOL     OW28465   3.455   1.284   3.671
 9189SOL    HW128466   3.466   1.222   3.749
 9189SOL    HW228467   3.385   1.353   3.693
 9190SOL     OW28468   5.959   3.807   5.537
 9190SOL    HW128469   5.966   3.782   5.634
 9190SOL    HW228470   5.907   3.892   5.528
 9191SOL     OW28471   5.009   5.900   6.484
 9191SOL    HW128472   4.956   5.985   6.484
 9191SOL    HW228473   5.106   5.922   6.494
 9192SOL     OW28474   6.607   4.191   5.627
 9192SOL    HW128475   6.558   4.267   5.669
 9192SOL    HW228476   6.625   4.212   5.531
 9193SOL     OW28477   3.555   2.984   3.344
 9193SOL    HW128478   3.471   2.988   3.398
 9193SOL    HW228479   3.630   2.953   3.402
 9194SOL     OW28480   2.821   5.065   3.105
 9194SOL    HW128481   2.856   4.985   3.155
 9194SOL    HW228482   2.898   5.125   3.082
 9195SOL     OW28483   0.467   3.082   3.327
 9195SOL    HW128484   0.424   3.168   3.302
 9195SOL    HW228485   0.469   3.022   3.247
 9196SOL     OW28486   4.671   0.319   3.205
 9196SOL    HW128487   4.577   0.347   3.187
 9196SOL    HW228488   4.695   0.339   3.300
 9197SOL     OW28489   3.146   2.885   6.361
 9197SOL    HW128490   3.159   2.892   6.460
 9197SOL    HW228491   3.092   2.803   6.340
 9198SOL     OW28492   5.961   3.203   5.886
 9198SOL    HW128493   5.947   3.297   5.854
 9198SOL    HW228494   6.059   3.184   5.895
 9199SOL     OW28495   1.273   4.097   6.417
 9199SOL    HW128496   1.372   4.089   6.412
 9199SOL    HW228497   1.240   4.056   6.502
 9200SOL     OW28498   6.444   6.965   0.623
 9200SOL    HW128499   6.478   0.038   0.592
 9200SOL    HW228500   6.374   6.979   0.693
 9201SOL     OW28501   0.357   3.755   2.242
 9201SOL    HW128502   0.317   3.756   2.150
 9201SOL    HW228503   0.317   3.829   2.296
 9202SOL     OW28504   2.849   5.284   4.476
 9202SOL    HW128505   2.809   5.350   4.412
 9202SOL    HW228506   2.845   5.192   4.437
 9203SOL     OW28507   5.069   1.052   5.532
 9203SOL    HW128508   5.016   1.075   5.451
 9203SOL    HW228509   5.101   1.135   5.577
 9204SOL     OW28510   5.238   4.349   2.995
 9204SOL    HW128511   5.282   4.319   3.080
 9204SOL    HW228512   5.219   4.270   2.937
 9205SOL     OW28513   5.863   2.802   2.882
 9205SOL    HW128514   5.838   2.847   2.796
 9205SOL    HW228515   5.785   2.749   2.916
 9206SOL     OW28516   1.005   6.402   3.178
 9206SOL    HW128517   1.105   6.398   3.177
 9206SOL    HW228518   0.972   6.397   3.272
 9207SOL     OW28519   3.967   6.384   0.055
 9207SOL    HW128520   3.935   6.290   0.043
 9207SOL    HW228521   3.935   6.440   6.994
 9208SOL     OW28522   5.365   3.266   1.955
 9208SOL    HW128523   5.396   3.187   2.008
 9208SOL    HW228524   5.268   3.255   1.932
 9209SOL     OW28525   4.290   1.140   2.841
 9209SOL    HW128526   4.232   1.211   2.802
 9209SOL    HW228527   4.271   1.053   2.795
 9210SOL     OW28528   2.004   7.011   1.268
 9210SOL    HW128529   1.950   0.080   1.268
 9210SOL    HW228530   2.035   6.991   1.361
 9211SOL     OW28531   5.071   1.652   6.573
 9211SOL    HW128532   5.150   1.595   6.549
 9211SOL    HW228533   5.071   1.669   6.671
 9212SOL     OW28534   5.569   4.355   4.398
 9212SOL    HW128535   5.566   4.398   4.488
 9212SOL    HW228536   5.616   4.416   4.334
 9213SOL     OW28537   5.685   6.776   3.628
 9213SOL    HW128538   5.668   6.743   3.535
 9213SOL    HW228539   5.744   6.711   3.676
 9214SOL     OW28540   2.400   2.210   4.489
 9214SOL    HW128541   2.352   2.210   4.576
 9214SOL    HW228542   2.496   2.232   4.503
 9215SOL     OW28543   0.509   4.036   2.988
 9215SOL    HW128544   0.507   4.128   3.027
 9215SOL    HW228545   0.582   4.032   2.919
 9216SOL     OW28546   2.206   5.902   4.899
 9216SOL    HW128547   2.179   5.886   4.804
 9216SOL    HW228548   2.198   5.816   4.950
 9217SOL     OW28549   4.461   1.213   6.506
 9217SOL    HW128550   4.374   1.184   6.546
 9217SOL    HW228551   4.503   1.284   6.563
 9218SOL     OW28552   6.344   5.989   6.104
 9218SOL    HW128553   6.387   6.016   6.018
 9218SOL    HW228554   6.354   5.891   6.117
 9219SOL     OW28555   3.803   3.406   4.965
 9219SOL    HW128556   3.826   3.475   5.034
 9219SOL    HW228557   3.706   3.384   4.971
 9220SOL     OW28558   1.790   6.265   3.187
 9220SOL    HW128559   1.759   6.333   3.119
 9220SOL    HW228560   1.890   6.260   3.185
 9221SOL     OW28561   2.697   0.738   6.598
 9221SOL    HW128562   2.664   0.830   6.615
 9221SOL    HW228563   2.720   0.729   6.501
 9222SOL     OW28564   1.728   4.108   3.481
 9222SOL    HW128565   1.809   4.060   3.515
 9222SOL    HW228566   1.647   4.053   3.498
 9223SOL     OW28567   1.311   3.896   4.487
 9223SOL    HW128568   1.226   3.949   4.479
 9223SOL    HW228569   1.288   3.801   4.508
 9224SOL     OW28570   1.935   4.203   3.793
 9224SOL    HW128571   1.857   4.263   3.809
 9224SOL    HW228572   2.001   4.214   3.867
 9225SOL     OW28573   4.710   6.889   6.439
 9225SOL    HW128574   4.702   6.849   6.348
 9225SOL    HW228575   4.650   6.969   6.445
 9226SOL     OW28576   0.825   0.464   0.385
 9226SOL    HW128577   0.897   0.396   0.401
 9226SOL    HW228578   0.738   0.429   0.419
 9227SOL     OW28579   2.482   5.344   0.651
 9227SOL    HW128580   2.417   5.398   0.596
 9227SOL    HW228581   2.535   5.285   0.590
 9228SOL     OW28582   3.264   2.712   5.650
 9228SOL    HW128583   3.317   2.709   5.566
 9228SOL    HW228584   3.201   2.634   5.652
 9229SOL     OW28585   0.019   4.719   6.829
 9229SOL    HW128586   0.027   4.809   6.786
 9229SOL    HW228587   0.108   4.693   6.867
 9230SOL     OW28588   4.956   1.701   3.941
 9230SOL    HW128589   4.986   1.782   3.991
 9230SOL    HW228590   4.887   1.652   3.994
 9231SOL     OW28591   0.652   5.224   4.675
 9231SOL    HW128592   0.565   5.236   4.628
 9231SOL    HW228593   0.725   5.268   4.623
 9232SOL     OW28594   1.392   5.468   1.518
 9232SOL    HW128595   1.484   5.498   1.543
 9232SOL    HW228596   1.389   5.447   1.420
 9233SOL     OW28597   0.786   0.724   6.893
 9233SOL    HW128598   0.688   0.731   6.875
 9233SOL    HW228599   0.811   0.784   6.969
 9234SOL     OW28600   2.112   4.788   1.056
 9234SOL    HW128601   2.064   4.818   0.973
 9234SOL    HW228602   2.073   4.702   1.088
 9235SOL     OW28603   2.395   2.577   4.208
 9235SOL    HW128604   2.349   2.489   4.200
 9235SOL    HW228605   2.429   2.605   4.118
 9236SOL     OW28606   1.957   3.419   6.040
 9236SOL    HW128607   1.952   3.320   6.026
 9236SOL    HW228608   1.945   3.440   6.137
 9237SOL     OW28609   6.273   5.181   3.515
 9237SOL    HW128610   6.334   5.187   3.436
 9237SOL    HW228611   6.254   5.273   3.549
 9238SOL     OW28612   1.548   3.306   5.480
 9238SOL    HW128613   1.607   3.235   5.517
 9238SOL    HW228614   1.582   3.336   5.391
 9239SOL     OW28615   0.582   4.919   6.892
 9239SOL    HW128616   0.626   4.862   6.823
 9239SOL    HW228617   0.483   4.906   6.888
 9240SOL     OW28618   4.807   2.996   3.129
 9240SOL    HW128619   4.824   3.058   3.053
 9240SOL    HW228620   4.726   2.940   3.110
 9241SOL     OW28621   5.705   6.453   0.673
 9241SOL    HW128622   5.701   6.381   0.742
 9241SOL    HW228623   5.790   6.446   0.622
 9242SOL     OW28624   1.466   2.071   1.233
 9242SOL    HW128625   1.519   2.032   1.158
 9242SOL    HW228626   1.449   2.168   1.215
 9243SOL     OW28627   1.075   0.512   1.037
 9243SOL    HW128628   1.125   0.430   1.009
 9243SOL    HW228629   1.086   0.583   0.968
 9244SOL     OW28630   4.668   6.576   4.976
 9244SOL    HW128631   4.574   6.570   4.943
 9244SOL    HW228632   4.697   6.672   4.976
 9245SOL     OW28633   1.261   4.777   2.808
 9245SOL    HW128634   1.264   4.686   2.849
 9245SOL    HW228635   1.354   4.806   2.783
 9246SOL     OW28636   6.950   0.999   4.287
 9246SOL    HW128637   6.885   0.929   4.318
 9246SOL    HW228638   7.015   0.958   4.223
 9247SOL     OW28639   3.730   5.710   3.527
 9247SOL    HW128640   3.700   5.805   3.540
 9247SOL    HW228641   3.709   5.657   3.609
 9248SOL     OW28642   2.369   1.131   5.491
 9248SOL    HW128643   2.273   1.125   5.463
 9248SOL    HW228644   2.418   1.191   5.428
 9249SOL     OW28645   3.627   5.018   1.866
 9249SOL    HW128646   3.646   4.976   1.778
 9249SOL    HW228647   3.621   4.947   1.936
 9250SOL     OW28648   0.057   3.159   4.098
 9250SOL    HW128649   0.156   3.149   4.104
 9250SOL    HW228650   0.016   3.148   4.188
 9251SOL     OW28651   3.502   2.635   0.740
 9251SOL    HW128652   3.516   2.538   0.758
 9251SOL    HW228653   3.567   2.688   0.794
 9252SOL     OW28654   5.304   0.314   5.412
 9252SOL    HW128655   5.231   0.356   5.465
 9252SOL    HW228656   5.371   0.383   5.386
 9253SOL     OW28657   1.166   4.806   5.065
 9253SOL    HW128658   1.143   4.890   5.113
 9253SOL    HW228659   1.129   4.809   4.972
 9254SOL     OW28660   6.146   4.985   3.078
 9254SOL    HW128661   6.157   5.078   3.041
 9254SOL    HW228662   6.062   4.945   3.043
 9255SOL     OW28663   6.289   4.651   0.535
 9255SOL    HW128664   6.221   4.715   0.569
 9255SOL    HW228665   6.367   4.650   0.597
 9256SOL     OW28666   2.119   6.407   1.979
 9256SOL    HW128667   2.167   6.339   2.034
 9256SOL    HW228668   2.032   6.432   2.023
 9257SOL     OW28669   0.040   4.933   4.030
 9257SOL    HW128670   0.133   4.958   4.055
 9257SOL    HW228671   6.991   4.995   4.076
 9258SOL     OW28672   3.476   4.178   0.764
 9258SOL    HW128673   3.498   4.110   0.694
 9258SOL    HW228674   3.556   4.235   0.782
 9259SOL     OW28675   2.374   2.165   6.734
 9259SOL    HW128676   2.315   2.142   6.657
 9259SOL    HW228677   2.468   2.178   6.702
 9260SOL     OW28678   5.587   2.992   4.963
 9260SOL    HW128679   5.606   2.982   4.865
 9260SOL    HW228680   5.550   2.907   4.999
 9261SOL     OW28681   4.302   1.985   1.405
 9261SOL    HW128682   4.338   2.078   1.413
 9261SOL    HW228683   4.319   1.935   1.490
 9262SOL     OW28684   6.150   6.242   3.720
 9262SOL    HW128685   6.151   6.144   3.702
 9262SOL    HW228686   6.068   6.283   3.680
 9263SOL     OW28687   2.149   3.423   3.656
 9263SOL    HW128688   2.161   3.326   3.636
 9263SOL    HW228689   2.087   3.464   3.589
 9264SOL     OW28690   4.813   4.318   6.925
 9264SOL    HW128691   4.758   4.393   6.964
 9264SOL    HW228692   4.878   4.356   6.859
 9265SOL     OW28693   5.004   2.054   6.983
 9265SOL    HW128694   4.914   2.083   6.950
 9265SOL    HW228695   4.994   1.972   0.024
 9266SOL     OW28696   0.212   4.267   1.124
 9266SOL    HW128697   0.279   4.327   1.167
 9266SOL    HW228698   0.259   4.190   1.080
 9267SOL     OW28699   0.462   1.136   3.783
 9267SOL    HW128700   0.547   1.190   3.775
 9267SOL    HW228701   0.388   1.195   3.815
 9268SOL     OW28702   0.777   6.580   1.547
 9268SOL    HW128703   0.701   6.523   1.578
 9268SOL    HW228704   0.757   6.676   1.567
 9269SOL     OW28705   4.155   0.538   0.455
 9269SOL    HW128706   4.146   0.618   0.395
 9269SOL    HW228707   4.066   0.494   0.465
 9270SOL     OW28708   2.893   1.220   5.849
 9270SOL    HW128709   2.891   1.232   5.750
 9270SOL    HW228710   2.820   1.158   5.876
 9271SOL     OW28711   1.315   0.570   6.473
 9271SOL    HW128712   1.351   0.476   6.473
 9271SOL    HW228713   1.216   0.567   6.479
 9272SOL     OW28714   6.914   6.498   5.929
 9272SOL    HW128715   6.973   6.539   5.859
 9272SOL    HW228716   6.821   6.531   5.918
 9273SOL     OW28717   4.940   5.277   4.201
 9273SOL    HW128718   4.900   5.254   4.113
 9273SOL    HW228719   4.870   5.314   4.262
 9274SOL     OW28720   0.705   3.283   0.518
 9274SOL    HW128721   0.651   3.304   0.436
 9274SOL    HW228722   0.748   3.194   0.508
 9275SOL     OW28723   0.856   6.369   1.031
 9275SOL    HW128724   0.912   6.436   1.079
 9275SOL    HW228725   0.899   6.279   1.038
 9276SOL     OW28726   3.063   4.586   0.385
 9276SOL    HW128727   3.140   4.600   0.448
 9276SOL    HW228728   3.046   4.670   0.334
 9277SOL     OW28729   4.609   4.937   2.339
 9277SOL    HW128730   4.539   4.882   2.293
 9277SOL    HW228731   4.663   4.879   2.400
 9278SOL     OW28732   0.804   0.743   4.438
 9278SOL    HW128733   0.779   0.826   4.489
 9278SOL    HW228734   0.723   0.684   4.429
 9279SOL     OW28735   3.834   5.483   1.342
 9279SOL    HW128736   3.866   5.556   1.403
 9279SOL    HW228737   3.908   5.455   1.281
 9280SOL     OW28738   1.605   1.424   2.887
 9280SOL    HW128739   1.668   1.385   2.819
 9280SOL    HW228740   1.657   1.461   2.964
 9281SOL     OW28741   2.857   4.372   0.395
 9281SOL    HW128742   2.925   4.445   0.386
 9281SOL    HW228743   2.898   4.285   0.370
 9282SOL     OW28744   3.541   0.045   4.996
 9282SOL    HW128745   3.495   0.013   4.913
 9282SOL    HW228746   3.633   0.076   4.974
 9283SOL     OW28747   4.560   6.158   6.535
 9283SOL    HW128748   4.563   6.147   6.634
 9283SOL    HW228749   4.465   6.149   6.504
 9284SOL     OW28750   3.133   4.085   5.273
 9284SOL    HW128751   3.148   4.179   5.304
 9284SOL    HW228752   3.098   4.085   5.179
 9285SOL     OW28753   6.390   3.675   2.574
 9285SOL    HW128754   6.450   3.710   2.502
 9285SOL    HW228755   6.432   3.594   2.616
 9286SOL     OW28756   4.704   5.805   1.375
 9286SOL    HW128757   4.617   5.845   1.347
 9286SOL    HW228758   4.693   5.761   1.464
 9287SOL     OW28759   3.154   4.438   6.651
 9287SOL    HW128760   3.182   4.534   6.656
 9287SOL    HW228761   3.054   4.432   6.661
 9288SOL     OW28762   4.197   2.041   3.234
 9288SOL    HW128763   4.164   2.111   3.171
 9288SOL    HW228764   4.119   1.994   3.275
 9289SOL     OW28765   4.802   6.401   0.047
 9289SOL    HW128766   4.754   6.399   0.134
 9289SOL    HW228767   4.744   6.362   6.991
 9290SOL     OW28768   5.559   0.635   4.650
 9290SOL    HW128769   5.588   0.595   4.563
 9290SOL    HW228770   5.505   0.568   4.701
 9291SOL     OW28771   1.166   5.370   5.933
 9291SOL    HW128772   1.228   5.341   6.006
 9291SOL    HW228773   1.173   5.306   5.856
 9292SOL     OW28774   1.535   1.786   6.352
 9292SOL    HW128775   1.487   1.730   6.283
 9292SOL    HW228776   1.633   1.779   6.337
 9293SOL     OW28777   5.212   2.987   5.811
 9293SOL    HW128778   5.155   2.906   5.823
 9293SOL    HW228779   5.219   3.010   5.714
 9294SOL     OW28780   4.525   1.376   0.413
 9294SOL    HW128781   4.575   1.369   0.326
 9294SOL    HW228782   4.461   1.300   0.421
 9295SOL     OW28783   0.680   0.982   5.454
 9295SOL    HW128784   0.772   1.015   5.432
 9295SOL    HW228785   0.685   0.890   5.491
 9296SOL     OW28786   2.402   4.627   0.740
 9296SOL    HW128787   2.400   4.727   0.743
 9296SOL    HW228788   2.375   4.595   0.650
 9297SOL     OW28789   6.294   6.429   2.483
 9297SOL    HW128790   6.264   6.473   2.399
 9297SOL    HW228791   6.238   6.461   2.560
 9298SOL     OW28792   1.516   6.217   5.901
 9298SOL    HW128793   1.465   6.294   5.940
 9298SOL    HW228794   1.486   6.132   5.943
 9299SOL     OW28795   2.280   2.597   4.806
 9299SOL    HW128796   2.290   2.535   4.884
 9299SOL    HW228797   2.235   2.550   4.731
 9300SOL     OW28798   1.675   6.046   5.688
 9300SOL    HW128799   1.688   6.115   5.617
 9300SOL    HW228800   1.633   6.089   5.769
 9301SOL     OW28801   0.347   4.095   4.683
 9301SOL    HW128802   0.426   4.113   4.625
 9301SOL    HW228803   0.348   3.998   4.710
 9302SOL     OW28804   2.043   3.297   4.670
 9302SOL    HW128805   2.039   3.381   4.724
 9302SOL    HW228806   2.078   3.317   4.579
 9303SOL     OW28807   2.803   4.799   1.099
 9303SOL    HW128808   2.774   4.704   1.094
 9303SOL    HW228809   2.724   4.857   1.118
 9304SOL     OW28810   5.235   5.257   0.194
 9304SOL    HW128811   5.265   5.172   0.152
 9304SOL    HW228812   5.298   5.282   0.268
 9305SOL     OW28813   3.272   1.778   1.289
 9305SOL    HW128814   3.294   1.873   1.311
 9305SOL    HW228815   3.357   1.730   1.266
 9306SOL     OW28816   0.705   4.858   5.004
 9306SOL    HW128817   0.621   4.848   5.059
 9306SOL    HW228818   0.733   4.768   4.970
 9307SOL     OW28819   2.736   2.819   1.399
 9307SOL    HW128820   2.678   2.817   1.480
 9307SOL    HW228821   2.807   2.889   1.409
 9308SOL     OW28822   1.839   4.158   1.566
 9308SOL    HW128823   1.745   4.131   1.547
 9308SOL    HW228824   1.902   4.108   1.507
 9309SOL     OW28825   4.275   5.768   5.028
 9309SOL    HW128826   4.211   5.801   5.098
 9309SOL    HW228827   4.311   5.678   5.054
 9310SOL     OW28828   4.562   6.018   6.019
 9310SOL    HW128829   4.610   5.993   6.104
 9310SOL    HW228830   4.499   5.944   5.994
 9311SOL     OW28831   4.929   3.503   2.065
 9311SOL    HW128832   4.882   3.499   1.976
 9311SOL    HW228833   4.872   3.460   2.135
 9312SOL     OW28834   0.813   2.267   1.107
 9312SOL    HW128835   0.764   2.354   1.103
 9312SOL    HW228836   0.886   2.267   1.039
 9313SOL     OW28837   1.092   6.998   1.828
 9313SOL    HW128838   1.132   0.026   1.909
 9313SOL    HW228839   1.127   6.904   1.820
 9314SOL     OW28840   5.048   2.725   0.590
 9314SOL    HW128841   4.998   2.781   0.525
 9314SOL    HW228842   4.999   2.640   0.606
 9315SOL     OW28843   5.711   1.127   6.769
 9315SOL    HW128844   5.765   1.199   6.725
 9315SOL    HW228845   5.634   1.104   6.710
 9316SOL     OW28846   3.962   1.212   5.415
 9316SOL    HW128847   3.949   1.311   5.407
 9316SOL    HW228848   4.057   1.193   5.440
 9317SOL     OW28849   3.543   5.929   3.527
 9317SOL    HW128850   3.538   5.927   3.427
 9317SOL    HW228851   3.479   5.996   3.563
 9318SOL     OW28852   4.892   5.789   1.073
 9318SOL    HW128853   4.903   5.866   1.136
 9318SOL    HW228854   4.917   5.817   0.980
 9319SOL     OW28855   2.011   4.573   0.630
 9319SOL    HW128856   2.005   4.627   0.714
 9319SOL    HW228857   2.098   4.593   0.585
 9320SOL     OW28858   6.149   6.924   6.550
 9320SOL    HW128859   6.087   6.908   6.473
 9320SOL    HW228860   6.238   6.885   6.529
 9321SOL     OW28861   0.376   3.490   5.113
 9321SOL    HW128862   0.450   3.554   5.093
 9321SOL    HW228863   0.394   3.444   5.200
 9322SOL     OW28864   5.867   4.362   5.572
 9322SOL    HW128865   5.957   4.380   5.534
 9322SOL    HW228866   5.872   4.283   5.634
 9323SOL     OW28867   1.249   3.168   3.407
 9323SOL    HW128868   1.209   3.246   3.454
 9323SOL    HW228869   1.205   3.083   3.438
 9324SOL     OW28870   0.187   3.904   1.458
 9324SOL    HW128871   0.266   3.915   1.518
 9324SOL    HW228872   0.128   3.985   1.465
 9325SOL     OW28873   1.272   4.919   2.290
 9325SOL    HW128874   1.259   4.995   2.227
 9325SOL    HW228875   1.233   4.943   2.379
 9326SOL     OW28876   4.300   4.088   0.435
 9326SOL    HW128877   4.364   4.011   0.430
 9326SOL    HW228878   4.239   4.075   0.514
 9327SOL     OW28879   4.327   0.791   3.250
 9327SOL    HW128880   4.295   0.812   3.157
 9327SOL    HW228881   4.332   0.875   3.303
 9328SOL     OW28882   2.862   6.173   4.489
 9328SOL    HW128883   2.895   6.079   4.494
 9328SOL    HW228884   2.833   6.203   4.581
 9329SOL     OW28885   0.519   6.192   6.215
 9329SOL    HW128886   0.577   6.157   6.289
 9329SOL    HW228887   0.572   6.252   6.156
 9330SOL     OW28888   5.693   6.696   6.147
 9330SOL    HW128889   5.600   6.699   6.110
 9330SOL    HW228890   5.738   6.611   6.120
 9331SOL     OW28891   1.723   3.691   5.024
 9331SOL    HW128892   1.786   3.660   5.095
 9331SOL    HW228893   1.763   3.770   4.977
 9332SOL     OW28894   4.789   5.393   0.704
 9332SOL    HW128895   4.886   5.387   0.679
 9332SOL    HW228896   4.762   5.489   0.711
 9333SOL     OW28897   3.506   5.201   0.697
 9333SOL    HW128898   3.560   5.210   0.613
 9333SOL    HW228899   3.549   5.133   0.757
 9334SOL     OW28900   4.953   6.429   5.671
 9334SOL    HW128901   4.942   6.344   5.722
 9334SOL    HW228902   5.010   6.492   5.725
 9335SOL     OW28903   2.389   2.229   1.577
 9335SOL    HW128904   2.480   2.241   1.538
 9335SOL    HW228905   2.388   2.149   1.637
 9336SOL     OW28906   6.491   1.027   5.219
 9336SOL    HW128907   6.500   1.057   5.314
 9336SOL    HW228908   6.580   0.997   5.185
 9337SOL     OW28909   4.045   0.188   5.789
 9337SOL    HW128910   4.009   0.279   5.811
 9337SOL    HW228911   3.968   0.124   5.780
 9338SOL     OW28912   6.579   5.956   0.032
 9338SOL    HW128913   6.675   5.963   0.004
 9338SOL    HW228914   6.528   6.032   7.006
 9339SOL     OW28915   6.332   4.801   5.624
 9339SOL    HW128916   6.389   4.720   5.637
 9339SOL    HW228917   6.303   4.806   5.528
 9340SOL     OW28918   3.541   6.271   2.399
 9340SOL    HW128919   3.476   6.236   2.331
 9340SOL    HW228920   3.626   6.219   2.393
 9341SOL     OW28921   5.360   4.098   6.996
 9341SOL    HW128922   5.295   4.168   6.969
 9341SOL    HW228923   5.436   4.096   6.931
 9342SOL     OW28924   2.784   6.963   4.118
 9342SOL    HW128925   2.825   0.032   4.152
 9342SOL    HW228926   2.750   6.909   4.195
 9343SOL     OW28927   4.832   4.313   2.048
 9343SOL    HW128928   4.742   4.292   2.011
 9343SOL    HW228929   4.831   4.404   2.090
 9344SOL     OW28930   6.517   5.231   5.278
 9344SOL    HW128931   6.469   5.312   5.244
 9344SOL    HW228932   6.464   5.189   5.351
 9345SOL     OW28933   0.274   5.980   0.169
 9345SOL    HW128934   0.181   5.944   0.161
 9345SOL    HW228935   0.278   6.070   0.126
 9346SOL     OW28936   5.741   6.765   1.856
 9346SOL    HW128937   5.817   6.746   1.918
 9346SOL    HW228938   5.702   6.679   1.824
 9347SOL     OW28939   4.195   5.694   0.611
 9347SOL    HW128940   4.278   5.638   0.606
 9347SOL    HW228941   4.219   5.787   0.638
 9348SOL     OW28942   2.327   5.885   2.451
 9348SOL    HW128943   2.264   5.901   2.528
 9348SOL    HW228944   2.393   5.815   2.476
 9349SOL     OW28945   6.355   4.865   1.496
 9349SOL    HW128946   6.282   4.924   1.530
 9349SOL    HW228947   6.333   4.769   1.515
 9350SOL     OW28948   6.870   1.201   4.885
 9350SOL    HW128949   6.791   1.160   4.931
 9350SOL    HW228950   6.952   1.188   4.942
 9351SOL     OW28951   3.197   0.979   5.689
 9351SOL    HW128952   3.284   0.946   5.725
 9351SOL    HW228953   3.124   0.960   5.755
 9352SOL     OW28954   2.974   2.390   5.871
 9352SOL    HW128955   2.916   2.408   5.791
 9352SOL    HW228956   3.032   2.311   5.852
 9353SOL     OW28957   1.379   3.959   1.445
 9353SOL    HW128958   1.304   3.988   1.386
 9353SOL    HW228959   1.443   3.902   1.392
 9354SOL     OW28960   6.372   1.836   1.377
 9354SOL    HW128961   6.289   1.870   1.420
 9354SOL    HW228962   6.348   1.779   1.298
 9355SOL     OW28963   6.770   6.910   3.716
 9355SOL    HW128964   6.701   6.879   3.650
 9355SOL    HW228965   6.733   6.986   3.769
 9356SOL     OW28966   4.203   5.297   1.765
 9356SOL    HW128967   4.116   5.341   1.791
 9356SOL    HW228968   4.227   5.325   1.672
 9357SOL     OW28969   2.902   3.091   0.768
 9357SOL    HW128970   2.804   3.081   0.755
 9357SOL    HW228971   2.923   3.185   0.795
 9358SOL     OW28972   6.358   4.303   1.930
 9358SOL    HW128973   6.376   4.353   2.014
 9358SOL    HW228974   6.421   4.333   1.858
 9359SOL     OW28975   6.907   4.015   6.513
 9359SOL    HW128976   6.926   3.917   6.511
 9359SOL    HW228977   6.810   4.031   6.495
 9360SOL     OW28978   2.352   0.356   5.836
 9360SOL    HW128979   2.399   0.442   5.819
 9360SOL    HW228980   2.335   0.309   5.750
 9361SOL     OW28981   2.747   5.915   2.461
 9361SOL    HW128982   2.779   5.907   2.555
 9361SOL    HW228983   2.792   5.993   2.416
 9362SOL     OW28984   2.363   1.090   2.028
 9362SOL    HW128985   2.310   1.091   2.113
 9362SOL    HW228986   2.374   0.995   1.997
 9363SOL     OW28987   3.408   6.045   2.791
 9363SOL    HW128988   3.323   6.075   2.748
 9363SOL    HW228989   3.403   6.064   2.890
 9364SOL     OW28990   4.242   3.071   6.437
 9364SOL    HW128991   4.331   3.114   6.422
 9364SOL    HW228992   4.208   3.095   6.528
 9365SOL     OW28993   2.870   1.923   5.096
 9365SOL    HW128994   2.919   1.836   5.095
 9365SOL    HW228995   2.792   1.918   5.033
 9366SOL     OW28996   3.411   1.872   0.604
 9366SOL    HW128997   3.371   1.793   0.556
 9366SOL    HW228998   3.502   1.849   0.636
 9367SOL     OW28999   6.675   5.823   3.487
 9367SOL    HW129000   6.648   5.852   3.579
 9367SOL    HW229001   6.755   5.763   3.493
 9368SOL     OW29002   3.390   2.135   1.826
 9368SOL    HW129003   3.435   2.201   1.766
 9368SOL    HW229004   3.431   2.045   1.813
 9369SOL     OW29005   6.346   1.716   5.820
 9369SOL    HW129006   6.398   1.665   5.888
 9369SOL    HW229007   6.307   1.652   5.753
 9370SOL     OW29008   5.941   1.034   2.788
 9370SOL    HW129009   5.859   1.081   2.820
 9370SOL    HW229010   6.004   1.020   2.864
 9371SOL     OW29011   1.090   5.420   0.140
 9371SOL    HW129012   1.000   5.443   0.103
 9371SOL    HW229013   1.082   5.400   0.238
 9372SOL     OW29014   5.594   6.685   3.391
 9372SOL    HW129015   5.591   6.728   3.301
 9372SOL    HW229016   5.508   6.703   3.439
 9373SOL     OW29017   4.218   1.524   3.124
 9373SOL    HW129018   4.152   1.450   3.109
 9373SOL    HW229019   4.311   1.487   3.124
 9374SOL     OW29020   5.617   2.733   0.095
 9374SOL    HW129021   5.586   2.731   0.190
 9374SOL    HW229022   5.688   2.802   0.084
 9375SOL     OW29023   6.508   0.990   2.802
 9375SOL    HW129024   6.460   0.906   2.829
 9375SOL    HW229025   6.536   0.983   2.706
 9376SOL     OW29026   3.148   3.457   0.851
 9376SOL    HW129027   3.121   3.401   0.929
 9376SOL    HW229028   3.129   3.553   0.870
 9377SOL     OW29029   6.421   5.454   3.788
 9377SOL    HW129030   6.337   5.469   3.735
 9377SOL    HW229031   6.489   5.410   3.730
 9378SOL     OW29032   2.720   0.142   6.672
 9378SOL    HW129033   2.628   0.151   6.711
 9378SOL    HW229034   2.727   0.199   6.590
 9379SOL     OW29035   4.606   4.337   4.047
 9379SOL    HW129036   4.585   4.245   4.081
 9379SOL    HW229037   4.577   4.405   4.115
 9380SOL     OW29038   6.778   6.266   5.563
 9380SOL    HW129039   6.755   6.299   5.471
 9380SOL    HW229040   6.725   6.184   5.583
 9381SOL     OW29041   2.438   2.879   5.385
 9381SOL    HW129042   2.356   2.908   5.434
 9381SOL    HW229043   2.445   2.929   5.299
 9382SOL     OW29044   4.013   0.532   3.021
 9382SOL    HW129045   4.040   0.576   3.106
 9382SOL    HW229046   3.919   0.556   2.999
 9383SOL     OW29047   3.267   6.811   4.824
 9383SOL    HW129048   3.208   6.829   4.903
 9383SOL    HW229049   3.220   6.751   4.760
 9384SOL     OW29050   4.295   6.001   2.618
 9384SOL    HW129051   4.280   6.007   2.519
 9384SOL    HW229052   4.336   5.913   2.640
 9385SOL     OW29053   3.764   1.550   3.017
 9385SOL    HW129054   3.681   1.528   2.967
 9385SOL    HW229055   3.750   1.636   3.068
 9386SOL     OW29056   3.576   6.390   4.965
 9386SOL    HW129057   3.498   6.332   4.940
 9386SOL    HW229058   3.628   6.413   4.884
 9387SOL     OW29059   3.549   6.665   1.354
 9387SOL    HW129060   3.644   6.695   1.364
 9387SOL    HW229061   3.546   6.581   1.299
 9388SOL     OW29062   1.128   6.154   2.528
 9388SOL    HW129063   1.134   6.055   2.540
 9388SOL    HW229064   1.220   6.191   2.512
 9389SOL     OW29065   2.519   0.240   5.346
 9389SOL    HW129066   2.503   0.303   5.421
 9389SOL    HW229067   2.445   0.247   5.279
 9390SOL     OW29068   4.402   5.895   3.373
 9390SOL    HW129069   4.385   5.913   3.276
 9390SOL    HW229070   4.475   5.955   3.406
 9391SOL     OW29071   1.938   0.733   5.427
 9391SOL    HW129072   1.922   0.735   5.526
 9391SOL    HW229073   1.910   0.821   5.388
 9392SOL     OW29074   0.672   6.631   5.147
 9392SOL    HW129075   0.626   6.684   5.076
 9392SOL    HW229076   0.735   6.566   5.104
 9393SOL     OW29077   3.593   1.624   4.577
 9393SOL    HW129078   3.553   1.699   4.525
 9393SOL    HW229079   3.691   1.640   4.590
 9394SOL     OW29080   6.163   2.625   3.213
 9394SOL    HW129081   6.082   2.660   3.261
 9394SOL    HW229082   6.244   2.638   3.270
 9395SOL     OW29083   2.767   2.420   0.246
 9395SOL    HW129084   2.793   2.411   0.149
 9395SOL    HW229085   2.847   2.402   0.303
 9396SOL     OW29086   0.033   6.399   4.693
 9396SOL    HW129087   0.080   6.357   4.771
 9396SOL    HW229088   6.951   6.374   4.697
 9397SOL     OW29089   2.437   0.446   0.529
 9397SOL    HW129090   2.527   0.484   0.510
 9397SOL    HW229091   2.417   0.374   0.463
 9398SOL     OW29092   2.230   0.970   6.987
 9398SOL    HW129093   2.317   0.991   6.942
 9398SOL    HW229094   2.223   1.024   0.056
 9399SOL     OW29095   6.594   2.266   6.884
 9399SOL    HW129096   6.653   2.322   6.941
 9399SOL    HW229097   6.640   2.246   6.797
 9400SOL     OW29098   5.380   3.631   1.649
 9400SOL    HW129099   5.408   3.612   1.743
 9400SOL    HW229100   5.426   3.567   1.587
 9401SOL     OW29101   2.355   6.682   3.511
 9401SOL    HW129102   2.424   6.652   3.576
 9401SOL    HW229103   2.399   6.718   3.429
 9402SOL     OW29104   2.289   4.605   6.344
 9402SOL    HW129105   2.337   4.599   6.256
 9402SOL    HW229106   2.233   4.523   6.357
 9403SOL     OW29107   4.847   1.740   3.514
 9403SOL    HW129108   4.929   1.777   3.470
 9403SOL    HW229109   4.781   1.714   3.443
 9404SOL     OW29110   0.360   4.933   6.495
 9404SOL    HW129111   0.443   4.899   6.450
 9404SOL    HW229112   0.297   4.856   6.512
 9405SOL     OW29113   6.013   6.746   1.422
 9405SOL    HW129114   5.968   6.789   1.501
 9405SOL    HW229115   5.955   6.673   1.387
 9406SOL     OW29116   0.434   1.884   5.315
 9406SOL    HW129117   0.341   1.845   5.314
 9406SOL    HW229118   0.439   1.959   5.250
 9407SOL     OW29119   3.312   6.869   2.810
 9407SOL    HW129120   3.277   6.962   2.795
 9407SOL    HW229121   3.404   6.862   2.773
 9408SOL     OW29122   3.902   0.991   5.825
 9408SOL    HW129123   3.840   0.978   5.747
 9408SOL    HW229124   3.854   1.041   5.897
 9409SOL     OW29125   4.960   4.123   4.456
 9409SOL    HW129126   5.060   4.127   4.455
 9409SOL    HW229127   4.922   4.215   4.448
 9410SOL     OW29128   3.555   6.043   1.757
 9410SOL    HW129129   3.519   6.125   1.711
 9410SOL    HW229130   3.655   6.047   1.758
 9411SOL     OW29131   3.563   5.060   1.032
 9411SOL    HW129132   3.500   5.134   1.012
 9411SOL    HW229133   3.630   5.090   1.100
 9412SOL     OW29134   0.840   2.824   1.730
 9412SOL    HW129135   0.847   2.732   1.770
 9412SOL    HW229136   0.836   2.892   1.803
 9413SOL     OW29137   4.112   5.805   4.810
 9413SOL    HW129138   4.151   5.743   4.742
 9413SOL    HW229139   4.146   5.780   4.900
 9414SOL     OW29140   2.986   1.850   2.649
 9414SOL    HW129141   2.954   1.761   2.681
 9414SOL    HW229142   2.913   1.917   2.656
 9415SOL     OW29143   1.521   6.702   2.639
 9415SOL    HW129144   1.493   6.686   2.544
 9415SOL    HW229145   1.441   6.705   2.698
 9416SOL     OW29146   0.787   1.358   1.557
 9416SOL    HW129147   0.785   1.292   1.632
 9416SOL    HW229148   0.868   1.416   1.565
 9417SOL     OW29149   3.208   6.872   5.549
 9417SOL    HW129150   3.257   6.949   5.591
 9417SOL    HW229151   3.202   6.886   5.450
 9418SOL     OW29152   2.275   6.074   0.921
 9418SOL    HW129153   2.176   6.061   0.925
 9418SOL    HW229154   2.318   6.031   1.001
 9419SOL     OW29155   3.456   6.843   5.156
 9419SOL    HW129156   3.454   6.743   5.150
 9419SOL    HW229157   3.513   6.879   5.082
 9420SOL     OW29158   0.151   1.582   5.102
 9420SOL    HW129159   0.205   1.588   5.018
 9420SOL    HW229160   0.056   1.561   5.080
 9421SOL     OW29161   2.327   5.588   5.468
 9421SOL    HW129162   2.257   5.635   5.414
 9421SOL    HW229163   2.321   5.489   5.451
 9422SOL     OW29164   5.454   0.034   2.330
 9422SOL    HW129165   5.437   0.110   2.394
 9422SOL    HW229166   5.369   7.000   2.314
 9423SOL     OW29167   4.523   0.424   2.901
 9423SOL    HW129168   4.510   0.356   2.829
 9423SOL    HW229169   4.620   0.426   2.928
 9424SOL     OW29170   5.122   0.789   5.682
 9424SOL    HW129171   5.109   0.837   5.595
 9424SOL    HW229172   5.033   0.770   5.723
 9425SOL     OW29173   0.524   3.178   5.779
 9425SOL    HW129174   0.425   3.166   5.776
 9425SOL    HW229175   0.561   3.137   5.862
 9426SOL     OW29176   2.844   1.467   0.537
 9426SOL    HW129177   2.888   1.454   0.625
 9426SOL    HW229178   2.833   1.565   0.519
 9427SOL     OW29179   3.042   4.776   5.233
 9427SOL    HW129180   3.000   4.691   5.201
 9427SOL    HW229181   2.992   4.854   5.195
 9428SOL     OW29182   5.689   6.912   2.604
 9428SOL    HW129183   5.753   6.884   2.532
 9428SOL    HW229184   5.732   6.982   2.661
 9429SOL     OW29185   1.503   3.923   2.139
 9429SOL    HW129186   1.527   3.833   2.102
 9429SOL    HW229187   1.405   3.937   2.130
 9430SOL     OW29188   6.732   6.585   2.066
 9430SOL    HW129189   6.712   6.493   2.099
 9430SOL    HW229190   6.654   6.618   2.013
 9431SOL     OW29191   6.223   4.041   0.345
 9431SOL    HW129192   6.175   4.071   0.262
 9431SOL    HW229193   6.205   3.944   0.361
 9432SOL     OW29194   6.255   0.222   3.932
 9432SOL    HW129195   6.280   0.129   3.907
 9432SOL    HW229196   6.177   0.220   3.995
 9433SOL     OW29197   3.278   5.051   4.644
 9433SOL    HW129198   3.325   5.139   4.637
 9433SOL    HW229199   3.332   4.988   4.699
 9434SOL     OW29200   5.364   4.148   3.573
 9434SOL    HW129201   5.435   4.207   3.533
 9434SOL    HW229202   5.346   4.071   3.512
 9435SOL     OW29203   1.220   1.030   4.526
 9435SOL    HW129204   1.196   0.998   4.434
 9435SOL    HW229205   1.145   1.084   4.564
 9436SOL     OW29206   1.139   3.363   1.652
 9436SOL    HW129207   1.210   3.315   1.600
 9436SOL    HW229208   1.117   3.310   1.734
 9437SOL     OW29209   1.232   5.896   3.178
 9437SOL    HW129210   1.263   5.983   3.140
 9437SOL    HW229211   1.134   5.898   3.192
 9438SOL     OW29212   1.152   6.389   1.389
 9438SOL    HW129213   1.155   6.464   1.323
 9438SOL    HW229214   1.071   6.333   1.371
 9439SOL     OW29215   6.956   3.096   2.211
 9439SOL    HW129216   6.951   2.999   2.231
 9439SOL    HW229217   7.008   3.111   2.127
 9440SOL     OW29218   4.936   5.612   4.875
 9440SOL    HW129219   4.896   5.648   4.960
 9440SOL    HW229220   4.899   5.663   4.797
 9441SOL     OW29221   1.172   5.438   5.374
 9441SOL    HW129222   1.236   5.416   5.300
 9441SOL    HW229223   1.094   5.376   5.370
 9442SOL     OW29224   6.439   1.667   0.064
 9442SOL    HW129225   6.369   1.674   7.008
 9442SOL    HW229226   6.427   1.742   0.129
 9443SOL     OW29227   2.185   4.329   1.731
 9443SOL    HW129228   2.179   4.359   1.636
 9443SOL    HW229229   2.217   4.404   1.788
 9444SOL     OW29230   0.468   3.212   0.284
 9444SOL    HW129231   0.457   3.309   0.305
 9444SOL    HW229232   0.527   3.202   0.204
 9445SOL     OW29233   5.096   3.283   1.948
 9445SOL    HW129234   5.029   3.355   1.965
 9445SOL    HW229235   5.050   3.194   1.952
 9446SOL     OW29236   6.429   6.706   2.865
 9446SOL    HW129237   6.390   6.743   2.781
 9446SOL    HW229238   6.471   6.781   2.918
 9447SOL     OW29239   5.628   3.613   2.897
 9447SOL    HW129240   5.585   3.529   2.864
 9447SOL    HW229241   5.699   3.590   2.964
 9448SOL     OW29242   5.246   5.845   6.302
 9448SOL    HW129243   5.249   5.915   6.373
 9448SOL    HW229244   5.162   5.855   6.249
 9449SOL     OW29245   6.957   5.568   5.742
 9449SOL    HW129246   6.868   5.593   5.780
 9449SOL    HW229247   7.010   5.518   5.810
 9450SOL     OW29248   2.653   4.789   4.855
 9450SOL    HW129249   2.701   4.783   4.943
 9450SOL    HW229250   2.612   4.879   4.846
 9451SOL     OW29251   4.739   5.731   6.036
 9451SOL    HW129252   4.751   5.633   6.056
 9451SOL    HW229253   4.721   5.743   5.939
 9452SOL     OW29254   1.799   3.236   0.235
 9452SOL    HW129255   1.778   3.333   0.249
 9452SOL    HW229256   1.815   3.219   0.137
 9453SOL     OW29257   1.817   3.796   3.068
 9453SOL    HW129258   1.772   3.746   3.142
 9453SOL    HW229259   1.895   3.744   3.034
 9454SOL     OW29260   1.433   3.690   5.938
 9454SOL    HW129261   1.527   3.715   5.960
 9454SOL    HW229262   1.374   3.770   5.950
 9455SOL     OW29263   3.524   1.375   2.781
 9455SOL    HW129264   3.601   1.410   2.727
 9455SOL    HW229265   3.491   1.448   2.842
 9456SOL     OW29266   0.030   4.275   0.875
 9456SOL    HW129267   0.109   4.234   0.830
 9456SOL    HW229268   0.050   4.291   0.972
 9457SOL     OW29269   1.292   3.816   6.226
 9457SOL    HW129270   1.259   3.819   6.320
 9457SOL    HW229271   1.389   3.841   6.224
 9458SOL     OW29272   0.583   4.717   6.474
 9458SOL    HW129273   0.635   4.740   6.392
 9458SOL    HW229274   0.537   4.629   6.462
 9459SOL     OW29275   6.593   5.213   1.671
 9459SOL    HW129276   6.619   5.128   1.626
 9459SOL    HW229277   6.575   5.196   1.767
 9460SOL     OW29278   0.109   2.496   5.309
 9460SOL    HW129279   0.053   2.417   5.335
 9460SOL    HW229280   0.053   2.559   5.256
 9461SOL     OW29281   6.593   1.341   3.186
 9461SOL    HW129282   6.561   1.389   3.105
 9461SOL    HW229283   6.692   1.328   3.180
 9462SOL     OW29284   1.669   3.370   3.387
 9462SOL    HW129285   1.608   3.306   3.340
 9462SOL    HW229286   1.753   3.323   3.413
 9463SOL     OW29287   7.005   0.394   1.051
 9463SOL    HW129288   6.920   0.352   1.082
 9463SOL    HW229289   0.032   0.336   0.981
 9464SOL     OW29290   5.347   6.826   6.398
 9464SOL    HW129291   5.295   6.875   6.467
 9464SOL    HW229292   5.285   6.771   6.342
 9465SOL     OW29293   6.699   0.201   3.000
 9465SOL    HW129294   6.624   0.232   2.942
 9465SOL    HW229295   6.666   0.191   3.094
 9466SOL     OW29296   3.347   3.276   5.564
 9466SOL    HW129297   3.316   3.182   5.572
 9466SOL    HW229298   3.315   3.315   5.477
 9467SOL     OW29299   1.680   2.457   1.479
 9467SOL    HW129300   1.692   2.556   1.491
 9467SOL    HW229301   1.605   2.426   1.537
 9468SOL     OW29302   5.490   2.818   6.145
 9468SOL    HW129303   5.467   2.821   6.242
 9468SOL    HW229304   5.463   2.904   6.101
 9469SOL     OW29305   6.103   5.302   1.958
 9469SOL    HW129306   6.040   5.364   2.005
 9469SOL    HW229307   6.189   5.297   2.007
 9470SOL     OW29308   5.004   3.044   6.699
 9470SOL    HW129309   4.921   2.992   6.719
 9470SOL    HW229310   5.074   2.982   6.664
 9471SOL     OW29311   6.687   2.425   5.669
 9471SOL    HW129312   6.620   2.367   5.717
 9471SOL    HW229313   6.640   2.501   5.624
 9472SOL     OW29314   6.506   3.774   4.385
 9472SOL    HW129315   6.448   3.693   4.379
 9472SOL    HW229316   6.600   3.749   4.359
 9473SOL     OW29317   3.776   6.577   5.129
 9473SOL    HW129318   3.679   6.553   5.132
 9473SOL    HW229319   3.786   6.668   5.090
 9474SOL     OW29320   5.968   4.687   1.941
 9474SOL    HW129321   5.905   4.741   1.997
 9474SOL    HW229322   5.917   4.640   1.869
 9475SOL     OW29323   3.487   3.279   1.103
 9475SOL    HW129324   3.431   3.250   1.025
 9475SOL    HW229325   3.564   3.335   1.070
 9476SOL     OW29326   2.955   3.261   4.408
 9476SOL    HW129327   2.907   3.345   4.433
 9476SOL    HW229328   2.955   3.197   4.485
 9477SOL     OW29329   0.936   3.339   1.466
 9477SOL    HW129330   0.860   3.394   1.500
 9477SOL    HW229331   1.015   3.349   1.527
 9478SOL     OW29332   5.495   4.051   6.257
 9478SOL    HW129333   5.531   4.057   6.350
 9478SOL    HW229334   5.564   4.010   6.197
 9479SOL     OW29335   6.034   6.196   6.226
 9479SOL    HW129336   6.052   6.099   6.240
 9479SOL    HW229337   6.016   6.240   6.314
 9480SOL     OW29338   4.200   4.488   6.540
 9480SOL    HW129339   4.251   4.562   6.498
 9480SOL    HW229340   4.197   4.410   6.478
 9481SOL     OW29341   6.183   3.681   1.629
 9481SOL    HW129342   6.173   3.745   1.706
 9481SOL    HW229343   6.097   3.632   1.615
 9482SOL     OW29344   5.743   0.894   2.985
 9482SOL    HW129345   5.730   0.982   2.939
 9482SOL    HW229346   5.714   0.901   3.080
 9483SOL     OW29347   2.048   1.756   1.018
 9483SOL    HW129348   2.011   1.760   0.926
 9483SOL    HW229349   2.053   1.661   1.048
 9484SOL     OW29350   5.700   1.742   3.578
 9484SOL    HW129351   5.620   1.683   3.591
 9484SOL    HW229352   5.725   1.743   3.482
 9485SOL     OW29353   1.386   0.131   1.473
 9485SOL    HW129354   1.404   0.100   1.380
 9485SOL    HW229355   1.298   0.178   1.476
 9486SOL     OW29356   2.348   5.208   1.073
 9486SOL    HW129357   2.267   5.151   1.069
 9486SOL    HW229358   2.380   5.214   1.168
 9487SOL     OW29359   2.977   3.853   3.318
 9487SOL    HW129360   2.969   3.776   3.255
 9487SOL    HW229361   3.059   3.905   3.296
 9488SOL     OW29362   2.385   6.389   1.218
 9488SOL    HW129363   2.350   6.380   1.125
 9488SOL    HW229364   2.403   6.298   1.256
 9489SOL     OW29365   3.298   4.196   0.962
 9489SOL    HW129366   3.361   4.167   0.890
 9489SOL    HW229367   3.286   4.123   1.029
 9490SOL     OW29368   5.483   6.819   0.900
 9490SOL    HW129369   5.518   6.905   0.937
 9490SOL    HW229370   5.387   6.809   0.925
 9491SOL     OW29371   6.785   4.817   4.872
 9491SOL    HW129372   6.702   4.820   4.816
 9491SOL    HW229373   6.761   4.801   4.967
 9492SOL     OW29374   3.212   3.426   2.430
 9492SOL    HW129375   3.219   3.507   2.371
 9492SOL    HW229376   3.250   3.447   2.520
 9493SOL     OW29377   4.808   5.215   3.951
 9493SOL    HW129378   4.814   5.314   3.933
 9493SOL    HW229379   4.743   5.174   3.888
 9494SOL     OW29380   4.921   4.343   0.714
 9494SOL    HW129381   4.857   4.401   0.766
 9494SOL    HW229382   4.941   4.261   0.767
 9495SOL     OW29383   6.479   2.199   4.242
 9495SOL    HW129384   6.560   2.150   4.209
 9495SOL    HW229385   6.503   2.252   4.324
 9496SOL     OW29386   5.410   4.665   6.886
 9496SOL    HW129387   5.319   4.643   6.922
 9496SOL    HW229388   5.479   4.613   6.936
 9497SOL     OW29389   4.183   4.045   0.720
 9497SOL    HW129390   4.211   4.131   0.763
 9497SOL    HW229391   4.209   3.969   0.779
 9498SOL     OW29392   5.426   0.470   6.037
 9498SOL    HW129393   5.524   0.491   6.037
 9498SOL    HW229394   5.398   0.444   5.945
 9499SOL     OW29395   1.942   3.917   5.445
 9499SOL    HW129396   1.897   4.005   5.455
 9499SOL    HW229397   2.030   3.929   5.398
 9500SOL     OW29398   3.338   6.803   1.727
 9500SOL    HW129399   3.387   6.882   1.764
 9500SOL    HW229400   3.334   6.809   1.628
 9501SOL     OW29401   3.386   1.617   4.815
 9501SOL    HW129402   3.341   1.704   4.797
 9501SOL    HW229403   3.464   1.606   4.753
 9502SOL     OW29404   0.256   2.388   5.118
 9502SOL    HW129405   0.290   2.455   5.053
 9502SOL    HW229406   0.202   2.434   5.189
 9503SOL     OW29407   0.311   0.903   1.288
 9503SOL    HW129408   0.326   0.910   1.189
 9503SOL    HW229409   0.213   0.909   1.306
 9504SOL     OW29410   6.458   2.547   0.711
 9504SOL    HW129411   6.503   2.500   0.787
 9504SOL    HW229412   6.402   2.481   0.660
 9505SOL     OW29413   5.930   3.937   3.427
 9505SOL    HW129414   5.855   3.884   3.387
 9505SOL    HW229415   5.953   3.900   3.517
 9506SOL     OW29416   0.334   3.052   6.867
 9506SOL    HW129417   0.235   3.044   6.879
 9506SOL    HW229418   0.380   2.983   6.923
 9507SOL     OW29419   2.299   0.898   3.969
 9507SOL    HW129420   2.330   0.875   4.062
 9507SOL    HW229421   2.235   0.828   3.937
 9508SOL     OW29422   5.728   2.220   0.668
 9508SOL    HW129423   5.701   2.306   0.624
 9508SOL    HW229424   5.649   2.181   0.716
 9509SOL     OW29425   1.498   6.879   5.549
 9509SOL    HW129426   1.435   6.827   5.492
 9509SOL    HW229427   1.464   6.973   5.559
 9510SOL     OW29428   0.409   3.885   1.622
 9510SOL    HW129429   0.491   3.849   1.578
 9510SOL    HW229430   0.435   3.940   1.702
 9511SOL     OW29431   0.683   2.185   0.138
 9511SOL    HW129432   0.646   2.123   0.207
 9511SOL    HW229433   0.694   2.136   0.051
 9512SOL     OW29434   6.508   1.929   3.815
 9512SOL    HW129435   6.521   2.028   3.811
 9512SOL    HW229436   6.582   1.883   3.764
 9513SOL     OW29437   1.760   3.189   4.678
 9513SOL    HW129438   1.778   3.262   4.612
 9513SOL    HW229439   1.837   3.126   4.680
 9514SOL     OW29440   1.392   3.965   6.819
 9514SOL    HW129441   1.299   3.999   6.810
 9514SOL    HW229442   1.404   3.923   6.909
 9515SOL     OW29443   1.374   5.638   6.933
 9515SOL    HW129444   1.421   5.607   0.001
 9515SOL    HW229445   1.373   5.738   6.931
 9516SOL     OW29446   5.072   3.108   4.460
 9516SOL    HW129447   5.161   3.144   4.488
 9516SOL    HW229448   5.027   3.173   4.399
 9517SOL     OW29449   1.718   4.976   0.817
 9517SOL    HW129450   1.721   5.071   0.788
 9517SOL    HW229451   1.717   4.916   0.737
 9518SOL     OW29452   1.736   2.184   6.866
 9518SOL    HW129453   1.736   2.244   6.786
 9518SOL    HW229454   1.718   2.237   6.948
 9519SOL     OW29455   2.975   3.256   3.016
 9519SOL    HW129456   3.023   3.192   2.956
 9519SOL    HW229457   2.970   3.346   2.971
 9520SOL     OW29458   6.531   1.111   4.227
 9520SOL    HW129459   6.628   1.134   4.231
 9520SOL    HW229460   6.499   1.088   4.318
 9521SOL     OW29461   3.406   4.846   1.471
 9521SOL    HW129462   3.338   4.780   1.439
 9521SOL    HW229463   3.448   4.812   1.555
 9522SOL     OW29464   4.095   5.577   2.680
 9522SOL    HW129465   4.025   5.644   2.653
 9522SOL    HW229466   4.119   5.520   2.601
 9523SOL     OW29467   2.191   5.620   4.977
 9523SOL    HW129468   2.265   5.557   4.956
 9523SOL    HW229469   2.111   5.599   4.921
 9524SOL     OW29470   1.813   3.207   1.480
 9524SOL    HW129471   1.741   3.227   1.414
 9524SOL    HW229472   1.891   3.267   1.465
 9525SOL     OW29473   1.908   1.509   5.960
 9525SOL    HW129474   1.979   1.527   5.892
 9525SOL    HW229475   1.949   1.500   6.051
 9526SOL     OW29476   5.710   4.842   0.747
 9526SOL    HW129477   5.766   4.831   0.829
 9526SOL    HW229478   5.617   4.866   0.773
 9527SOL     OW29479   2.725   6.808   4.322
 9527SOL    HW129480   2.735   6.711   4.344
 9527SOL    HW229481   2.780   6.863   4.385
 9528SOL     OW29482   6.442   1.542   1.454
 9528SOL    HW129483   6.439   1.635   1.415
 9528SOL    HW229484   6.354   1.497   1.439
 9529SOL     OW29485   5.601   3.892   1.026
 9529SOL    HW129486   5.580   3.915   1.121
 9529SOL    HW229487   5.610   3.975   0.972
 9530SOL     OW29488   1.081   4.901   4.102
 9530SOL    HW129489   1.098   4.843   4.182
 9530SOL    HW229490   1.103   4.996   4.125
 9531SOL     OW29491   4.110   5.019   3.222
 9531SOL    HW129492   4.134   5.095   3.161
 9531SOL    HW229493   4.101   4.935   3.168
 9532SOL     OW29494   6.227   4.669   1.235
 9532SOL    HW129495   6.317   4.702   1.262
 9532SOL    HW229496   6.237   4.602   1.161
 9533SOL     OW29497   0.592   5.238   3.954
 9533SOL    HW129498   0.592   5.239   3.854
 9533SOL    HW229499   0.502   5.268   3.987
 9534SOL     OW29500   6.036   4.367   5.141
 9534SOL    HW129501   5.990   4.279   5.124
 9534SOL    HW229502   6.134   4.356   5.130
 9535SOL     OW29503   2.333   1.791   6.020
 9535SOL    HW129504   2.420   1.808   5.973
 9535SOL    HW229505   2.349   1.786   6.118
 9536SOL     OW29506   3.515   3.353   4.985
 9536SOL    HW129507   3.498   3.424   4.918
 9536SOL    HW229508   3.455   3.275   4.969
 9537SOL     OW29509   2.725   2.007   4.192
 9537SOL    HW129510   2.709   2.092   4.141
 9537SOL    HW229511   2.648   1.990   4.253
 9538SOL     OW29512   4.797   1.401   4.216
 9538SOL    HW129513   4.872   1.374   4.276
 9538SOL    HW229514   4.791   1.337   4.140
 9539SOL     OW29515   3.057   3.156   3.974
 9539SOL    HW129516   3.009   3.240   3.999
 9539SOL    HW229517   3.052   3.143   3.874
 9540SOL     OW29518   4.753   5.517   4.335
 9540SOL    HW129519   4.811   5.594   4.360
 9540SOL    HW229520   4.703   5.538   4.250
 9541SOL     OW29521   1.629   0.816   5.558
 9541SOL    HW129522   1.590   0.734   5.515
 9541SOL    HW229523   1.694   0.789   5.628
 9542SOL     OW29524   5.368   4.946   4.837
 9542SOL    HW129525   5.300   4.892   4.788
 9542SOL    HW229526   5.449   4.958   4.780
 9543SOL     OW29527   3.052   0.283   5.983
 9543SOL    HW129528   2.980   0.256   6.046
 9543SOL    HW229529   3.016   0.288   5.890
 9544SOL     OW29530   5.120   3.602   4.032
 9544SOL    HW129531   5.032   3.555   4.025
 9544SOL    HW229532   5.159   3.587   4.123
 9545SOL     OW29533   6.745   5.162   1.953
 9545SOL    HW129534   6.813   5.097   1.918
 9545SOL    HW229535   6.653   5.128   1.933
 9546SOL     OW29536   3.853   1.866   5.610
 9546SOL    HW129537   3.885   1.953   5.647
 9546SOL    HW229538   3.766   1.842   5.653
 9547SOL     OW29539   2.583   5.558   4.048
 9547SOL    HW129540   2.492   5.595   4.064
 9547SOL    HW229541   2.582   5.500   3.966
 9548SOL     OW29542   0.907   5.697   4.731
 9548SOL    HW129543   0.933   5.604   4.703
 9548SOL    HW229544   0.978   5.734   4.791
 9549SOL     OW29545   3.115   0.525   2.191
 9549SOL    HW129546   3.067   0.606   2.157
 9549SOL    HW229547   3.214   0.542   2.186
 9550SOL     OW29548   6.337   1.744   0.731
 9550SOL    HW129549   6.400   1.772   0.658
 9550SOL    HW229550   6.277   1.821   0.753
 9551SOL     OW29551   6.279   3.663   5.735
 9551SOL    HW129552   6.373   3.636   5.758
 9551SOL    HW229553   6.271   3.673   5.635
 9552SOL     OW29554   2.292   6.443   6.080
 9552SOL    HW129555   2.233   6.402   6.011
 9552SOL    HW229556   2.319   6.535   6.051
 9553SOL     OW29557   5.260   2.403   6.963
 9553SOL    HW129558   5.335   2.465   6.944
 9553SOL    HW229559   5.285   2.342   0.023
 9554SOL     OW29560   1.784   6.589   4.026
 9554SOL    HW129561   1.763   6.687   4.024
 9554SOL    HW229562   1.746   6.544   3.946
 9555SOL     OW29563   0.536   1.217   3.461
 9555SOL    HW129564   0.564   1.312   3.474
 9555SOL    HW229565   0.485   1.186   3.542
 9556SOL     OW29566   1.942   4.125   1.028
 9556SOL    HW129567   1.892   4.197   1.077
 9556SOL    HW229568   1.942   4.041   1.084
 9557SOL     OW29569   5.125   0.168   1.651
 9557SOL    HW129570   5.204   0.111   1.671
 9557SOL    HW229571   5.150   0.264   1.661
 9558SOL     OW29572   5.237   5.969   5.435
 9558SOL    HW129573   5.307   5.936   5.373
 9558SOL    HW229574   5.215   5.898   5.502
 9559SOL     OW29575   1.135   4.069   6.700
 9559SOL    HW129576   1.157   4.162   6.727
 9559SOL    HW229577   1.056   4.036   6.752
 9560SOL     OW29578   2.654   1.152   2.415
 9560SOL    HW129579   2.743   1.107   2.417
 9560SOL    HW229580   2.616   1.155   2.507
 9561SOL     OW29581   0.331   0.660   1.454
 9561SOL    HW129582   0.306   0.734   1.392
 9561SOL    HW229583   0.279   0.578   1.432
 9562SOL     OW29584   2.583   6.132   4.390
 9562SOL    HW129585   2.600   6.229   4.411
 9562SOL    HW229586   2.670   6.083   4.386
 9563SOL     OW29587   0.272   6.810   6.939
 9563SOL    HW129588   0.177   6.841   6.946
 9563SOL    HW229589   0.318   6.825   0.010
 9564SOL     OW29590   2.374   1.223   0.849
 9564SOL    HW129591   2.364   1.144   0.789
 9564SOL    HW229592   2.373   1.193   0.944
 9565SOL     OW29593   3.238   1.352   4.725
 9565SOL    HW129594   3.217   1.359   4.627
 9565SOL    HW229595   3.259   1.442   4.761
 9566SOL     OW29596   2.612   5.751   0.050
 9566SOL    HW129597   2.569   5.837   0.076
 9566SOL    HW229598   2.558   5.708   6.993
 9567SOL     OW29599   5.709   4.294   0.546
 9567SOL    HW129600   5.701   4.205   0.502
 9567SOL    HW229601   5.768   4.286   0.626
 9568SOL     OW29602   4.227   1.354   0.105
 9568SOL    HW129603   4.240   1.255   0.109
 9568SOL    HW229604   4.173   1.378   0.025
 9569SOL     OW29605   0.379   0.862   1.846
 9569SOL    HW129606   0.399   0.765   1.855
 9569SOL    HW229607   0.464   0.912   1.830
 9570SOL     OW29608   0.077   2.682   0.911
 9570SOL    HW129609   0.025   2.601   0.939
 9570SOL    HW229610   0.174   2.664   0.925
 9571SOL     OW29611   2.974   2.983   5.719
 9571SOL    HW129612   2.978   2.895   5.673
 9571SOL    HW229613   2.895   3.034   5.685
 9572SOL     OW29614   1.578   4.699   2.537
 9572SOL    HW129615   1.508   4.685   2.468
 9572SOL    HW229616   1.554   4.648   2.620
 9573SOL     OW29617   6.932   1.674   6.402
 9573SOL    HW129618   6.965   1.725   6.323
 9573SOL    HW229619   7.003   1.671   6.473
 9574SOL     OW29620   3.472   2.831   2.206
 9574SOL    HW129621   3.561   2.842   2.161
 9574SOL    HW229622   3.484   2.836   2.305
 9575SOL     OW29623   6.521   0.927   1.776
 9575SOL    HW129624   6.524   0.827   1.770
 9575SOL    HW229625   6.611   0.962   1.804
 9576SOL     OW29626   1.761   2.101   0.330
 9576SOL    HW129627   1.827   2.112   0.405
 9576SOL    HW229628   1.772   2.176   0.265
 9577SOL     OW29629   0.740   6.731   5.622
 9577SOL    HW129630   0.680   6.800   5.662
 9577SOL    HW229631   0.749   6.748   5.524
 9578SOL     OW29632   1.206   2.652   2.764
 9578SOL    HW129633   1.162   2.665   2.676
 9578SOL    HW229634   1.186   2.561   2.799
 9579SOL     OW29635   0.318   6.016   3.294
 9579SOL    HW129636   0.308   6.030   3.392
 9579SOL    HW229637   0.241   5.962   3.260
 9580SOL     OW29638   5.263   3.433   1.297
 9580SOL    HW129639   5.317   3.430   1.213
 9580SOL    HW229640   5.217   3.522   1.304
 9581SOL     OW29641   0.590   0.069   6.534
 9581SOL    HW129642   0.636   0.043   6.619
 9581SOL    HW229643   0.494   0.042   6.539
 9582SOL     OW29644   3.736   5.719   4.711
 9582SOL    HW129645   3.749   5.634   4.762
 9582SOL    HW229646   3.708   5.791   4.774
 9583SOL     OW29647   3.020   3.727   1.229
 9583SOL    HW129648   3.001   3.638   1.272
 9583SOL    HW229649   3.111   3.758   1.256
 9584SOL     OW29650   0.611   4.787   5.906
 9584SOL    HW129651   0.537   4.728   5.874
 9584SOL    HW229652   0.689   4.779   5.843
 9585SOL     OW29653   5.180   6.551   3.044
 9585SOL    HW129654   5.180   6.603   3.130
 9585SOL    HW229655   5.266   6.567   2.996
 9586SOL     OW29656   4.506   5.674   2.466
 9586SOL    HW129657   4.417   5.651   2.428
 9586SOL    HW229658   4.548   5.746   2.411
 9587SOL     OW29659   1.085   7.013   1.549
 9587SOL    HW129660   1.056   6.997   1.644
 9587SOL    HW229661   1.116   6.927   1.509
 9588SOL     OW29662   5.964   6.539   0.280
 9588SOL    HW129663   5.950   6.633   0.312
 9588SOL    HW229664   5.927   6.529   0.187
 9589SOL     OW29665   1.512   4.181   6.687
 9589SOL    HW129666   1.548   4.258   6.739
 9589SOL    HW229667   1.489   4.107   6.749
 9590SOL     OW29668   6.223   2.579   1.553
 9590SOL    HW129669   6.315   2.556   1.522
 9590SOL    HW229670   6.195   2.515   1.625
 9591SOL     OW29671   3.798   5.332   5.753
 9591SOL    HW129672   3.810   5.399   5.825
 9591SOL    HW229673   3.767   5.377   5.670
 9592SOL     OW29674   3.361   4.797   0.991
 9592SOL    HW129675   3.397   4.890   0.994
 9592SOL    HW229676   3.304   4.785   0.910
 9593SOL     OW29677   0.983   1.310   6.159
 9593SOL    HW129678   0.904   1.330   6.216
 9593SOL    HW229679   1.062   1.362   6.191
 9594SOL     OW29680   2.531   5.640   4.457
 9594SOL    HW129681   2.470   5.564   4.436
 9594SOL    HW229682   2.493   5.725   4.421
 9595SOL     OW29683   0.216   2.324   4.022
 9595SOL    HW129684   0.305   2.278   4.016
 9595SOL    HW229685   0.229   2.415   4.062
 9596SOL     OW29686   0.578   5.151   7.001
 9596SOL    HW129687   0.580   5.068   6.944
 9596SOL    HW229688   0.537   5.129   0.074
 9597SOL     OW29689   6.795   4.070   1.364
 9597SOL    HW129690   6.811   3.976   1.334
 9597SOL    HW229691   6.726   4.113   1.304
 9598SOL     OW29692   2.066   4.402   3.260
 9598SOL    HW129693   2.000   4.456   3.208
 9598SOL    HW229694   2.117   4.342   3.198
 9599SOL     OW29695   2.938   0.422   3.797
 9599SOL    HW129696   2.850   0.375   3.809
 9599SOL    HW229697   3.011   0.368   3.839
 9600SOL     OW29698   2.961   0.373   6.827
 9600SOL    HW129699   3.013   0.455   6.804
 9600SOL    HW229700   3.023   0.305   6.866
 9601SOL     OW29701   5.282   4.898   0.470
 9601SOL    HW129702   5.308   4.995   0.475
 9601SOL    HW229703   5.362   4.843   0.448
 9602SOL     OW29704   5.608   4.101   6.524
 9602SOL    HW129705   5.667   4.037   6.574
 9602SOL    HW229706   5.662   4.149   6.455
 9603SOL     OW29707   4.414   0.725   6.703
 9603SOL    HW129708   4.407   0.783   6.621
 9603SOL    HW229709   4.339   0.748   6.765
 9604SOL     OW29710   4.888   0.077   1.003
 9604SOL    HW129711   4.862   0.004   1.068
 9604SOL    HW229712   4.882   0.165   1.049
 9605SOL     OW29713   1.279   5.653   3.315
 9605SOL    HW129714   1.347   5.594   3.271
 9605SOL    HW229715   1.269   5.737   3.262
 9606SOL     OW29716   1.574   6.528   6.707
 9606SOL    HW129717   1.544   6.456   6.645
 9606SOL    HW229718   1.657   6.498   6.755
 9607SOL     OW29719   2.603   1.329   6.824
 9607SOL    HW129720   2.581   1.425   6.806
 9607SOL    HW229721   2.702   1.319   6.837
 9608SOL     OW29722   0.229   4.267   1.485
 9608SOL    HW129723   0.279   4.288   1.570
 9608SOL    HW229724   0.184   4.178   1.494
 9609SOL     OW29725   3.095   2.902   0.165
 9609SOL    HW129726   3.027   2.830   0.177
 9609SOL    HW229727   3.158   2.902   0.243
 9610SOL     OW29728   1.673   4.906   3.437
 9610SOL    HW129729   1.605   4.838   3.407
 9610SOL    HW229730   1.626   4.983   3.480
 9611SOL     OW29731   1.419   6.393   0.655
 9611SOL    HW129732   1.466   6.414   0.569
 9611SOL    HW229733   1.339   6.336   0.635
 9612SOL     OW29734   0.027   3.346   1.898
 9612SOL    HW129735   0.102   3.377   1.839
 9612SOL    HW229736   0.018   3.408   1.976
 9613SOL     OW29737   4.726   6.736   3.462
 9613SOL    HW129738   4.675   6.712   3.545
 9613SOL    HW229739   4.733   6.655   3.403
 9614SOL     OW29740   4.094   2.188   1.936
 9614SOL    HW129741   4.051   2.171   2.024
 9614SOL    HW229742   4.025   2.215   1.869
 9615SOL     OW29743   2.693   1.197   1.257
 9615SOL    HW129744   2.767   1.214   1.322
 9615SOL    HW229745   2.612   1.250   1.285
 9616SOL     OW29746   3.606   4.268   1.423
 9616SOL    HW129747   3.666   4.302   1.351
 9616SOL    HW229748   3.622   4.321   1.507
 9617SOL     OW29749   1.673   2.971   3.117
 9617SOL    HW129750   1.677   2.985   3.216
 9617SOL    HW229751   1.765   2.977   3.079
 9618SOL     OW29752   2.701   6.906   0.652
 9618SOL    HW129753   2.689   6.824   0.596
 9618SOL    HW229754   2.793   6.943   0.637
 9619SOL     OW29755   1.773   0.271   6.314
 9619SOL    HW129756   1.835   0.207   6.360
 9619SOL    HW229757   1.821   0.357   6.297
 9620SOL     OW29758   4.321   0.426   5.998
 9620SOL    HW129759   4.361   0.376   5.921
 9620SOL    HW229760   4.376   0.411   6.080
 9621SOL     OW29761   1.661   2.577   2.213
 9621SOL    HW129762   1.705   2.666   2.229
 9621SOL    HW229763   1.579   2.571   2.270
 9622SOL     OW29764   6.930   1.528   0.429
 9622SOL    HW129765   6.833   1.505   0.422
 9622SOL    HW229766   6.976   1.506   0.343
 9623SOL     OW29767   2.671   3.587   5.429
 9623SOL    HW129768   2.683   3.597   5.528
 9623SOL    HW229769   2.623   3.666   5.392
 9624SOL     OW29770   6.974   4.232   2.669
 9624SOL    HW129771   6.965   4.143   2.623
 9624SOL    HW229772   6.935   4.226   2.760
 9625SOL     OW29773   4.821   5.316   6.874
 9625SOL    HW129774   4.755   5.383   6.840
 9625SOL    HW229775   4.773   5.242   6.920
 9626SOL     OW29776   4.483   5.658   0.394
 9626SOL    HW129777   4.548   5.719   0.440
 9626SOL    HW229778   4.528   5.617   0.314
 9627SOL     OW29779   0.271   5.893   4.916
 9627SOL    HW129780   0.240   5.898   5.011
 9627SOL    HW229781   0.334   5.816   4.906
 9628SOL     OW29782   4.569   5.236   0.541
 9628SOL    HW129783   4.655   5.267   0.582
 9628SOL    HW229784   4.589   5.175   0.464
 9629SOL     OW29785   1.135   0.249   1.627
 9629SOL    HW129786   1.139   0.150   1.610
 9629SOL    HW229787   1.049   0.286   1.591
 9630SOL     OW29788   6.274   0.016   4.283
 9630SOL    HW129789   6.195   0.030   4.225
 9630SOL    HW229790   6.245   0.012   4.379
 9631SOL     OW29791   0.225   6.756   6.523
 9631SOL    HW129792   0.147   6.817   6.508
 9631SOL    HW229793   0.194   6.675   6.573
 9632SOL     OW29794   1.251   0.268   2.617
 9632SOL    HW129795   1.302   0.343   2.658
 9632SOL    HW229796   1.301   0.232   2.539
 9633SOL     OW29797   4.761   5.215   5.919
 9633SOL    HW129798   4.843   5.158   5.908
 9633SOL    HW229799   4.710   5.184   5.999
 9634SOL     OW29800   1.487   5.905   4.149
 9634SOL    HW129801   1.422   5.970   4.189
 9634SOL    HW229802   1.499   5.925   4.052
 9635SOL     OW29803   1.951   5.976   5.012
 9635SOL    HW129804   1.919   5.881   5.014
 9635SOL    HW229805   2.046   5.979   4.983
 9636SOL     OW29806   4.104   2.144   5.867
 9636SOL    HW129807   4.049   2.148   5.950
 9636SOL    HW229808   4.196   2.113   5.889
 9637SOL     OW29809   2.611   2.112   6.547
 9637SOL    HW129810   2.695   2.057   6.541
 9637SOL    HW229811   2.591   2.152   6.458
 9638SOL     OW29812   6.668   3.856   6.283
 9638SOL    HW129813   6.622   3.829   6.367
 9638SOL    HW229814   6.696   3.952   6.289
 9639SOL     OW29815   4.136   1.357   2.355
 9639SOL    HW129816   4.155   1.395   2.265
 9639SOL    HW229817   4.049   1.308   2.354
 9640SOL     OW29818   1.924   2.291   3.905
 9640SOL    HW129819   1.914   2.383   3.943
 9640SOL    HW229820   1.898   2.292   3.809
 9641SOL     OW29821   3.940   6.194   0.941
 9641SOL    HW129822   3.883   6.221   0.863
 9641SOL    HW229823   3.913   6.245   1.022
 9642SOL     OW29824   3.088   6.857   5.036
 9642SOL    HW129825   2.999   6.895   5.012
 9642SOL    HW229826   3.129   6.912   5.108
 9643SOL     OW29827   5.426   5.046   3.909
 9643SOL    HW129828   5.519   5.023   3.936
 9643SOL    HW229829   5.419   5.144   3.892
 9644SOL     OW29830   1.033   4.231   6.152
 9644SOL    HW129831   1.038   4.227   6.252
 9644SOL    HW229832   0.967   4.163   6.120
 9645SOL     OW29833   2.479   5.568   4.831
 9645SOL    HW129834   2.568   5.529   4.855
 9645SOL    HW229835   2.441   5.518   4.753
 9646SOL     OW29836   2.810   4.873   1.923
 9646SOL    HW129837   2.818   4.861   1.824
 9646SOL    HW229838   2.842   4.790   1.969
 9647SOL     OW29839   6.258   4.560   0.999
 9647SOL    HW129840   6.262   4.491   0.926
 9647SOL    HW229841   6.288   4.648   0.963
 9648SOL     OW29842   4.481   1.285   0.883
 9648SOL    HW129843   4.441   1.288   0.975
 9648SOL    HW229844   4.579   1.306   0.888
 9649SOL     OW29845   2.952   6.979   0.593
 9649SOL    HW129846   2.988   0.057   0.600
 9649SOL    HW229847   2.960   6.948   0.498
 9650SOL     OW29848   6.508   5.059   1.873
 9650SOL    HW129849   6.443   5.030   1.943
 9650SOL    HW229850   6.558   4.979   1.839
 9651SOL     OW29851   6.954   1.736   5.870
 9651SOL    HW129852   6.892   1.682   5.928
 9651SOL    HW229853   6.970   1.688   5.784
 9652SOL     OW29854   1.841   4.611   0.869
 9652SOL    HW129855   1.878   4.603   0.962
 9652SOL    HW229856   1.800   4.524   0.842
 9653SOL     OW29857   4.123   4.760   4.704
 9653SOL    HW129858   4.134   4.667   4.740
 9653SOL    HW229859   4.208   4.789   4.660
 9654SOL     OW29860   3.244   2.582   1.170
 9654SOL    HW129861   3.321   2.614   1.115
 9654SOL    HW229862   3.276   2.564   1.263
 9655SOL     OW29863   0.246   0.811   6.875
 9655SOL    HW129864   0.200   0.767   6.952
 9655SOL    HW229865   0.224   0.762   6.791
 9656SOL     OW29866   2.564   0.797   1.800
 9656SOL    HW129867   2.567   0.697   1.800
 9656SOL    HW229868   2.599   0.831   1.888
 9657SOL     OW29869   5.378   0.510   4.082
 9657SOL    HW129870   5.366   0.457   4.166
 9657SOL    HW229871   5.298   0.567   4.066
 9658SOL     OW29872   0.005   1.899   3.010
 9658SOL    HW129873   0.010   1.811   3.056
 9658SOL    HW229874   6.929   1.938   3.023
 9659SOL     OW29875   6.317   4.434   0.395
 9659SOL    HW129876   6.317   4.518   0.448
 9659SOL    HW229877   6.267   4.449   0.309
 9660SOL     OW29878   0.322   5.561   0.749
 9660SOL    HW129879   0.380   5.641   0.736
 9660SOL    HW229880   0.265   5.548   0.668
 9661SOL     OW29881   4.487   5.527   1.381
 9661SOL    HW129882   4.551   5.567   1.316
 9661SOL    HW229883   4.408   5.587   1.392
 9662SOL     OW29884   6.353   2.853   4.466
 9662SOL    HW129885   6.302   2.774   4.431
 9662SOL    HW229886   6.295   2.934   4.460
 9663SOL     OW29887   1.474   5.626   3.826
 9663SOL    HW129888   1.539   5.620   3.902
 9663SOL    HW229889   1.519   5.669   3.747
 9664SOL     OW29890   5.397   6.939   2.850
 9664SOL    HW129891   5.367   6.919   2.756
 9664SOL    HW229892   5.354   6.876   2.913
 9665SOL     OW29893   5.924   5.112   5.452
 9665SOL    HW129894   5.956   5.202   5.482
 9665SOL    HW229895   5.995   5.069   5.395
 9666SOL     OW29896   5.631   4.094   1.921
 9666SOL    HW129897   5.585   4.118   1.836
 9666SOL    HW229898   5.679   4.174   1.957
 9667SOL     OW29899   4.000   3.243   4.613
 9667SOL    HW129900   4.003   3.215   4.517
 9667SOL    HW229901   3.995   3.162   4.671
 9668SOL     OW29902   6.727   2.043   6.087
 9668SOL    HW129903   6.798   2.108   6.115
 9668SOL    HW229904   6.670   2.020   6.165
 9669SOL     OW29905   0.563   1.488   0.659
 9669SOL    HW129906   0.558   1.561   0.726
 9669SOL    HW229907   0.475   1.442   0.652
 9670SOL     OW29908   4.668   4.691   5.669
 9670SOL    HW129909   4.742   4.742   5.626
 9670SOL    HW229910   4.582   4.743   5.658
 9671SOL     OW29911   0.611   5.410   6.033
 9671SOL    HW129912   0.563   5.469   6.098
 9671SOL    HW229913   0.545   5.375   5.966
 9672SOL     OW29914   1.055   6.929   4.640
 9672SOL    HW129915   1.076   6.997   4.570
 9672SOL    HW229916   1.137   6.911   4.695
 9673SOL     OW29917   4.324   4.443   6.811
 9673SOL    HW129918   4.389   4.373   6.784
 9673SOL    HW229919   4.256   4.456   6.738
 9674SOL     OW29920   2.778   5.784   2.714
 9674SOL    HW129921   2.856   5.846   2.711
 9674SOL    HW229922   2.800   5.707   2.774
 9675SOL     OW29923   5.912   1.011   2.020
 9675SOL    HW129924   5.895   0.928   2.074
 9675SOL    HW229925   5.943   1.084   2.081
 9676SOL     OW29926   1.405   3.595   5.399
 9676SOL    HW129927   1.426   3.542   5.317
 9676SOL    HW229928   1.482   3.590   5.463
 9677SOL     OW29929   2.866   4.682   5.877
 9677SOL    HW129930   2.940   4.619   5.855
 9677SOL    HW229931   2.857   4.691   5.976
 9678SOL     OW29932   3.481   4.149   2.669
 9678SOL    HW129933   3.557   4.199   2.709
 9678SOL    HW229934   3.408   4.139   2.737
 9679SOL     OW29935   0.604   1.543   1.992
 9679SOL    HW129936   0.574   1.625   2.040
 9679SOL    HW229937   0.590   1.555   1.894
 9680SOL     OW29938   5.898   7.006   3.471
 9680SOL    HW129939   5.865   0.070   3.420
 9680SOL    HW229940   5.960   6.953   3.413
 9681SOL     OW29941   2.818   0.605   1.260
 9681SOL    HW129942   2.789   0.698   1.282
 9681SOL    HW229943   2.897   0.608   1.198
 9682SOL     OW29944   4.740   5.582   2.892
 9682SOL    HW129945   4.761   5.641   2.970
 9682SOL    HW229946   4.740   5.637   2.808
 9683SOL     OW29947   4.204   5.341   0.699
 9683SOL    HW129948   4.268   5.386   0.637
 9683SOL    HW229949   4.224   5.370   0.793
 9684SOL     OW29950   0.358   3.839   4.755
 9684SOL    HW129951   0.408   3.762   4.718
 9684SOL    HW229952   0.283   3.806   4.812
 9685SOL     OW29953   2.311   2.758   1.108
 9685SOL    HW129954   2.372   2.788   1.181
 9685SOL    HW229955   2.263   2.837   1.070
 9686SOL     OW29956   6.407   1.500   0.617
 9686SOL    HW129957   6.360   1.583   0.647
 9686SOL    HW229958   6.489   1.485   0.674
 9687SOL     OW29959   1.851   0.779   2.935
 9687SOL    HW129960   1.864   0.708   3.005
 9687SOL    HW229961   1.927   0.776   2.870
 9688SOL     OW29962   6.523   2.585   3.172
 9688SOL    HW129963   6.482   2.634   3.095
 9688SOL    HW229964   6.596   2.525   3.137
 9689SOL     OW29965   1.359   0.102   0.490
 9689SOL    HW129966   1.411   0.185   0.469
 9689SOL    HW229967   1.323   0.108   0.583
 9690SOL     OW29968   6.019   5.254   6.422
 9690SOL    HW129969   5.992   5.312   6.344
 9690SOL    HW229970   6.072   5.309   6.487
 9691SOL     OW29971   2.469   4.565   1.518
 9691SOL    HW129972   2.417   4.608   1.444
 9691SOL    HW229973   2.541   4.627   1.549
 9692SOL     OW29974   2.151   5.370   2.937
 9692SOL    HW129975   2.132   5.292   2.878
 9692SOL    HW229976   2.233   5.352   2.991
 9693SOL     OW29977   6.984   5.173   1.634
 9693SOL    HW129978   6.922   5.196   1.559
 9693SOL    HW229979   6.948   5.094   1.683
 9694SOL     OW29980   2.027   1.106   6.608
 9694SOL    HW129981   2.111   1.051   6.612
 9694SOL    HW229982   2.040   1.190   6.662
 9695SOL     OW29983   5.593   4.753   1.361
 9695SOL    HW129984   5.603   4.661   1.325
 9695SOL    HW229985   5.541   4.809   1.296
 9696SOL     OW29986   4.652   2.663   1.392
 9696SOL    HW129987   4.750   2.649   1.374
 9696SOL    HW229988   4.599   2.619   1.319
 9697SOL     OW29989   0.098   5.457   6.973
 9697SOL    HW129990   0.194   5.434   6.987
 9697SOL    HW229991   0.061   5.401   6.899
 9698SOL     OW29992   6.087   0.917   5.364
 9698SOL    HW129993   6.081   1.013   5.391
 9698SOL    HW229994   6.000   0.871   5.383
 9699SOL     OW29995   0.622   3.950   6.151
 9699SOL    HW129996   0.652   3.863   6.190
 9699SOL    HW229997   0.566   3.998   6.218
 9700SOL     OW29998   3.727   4.925   6.007
 9700SOL    HW129999   3.639   4.905   5.963
 9700SOL    HW230000   3.796   4.940   5.936
 9701SOL     OW30001   3.910   5.530   5.070
 9701SOL    HW130002   3.860   5.502   4.987
 9701SOL    HW230003   3.850   5.584   5.128
 9702SOL     OW30004   5.292   0.522   6.984
 9702SOL    HW130005   5.333   0.552   0.055
 9702SOL    HW230006   5.358   0.534   6.910
 9703SOL     OW30007   3.618   6.024   4.353
 9703SOL    HW130008   3.624   6.119   4.323
 9703SOL    HW230009   3.574   5.969   4.282
 9704SOL     OW30010   3.038   0.535   2.476
 9704SOL    HW130011   3.072   0.447   2.508
 9704SOL    HW230012   3.059   0.546   2.379
 9705SOL     OW30013   5.078   4.804   0.611
 9705SOL    HW130014   5.148   4.836   0.547
 9705SOL    HW230015   4.988   4.811   0.568
 9706SOL     OW30016   6.906   2.162   0.860
 9706SOL    HW130017   6.857   2.076   0.849
 9706SOL    HW230018   6.912   2.208   0.771
 9707SOL     OW30019   0.071   4.302   1.961
 9707SOL    HW130020   0.107   4.291   2.054
 9707SOL    HW230021   0.147   4.317   1.898
 9708SOL     OW30022   1.802   2.404   3.363
 9708SOL    HW130023   1.723   2.360   3.320
 9708SOL    HW230024   1.769   2.466   3.435
 9709SOL     OW30025   0.212   5.682   3.631
 9709SOL    HW130026   0.287   5.717   3.686
 9709SOL    HW230027   0.173   5.756   3.576
 9710SOL     OW30028   0.343   1.366   3.039
 9710SOL    HW130029   0.248   1.396   3.042
 9710SOL    HW230030   0.359   1.296   3.108
 9711SOL     OW30031   1.247   3.479   5.830
 9711SOL    HW130032   1.260   3.411   5.902
 9711SOL    HW230033   1.326   3.540   5.827
 9712SOL     OW30034   5.329   3.224   5.035
 9712SOL    HW130035   5.286   3.191   5.119
 9712SOL    HW230036   5.422   3.253   5.055
 9713SOL     OW30037   0.389   4.605   2.762
 9713SOL    HW130038   0.405   4.611   2.664
 9713SOL    HW230039   0.291   4.600   2.779
 9714SOL     OW30040   1.804   1.259   1.573
 9714SOL    HW130041   1.875   1.330   1.582
 9714SOL    HW230042   1.754   1.274   1.487
 9715SOL     OW30043   6.862   5.740   4.106
 9715SOL    HW130044   6.829   5.690   4.026
 9715SOL    HW230045   6.809   5.713   4.186
 9716SOL     OW30046   4.049   2.300   0.074
 9716SOL    HW130047   4.062   2.397   0.091
 9716SOL    HW230048   4.039   2.251   0.160
 9717SOL     OW30049   5.709   5.835   5.083
 9717SOL    HW130050   5.688   5.850   4.986
 9717SOL    HW230051   5.743   5.919   5.123
 9718SOL     OW30052   4.733   2.853   1.661
 9718SOL    HW130053   4.661   2.865   1.593
 9718SOL    HW230054   4.705   2.896   1.747
 9719SOL     OW30055   0.650   2.405   6.681
 9719SOL    HW130056   0.664   2.436   6.775
 9719SOL    HW230057   0.663   2.483   6.619
 9720SOL     OW30058   0.679   5.466   1.434
 9720SOL    HW130059   0.773   5.495   1.453
 9720SOL    HW230060   0.657   5.487   1.339
 9721SOL     OW30061   0.909   2.553   2.012
 9721SOL    HW130062   0.977   2.608   1.962
 9721SOL    HW230063   0.842   2.517   1.948
 9722SOL     OW30064   0.397   6.644   3.583
 9722SOL    HW130065   0.490   6.682   3.585
 9722SOL    HW230066   0.381   6.602   3.493
 9723SOL     OW30067   1.306   5.956   2.893
 9723SOL    HW130068   1.210   5.973   2.918
 9723SOL    HW230069   1.315   5.958   2.793
 9724SOL     OW30070   2.981   2.884   1.753
 9724SOL    HW130071   3.016   2.791   1.754
 9724SOL    HW230072   3.045   2.945   1.799
 9725SOL     OW30073   3.920   3.450   6.285
 9725SOL    HW130074   3.947   3.372   6.341
 9725SOL    HW230075   4.001   3.497   6.250
 9726SOL     OW30076   4.883   0.781   4.807
 9726SOL    HW130077   4.884   0.808   4.710
 9726SOL    HW230078   4.844   0.855   4.861
 9727SOL     OW30079   1.617   4.166   5.336
 9727SOL    HW130080   1.567   4.248   5.308
 9727SOL    HW230081   1.582   4.087   5.285
 9728SOL     OW30082   1.110   6.616   6.899
 9728SOL    HW130083   1.204   6.644   6.917
 9728SOL    HW230084   1.085   6.642   6.806
 9729SOL     OW30085   1.269   4.446   2.869
 9729SOL    HW130086   1.340   4.501   2.912
 9729SOL    HW230087   1.256   4.362   2.921
 9730SOL     OW30088   0.067   3.187   2.776
 9730SOL    HW130089   0.060   3.155   2.682
 9730SOL    HW230090   0.163   3.198   2.801
 9731SOL     OW30091   4.194   5.143   1.125
 9731SOL    HW130092   4.123   5.113   1.190
 9731SOL    HW230093   4.187   5.089   1.041
 9732SOL     OW30094   5.895   6.067   2.951
 9732SOL    HW130095   5.928   6.129   3.022
 9732SOL    HW230096   5.906   6.109   2.861
 9733SOL     OW30097   6.017   5.261   4.742
 9733SOL    HW130098   5.925   5.229   4.718
 9733SOL    HW230099   6.021   5.280   4.840
 9734SOL     OW30100   5.556   1.759   3.990
 9734SOL    HW130101   5.475   1.764   4.048
 9734SOL    HW230102   5.557   1.837   3.927
 9735SOL     OW30103   1.809   4.675   2.758
 9735SOL    HW130104   1.717   4.642   2.737
 9735SOL    HW230105   1.806   4.774   2.773
 9736SOL     OW30106   5.279   1.236   5.845
 9736SOL    HW130107   5.313   1.324   5.881
 9736SOL    HW230108   5.354   1.189   5.798
 9737SOL     OW30109   4.560   2.772   5.079
 9737SOL    HW130110   4.624   2.841   5.047
 9737SOL    HW230111   4.503   2.810   5.152
 9738SOL     OW30112   1.827   0.055   2.687
 9738SOL    HW130113   1.882   0.136   2.665
 9738SOL    HW230114   1.763   0.037   2.611
 9739SOL     OW30115   0.883   4.934   1.785
 9739SOL    HW130116   0.793   4.908   1.753
 9739SOL    HW230117   0.941   4.958   1.707
 9740SOL     OW30118   6.301   3.418   3.153
 9740SOL    HW130119   6.382   3.366   3.178
 9740SOL    HW230120   6.288   3.415   3.054
 9741SOL     OW30121   4.547   1.133   2.822
 9741SOL    HW130122   4.584   1.225   2.811
 9741SOL    HW230123   4.447   1.136   2.815
 9742SOL     OW30124   4.695   0.079   3.078
 9742SOL    HW130125   4.678   0.161   3.132
 9742SOL    HW230126   4.678   7.013   3.135
 9743SOL     OW30127   2.195   2.324   5.840
 9743SOL    HW130128   2.134   2.393   5.799
 9743SOL    HW230129   2.261   2.293   5.771
 9744SOL     OW30130   0.815   0.512   2.239
 9744SOL    HW130131   0.849   0.605   2.225
 9744SOL    HW230132   0.772   0.505   2.329
 9745SOL     OW30133   0.582   2.475   5.860
 9745SOL    HW130134   0.591   2.393   5.917
 9745SOL    HW230135   0.581   2.448   5.764
 9746SOL     OW30136   5.199   1.831   5.014
 9746SOL    HW130137   5.143   1.781   4.948
 9746SOL    HW230138   5.149   1.840   5.100
 9747SOL     OW30139   1.569   1.154   1.387
 9747SOL    HW130140   1.526   1.242   1.409
 9747SOL    HW230141   1.500   1.090   1.353
 9748SOL     OW30142   0.909   0.047   5.270
 9748SOL    HW130143   0.860   0.029   5.185
 9748SOL    HW230144   0.893   0.142   5.298
 9749SOL     OW30145   1.837   2.425   5.529
 9749SOL    HW130146   1.791   2.388   5.610
 9749SOL    HW230147   1.838   2.356   5.457
 9750SOL     OW30148   5.813   5.245   4.048
 9750SOL    HW130149   5.903   5.252   4.004
 9750SOL    HW230150   5.823   5.197   4.135
 9751SOL     OW30151   2.150   2.166   1.427
 9751SOL    HW130152   2.189   2.192   1.516
 9751SOL    HW230153   2.052   2.183   1.428
 9752SOL     OW30154   4.571   0.671   6.222
 9752SOL    HW130155   4.488   0.726   6.218
 9752SOL    HW230156   4.638   0.715   6.282
 9753SOL     OW30157   6.364   6.793   4.662
 9753SOL    HW130158   6.447   6.776   4.609
 9753SOL    HW230159   6.354   6.722   4.732
 9754SOL     OW30160   1.217   2.132   6.988
 9754SOL    HW130161   1.155   2.094   6.920
 9754SOL    HW230162   1.311   2.122   6.956
 9755SOL     OW30163   4.162   3.599   5.178
 9755SOL    HW130164   4.167   3.502   5.205
 9755SOL    HW230165   4.249   3.644   5.200
 9756SOL     OW30166   5.879   2.764   0.265
 9756SOL    HW130167   5.887   2.817   0.180
 9756SOL    HW230168   5.843   2.823   0.337
 9757SOL     OW30169   4.985   3.079   3.658
 9757SOL    HW130170   4.912   3.010   3.661
 9757SOL    HW230171   5.067   3.038   3.618
 9758SOL     OW30172   1.596   0.154   5.710
 9758SOL    HW130173   1.679   0.169   5.764
 9758SOL    HW230174   1.548   0.073   5.745
 9759SOL     OW30175   2.202   0.012   1.082
 9759SOL    HW130176   2.281   0.065   1.112
 9759SOL    HW230177   2.132   0.013   1.154
 9760SOL     OW30178   5.128   4.504   5.152
 9760SOL    HW130179   5.092   4.505   5.059
 9760SOL    HW230180   5.228   4.495   5.149
 9761SOL     OW30181   5.681   5.838   1.728
 9761SOL    HW130182   5.724   5.748   1.727
 9761SOL    HW230183   5.678   5.875   1.636
 9762SOL     OW30184   2.348   1.901   4.719
 9762SOL    HW130185   2.355   1.821   4.660
 9762SOL    HW230186   2.418   1.968   4.693
 9763SOL     OW30187   4.864   1.372   2.034
 9763SOL    HW130188   4.784   1.328   2.074
 9763SOL    HW230189   4.835   1.439   1.966
 9764SOL     OW30190   1.597   2.277   3.237
 9764SOL    HW130191   1.582   2.272   3.138
 9764SOL    HW230192   1.604   2.185   3.274
 9765SOL     OW30193   6.316   2.020   4.875
 9765SOL    HW130194   6.371   1.965   4.937
 9765SOL    HW230195   6.248   2.072   4.928
 9766SOL     OW30196   2.512   0.536   2.764
 9766SOL    HW130197   2.444   0.554   2.692
 9766SOL    HW230198   2.581   0.473   2.729
 9767SOL     OW30199   5.306   2.162   4.637
 9767SOL    HW130200   5.247   2.113   4.701
 9767SOL    HW230201   5.270   2.253   4.620
 9768SOL     OW30202   5.360   2.289   2.127
 9768SOL    HW130203   5.301   2.315   2.203
 9768SOL    HW230204   5.308   2.293   2.041
 9769SOL     OW30205   1.577   2.001   1.478
 9769SOL    HW130206   1.527   1.923   1.517
 9769SOL    HW230207   1.531   2.031   1.395
 9770SOL     OW30208   6.057   5.946   6.342
 9770SOL    HW130209   6.014   5.960   6.432
 9770SOL    HW230210   6.112   5.862   6.345
 9771SOL     OW30211   4.524   4.358   1.103
 9771SOL    HW130212   4.445   4.297   1.113
 9771SOL    HW230213   4.575   4.361   1.189
 9772SOL     OW30214   6.985   6.761   1.795
 9772SOL    HW130215   6.955   6.814   1.874
 9772SOL    HW230216   6.978   6.663   1.816
 9773SOL     OW30217   5.912   6.294   3.594
 9773SOL    HW130218   5.889   6.310   3.498
 9773SOL    HW230219   5.878   6.204   3.621
 9774SOL     OW30220   5.836   5.176   3.668
 9774SOL    HW130221   5.902   5.103   3.647
 9774SOL    HW230222   5.759   5.138   3.718
 9775SOL     OW30223   2.031   2.011   4.701
 9775SOL    HW130224   1.960   2.077   4.727
 9775SOL    HW230225   2.011   1.922   4.743
 9776SOL     OW30226   6.961   5.455   4.081
 9776SOL    HW130227   6.967   5.529   4.014
 9776SOL    HW230228   6.934   5.370   4.035
 9777SOL     OW30229   6.024   4.780   6.028
 9777SOL    HW130230   5.995   4.705   6.088
 9777SOL    HW230231   5.946   4.838   6.006
 9778SOL     OW30232   5.212   0.023   3.432
 9778SOL    HW130233   5.260   6.977   3.494
 9778SOL    HW230234   5.113   0.007   3.440
 9779SOL     OW30235   2.680   1.686   4.623
 9779SOL    HW130236   2.692   1.655   4.528
 9779SOL    HW230237   2.768   1.685   4.670
 9780SOL     OW30238   2.029   2.839   0.677
 9780SOL    HW130239   1.994   2.888   0.597
 9780SOL    HW230240   1.966   2.764   0.700
 9781SOL     OW30241   1.823   4.656   3.893
 9781SOL    HW130242   1.757   4.605   3.947
 9781SOL    HW230243   1.897   4.688   3.952
 9782SOL     OW30244   6.403   0.225   1.002
 9782SOL    HW130245   6.356   0.179   1.078
 9782SOL    HW230246   6.352   0.307   0.978
 9783SOL     OW30247   6.377   0.805   1.388
 9783SOL    HW130248   6.465   0.763   1.411
 9783SOL    HW230249   6.310   0.782   1.458
 9784SOL     OW30250   4.225   1.411   3.494
 9784SOL    HW130251   4.229   1.344   3.419
 9784SOL    HW230252   4.211   1.503   3.456
 9785SOL     OW30253   0.536   2.874   3.152
 9785SOL    HW130254   0.556   2.809   3.225
 9785SOL    HW230255   0.622   2.908   3.113
 9786SOL     OW30256   1.790   4.387   6.250
 9786SOL    HW130257   1.709   4.362   6.197
 9786SOL    HW230258   1.829   4.472   6.214
 9787SOL     OW30259   5.532   3.185   1.745
 9787SOL    HW130260   5.463   3.164   1.814
 9787SOL    HW230261   5.519   3.278   1.712
 9788SOL     OW30262   0.118   6.981   4.188
 9788SOL    HW130263   0.080   6.960   4.098
 9788SOL    HW230264   0.059   0.031   4.235
 9789SOL     OW30265   2.241   5.274   6.266
 9789SOL    HW130266   2.234   5.217   6.348
 9789SOL    HW230267   2.150   5.307   6.242
 9790SOL     OW30268   5.622   2.093   4.181
 9790SOL    HW130269   5.600   2.019   4.245
 9790SOL    HW230270   5.707   2.070   4.133
 9791SOL     OW30271   1.246   1.031   1.576
 9791SOL    HW130272   1.157   1.036   1.530
 9791SOL    HW230273   1.319   1.025   1.508
 9792SOL     OW30274   4.489   5.196   1.695
 9792SOL    HW130275   4.461   5.288   1.721
 9792SOL    HW230276   4.589   5.191   1.694
 9793SOL     OW30277   4.857   6.116   2.821
 9793SOL    HW130278   4.834   6.212   2.838
 9793SOL    HW230279   4.787   6.074   2.764
 9794SOL     OW30280   4.960   3.443   6.451
 9794SOL    HW130281   5.009   3.457   6.537
 9794SOL    HW230282   4.997   3.505   6.381
 9795SOL     OW30283   1.053   2.865   4.223
 9795SOL    HW130284   1.032   2.784   4.277
 9795SOL    HW230285   1.126   2.917   4.268
 9796SOL     OW30286   3.169   4.782   0.800
 9796SOL    HW130287   3.098   4.850   0.821
 9796SOL    HW230288   3.125   4.698   0.768
 9797SOL     OW30289   4.801   3.835   6.876
 9797SOL    HW130290   4.753   3.785   6.803
 9797SOL    HW230291   4.766   3.806   6.965
 9798SOL     OW30292   2.362   0.617   1.162
 9798SOL    HW130293   2.290   0.553   1.134
 9798SOL    HW230294   2.372   0.615   1.261
 9799SOL     OW30295   3.444   2.872   2.617
 9799SOL    HW130296   3.496   2.909   2.540
 9799SOL    HW230297   3.404   2.785   2.591
 9800SOL     OW30298   4.488   5.645   6.198
 9800SOL    HW130299   4.486   5.563   6.141
 9800SOL    HW230300   4.567   5.700   6.173
 9801SOL     OW30301   4.921   5.705   0.189
 9801SOL    HW130302   4.978   5.785   0.209
 9801SOL    HW230303   4.979   5.631   0.154
 9802SOL     OW30304   0.524   3.342   1.583
 9802SOL    HW130305   0.458   3.347   1.658
 9802SOL    HW230306   0.488   3.392   1.504
 9803SOL     OW30307   5.974   0.172   6.608
 9803SOL    HW130308   5.953   0.104   6.679
 9803SOL    HW230309   6.072   0.175   6.592
 9804SOL     OW30310   6.680   5.198   3.145
 9804SOL    HW130311   6.716   5.105   3.133
 9804SOL    HW230312   6.699   5.229   3.238
 9805SOL     OW30313   1.349   5.503   6.618
 9805SOL    HW130314   1.346   5.580   6.682
 9805SOL    HW230315   1.442   5.466   6.614
 9806SOL     OW30316   0.603   2.546   1.526
 9806SOL    HW130317   0.560   2.459   1.503
 9806SOL    HW230318   0.593   2.563   1.624
 9807SOL     OW30319   3.902   1.631   0.338
 9807SOL    HW130320   3.967   1.626   0.414
 9807SOL    HW230321   3.821   1.576   0.360
 9808SOL     OW30322   5.718   1.368   5.017
 9808SOL    HW130323   5.757   1.409   4.935
 9808SOL    HW230324   5.778   1.295   5.050
 9809SOL     OW30325   0.945   1.439   5.332
 9809SOL    HW130326   0.985   1.513   5.386
 9809SOL    HW230327   0.846   1.439   5.344
 9810SOL     OW30328   2.455   1.439   3.166
 9810SOL    HW130329   2.503   1.381   3.232
 9810SOL    HW230330   2.390   1.498   3.213
 9811SOL     OW30331   6.581   6.251   3.489
 9811SOL    HW130332   6.670   6.274   3.529
 9811SOL    HW230333   6.532   6.334   3.465
 9812SOL     OW30334   4.466   1.998   6.086
 9812SOL    HW130335   4.513   1.918   6.124
 9812SOL    HW230336   4.383   1.968   6.039
 9813SOL     OW30337   6.172   5.542   0.257
 9813SOL    HW130338   6.246   5.607   0.236
 9813SOL    HW230339   6.086   5.592   0.267
 9814SOL     OW30340   6.381   0.412   5.715
 9814SOL    HW130341   6.352   0.500   5.677
 9814SOL    HW230342   6.362   0.339   5.649
 9815SOL     OW30343   6.550   3.512   1.376
 9815SOL    HW130344   6.550   3.546   1.282
 9815SOL    HW230345   6.457   3.485   1.402
 9816SOL     OW30346   6.535   0.547   6.762
 9816SOL    HW130347   6.481   0.631   6.758
 9816SOL    HW230348   6.517   0.492   6.681
 9817SOL     OW30349   3.051   5.320   1.828
 9817SOL    HW130350   3.049   5.236   1.883
 9817SOL    HW230351   2.977   5.316   1.760
 9818SOL     OW30352   2.157   1.300   3.552
 9818SOL    HW130353   2.064   1.275   3.577
 9818SOL    HW230354   2.200   1.226   3.501
 9819SOL     OW30355   5.861   3.675   4.910
 9819SOL    HW130356   5.840   3.758   4.961
 9819SOL    HW230357   5.921   3.616   4.964
 9820SOL     OW30358   2.976   1.929   6.651
 9820SOL    HW130359   2.938   1.908   6.561
 9820SOL    HW230360   3.076   1.938   6.644
 9821SOL     OW30361   4.502   2.126   1.939
 9821SOL    HW130362   4.481   2.222   1.961
 9821SOL    HW230363   4.530   2.120   1.843
 9822SOL     OW30364   3.958   5.583   4.597
 9822SOL    HW130365   4.005   5.663   4.559
 9822SOL    HW230366   3.882   5.614   4.655
 9823SOL     OW30367   1.001   0.752   2.091
 9823SOL    HW130368   0.919   0.799   2.059
 9823SOL    HW230369   1.004   0.659   2.054
 9824SOL     OW30370   2.106   6.289   5.917
 9824SOL    HW130371   2.109   6.288   5.818
 9824SOL    HW230372   2.011   6.294   5.948
 9825SOL     OW30373   5.056   6.159   5.489
 9825SOL    HW130374   4.985   6.123   5.549
 9825SOL    HW230375   5.114   6.084   5.458
 9826SOL     OW30376   3.257   6.969   5.295
 9826SOL    HW130377   3.321   6.905   5.253
 9826SOL    HW230378   3.292   0.047   5.286
 9827SOL     OW30379   1.733   5.844   2.600
 9827SOL    HW130380   1.775   5.843   2.690
 9827SOL    HW230381   1.798   5.882   2.533
 9828SOL     OW30382   3.816   1.762   4.999
 9828SOL    HW130383   3.758   1.699   5.051
 9828SOL    HW230384   3.763   1.844   4.977
 9829SOL     OW30385   4.310   6.019   5.763
 9829SOL    HW130386   4.379   6.091   5.757
 9829SOL    HW230387   4.331   5.959   5.840
 9830SOL     OW30388   5.920   1.870   2.878
 9830SOL    HW130389   5.839   1.928   2.866
 9830SOL    HW230390   5.952   1.839   2.788
 9831SOL     OW30391   0.619   3.665   2.416
 9831SOL    HW130392   0.634   3.567   2.426
 9831SOL    HW230393   0.557   3.683   2.340
 9832SOL     OW30394   4.885   4.643   4.544
 9832SOL    HW130395   4.937   4.558   4.553
 9832SOL    HW230396   4.816   4.648   4.616
 9833SOL     OW30397   3.680   3.912   3.965
 9833SOL    HW130398   3.580   3.922   3.971
 9833SOL    HW230399   3.722   3.947   4.048
 9834SOL     OW30400   2.608   5.662   5.672
 9834SOL    HW130401   2.513   5.645   5.698
 9834SOL    HW230402   2.614   5.672   5.573
 9835SOL     OW30403   3.424   4.161   5.055
 9835SOL    HW130404   3.494   4.185   4.987
 9835SOL    HW230405   3.359   4.097   5.016
 9836SOL     OW30406   0.781   3.352   6.092
 9836SOL    HW130407   0.744   3.359   6.000
 9836SOL    HW230408   0.867   3.402   6.098
 9837SOL     OW30409   6.088   1.797   1.478
 9837SOL    HW130410   6.059   1.871   1.418
 9837SOL    HW230411   6.090   1.711   1.427
 9838SOL     OW30412   0.930   5.766   0.991
 9838SOL    HW130413   0.884   5.849   1.024
 9838SOL    HW230414   0.868   5.688   0.996
 9839SOL     OW30415   4.248   1.066   2.414
 9839SOL    HW130416   4.304   0.992   2.376
 9839SOL    HW230417   4.199   1.112   2.341
 9840SOL     OW30418   5.522   1.923   0.130
 9840SOL    HW130419   5.440   1.869   0.151
 9840SOL    HW230420   5.575   1.876   0.059
 9841SOL     OW30421   0.020   5.230   3.465
 9841SOL    HW130422   0.055   5.176   3.542
 9841SOL    HW230423   0.075   5.313   3.456
 9842SOL     OW30424   3.657   2.423   0.262
 9842SOL    HW130425   3.693   2.439   0.171
 9842SOL    HW230426   3.602   2.339   0.262
 9843SOL     OW30427   0.004   6.202   0.797
 9843SOL    HW130428   0.014   6.300   0.782
 9843SOL    HW230429   6.955   6.186   0.872
 9844SOL     OW30430   5.107   0.009   4.484
 9844SOL    HW130431   5.027   0.017   4.423
 9844SOL    HW230432   5.110   0.089   4.544
 9845SOL     OW30433   1.647   2.448   1.970
 9845SOL    HW130434   1.664   2.486   2.060
 9845SOL    HW230435   1.720   2.476   1.908
 9846SOL     OW30436   5.354   1.050   1.226
 9846SOL    HW130437   5.416   1.119   1.189
 9846SOL    HW230438   5.368   1.041   1.324
 9847SOL     OW30439   3.582   3.807   1.098
 9847SOL    HW130440   3.625   3.741   1.159
 9847SOL    HW230441   3.501   3.766   1.057
 9848SOL     OW30442   3.500   3.606   4.871
 9848SOL    HW130443   3.476   3.604   4.774
 9848SOL    HW230444   3.598   3.624   4.881
 9849SOL     OW30445   1.034   1.091   6.448
 9849SOL    HW130446   1.014   1.185   6.421
 9849SOL    HW230447   0.965   1.029   6.408
 9850SOL     OW30448   0.336   0.602   4.222
 9850SOL    HW130449   0.306   0.509   4.200
 9850SOL    HW230450   0.257   0.663   4.223
 9851SOL     OW30451   3.756   5.146   4.216
 9851SOL    HW130452   3.823   5.117   4.284
 9851SOL    HW230453   3.714   5.065   4.174
 9852SOL     OW30454   1.715   1.106   6.527
 9852SOL    HW130455   1.785   1.046   6.565
 9852SOL    HW230456   1.627   1.086   6.571
 9853SOL     OW30457   6.755   4.367   4.045
 9853SOL    HW130458   6.782   4.345   4.139
 9853SOL    HW230459   6.720   4.460   4.041
 9854SOL     OW30460   0.614   5.907   5.868
 9854SOL    HW130461   0.584   6.003   5.867
 9854SOL    HW230462   0.702   5.900   5.821
 9855SOL     OW30463   1.071   3.431   0.947
 9855SOL    HW130464   1.034   3.371   0.876
 9855SOL    HW230465   1.167   3.451   0.927
 9856SOL     OW30466   5.606   4.279   3.460
 9856SOL    HW130467   5.631   4.244   3.370
 9856SOL    HW230468   5.624   4.377   3.464
 9857SOL     OW30469   4.855   2.321   3.287
 9857SOL    HW130470   4.808   2.408   3.303
 9857SOL    HW230471   4.819   2.278   3.204
 9858SOL     OW30472   0.339   5.993   2.231
 9858SOL    HW130473   0.318   6.054   2.308
 9858SOL    HW230474   0.336   5.898   2.262
 9859SOL     OW30475   0.774   4.932   4.636
 9859SOL    HW130476   0.676   4.948   4.627
 9859SOL    HW230477   0.824   4.991   4.572
 9860SOL     OW30478   2.128   2.204   5.424
 9860SOL    HW130479   2.152   2.113   5.391
 9860SOL    HW230480   2.035   2.226   5.395
 9861SOL     OW30481   2.707   1.489   3.940
 9861SOL    HW130482   2.759   1.430   3.878
 9861SOL    HW230483   2.671   1.434   4.016
 9862SOL     OW30484   2.093   5.046   1.126
 9862SOL    HW130485   2.088   4.953   1.089
 9862SOL    HW230486   2.118   5.041   1.223
 9863SOL     OW30487   3.272   5.907   1.257
 9863SOL    HW130488   3.203   5.851   1.301
 9863SOL    HW230489   3.325   5.852   1.193
 9864SOL     OW30490   2.715   5.973   5.263
 9864SOL    HW130491   2.750   6.052   5.214
 9864SOL    HW230492   2.616   5.967   5.250
 9865SOL     OW30493   0.818   6.448   5.627
 9865SOL    HW130494   0.856   6.467   5.537
 9865SOL    HW230495   0.781   6.532   5.666
 9866SOL     OW30496   6.534   4.519   4.466
 9866SOL    HW130497   6.446   4.473   4.455
 9866SOL    HW230498   6.545   4.587   4.393
 9867SOL     OW30499   5.275   1.863   1.648
 9867SOL    HW130500   5.252   1.869   1.745
 9867SOL    HW230501   5.303   1.769   1.626
 9868SOL     OW30502   1.318   4.489   3.223
 9868SOL    HW130503   1.278   4.512   3.312
 9868SOL    HW230504   1.332   4.390   3.217
 9869SOL     OW30505   0.197   2.459   1.409
 9869SOL    HW130506   0.118   2.511   1.376
 9869SOL    HW230507   0.281   2.496   1.370
 9870SOL     OW30508   3.469   1.349   1.659
 9870SOL    HW130509   3.385   1.362   1.711
 9870SOL    HW230510   3.482   1.251   1.640
 9871SOL     OW30511   0.003   3.685   5.306
 9871SOL    HW130512   6.921   3.674   5.289
 9871SOL    HW230513   0.050   3.599   5.287
 9872SOL     OW30514   2.055   5.448   5.360
 9872SOL    HW130515   2.098   5.397   5.286
 9872SOL    HW230516   2.050   5.545   5.335
 9873SOL     OW30517   2.576   2.254   6.040
 9873SOL    HW130518   2.501   2.194   6.069
 9873SOL    HW230519   2.545   2.313   5.966
 9874SOL     OW30520   0.515   2.436   4.893
 9874SOL    HW130521   0.584   2.504   4.870
 9874SOL    HW230522   0.425   2.480   4.899
 9875SOL     OW30523   6.664   5.883   0.350
 9875SOL    HW130524   6.657   5.838   0.439
 9875SOL    HW230525   6.739   5.949   0.352
 9876SOL     OW30526   2.265   6.918   3.156
 9876SOL    HW130527   2.175   6.937   3.194
 9876SOL    HW230528   2.311   7.003   3.132
 9877SOL     OW30529   0.958   5.040   4.450
 9877SOL    HW130530   1.020   5.008   4.521
 9877SOL    HW230531   1.011   5.085   4.377
 9878SOL     OW30532   1.886   3.133   0.009
 9878SOL    HW130533   1.878   3.046   6.975
 9878SOL    HW230534   1.982   3.160   0.013
 9879SOL     OW30535   0.758   4.520   6.167
 9879SOL    HW130536   0.771   4.463   6.086
 9879SOL    HW230537   0.812   4.483   6.243
 9880SOL     OW30538   3.071   1.720   0.293
 9880SOL    HW130539   3.085   1.679   0.202
 9880SOL    HW230540   3.078   1.819   0.286
 9881SOL     OW30541   5.209   0.518   4.609
 9881SOL    HW130542   5.157   0.569   4.679
 9881SOL    HW230543   5.205   0.568   4.523
 9882SOL     OW30544   3.872   2.970   4.032
 9882SOL    HW130545   3.823   2.884   4.047
 9882SOL    HW230546   3.806   3.043   4.011
 9883SOL     OW30547   2.109   6.606   1.298
 9883SOL    HW130548   2.196   6.651   1.320
 9883SOL    HW230549   2.127   6.528   1.239
 9884SOL     OW30550   1.843   3.507   6.290
 9884SOL    HW130551   1.894   3.593   6.299
 9884SOL    HW230552   1.825   3.470   6.381
 9885SOL     OW30553   6.689   3.141   4.027
 9885SOL    HW130554   6.750   3.102   3.958
 9885SOL    HW230555   6.703   3.240   4.032
 9886SOL     OW30556   4.773   6.171   1.572
 9886SOL    HW130557   4.786   6.220   1.486
 9886SOL    HW230558   4.721   6.227   1.636
 9887SOL     OW30559   3.802   6.462   0.548
 9887SOL    HW130560   3.702   6.462   0.555
 9887SOL    HW230561   3.828   6.465   0.452
 9888SOL     OW30562   5.954   5.686   2.430
 9888SOL    HW130563   5.993   5.774   2.458
 9888SOL    HW230564   6.023   5.632   2.382
 9889SOL     OW30565   0.269   4.957   2.945
 9889SOL    HW130566   0.209   4.941   2.867
 9889SOL    HW230567   0.283   5.055   2.958
 9890SOL     OW30568   6.550   3.839   1.388
 9890SOL    HW130569   6.529   3.936   1.400
 9890SOL    HW230570   6.624   3.829   1.322
 9891SOL     OW30571   5.483   5.125   0.689
 9891SOL    HW130572   5.439   5.048   0.734
 9891SOL    HW230573   5.578   5.132   0.720
 9892SOL     OW30574   1.757   5.418   3.813
 9892SOL    HW130575   1.798   5.328   3.807
 9892SOL    HW230576   1.800   5.470   3.887
 9893SOL     OW30577   6.067   5.218   3.305
 9893SOL    HW130578   6.118   5.199   3.221
 9893SOL    HW230579   6.120   5.184   3.383
 9894SOL     OW30580   3.506   2.717   5.757
 9894SOL    HW130581   3.556   2.804   5.759
 9894SOL    HW230582   3.435   2.721   5.686
 9895SOL     OW30583   5.182   2.862   6.621
 9895SOL    HW130584   5.138   2.804   6.552
 9895SOL    HW230585   5.271   2.823   6.644
 9896SOL     OW30586   3.790   3.800   0.490
 9896SOL    HW130587   3.726   3.732   0.526
 9896SOL    HW230588   3.739   3.877   0.452
 9897SOL     OW30589   5.533   1.698   2.517
 9897SOL    HW130590   5.598   1.730   2.447
 9897SOL    HW230591   5.578   1.630   2.574
 9898SOL     OW30592   1.197   5.539   5.720
 9898SOL    HW130593   1.131   5.559   5.648
 9898SOL    HW230594   1.152   5.492   5.796
 9899SOL     OW30595   5.064   4.686   2.196
 9899SOL    HW130596   5.080   4.639   2.282
 9899SOL    HW230597   4.972   4.666   2.163
 9900SOL     OW30598   1.342   2.435   3.987
 9900SOL    HW130599   1.349   2.528   3.950
 9900SOL    HW230600   1.347   2.369   3.911
 9901SOL     OW30601   2.615   2.297   6.313
 9901SOL    HW130602   2.623   2.267   6.219
 9901SOL    HW230603   2.619   2.397   6.317
 9902SOL     OW30604   3.535   3.840   0.781
 9902SOL    HW130605   3.560   3.759   0.729
 9902SOL    HW230606   3.608   3.864   0.845
 9903SOL     OW30607   4.473   1.483   2.249
 9903SOL    HW130608   4.449   1.423   2.326
 9903SOL    HW230609   4.502   1.572   2.284
 9904SOL     OW30610   6.373   2.039   0.713
 9904SOL    HW130611   6.410   2.004   0.628
 9904SOL    HW230612   6.438   2.104   0.754
 9905SOL     OW30613   1.666   6.489   6.184
 9905SOL    HW130614   1.632   6.399   6.210
 9905SOL    HW230615   1.738   6.479   6.115
 9906SOL     OW30616   2.324   3.217   6.276
 9906SOL    HW130617   2.248   3.210   6.341
 9906SOL    HW230618   2.306   3.293   6.213
 9907SOL     OW30619   2.400   6.271   2.902
 9907SOL    HW130620   2.470   6.329   2.942
 9907SOL    HW230621   2.389   6.294   2.806
 9908SOL     OW30622   0.473   3.599   6.331
 9908SOL    HW130623   0.456   3.684   6.380
 9908SOL    HW230624   0.569   3.593   6.305
 9909SOL     OW30625   3.209   1.571   2.620
 9909SOL    HW130626   3.177   1.550   2.713
 9909SOL    HW230627   3.208   1.671   2.607
 9910SOL     OW30628   6.140   4.372   0.826
 9910SOL    HW130629   6.064   4.323   0.871
 9910SOL    HW230630   6.122   4.379   0.728
 9911SOL     OW30631   4.185   5.074   3.464
 9911SOL    HW130632   4.207   5.170   3.480
 9911SOL    HW230633   4.172   5.059   3.366
 9912SOL     OW30634   4.975   0.594   1.967
 9912SOL    HW130635   4.936   0.582   1.876
 9912SOL    HW230636   5.075   0.588   1.961
 9913SOL     OW30637   5.298   2.728   2.624
 9913SOL    HW130638   5.356   2.716   2.705
 9913SOL    HW230639   5.295   2.825   2.600
 9914SOL     OW30640   1.133   0.211   4.921
 9914SOL    HW130641   1.175   0.259   4.843
 9914SOL    HW230642   1.125   0.114   4.900
 9915SOL     OW30643   4.922   2.929   4.025
 9915SOL    HW130644   4.867   2.870   4.084
 9915SOL    HW230645   4.927   2.889   3.933
 9916SOL     OW30646   2.151   2.828   2.636
 9916SOL    HW130647   2.159   2.830   2.537
 9916SOL    HW230648   2.093   2.751   2.664
 9917SOL     OW30649   3.337   4.008   5.687
 9917SOL    HW130650   3.288   3.934   5.643
 9917SOL    HW230651   3.433   3.982   5.701
 9918SOL     OW30652   2.068   1.874   6.143
 9918SOL    HW130653   2.115   1.849   6.058
 9918SOL    HW230654   1.996   1.941   6.123
 9919SOL     OW30655   1.262   5.614   2.352
 9919SOL    HW130656   1.312   5.595   2.436
 9919SOL    HW230657   1.170   5.575   2.358
 9920SOL     OW30658   3.718   6.267   1.479
 9920SOL    HW130659   3.709   6.247   1.381
 9920SOL    HW230660   3.764   6.355   1.491
 9921SOL     OW30661   5.876   6.969   2.815
 9921SOL    HW130662   5.832   0.042   2.834
 9921SOL    HW230663   5.918   6.934   2.899
 9922SOL     OW30664   4.304   4.544   0.864
 9922SOL    HW130665   4.363   4.520   0.787
 9922SOL    HW230666   4.357   4.596   0.932
 9923SOL     OW30667   6.306   2.171   6.231
 9923SOL    HW130668   6.357   2.141   6.150
 9923SOL    HW230669   6.370   2.208   6.298
 9924SOL     OW30670   6.847   0.797   2.622
 9924SOL    HW130671   6.882   0.792   2.715
 9924SOL    HW230672   6.876   0.716   2.571
 9925SOL     OW30673   2.740   3.138   5.654
 9925SOL    HW130674   2.671   3.067   5.667
 9925SOL    HW230675   2.732   3.175   5.562
 9926SOL     OW30676   0.969   1.427   0.489
 9926SOL    HW130677   0.948   1.485   0.568
 9926SOL    HW230678   1.034   1.474   0.430
 9927SOL     OW30679   0.261   1.918   2.637
 9927SOL    HW130680   0.325   1.980   2.592
 9927SOL    HW230681   0.227   1.961   2.721
 9928SOL     OW30682   0.273   3.835   1.979
 9928SOL    HW130683   0.308   3.909   1.921
 9928SOL    HW230684   0.296   3.747   1.938
 9929SOL     OW30685   2.875   4.593   6.914
 9929SOL    HW130686   2.897   4.495   6.918
 9929SOL    HW230687   2.861   4.621   6.819
 9930SOL     OW30688   6.461   0.116   6.158
 9930SOL    HW130689   6.449   0.019   6.140
 9930SOL    HW230690   6.377   0.153   6.198
 9931SOL     OW30691   1.884   6.374   5.434
 9931SOL    HW130692   1.968   6.384   5.380
 9931SOL    HW230693   1.902   6.312   5.511
 9932SOL     OW30694   1.802   1.484   0.272
 9932SOL    HW130695   1.714   1.449   0.304
 9932SOL    HW230696   1.789   1.530   0.184
 9933SOL     OW30697   2.338   1.532   2.897
 9933SOL    HW130698   2.426   1.555   2.938
 9933SOL    HW230699   2.323   1.434   2.902
 9934SOL     OW30700   5.438   1.734   6.068
 9934SOL    HW130701   5.428   1.827   6.105
 9934SOL    HW230702   5.535   1.711   6.060
 9935SOL     OW30703   3.171   1.959   0.718
 9935SOL    HW130704   3.267   1.940   0.697
 9935SOL    HW230705   3.123   1.874   0.736
 9936SOL     OW30706   5.750   5.802   6.137
 9936SOL    HW130707   5.657   5.815   6.102
 9936SOL    HW230708   5.776   5.706   6.125
 9937SOL     OW30709   0.310   6.693   2.677
 9937SOL    HW130710   0.256   6.775   2.699
 9937SOL    HW230711   0.407   6.713   2.688
 9938SOL     OW30712   6.975   0.661   4.311
 9938SOL    HW130713   0.031   0.730   4.323
 9938SOL    HW230714   6.889   0.696   4.349
 9939SOL     OW30715   2.131   4.314   0.854
 9939SOL    HW130716   2.108   4.316   0.757
 9939SOL    HW230717   2.061   4.264   0.904
 9940SOL     OW30718   0.251   6.940   2.825
 9940SOL    HW130719   0.285   0.014   2.796
 9940SOL    HW230720   0.292   6.916   2.913
 9941SOL     OW30721   4.136   5.060   6.141
 9941SOL    HW130722   4.039   5.072   6.123
 9941SOL    HW230723   4.153   4.968   6.176
 9942SOL     OW30724   4.344   4.875   3.700
 9942SOL    HW130725   4.280   4.823   3.643
 9942SOL    HW230726   4.382   4.951   3.646
 9943SOL     OW30727   2.442   3.850   0.510
 9943SOL    HW130728   2.538   3.824   0.520
 9943SOL    HW230729   2.424   3.878   0.416
 9944SOL     OW30730   1.422   4.878   6.888
 9944SOL    HW130731   1.384   4.959   6.932
 9944SOL    HW230732   1.497   4.905   6.827
 9945SOL     OW30733   5.723   3.727   0.171
 9945SOL    HW130734   5.744   3.648   0.114
 9945SOL    HW230735   5.634   3.713   0.214
 9946SOL     OW30736   5.463   1.249   3.000
 9946SOL    HW130737   5.402   1.213   2.929
 9946SOL    HW230738   5.481   1.346   2.981
 9947SOL     OW30739   1.930   1.363   4.407
 9947SOL    HW130740   1.904   1.304   4.484
 9947SOL    HW230741   1.949   1.306   4.327
 9948SOL     OW30742   6.089   0.260   4.165
 9948SOL    HW130743   6.047   0.338   4.121
 9948SOL    HW230744   6.113   0.283   4.260
 9949SOL     OW30745   6.554   4.037   4.386
 9949SOL    HW130746   6.631   4.040   4.450
 9949SOL    HW230747   6.525   3.943   4.373
 9950SOL     OW30748   6.615   4.992   5.971
 9950SOL    HW130749   6.639   5.088   5.990
 9950SOL    HW230750   6.587   4.947   6.056
 9951SOL     OW30751   0.787   2.607   2.546
 9951SOL    HW130752   0.802   2.598   2.644
 9951SOL    HW230753   0.701   2.656   2.530
 9952SOL     OW30754   0.562   4.277   1.728
 9952SOL    HW130755   0.596   4.368   1.751
 9952SOL    HW230756   0.636   4.222   1.690
 9953SOL     OW30757   6.191   2.351   3.152
 9953SOL    HW130758   6.278   2.307   3.173
 9953SOL    HW230759   6.202   2.450   3.157
 9954SOL     OW30760   3.002   1.903   6.037
 9954SOL    HW130761   2.951   1.838   5.981
 9954SOL    HW230762   2.943   1.981   6.060
 9955SOL     OW30763   5.455   3.137   1.251
 9955SOL    HW130764   5.432   3.042   1.272
 9955SOL    HW230765   5.370   3.190   1.243
 9956SOL     OW30766   1.872   4.349   3.449
 9956SOL    HW130767   1.937   4.373   3.376
 9956SOL    HW230768   1.850   4.252   3.443
 9957SOL     OW30769   5.772   6.857   1.607
 9957SOL    HW130770   5.763   6.839   1.705
 9957SOL    HW230771   5.682   6.852   1.563
 9958SOL     OW30772   3.812   5.009   6.368
 9958SOL    HW130773   3.867   5.049   6.294
 9958SOL    HW230774   3.718   5.040   6.359
 9959SOL     OW30775   4.010   4.291   1.018
 9959SOL    HW130776   4.040   4.290   1.114
 9959SOL    HW230777   3.919   4.332   1.012
 9960SOL     OW30778   6.554   6.943   6.927
 9960SOL    HW130779   6.554   6.930   0.011
 9960SOL    HW230780   6.648   6.940   6.893
 9961SOL     OW30781   1.951   4.723   2.254
 9961SOL    HW130782   2.044   4.695   2.232
 9961SOL    HW230783   1.894   4.642   2.269
 9962SOL     OW30784   3.251   5.732   2.535
 9962SOL    HW130785   3.345   5.763   2.526
 9962SOL    HW230786   3.231   5.665   2.464
 9963SOL     OW30787   1.601   1.420   6.947
 9963SOL    HW130788   1.514   1.463   6.971
 9963SOL    HW230789   1.589   1.321   6.939
 9964SOL     OW30790   4.815   4.203   5.511
 9964SOL    HW130791   4.906   4.200   5.471
 9964SOL    HW230792   4.746   4.203   5.438
 9965SOL     OW30793   2.981   5.675   5.008
 9965SOL    HW130794   2.885   5.660   5.030
 9965SOL    HW230795   2.993   5.768   4.973
 9966SOL     OW30796   3.098   4.963   2.612
 9966SOL    HW130797   3.074   4.945   2.516
 9966SOL    HW230798   3.183   4.916   2.634
 9967SOL     OW30799   6.925   6.927   2.516
 9967SOL    HW130800   6.874   6.886   2.592
 9967SOL    HW230801   6.999   6.866   2.489
 9968SOL     OW30802   3.968   6.249   0.406
 9968SOL    HW130803   3.901   6.196   0.457
 9968SOL    HW230804   4.050   6.263   0.461
 9969SOL     OW30805   1.455   4.954   4.235
 9969SOL    HW130806   1.413   4.870   4.203
 9969SOL    HW230807   1.493   5.004   4.157
 9970SOL     OW30808   6.224   4.795   1.781
 9970SOL    HW130809   6.219   4.746   1.868
 9970SOL    HW230810   6.260   4.733   1.711
 9971SOL     OW30811   1.718   3.339   2.508
 9971SOL    HW130812   1.653   3.306   2.439
 9971SOL    HW230813   1.669   3.396   2.575
 9972SOL     OW30814   3.592   4.255   0.485
 9972SOL    HW130815   3.545   4.167   0.489
 9972SOL    HW230816   3.627   4.270   0.393
 9973SOL     OW30817   3.734   1.692   4.074
 9973SOL    HW130818   3.662   1.662   4.137
 9973SOL    HW230819   3.749   1.621   4.005
 9974SOL     OW30820   0.084   1.860   3.446
 9974SOL    HW130821   0.011   1.796   3.469
 9974SOL    HW230822   0.074   1.943   3.501
 9975SOL     OW30823   1.048   5.258   6.537
 9975SOL    HW130824   0.955   5.279   6.507
 9975SOL    HW230825   1.072   5.164   6.513
 9976SOL     OW30826   1.978   4.560   6.099
 9976SOL    HW130827   1.992   4.471   6.055
 9976SOL    HW230828   1.983   4.632   6.030
 9977SOL     OW30829   5.550   5.580   4.958
 9977SOL    HW130830   5.490   5.559   4.881
 9977SOL    HW230831   5.505   5.552   5.043
 9978SOL     OW30832   0.393   1.960   6.328
 9978SOL    HW130833   0.414   1.879   6.382
 9978SOL    HW230834   0.420   2.042   6.379
 9979SOL     OW30835   5.029   3.270   5.819
 9979SOL    HW130836   5.084   3.317   5.750
 9979SOL    HW230837   4.995   3.184   5.781
 9980SOL     OW30838   1.185   1.011   0.349
 9980SOL    HW130839   1.126   1.078   0.394
 9980SOL    HW230840   1.130   0.952   0.290
 9981SOL     OW30841   0.794   2.292   1.405
 9981SOL    HW130842   0.725   2.242   1.456
 9981SOL    HW230843   0.784   2.273   1.308
 9982SOL     OW30844   2.085   1.546   5.053
 9982SOL    HW130845   2.120   1.615   4.990
 9982SOL    HW230846   2.038   1.591   5.129
 9983SOL     OW30847   6.538   3.133   2.020
 9983SOL    HW130848   6.444   3.119   1.989
 9983SOL    HW230849   6.599   3.138   1.941
 9984SOL     OW30850   0.174   6.081   1.341
 9984SOL    HW130851   0.150   6.178   1.328
 9984SOL    HW230852   0.233   6.072   1.421
 9985SOL     OW30853   3.954   5.563   0.585
 9985SOL    HW130854   3.941   5.558   0.485
 9985SOL    HW230855   4.040   5.609   0.605
 9986SOL     OW30856   4.872   4.771   0.418
 9986SOL    HW130857   4.883   4.831   0.340
 9986SOL    HW230858   4.780   4.781   0.456
 9987SOL     OW30859   5.328   2.961   1.518
 9987SOL    HW130860   5.318   2.904   1.437
 9987SOL    HW230861   5.248   3.021   1.527
 9988SOL     OW30862   6.417   5.949   4.002
 9988SOL    HW130863   6.359   6.029   4.016
 9988SOL    HW230864   6.363   5.875   3.962
 9989SOL     OW30865   6.341   4.192   1.597
 9989SOL    HW130866   6.245   4.211   1.619
 9989SOL    HW230867   6.389   4.279   1.580
 9990SOL     OW30868   0.599   6.700   2.935
 9990SOL    HW130869   0.610   6.613   2.984
 9990SOL    HW230870   0.607   6.684   2.837
 9991SOL     OW30871   1.779   3.984   3.794
 9991SOL    HW130872   1.831   3.924   3.854
 9991SOL    HW230873   1.817   4.077   3.797
 9992SOL     OW30874   3.371   4.492   0.829
 9992SOL    HW130875   3.441   4.502   0.759
 9992SOL    HW230876   3.283   4.470   0.786
 9993SOL     OW30877   3.606   6.514   3.883
 9993SOL    HW130878   3.633   6.535   3.789
 9993SOL    HW230879   3.605   6.415   3.896
 9994SOL     OW30880   0.554   3.914   4.496
 9994SOL    HW130881   0.595   4.001   4.525
 9994SOL    HW230882   0.465   3.931   4.454
 9995SOL     OW30883   2.702   1.003   4.624
 9995SOL    HW130884   2.684   1.047   4.536
 9995SOL    HW230885   2.673   0.907   4.620
 9996SOL     OW30886   2.348   4.097   0.624
 9996SOL    HW130887   2.278   4.168   0.622
 9996SOL    HW230888   2.306   4.009   0.646
 9997SOL     OW30889   5.773   1.602   4.048
 9997SOL    HW130890   5.688   1.654   4.051
 9997SOL    HW230891   5.783   1.558   3.959
 9998SOL     OW30892   5.041   3.614   2.879
 9998SOL    HW130893   4.954   3.622   2.831
 9998SOL    HW230894   5.095   3.541   2.837
 9999SOL     OW30895   0.868   7.000   3.697
 9999SOL    HW130896   0.791   0.047   3.686
 9999SOL    HW230897   0.884   6.983   3.795
10000SOL     OW30898   5.395   1.730   1.342
10000SOL    HW130899   5.331   1.700   1.412
10000SOL    HW230900   5.486   1.691   1.360
10001SOL     OW30901   3.101   6.705   2.725
10001SOL    HW130902   3.014   6.711   2.774
10001SOL    HW230903   3.169   6.762   2.772
10002SOL     OW30904   2.293   1.329   0.508
10002SOL    HW130905   2.384   1.327   0.466
10002SOL    HW230906   2.249   1.417   0.488
10003SOL     OW30907   2.417   2.137   2.677
10003SOL    HW130908   2.483   2.198   2.632
10003SOL    HW230909   2.325   2.175   2.667
10004SOL     OW30910   5.216   4.542   4.868
10004SOL    HW130911   5.260   4.609   4.927
10004SOL    HW230912   5.128   4.578   4.836
10005SOL     OW30913   2.779   5.631   3.688
10005SOL    HW130914   2.841   5.619   3.765
10005SOL    HW230915   2.749   5.541   3.655
10006SOL     OW30916   5.613   6.992   5.584
10006SOL    HW130917   5.663   6.924   5.638
10006SOL    HW230918   5.677   0.047   5.553
10007SOL     OW30919   0.598   4.181   4.619
10007SOL    HW130920   0.667   4.123   4.576
10007SOL    HW230921   0.642   4.255   4.669
10008SOL     OW30922   3.069   1.798   3.847
10008SOL    HW130923   3.149   1.831   3.897
10008SOL    HW230924   2.988   1.847   3.877
10009SOL     OW30925   1.976   3.890   2.039
10009SOL    HW130926   2.042   3.953   2.083
10009SOL    HW230927   2.025   3.813   2.000
10010SOL     OW30928   2.539   4.647   6.508
10010SOL    HW130929   2.598   4.574   6.473
10010SOL    HW230930   2.457   4.653   6.452
10011SOL     OW30931   0.248   4.151   0.774
10011SOL    HW130932   0.292   4.211   0.707
10011SOL    HW230933   0.318   4.105   0.829
10012SOL     OW30934   4.976   0.861   2.228
10012SOL    HW130935   4.948   0.915   2.149
10012SOL    HW230936   4.994   0.922   2.305
10013SOL     OW30937   1.414   5.374   4.908
10013SOL    HW130938   1.478   5.414   4.843
10013SOL    HW230939   1.453   5.377   5.000
10014SOL     OW30940   0.827   6.496   2.306
10014SOL    HW130941   0.732   6.471   2.323
10014SOL    HW230942   0.834   6.596   2.297
10015SOL     OW30943   4.092   5.341   6.638
10015SOL    HW130944   3.997   5.328   6.667
10015SOL    HW230945   4.115   5.438   6.645
10016SOL     OW30946   1.680   1.035   4.522
10016SOL    HW130947   1.678   1.071   4.429
10016SOL    HW230948   1.736   0.953   4.525
10017SOL     OW30949   2.532   2.076   2.937
10017SOL    HW130950   2.489   2.071   2.847
10017SOL    HW230951   2.606   2.143   2.936
10018SOL     OW30952   6.952   4.321   5.602
10018SOL    HW130953   7.015   4.246   5.581
10018SOL    HW230954   6.869   4.284   5.644
10019SOL     OW30955   6.808   1.488   3.408
10019SOL    HW130956   6.878   1.417   3.409
10019SOL    HW230957   6.727   1.456   3.458
10020SOL     OW30958   0.060   0.948   1.432
10020SOL    HW130959   0.089   0.910   1.519
10020SOL    HW230960   6.976   0.936   1.421
10021SOL     OW30961   1.592   2.803   1.647
10021SOL    HW130962   1.521   2.871   1.665
10021SOL    HW230963   1.660   2.841   1.584
10022SOL     OW30964   2.062   6.160   6.764
10022SOL    HW130965   2.161   6.173   6.769
10022SOL    HW230966   2.024   6.221   6.695
10023SOL     OW30967   2.722   5.938   5.636
10023SOL    HW130968   2.681   5.916   5.725
10023SOL    HW230969   2.653   5.981   5.577
10024SOL     OW30970   1.602   4.873   3.049
10024SOL    HW130971   1.598   4.792   3.107
10024SOL    HW230972   1.571   4.849   2.957
10025SOL     OW30973   1.709   3.082   1.974
10025SOL    HW130974   1.776   3.073   2.048
10025SOL    HW230975   1.705   3.177   1.944
10026SOL     OW30976   4.934   1.534   2.956
10026SOL    HW130977   5.001   1.462   2.972
10026SOL    HW230978   4.849   1.494   2.922
10027SOL     OW30979   1.258   2.697   5.320
10027SOL    HW130980   1.174   2.651   5.348
10027SOL    HW230981   1.238   2.791   5.294
10028SOL     OW30982   3.730   0.749   1.030
10028SOL    HW130983   3.632   0.769   1.030
10028SOL    HW230984   3.749   0.677   1.097
10029SOL     OW30985   0.285   2.556   4.580
10029SOL    HW130986   0.282   2.523   4.486
10029SOL    HW230987   0.326   2.647   4.582
10030SOL     OW30988   2.838   7.012   5.068
10030SOL    HW130989   2.790   0.005   4.980
10030SOL    HW230990   2.810   0.071   5.129
10031SOL     OW30991   4.916   5.052   4.771
10031SOL    HW130992   5.002   5.101   4.756
10031SOL    HW230993   4.913   5.020   4.866
10032SOL     OW30994   3.620   0.008   5.906
10032SOL    HW130995   3.647   7.008   5.811
10032SOL    HW230996   3.529   6.985   5.921
10033SOL     OW30997   4.645   1.403   3.808
10033SOL    HW130998   4.614   1.366   3.721
10033SOL    HW230999   4.654   1.503   3.801
10034SOL     OW31000   2.098   0.875   3.609
10034SOL    HW131001   2.105   0.948   3.677
10034SOL    HW231002   2.006   0.873   3.571
10035SOL     OW31003   6.014   3.864   6.942
10035SOL    HW131004   5.960   3.796   6.893
10035SOL    HW231005   6.043   3.826   0.015
10036SOL     OW31006   6.584   0.908   0.067
10036SOL    HW131007   6.606   0.823   0.020
10036SOL    HW231008   6.665   0.968   0.067
10037SOL     OW31009   6.335   6.867   6.119
10037SOL    HW131010   6.250   6.891   6.071
10037SOL    HW231011   6.398   6.822   6.055
10038SOL     OW31012   4.568   6.522   6.340
10038SOL    HW131013   4.495   6.577   6.381
10038SOL    HW231014   4.636   6.582   6.300
10039SOL     OW31015   5.003   6.112   4.741
10039SOL    HW131016   4.992   6.096   4.643
10039SOL    HW231017   4.918   6.089   4.789
10040SOL     OW31018   4.141   5.932   0.080
10040SOL    HW131019   4.165   5.903   0.172
10040SOL    HW231020   4.068   6.001   0.085
10041SOL     OW31021   6.543   5.040   5.069
10041SOL    HW131022   6.550   5.135   5.041
10041SOL    HW231023   6.549   5.034   5.169
10042SOL     OW31024   0.521   1.074   5.210
10042SOL    HW131025   0.507   1.097   5.307
10042SOL    HW231026   0.612   1.037   5.197
10043SOL     OW31027   0.332   0.451   2.759
10043SOL    HW131028   0.392   0.511   2.813
10043SOL    HW231029   0.249   0.501   2.734
10044SOL     OW31030   2.498   1.982   4.370
10044SOL    HW131031   2.429   1.910   4.357
10044SOL    HW231032   2.452   2.068   4.390
10045SOL     OW31033   4.828   0.215   4.120
10045SOL    HW131034   4.740   0.214   4.169
10045SOL    HW231035   4.811   0.226   4.022
10046SOL     OW31036   0.329   1.109   1.608
10046SOL    HW131037   0.357   1.105   1.703
10046SOL    HW231038   0.241   1.156   1.601
10047SOL     OW31039   6.241   3.077   5.121
10047SOL    HW131040   6.242   3.022   5.205
10047SOL    HW231041   6.147   3.094   5.093
10048SOL     OW31042   3.518   1.847   1.897
10048SOL    HW131043   3.454   1.772   1.915
10048SOL    HW231044   3.555   1.838   1.804
10049SOL     OW31045   0.675   1.158   6.613
10049SOL    HW131046   0.710   1.242   6.653
10049SOL    HW231047   0.679   1.084   6.680
10050SOL     OW31048   5.840   2.842   4.915
10050SOL    HW131049   5.868   2.765   4.857
10050SOL    HW231050   5.742   2.859   4.904
10051SOL     OW31051   6.835   2.911   4.895
10051SOL    HW131052   6.778   2.950   4.968
10051SOL    HW231053   6.854   2.815   4.915
10052SOL     OW31054   1.984   2.585   2.296
10052SOL    HW131055   2.032   2.551   2.215
10052SOL    HW231056   1.909   2.522   2.319
10053SOL     OW31057   3.819   5.160   2.213
10053SOL    HW131058   3.850   5.080   2.264
10053SOL    HW231059   3.789   5.231   2.278
10054SOL     OW31060   4.212   6.182   6.144
10054SOL    HW131061   4.185   6.137   6.060
10054SOL    HW231062   4.300   6.228   6.131
10055SOL     OW31063   5.943   2.383   5.122
10055SOL    HW131064   6.010   2.310   5.108
10055SOL    HW231065   5.984   2.471   5.098
10056SOL     OW31066   6.173   4.876   0.966
10056SOL    HW131067   6.076   4.861   0.981
10056SOL    HW231068   6.208   4.942   1.032
10057SOL     OW31069   3.103   1.388   4.162
10057SOL    HW131070   3.053   1.463   4.117
10057SOL    HW231071   3.080   1.387   4.260
10058SOL     OW31072   7.000   3.923   4.911
10058SOL    HW131073   0.050   3.848   4.921
10058SOL    HW231074   0.009   3.977   4.830
10059SOL     OW31075   4.973   6.492   1.005
10059SOL    HW131076   4.949   6.403   1.043
10059SOL    HW231077   5.071   6.493   0.983
10060SOL     OW31078   2.257   1.908   2.606
10060SOL    HW131079   2.188   1.921   2.534
10060SOL    HW231080   2.298   1.997   2.629
10061SOL     OW31081   5.085   1.264   4.080
10061SOL    HW131082   5.127   1.341   4.129
10061SOL    HW231083   5.129   1.179   4.110
10062SOL     OW31084   6.277   0.076   5.016
10062SOL    HW131085   6.208   0.031   5.073
10062SOL    HW231086   6.327   0.143   5.071
10063SOL     OW31087   1.680   1.770   3.337
10063SOL    HW131088   1.755   1.780   3.401
10063SOL    HW231089   1.700   1.696   3.273
10064SOL     OW31090   5.690   5.518   6.002
10064SOL    HW131091   5.704   5.437   6.058
10064SOL    HW231092   5.596   5.520   5.967
10065SOL     OW31093   1.691   0.510   1.844
10065SOL    HW131094   1.784   0.480   1.866
10065SOL    HW231095   1.692   0.606   1.818
10066SOL     OW31096   1.778   1.114   4.253
10066SOL    HW131097   1.807   1.019   4.245
10066SOL    HW231098   1.701   1.131   4.191
10067SOL     OW31099   5.247   4.560   5.745
10067SOL    HW131100   5.265   4.598   5.655
10067SOL    HW231101   5.165   4.503   5.741
10068SOL     OW31102   5.408   2.821   3.898
10068SOL    HW131103   5.493   2.831   3.949
10068SOL    HW231104   5.339   2.882   3.937
10069SOL     OW31105   1.897   6.169   3.632
10069SOL    HW131106   1.881   6.183   3.730
10069SOL    HW231107   1.971   6.229   3.602
10070SOL     OW31108   0.519   6.776   4.927
10070SOL    HW131109   0.444   6.843   4.937
10070SOL    HW231110   0.533   6.756   4.831
10071SOL     OW31111   4.578   5.158   4.335
10071SOL    HW131112   4.664   5.154   4.386
10071SOL    HW231113   4.528   5.241   4.361
10072SOL     OW31114   1.208   6.599   4.461
10072SOL    HW131115   1.133   6.549   4.417
10072SOL    HW231116   1.224   6.684   4.412
10073SOL     OW31117   6.559   3.606   4.893
10073SOL    HW131118   6.611   3.683   4.930
10073SOL    HW231119   6.516   3.634   4.807
10074SOL     OW31120   0.399   0.458   5.842
10074SOL    HW131121   0.467   0.446   5.770
10074SOL    HW231122   0.330   0.386   5.835
10075SOL     OW31123   1.417   2.146   2.662
10075SOL    HW131124   1.409   2.167   2.759
10075SOL    HW231125   1.345   2.193   2.612
10076SOL     OW31126   5.886   0.206   3.933
10076SOL    HW131127   5.903   0.136   3.864
10076SOL    HW231128   5.907   0.296   3.895
10077SOL     OW31129   3.713   2.491   6.856
10077SOL    HW131130   3.768   2.472   6.775
10077SOL    HW231131   3.620   2.515   6.827
10078SOL     OW31132   6.510   6.440   4.044
10078SOL    HW131133   6.520   6.484   4.133
10078SOL    HW231134   6.415   6.446   4.014
10079SOL     OW31135   1.249   2.875   2.140
10079SOL    HW131136   1.345   2.901   2.139
10079SOL    HW231137   1.236   2.794   2.197
10080SOL     OW31138   3.247   1.982   6.615
10080SOL    HW131139   3.208   2.026   6.534
10080SOL    HW231140   3.345   2.000   6.619
10081SOL     OW31141   0.030   6.953   6.422
10081SOL    HW131142   6.950   6.927   6.440
10081SOL    HW231143   0.032   0.029   6.380
10082SOL     OW31144   0.004   3.052   2.525
10082SOL    HW131145   0.039   3.090   2.439
10082SOL    HW231146   6.919   3.050   2.522
10083SOL     OW31147   5.307   1.381   3.304
10083SOL    HW131148   5.253   1.364   3.222
10083SOL    HW231149   5.263   1.452   3.359
10084SOL     OW31150   4.060   0.826   6.349
10084SOL    HW131151   3.991   0.857   6.414
10084SOL    HW231152   4.059   0.886   6.269
10085SOL     OW31153   0.261   5.319   2.589
10085SOL    HW131154   0.312   5.297   2.505
10085SOL    HW231155   0.323   5.359   2.656
10086SOL     OW31156   5.746   5.374   2.375
10086SOL    HW131157   5.708   5.329   2.456
10086SOL    HW231158   5.761   5.307   2.303
10087SOL     OW31159   0.559   0.595   4.047
10087SOL    HW131160   0.538   0.580   3.950
10087SOL    HW231161   0.477   0.625   4.095
10088SOL     OW31162   6.763   7.004   6.198
10088SOL    HW131163   6.743   7.002   6.296
10088SOL    HW231164   6.680   0.014   6.148
10089SOL     OW31165   2.250   2.257   2.906
10089SOL    HW131166   2.348   2.262   2.886
10089SOL    HW231167   2.203   2.334   2.863
10090SOL     OW31168   0.394   4.821   0.846
10090SOL    HW131169   0.455   4.781   0.914
10090SOL    HW231170   0.363   4.911   0.877
10091SOL     OW31171   1.227   3.305   5.077
10091SOL    HW131172   1.222   3.233   5.007
10091SOL    HW231173   1.163   3.284   5.151
10092SOL     OW31174   1.467   3.769   5.048
10092SOL    HW131175   1.562   3.748   5.025
10092SOL    HW231176   1.418   3.684   5.065
10093SOL     OW31177   1.172   4.219   4.651
10093SOL    HW131178   1.137   4.312   4.643
10093SOL    HW231179   1.269   4.222   4.677
10094SOL     OW31180   2.844   6.657   1.802
10094SOL    HW131181   2.894   6.581   1.844
10094SOL    HW231182   2.891   6.685   1.718
10095SOL     OW31183   5.959   1.806   5.263
10095SOL    HW131184   5.949   1.778   5.167
10095SOL    HW231185   6.023   1.744   5.308
10096SOL     OW31186   6.223   4.968   2.722
10096SOL    HW131187   6.300   5.013   2.768
10096SOL    HW231188   6.209   4.877   2.762
10097SOL     OW31189   0.751   1.429   6.680
10097SOL    HW131190   0.833   1.391   6.721
10097SOL    HW231191   0.765   1.526   6.660
10098SOL     OW31192   2.304   6.910   5.876
10098SOL    HW131193   2.253   6.986   5.916
10098SOL    HW231194   2.323   6.842   5.947
10099SOL     OW31195   6.994   5.119   6.601
10099SOL    HW131196   6.902   5.079   6.603
10099SOL    HW231197   0.030   5.082   6.523
10100SOL     OW31198   5.372   6.652   4.543
10100SOL    HW131199   5.276   6.668   4.566
10100SOL    HW231200   5.407   6.576   4.598
10101SOL     OW31201   5.578   4.780   1.827
10101SOL    HW131202   5.545   4.774   1.921
10101SOL    HW231203   5.507   4.746   1.765
10102SOL     OW31204   2.209   0.957   2.882
10102SOL    HW131205   2.301   0.960   2.844
10102SOL    HW231206   2.156   0.886   2.835
10103SOL     OW31207   2.715   1.231   4.784
10103SOL    HW131208   2.648   1.198   4.851
10103SOL    HW231209   2.714   1.171   4.704
10104SOL     OW31210   1.458   3.519   4.805
10104SOL    HW131211   1.396   3.594   4.783
10104SOL    HW231212   1.463   3.509   4.905
10105SOL     OW31213   1.171   1.510   6.600
10105SOL    HW131214   1.127   1.527   6.688
10105SOL    HW231215   1.232   1.431   6.607
10106SOL     OW31216   5.085   5.184   0.851
10106SOL    HW131217   5.079   5.191   0.751
10106SOL    HW231218   5.061   5.091   0.879
10107SOL     OW31219   6.886   2.009   6.714
10107SOL    HW131220   6.846   1.958   6.790
10107SOL    HW231221   6.978   2.040   6.738
10108SOL     OW31222   6.840   6.000   6.962
10108SOL    HW131223   6.899   5.982   0.026
10108SOL    HW231224   6.865   6.087   6.920
10109SOL     OW31225   3.468   6.482   2.570
10109SOL    HW131226   3.503   6.431   2.492
10109SOL    HW231227   3.535   6.483   2.643
10110SOL     OW31228   4.024   6.448   5.093
10110SOL    HW131229   3.951   6.515   5.086
10110SOL    HW231230   4.053   6.420   5.002
10111SOL     OW31231   6.598   2.975   4.266
10111SOL    HW131232   6.618   3.020   4.179
10111SOL    HW231233   6.499   2.959   4.273
10112SOL     OW31234   5.679   4.126   5.077
10112SOL    HW131235   5.661   4.049   5.015
10112SOL    HW231236   5.777   4.132   5.095
10113SOL     OW31237   3.934   1.201   6.396
10113SOL    HW131238   3.923   1.105   6.419
10113SOL    HW231239   3.846   1.237   6.364
10114SOL     OW31240   5.357   0.285   0.995
10114SOL    HW131241   5.279   0.235   0.956
10114SOL    HW231242   5.379   0.248   1.085
10115SOL     OW31243   3.249   2.160   3.404
10115SOL    HW131244   3.254   2.257   3.383
10115SOL    HW231245   3.157   2.126   3.383
10116SOL     OW31246   1.053   6.268   0.138
10116SOL    HW131247   1.113   6.210   0.083
10116SOL    HW231248   1.055   6.362   0.102
10117SOL     OW31249   6.565   0.083   4.255
10117SOL    HW131250   6.471   0.051   4.252
10117SOL    HW231251   6.567   0.181   4.274
10118SOL     OW31252   6.784   5.408   2.994
10118SOL    HW131253   6.754   5.330   3.049
10118SOL    HW231254   6.882   5.425   3.010
10119SOL     OW31255   1.619   6.652   4.928
10119SOL    HW131256   1.584   6.677   4.838
10119SOL    HW231257   1.547   6.663   4.996
10120SOL     OW31258   1.179   3.581   4.185
10120SOL    HW131259   1.085   3.584   4.220
10120SOL    HW231260   1.221   3.494   4.210
10121SOL     OW31261   6.579   5.035   5.683
10121SOL    HW131262   6.512   4.962   5.675
10121SOL    HW231263   6.605   5.047   5.779
10122SOL     OW31264   5.477   2.750   0.452
10122SOL    HW131265   5.427   2.834   0.432
10122SOL    HW231266   5.464   2.725   0.548
10123SOL     OW31267   6.674   6.249   0.421
10123SOL    HW131268   6.713   6.335   0.453
10123SOL    HW231269   6.606   6.217   0.486
10124SOL     OW31270   1.787   3.945   6.448
10124SOL    HW131271   1.724   3.899   6.510
10124SOL    HW231272   1.828   3.878   6.386
10125SOL     OW31273   1.559   0.973   2.635
10125SOL    HW131274   1.600   1.014   2.717
10125SOL    HW231275   1.480   1.027   2.607
10126SOL     OW31276   0.495   6.607   6.621
10126SOL    HW131277   0.497   6.508   6.622
10126SOL    HW231278   0.421   6.639   6.561
10127SOL     OW31279   2.811   4.899   5.724
10127SOL    HW131280   2.806   4.832   5.799
10127SOL    HW231281   2.873   4.865   5.653
10128SOL     OW31282   1.034   1.741   1.222
10128SOL    HW131283   0.963   1.781   1.281
10128SOL    HW231284   1.105   1.809   1.205
10129SOL     OW31285   4.723   2.708   4.170
10129SOL    HW131286   4.767   2.710   4.260
10129SOL    HW231287   4.638   2.656   4.176
10130SOL     OW31288   2.277   4.114   2.392
10130SOL    HW131289   2.283   4.152   2.484
10130SOL    HW231290   2.233   4.024   2.396
10131SOL     OW31291   0.334   1.127   3.236
10131SOL    HW131292   0.412   1.148   3.294
10131SOL    HW231293   0.250   1.136   3.290
10132SOL     OW31294   2.258   6.821   3.771
10132SOL    HW131295   2.279   6.765   3.691
10132SOL    HW231296   2.168   6.795   3.807
10133SOL     OW31297   4.384   6.077   2.156
10133SOL    HW131298   4.426   5.987   2.142
10133SOL    HW231299   4.454   6.148   2.144
10134SOL     OW31300   6.559   6.868   3.497
10134SOL    HW131301   6.534   6.948   3.550
10134SOL    HW231302   6.632   6.892   3.433
10135SOL     OW31303   5.449   3.230   3.326
10135SOL    HW131304   5.476   3.214   3.231
10135SOL    HW231305   5.447   3.143   3.376
10136SOL     OW31306   5.703   0.335   2.586
10136SOL    HW131307   5.706   0.327   2.486
10136SOL    HW231308   5.720   0.431   2.612
10137SOL     OW31309   6.083   4.932   3.983
10137SOL    HW131310   6.178   4.955   4.003
10137SOL    HW231311   6.024   4.966   4.056
10138SOL     OW31312   4.637   2.386   0.885
10138SOL    HW131313   4.682   2.462   0.838
10138SOL    HW231314   4.584   2.421   0.962
10139SOL     OW31315   3.501   3.455   3.103
10139SOL    HW131316   3.548   3.380   3.149
10139SOL    HW231317   3.423   3.420   3.051
10140SOL     OW31318   6.692   5.998   5.559
10140SOL    HW131319   6.746   5.915   5.544
10140SOL    HW231320   6.612   5.997   5.499
10141SOL     OW31321   2.748   1.019   3.893
10141SOL    HW131322   2.719   0.949   3.827
10141SOL    HW231323   2.710   1.107   3.867
10142SOL     OW31324   6.232   6.995   4.558
10142SOL    HW131325   6.134   6.977   4.548
10142SOL    HW231326   6.277   6.913   4.594
10143SOL     OW31327   4.639   0.665   0.557
10143SOL    HW131328   4.544   0.632   0.558
10143SOL    HW231329   4.649   0.737   0.626
10144SOL     OW31330   4.410   6.868   6.291
10144SOL    HW131331   4.420   6.966   6.271
10144SOL    HW231332   4.400   6.854   6.389
10145SOL     OW31333   3.902   5.773   6.178
10145SOL    HW131334   3.829   5.838   6.157
10145SOL    HW231335   3.911   5.707   6.104
10146SOL     OW31336   3.928   4.941   5.138
10146SOL    HW131337   3.851   4.905   5.191
10146SOL    HW231338   3.945   5.036   5.164
10147SOL     OW31339   4.983   4.668   4.836
10147SOL    HW131340   4.895   4.662   4.788
10147SOL    HW231341   4.982   4.744   4.900
10148SOL     OW31342   6.161   4.986   6.553
10148SOL    HW131343   6.127   5.040   6.630
10148SOL    HW231344   6.139   5.033   6.467
10149SOL     OW31345   5.868   1.783   1.164
10149SOL    HW131346   5.846   1.869   1.210
10149SOL    HW231347   5.829   1.706   1.216
10150SOL     OW31348   4.443   3.570   0.776
10150SOL    HW131349   4.479   3.529   0.692
10150SOL    HW231350   4.509   3.559   0.850
10151SOL     OW31351   0.876   6.549   6.561
10151SOL    HW131352   0.819   6.622   6.524
10151SOL    HW231353   0.821   6.467   6.577
10152SOL     OW31354   1.338   6.418   4.599
10152SOL    HW131355   1.283   6.393   4.678
10152SOL    HW231356   1.295   6.494   4.550
10153SOL     OW31357   5.058   6.009   4.109
10153SOL    HW131358   5.072   6.061   4.193
10153SOL    HW231359   5.055   5.911   4.131
10154SOL     OW31360   6.036   0.205   4.937
10154SOL    HW131361   6.122   0.160   4.914
10154SOL    HW231362   5.995   0.243   4.854
10155SOL     OW31363   3.944   2.138   5.658
10155SOL    HW131364   4.016   2.139   5.727
10155SOL    HW231365   3.864   2.187   5.692
10156SOL     OW31366   6.311   0.730   2.055
10156SOL    HW131367   6.226   0.773   2.088
10156SOL    HW231368   6.377   0.725   2.130
10157SOL     OW31369   6.187   3.242   6.176
10157SOL    HW131370   6.199   3.178   6.101
10157SOL    HW231371   6.255   3.225   6.247
10158SOL     OW31372   5.376   3.461   0.477
10158SOL    HW131373   5.362   3.394   0.549
10158SOL    HW231374   5.318   3.438   0.398
10159SOL     OW31375   2.939   3.543   6.233
10159SOL    HW131376   3.023   3.536   6.287
10159SOL    HW231377   2.948   3.488   6.150
10160SOL     OW31378   2.189   3.107   2.335
10160SOL    HW131379   2.267   3.149   2.382
10160SOL    HW231380   2.123   3.074   2.403
10161SOL     OW31381   3.541   3.564   6.807
10161SOL    HW131382   3.474   3.592   6.875
10161SOL    HW231383   3.600   3.642   6.783
10162SOL     OW31384   3.149   5.086   0.518
10162SOL    HW131385   3.138   5.129   0.608
10162SOL    HW231386   3.241   5.050   0.509
10163SOL     OW31387   5.312   5.281   6.616
10163SOL    HW131388   5.312   5.307   6.519
10163SOL    HW231389   5.230   5.228   6.636
10164SOL     OW31390   5.702   3.271   4.656
10164SOL    HW131391   5.694   3.188   4.711
10164SOL    HW231392   5.632   3.270   4.584
10165SOL     OW31393   0.518   1.492   3.483
10165SOL    HW131394   0.428   1.531   3.502
10165SOL    HW231395   0.585   1.528   3.548
10166SOL     OW31396   3.722   1.493   2.355
10166SOL    HW131397   3.731   1.584   2.313
10166SOL    HW231398   3.636   1.452   2.326
10167SOL     OW31399   3.376   2.322   6.371
10167SOL    HW131400   3.350   2.234   6.411
10167SOL    HW231401   3.309   2.348   6.301
10168SOL     OW31402   6.052   4.209   5.412
10168SOL    HW131403   6.047   4.268   5.331
10168SOL    HW231404   5.963   4.168   5.429
10169SOL     OW31405   6.156   4.062   3.160
10169SOL    HW131406   6.071   4.104   3.192
10169SOL    HW231407   6.137   3.971   3.123
10170SOL     OW31408   1.366   4.793   5.910
10170SOL    HW131409   1.384   4.775   6.007
10170SOL    HW231410   1.368   4.892   5.894
10171SOL     OW31411   6.506   3.371   5.587
10171SOL    HW131412   6.511   3.448   5.651
10171SOL    HW231413   6.526   3.286   5.636
10172SOL     OW31414   6.609   6.759   4.509
10172SOL    HW131415   6.658   6.689   4.563
10172SOL    HW231416   6.675   6.806   4.450
10173SOL     OW31417   1.088   2.454   1.178
10173SOL    HW131418   1.049   2.478   1.089
10173SOL    HW231419   1.029   2.489   1.251
10174SOL     OW31420   5.282   5.208   2.439
10174SOL    HW131421   5.204   5.158   2.403
10174SOL    HW231422   5.365   5.180   2.391
10175SOL     OW31423   6.398   2.723   3.642
10175SOL    HW131424   6.403   2.678   3.553
10175SOL    HW231425   6.469   2.793   3.649
10176SOL     OW31426   1.528   3.193   5.841
10176SOL    HW131427   1.523   3.146   5.753
10176SOL    HW231428   1.622   3.190   5.875
10177SOL     OW31429   2.055   1.347   0.290
10177SOL    HW131430   1.968   1.396   0.278
10177SOL    HW231431   2.038   1.259   0.334
10178SOL     OW31432   0.162   1.765   5.329
10178SOL    HW131433   0.089   1.833   5.323
10178SOL    HW231434   0.159   1.706   5.249
10179SOL     OW31435   0.863   1.843   6.073
10179SOL    HW131436   0.801   1.885   6.139
10179SOL    HW231437   0.917   1.772   6.118
10180SOL     OW31438   3.698   0.549   0.158
10180SOL    HW131439   3.682   0.604   0.076
10180SOL    HW231440   3.771   0.484   0.141
10181SOL     OW31441   5.219   3.012   2.084
10181SOL    HW131442   5.289   2.985   2.019
10181SOL    HW231443   5.137   3.042   2.035
10182SOL     OW31444   5.292   0.893   1.890
10182SOL    HW131445   5.387   0.921   1.877
10182SOL    HW231446   5.239   0.916   1.808
10183SOL     OW31447   0.470   2.164   6.485
10183SOL    HW131448   0.534   2.139   6.558
10183SOL    HW231449   0.394   2.215   6.525
10184SOL     OW31450   3.699   1.006   6.780
10184SOL    HW131451   3.797   1.026   6.775
10184SOL    HW231452   3.670   1.009   6.875
10185SOL     OW31453   5.461   5.550   1.760
10185SOL    HW131454   5.408   5.576   1.680
10185SOL    HW231455   5.400   5.518   1.832
10186SOL     OW31456   6.150   3.620   3.493
10186SOL    HW131457   6.212   3.579   3.560
10186SOL    HW231458   6.106   3.700   3.533
10187SOL     OW31459   1.048   2.930   1.014
10187SOL    HW131460   1.023   2.837   1.040
10187SOL    HW231461   1.143   2.948   1.042
10188SOL     OW31462   3.702   5.488   0.669
10188SOL    HW131463   3.652   5.519   0.588
10188SOL    HW231464   3.800   5.493   0.651
10189SOL     OW31465   1.325   0.495   6.113
10189SOL    HW131466   1.333   0.594   6.127
10189SOL    HW231467   1.232   0.473   6.084
10190SOL     OW31468   4.869   3.204   1.721
10190SOL    HW131469   4.806   3.147   1.774
10190SOL    HW231470   4.954   3.153   1.705
10191SOL     OW31471   5.206   5.131   5.840
10191SOL    HW131472   5.262   5.116   5.759
10191SOL    HW231473   5.264   5.156   5.917
10192SOL     OW31474   4.602   1.796   6.196
10192SOL    HW131475   4.560   1.776   6.284
10192SOL    HW231476   4.701   1.779   6.201
10193SOL     OW31477   4.121   3.626   1.835
10193SOL    HW131478   4.212   3.607   1.799
10193SOL    HW231479   4.124   3.628   1.935
10194SOL     OW31480   5.875   4.814   4.701
10194SOL    HW131481   5.897   4.734   4.757
10194SOL    HW231482   5.923   4.894   4.737
10195SOL     OW31483   6.253   5.052   1.231
10195SOL    HW131484   6.161   5.069   1.195
10195SOL    HW231485   6.255   4.962   1.276
10196SOL     OW31486   4.139   1.513   3.929
10196SOL    HW131487   4.103   1.604   3.911
10196SOL    HW231488   4.211   1.491   3.864
10197SOL     OW31489   6.533   2.359   5.095
10197SOL    HW131490   6.625   2.327   5.113
10197SOL    HW231491   6.469   2.320   5.161
10198SOL     OW31492   3.307   0.715   1.669
10198SOL    HW131493   3.315   0.677   1.577
10198SOL    HW231494   3.262   0.648   1.728
10199SOL     OW31495   2.592   2.639   5.998
10199SOL    HW131496   2.611   2.617   6.094
10199SOL    HW231497   2.578   2.554   5.947
10200SOL     OW31498   5.127   1.489   0.910
10200SOL    HW131499   5.116   1.484   0.811
10200SOL    HW231500   5.037   1.493   0.954
10201SOL     OW31501   1.421   4.391   0.732
10201SOL    HW131502   1.445   4.294   0.723
10201SOL    HW231503   1.339   4.400   0.789
10202SOL     OW31504   3.932   2.995   0.158
10202SOL    HW131505   3.899   3.055   0.231
10202SOL    HW231506   3.874   3.007   0.077
10203SOL     OW31507   6.424   3.043   3.996
10203SOL    HW131508   6.335   3.066   3.957
10203SOL    HW231509   6.470   3.127   4.026
10204SOL     OW31510   4.969   6.623   6.772
10204SOL    HW131511   5.028   6.601   6.694
10204SOL    HW231512   5.012   6.590   6.856
10205SOL     OW31513   2.066   1.009   1.453
10205SOL    HW131514   2.045   1.042   1.545
10205SOL    HW231515   1.981   0.980   1.408
10206SOL     OW31516   0.252   1.070   6.788
10206SOL    HW131517   0.230   0.979   6.824
10206SOL    HW231518   0.226   1.139   6.856
10207SOL     OW31519   1.379   1.769   6.841
10207SOL    HW131520   1.388   1.718   6.755
10207SOL    HW231521   1.404   1.864   6.827
10208SOL     OW31522   5.771   4.743   3.953
10208SOL    HW131523   5.822   4.733   4.038
10208SOL    HW231524   5.755   4.653   3.912
10209SOL     OW31525   6.581   6.769   5.987
10209SOL    HW131526   6.657   6.809   5.935
10209SOL    HW231527   6.618   6.719   6.066
10210SOL     OW31528   4.934   6.602   1.855
10210SOL    HW131529   4.913   6.506   1.876
10210SOL    HW231530   4.850   6.656   1.858
10211SOL     OW31531   3.770   6.442   4.197
10211SOL    HW131532   3.807   6.535   4.193
10211SOL    HW231533   3.799   6.392   4.115
10212SOL     OW31534   1.139   0.248   5.356
10212SOL    HW131535   1.148   0.150   5.375
10212SOL    HW231536   1.050   0.267   5.317
10213SOL     OW31537   4.615   2.918   1.322
10213SOL    HW131538   4.586   2.986   1.389
10213SOL    HW231539   4.631   2.831   1.368
10214SOL     OW31540   1.266   1.443   1.598
10214SOL    HW131541   1.264   1.529   1.649
10214SOL    HW231542   1.260   1.366   1.662
10215SOL     OW31543   3.889   3.090   3.646
10215SOL    HW131544   3.899   2.992   3.656
10215SOL    HW231545   3.960   3.137   3.698
10216SOL     OW31546   6.759   0.646   0.596
10216SOL    HW131547   6.779   0.555   0.632
10216SOL    HW231548   6.836   0.707   0.617
10217SOL     OW31549   2.748   1.404   3.087
10217SOL    HW131550   2.751   1.343   3.008
10217SOL    HW231551   2.756   1.350   3.171
10218SOL     OW31552   1.353   1.749   2.091
10218SOL    HW131553   1.430   1.695   2.059
10218SOL    HW231554   1.297   1.777   2.013
10219SOL     OW31555   0.103   2.055   2.828
10219SOL    HW131556   0.061   1.993   2.894
10219SOL    HW231557   0.045   2.137   2.818
10220SOL     OW31558   4.332   2.471   1.276
10220SOL    HW131559   4.343   2.557   1.325
10220SOL    HW231560   4.245   2.473   1.225
10221SOL     OW31561   0.412   5.577   3.215
10221SOL    HW131562   0.497   5.629   3.204
10221SOL    HW231563   0.424   5.508   3.287
10222SOL     OW31564   2.954   3.057   5.320
10222SOL    HW131565   2.869   3.043   5.372
10222SOL    HW231566   2.936   3.113   5.240
10223SOL     OW31567   0.721   4.372   1.384
10223SOL    HW131568   0.799   4.421   1.422
10223SOL    HW231569   0.637   4.402   1.429
10224SOL     OW31570   6.751   2.826   3.994
10224SOL    HW131571   6.768   2.819   4.092
10224SOL    HW231572   6.652   2.827   3.977
10225SOL     OW31573   1.916   4.763   5.909
10225SOL    HW131574   1.884   4.743   5.816
10225SOL    HW231575   1.955   4.855   5.912
10226SOL     OW31576   3.121   0.952   6.879
10226SOL    HW131577   3.191   1.005   6.927
10226SOL    HW231578   3.050   0.924   6.944
10227SOL     OW31579   4.971   4.110   0.067
10227SOL    HW131580   4.981   4.102   6.983
10227SOL    HW231581   4.963   4.018   0.107
10228SOL     OW31582   6.551   7.011   1.037
10228SOL    HW131583   6.524   0.092   1.032
10228SOL    HW231584   6.471   6.953   1.024
10229SOL     OW31585   1.034   2.622   5.022
10229SOL    HW131586   1.020   2.660   5.113
10229SOL    HW231587   0.971   2.546   5.008
10230SOL     OW31588   6.034   5.593   2.830
10230SOL    HW131589   6.088   5.653   2.889
10230SOL    HW231590   5.994   5.519   2.884
10231SOL     OW31591   1.122   5.463   5.010
10231SOL    HW131592   1.185   5.385   5.005
10231SOL    HW231593   1.030   5.430   5.030
10232SOL     OW31594   2.744   0.920   3.416
10232SOL    HW131595   2.686   0.845   3.385
10232SOL    HW231596   2.835   0.912   3.374
10233SOL     OW31597   3.965   3.972   4.846
10233SOL    HW131598   4.018   4.054   4.870
10233SOL    HW231599   4.024   3.892   4.855
10234SOL     OW31600   6.132   6.981   1.015
10234SOL    HW131601   6.037   6.965   0.990
10234SOL    HW231602   6.180   6.893   1.018
10235SOL     OW31603   1.917   2.237   2.030
10235SOL    HW131604   1.953   2.326   2.059
10235SOL    HW231605   1.993   2.178   2.004
10236SOL     OW31606   2.141   6.598   0.633
10236SOL    HW131607   2.158   6.582   0.730
10236SOL    HW231608   2.174   6.689   0.607
10237SOL     OW31609   6.580   3.314   0.373
10237SOL    HW131610   6.673   3.325   0.338
10237SOL    HW231611   6.540   3.403   0.391
10238SOL     OW31612   4.215   4.435   1.530
10238SOL    HW131613   4.200   4.343   1.565
10238SOL    HW231614   4.312   4.447   1.509
10239SOL     OW31615   1.244   2.951   5.210
10239SOL    HW131616   1.324   2.925   5.156
10239SOL    HW231617   1.185   3.010   5.155
10240SOL     OW31618   2.523   6.059   2.565
10240SOL    HW131619   2.447   6.009   2.524
10240SOL    HW231620   2.609   6.024   2.529
10241SOL     OW31621   5.569   1.019   2.265
10241SOL    HW131622   5.583   1.116   2.249
10241SOL    HW231623   5.486   1.005   2.318
10242SOL     OW31624   6.766   1.287   0.594
10242SOL    HW131625   6.728   1.242   0.513
10242SOL    HW231626   6.789   1.219   0.662
10243SOL     OW31627   2.680   4.377   1.470
10243SOL    HW131628   2.714   4.340   1.556
10243SOL    HW231629   2.596   4.429   1.487
10244SOL     OW31630   2.139   4.279   0.590
10244SOL    HW131631   2.118   4.375   0.573
10244SOL    HW231632   2.083   4.221   0.531
10245SOL     OW31633   3.578   4.304   1.051
10245SOL    HW131634   3.593   4.209   1.079
10245SOL    HW231635   3.634   4.365   1.108
10246SOL     OW31636   2.958   3.848   4.374
10246SOL    HW131637   2.993   3.806   4.458
10246SOL    HW231638   2.870   3.890   4.393
10247SOL     OW31639   0.487   4.079   6.348
10247SOL    HW131640   0.539   4.128   6.418
10247SOL    HW231641   0.393   4.115   6.345
10248SOL     OW31642   0.835   0.789   2.687
10248SOL    HW131643   0.774   0.864   2.659
10248SOL    HW231644   0.780   0.714   2.725
10249SOL     OW31645   2.590   4.858   6.937
10249SOL    HW131646   2.514   4.866   7.001
10249SOL    HW231647   2.675   4.841   6.988
10250SOL     OW31648   6.842   3.742   0.866
10250SOL    HW131649   6.904   3.815   0.837
10250SOL    HW231650   6.811   3.690   0.786
10251SOL     OW31651   2.141   1.220   4.221
10251SOL    HW131652   2.116   1.217   4.124
10251SOL    HW231653   2.215   1.286   4.234
10252SOL     OW31654   4.234   3.825   6.079
10252SOL    HW131655   4.220   3.731   6.048
10252SOL    HW231656   4.153   3.856   6.129
10253SOL     OW31657   3.164   6.035   0.960
10253SOL    HW131658   3.134   5.967   1.026
10253SOL    HW231659   3.166   6.125   1.004
10254SOL     OW31660   4.516   1.727   5.498
10254SOL    HW131661   4.476   1.672   5.425
10254SOL    HW231662   4.486   1.822   5.488
10255SOL     OW31663   2.224   6.865   0.873
10255SOL    HW131664   2.235   6.928   0.949
10255SOL    HW231665   2.224   6.771   0.907
10256SOL     OW31666   4.685   0.943   2.373
10256SOL    HW131667   4.674   0.963   2.276
10256SOL    HW231668   4.765   0.885   2.387
10257SOL     OW31669   1.911   5.201   4.278
10257SOL    HW131670   1.903   5.140   4.356
10257SOL    HW231671   2.008   5.209   4.252
10258SOL     OW31672   3.791   1.874   3.647
10258SOL    HW131673   3.799   1.874   3.747
10258SOL    HW231674   3.733   1.950   3.619
10259SOL     OW31675   1.020   4.289   3.267
10259SOL    HW131676   1.114   4.273   3.296
10259SOL    HW231677   0.963   4.309   3.346
10260SOL     OW31678   0.719   1.342   3.736
10260SOL    HW131679   0.792   1.275   3.724
10260SOL    HW231680   0.756   1.424   3.778
10261SOL     OW31681   6.559   4.652   0.330
10261SOL    HW131682   6.549   4.567   0.278
10261SOL    HW231683   6.597   4.631   0.420
10262SOL     OW31684   3.137   6.886   6.471
10262SOL    HW131685   3.142   6.866   6.569
10262SOL    HW231686   3.067   6.829   6.429
10263SOL     OW31687   6.034   0.396   0.591
10263SOL    HW131688   6.051   0.311   0.541
10263SOL    HW231689   6.027   0.472   0.526
10264SOL     OW31690   6.387   5.311   6.610
10264SOL    HW131691   6.452   5.364   6.664
10264SOL    HW231692   6.297   5.314   6.655
10265SOL     OW31693   3.395   2.564   0.031
10265SOL    HW131694   3.396   2.651   0.080
10265SOL    HW231695   3.374   2.490   0.095
10266SOL     OW31696   3.773   3.265   2.940
10266SOL    HW131697   3.737   3.184   2.986
10266SOL    HW231698   3.707   3.340   2.948
10267SOL     OW31699   5.218   1.019   0.773
10267SOL    HW131700   5.270   0.981   0.849
10267SOL    HW231701   5.238   1.116   0.763
10268SOL     OW31702   5.666   6.418   2.082
10268SOL    HW131703   5.632   6.483   2.013
10268SOL    HW231704   5.641   6.325   2.055
10269SOL     OW31705   1.524   2.434   6.262
10269SOL    HW131706   1.609   2.485   6.271
10269SOL    HW231707   1.543   2.345   6.219
10270SOL     OW31708   2.875   5.665   3.080
10270SOL    HW131709   2.843   5.571   3.085
10270SOL    HW231710   2.974   5.666   3.062
10271SOL     OW31711   2.994   3.201   0.146
10271SOL    HW131712   2.978   3.155   0.233
10271SOL    HW231713   2.907   3.234   0.109
10272SOL     OW31714   1.168   0.517   3.850
10272SOL    HW131715   1.100   0.544   3.918
10272SOL    HW231716   1.159   0.576   3.769
10273SOL     OW31717   2.877   5.224   4.181
10273SOL    HW131718   2.858   5.229   4.083
10273SOL    HW231719   2.967   5.184   4.195
10274SOL     OW31720   1.336   4.400   5.929
10274SOL    HW131721   1.330   4.394   6.029
10274SOL    HW231722   1.432   4.398   5.901
10275SOL     OW31723   0.033   0.653   1.997
10275SOL    HW131724   0.077   0.563   1.993
10275SOL    HW231725   6.974   0.651   2.064
10276SOL     OW31726   4.352   5.817   5.984
10276SOL    HW131727   4.339   5.767   6.070
10276SOL    HW231728   4.390   5.756   5.915
10277SOL     OW31729   1.248   6.943   4.814
10277SOL    HW131730   1.273   6.975   4.906
10277SOL    HW231731   1.329   6.938   4.757
10278SOL     OW31732   0.828   0.722   3.892
10278SOL    HW131733   0.906   0.684   3.942
10278SOL    HW231734   0.743   0.694   3.936
10279SOL     OW31735   2.401   5.265   4.057
10279SOL    HW131736   2.431   5.250   4.151
10279SOL    HW231737   2.481   5.272   3.997
10280SOL     OW31738   5.794   2.953   0.066
10280SOL    HW131739   5.727   3.007   0.016
10280SOL    HW231740   5.886   2.976   0.036
10281SOL     OW31741   6.891   2.202   3.844
10281SOL    HW131742   6.961   2.268   3.818
10281SOL    HW231743   6.856   2.157   3.762
10282SOL     OW31744   5.364   3.252   3.656
10282SOL    HW131745   5.312   3.336   3.673
10282SOL    HW231746   5.430   3.239   3.730
10283SOL     OW31747   1.299   2.896   1.134
10283SOL    HW131748   1.383   2.857   1.173
10283SOL    HW231749   1.272   2.976   1.187
10284SOL     OW31750   6.040   1.822   4.778
10284SOL    HW131751   6.131   1.825   4.736
10284SOL    HW231752   6.004   1.728   4.773
10285SOL     OW31753   4.019   6.648   3.120
10285SOL    HW131754   4.092   6.688   3.065
10285SOL    HW231755   4.044   6.555   3.146
10286SOL     OW31756   3.113   0.220   4.028
10286SOL    HW131757   3.146   0.308   4.061
10286SOL    HW231758   3.157   0.199   3.940
10287SOL     OW31759   2.228   5.364   2.360
10287SOL    HW131760   2.187   5.434   2.417
10287SOL    HW231761   2.314   5.398   2.321
10288SOL     OW31762   4.159   6.988   4.193
10288SOL    HW131763   4.173   6.939   4.106
10288SOL    HW231764   4.061   7.007   4.204
10289SOL     OW31765   2.688   6.223   0.683
10289SOL    HW131766   2.781   6.225   0.649
10289SOL    HW231767   2.625   6.257   0.613
10290SOL     OW31768   3.164   3.027   2.869
10290SOL    HW131769   3.206   2.995   2.954
10290SOL    HW231770   3.228   3.013   2.793
10291SOL     OW31771   3.938   1.941   3.211
10291SOL    HW131772   3.873   2.007   3.248
10291SOL    HW231773   3.925   1.934   3.112
10292SOL     OW31774   0.763   1.673   5.807
10292SOL    HW131775   0.765   1.773   5.801
10292SOL    HW231776   0.855   1.638   5.824
10293SOL     OW31777   0.462   3.138   3.843
10293SOL    HW131778   0.437   3.111   3.750
10293SOL    HW231779   0.395   3.203   3.879
10294SOL     OW31780   4.493   1.448   2.775
10294SOL    HW131781   4.582   1.443   2.730
10294SOL    HW231782   4.505   1.476   2.871
10295SOL     OW31783   1.325   3.155   5.462
10295SOL    HW131784   1.394   3.226   5.480
10295SOL    HW231785   1.342   3.115   5.372
10296SOL     OW31786   5.726   1.750   5.680
10296SOL    HW131787   5.825   1.752   5.667
10296SOL    HW231788   5.687   1.838   5.652
10297SOL     OW31789   2.455   1.294   6.498
10297SOL    HW131790   2.520   1.361   6.533
10297SOL    HW231791   2.366   1.309   6.541
10298SOL     OW31792   1.647   4.697   1.208
10298SOL    HW131793   1.551   4.669   1.213
10298SOL    HW231794   1.702   4.641   1.271
10299SOL     OW31795   3.759   5.669   3.001
10299SOL    HW131796   3.718   5.655   3.091
10299SOL    HW231797   3.699   5.631   2.931
10300SOL     OW31798   1.593   4.337   1.684
10300SOL    HW131799   1.637   4.341   1.774
10300SOL    HW231800   1.604   4.246   1.645
10301SOL     OW31801   4.483   2.080   5.452
10301SOL    HW131802   4.468   2.030   5.537
10301SOL    HW231803   4.534   2.164   5.470
10302SOL     OW31804   2.058   6.146   4.711
10302SOL    HW131805   2.040   6.050   4.691
10302SOL    HW231806   2.133   6.153   4.777
10303SOL     OW31807   0.868   5.689   3.589
10303SOL    HW131808   0.777   5.655   3.613
10303SOL    HW231809   0.937   5.628   3.627
10304SOL     OW31810   5.619   0.257   0.897
10304SOL    HW131811   5.653   0.297   0.812
10304SOL    HW231812   5.520   0.267   0.902
10305SOL     OW31813   2.081   4.365   5.931
10305SOL    HW131814   2.137   4.384   5.849
10305SOL    HW231815   1.996   4.320   5.903
10306SOL     OW31816   5.721   5.976   0.448
10306SOL    HW131817   5.696   5.979   0.351
10306SOL    HW231818   5.803   5.920   0.459
10307SOL     OW31819   2.916   1.642   4.765
10307SOL    HW131820   2.965   1.580   4.704
10307SOL    HW231821   2.950   1.735   4.752
10308SOL     OW31822   1.813   4.083   1.951
10308SOL    HW131823   1.757   4.024   1.892
10308SOL    HW231824   1.873   4.026   2.008
10309SOL     OW31825   6.661   1.587   6.910
10309SOL    HW131826   6.579   1.595   6.967
10309SOL    HW231827   6.678   1.674   6.865
10310SOL     OW31828   2.704   4.295   0.692
10310SOL    HW131829   2.796   4.275   0.658
10310SOL    HW231830   2.704   4.386   0.734
10311SOL     OW31831   6.421   5.989   0.291
10311SOL    HW131832   6.496   5.937   0.331
10311SOL    HW231833   6.456   6.051   0.221
10312SOL     OW31834   4.797   6.517   2.358
10312SOL    HW131835   4.813   6.492   2.453
10312SOL    HW231836   4.701   6.539   2.344
10313SOL     OW31837   3.619   5.658   2.040
10313SOL    HW131838   3.550   5.730   2.032
10313SOL    HW231839   3.574   5.569   2.047
10314SOL     OW31840   6.565   6.994   0.182
10314SOL    HW131841   6.548   0.072   0.213
10314SOL    HW231842   6.542   6.930   0.255
10315SOL     OW31843   5.974   6.392   4.514
10315SOL    HW131844   5.878   6.415   4.502
10315SOL    HW231845   5.991   6.300   4.476
10316SOL     OW31846   6.824   2.811   6.075
10316SOL    HW131847   6.922   2.792   6.081
10316SOL    HW231848   6.800   2.880   6.143
10317SOL     OW31849   3.998   6.448   6.467
10317SOL    HW131850   3.992   6.453   6.368
10317SOL    HW231851   4.013   6.353   6.495
10318SOL     OW31852   4.901   1.129   6.392
10318SOL    HW131853   4.977   1.113   6.455
10318SOL    HW231854   4.873   1.225   6.398
10319SOL     OW31855   0.816   3.781   5.534
10319SOL    HW131856   0.812   3.845   5.458
10319SOL    HW231857   0.860   3.696   5.505
10320SOL     OW31858   0.737   6.152   2.638
10320SOL    HW131859   0.799   6.074   2.633
10320SOL    HW231860   0.785   6.234   2.606
10321SOL     OW31861   5.850   1.895   1.705
10321SOL    HW131862   5.839   1.797   1.724
10321SOL    HW231863   5.897   1.907   1.618
10322SOL     OW31864   4.343   4.868   4.595
10322SOL    HW131865   4.384   4.920   4.670
10322SOL    HW231866   4.345   4.922   4.512
10323SOL     OW31867   5.861   4.933   5.221
10323SOL    HW131868   5.817   4.848   5.249
10323SOL    HW231869   5.856   4.999   5.296
10324SOL     OW31870   3.866   3.018   2.158
10324SOL    HW131871   3.930   3.013   2.081
10324SOL    HW231872   3.909   3.065   2.235
10325SOL     OW31873   6.844   4.163   2.202
10325SOL    HW131874   6.777   4.130   2.267
10325SOL    HW231875   6.849   4.101   2.124
10326SOL     OW31876   5.799   4.233   6.332
10326SOL    HW131877   5.818   4.306   6.398
10326SOL    HW231878   5.778   4.273   6.243
10327SOL     OW31879   2.230   2.589   1.340
10327SOL    HW131880   2.308   2.567   1.398
10327SOL    HW231881   2.259   2.653   1.269
10328SOL     OW31882   6.297   2.990   0.413
10328SOL    HW131883   6.275   2.959   0.320
10328SOL    HW231884   6.301   2.911   0.474
10329SOL     OW31885   2.408   0.599   3.653
10329SOL    HW131886   2.377   0.621   3.561
10329SOL    HW231887   2.494   0.547   3.648
10330SOL     OW31888   4.288   1.229   2.049
10330SOL    HW131889   4.230   1.170   2.106
10330SOL    HW231890   4.245   1.243   1.960
10331SOL     OW31891   6.780   6.273   6.040
10331SOL    HW131892   6.732   6.214   5.975
10331SOL    HW231893   6.820   6.351   5.991
10332SOL     OW31894   6.859   6.963   0.120
10332SOL    HW131895   6.763   6.973   0.148
10332SOL    HW231896   6.891   6.871   0.145
10333SOL     OW31897   0.992   4.881   4.850
10333SOL    HW131898   1.059   4.881   4.776
10333SOL    HW231899   0.900   4.873   4.812
10334SOL     OW31900   3.423   0.997   4.591
10334SOL    HW131901   3.468   0.988   4.680
10334SOL    HW231902   3.324   1.008   4.605
10335SOL     OW31903   1.861   3.793   0.096
10335SOL    HW131904   1.776   3.758   0.057
10335SOL    HW231905   1.840   3.869   0.158
10336SOL     OW31906   5.830   0.129   1.837
10336SOL    HW131907   5.860   0.086   1.752
10336SOL    HW231908   5.802   0.223   1.818
10337SOL     OW31909   0.716   6.142   6.371
10337SOL    HW131910   0.730   6.043   6.371
10337SOL    HW231911   0.775   6.184   6.303
10338SOL     OW31912   1.816   6.261   2.469
10338SOL    HW131913   1.762   6.292   2.548
10338SOL    HW231914   1.757   6.258   2.388
10339SOL     OW31915   5.732   3.651   6.180
10339SOL    HW131916   5.695   3.562   6.153
10339SOL    HW231917   5.790   3.640   6.261
10340SOL     OW31918   1.481   3.475   0.155
10340SOL    HW131919   1.452   3.384   0.125
10340SOL    HW231920   1.555   3.466   0.222
10341SOL     OW31921   2.011   3.575   2.111
10341SOL    HW131922   2.090   3.555   2.054
10341SOL    HW231923   2.039   3.582   2.207
10342SOL     OW31924   2.226   6.992   4.301
10342SOL    HW131925   2.314   0.021   4.283
10342SOL    HW231926   2.241   6.911   4.358
10343SOL     OW31927   3.029   4.942   6.976
10343SOL    HW131928   3.116   4.991   6.975
10343SOL    HW231929   3.007   4.911   6.884
10344SOL     OW31930   4.218   3.374   0.471
10344SOL    HW131931   4.150   3.411   0.408
10344SOL    HW231932   4.186   3.386   0.565
10345SOL     OW31933   1.758   2.163   6.359
10345SOL    HW131934   1.834   2.144   6.421
10345SOL    HW231935   1.688   2.092   6.369
10346SOL     OW31936   0.542   5.456   1.193
10346SOL    HW131937   0.543   5.379   1.130
10346SOL    HW231938   0.455   5.459   1.241
10347SOL     OW31939   3.774   1.317   3.201
10347SOL    HW131940   3.856   1.259   3.193
10347SOL    HW231941   3.779   1.390   3.134
10348SOL     OW31942   6.397   2.632   0.283
10348SOL    HW131943   6.430   2.564   0.218
10348SOL    HW231944   6.469   2.650   0.351
10349SOL     OW31945   1.318   0.998   0.113
10349SOL    HW131946   1.383   0.928   0.143
10349SOL    HW231947   1.270   1.035   0.193
10350SOL     OW31948   2.894   5.372   5.120
10350SOL    HW131949   2.940   5.339   5.202
10350SOL    HW231950   2.957   5.370   5.042
10351SOL     OW31951   4.639   5.132   6.995
10351SOL    HW131952   4.595   5.131   6.905
10351SOL    HW231953   4.667   5.040   0.004
10352SOL     OW31954   3.593   0.972   6.445
10352SOL    HW131955   3.502   0.941   6.417
10352SOL    HW231956   3.654   0.973   6.366
10353SOL     OW31957   6.656   2.993   5.060
10353SOL    HW131958   6.605   3.054   4.999
10353SOL    HW231959   6.593   2.953   5.127
10354SOL     OW31960   5.855   2.075   2.228
10354SOL    HW131961   5.953   2.085   2.246
10354SOL    HW231962   5.812   2.028   2.304
10355SOL     OW31963   2.605   6.688   1.640
10355SOL    HW131964   2.556   6.601   1.641
10355SOL    HW231965   2.671   6.690   1.715
10356SOL     OW31966   0.160   5.152   5.103
10356SOL    HW131967   0.135   5.232   5.157
10356SOL    HW231968   0.260   5.143   5.103
10357SOL     OW31969   2.090   2.911   6.328
10357SOL    HW131970   2.187   2.924   6.347
10357SOL    HW231971   2.039   2.913   6.414
10358SOL     OW31972   0.201   2.538   3.591
10358SOL    HW131973   0.240   2.506   3.504
10358SOL    HW231974   0.223   2.634   3.603
10359SOL     OW31975   1.040   1.919   0.796
10359SOL    HW131976   1.097   1.886   0.870
10359SOL    HW231977   1.043   2.018   0.792
10360SOL     OW31978   4.813   5.009   3.192
10360SOL    HW131979   4.721   5.045   3.179
10360SOL    HW231980   4.812   4.909   3.183
10361SOL     OW31981   2.469   6.463   2.704
10361SOL    HW131982   2.474   6.423   2.613
10361SOL    HW231983   2.454   6.561   2.697
10362SOL     OW31984   1.710   5.063   4.830
10362SOL    HW131985   1.775   4.998   4.791
10362SOL    HW231986   1.749   5.155   4.826
10363SOL     OW31987   4.985   0.798   2.901
10363SOL    HW131988   4.969   0.877   2.842
10363SOL    HW231989   5.054   0.822   2.969
10364SOL     OW31990   2.855   3.302   1.596
10364SOL    HW131991   2.823   3.253   1.677
10364SOL    HW231992   2.896   3.389   1.624
10365SOL     OW31993   4.029   4.988   0.133
10365SOL    HW131994   3.937   4.950   0.138
10365SOL    HW231995   4.027   5.084   0.163
10366SOL     OW31996   2.615   0.259   4.037
10366SOL    HW131997   2.617   0.212   3.949
10366SOL    HW231998   2.590   0.195   4.109
10367SOL     OW31999   5.752   2.660   2.505
10367SOL    HW132000   5.723   2.600   2.580
10367SOL    HW232001   5.766   2.604   2.423
10368SOL     OW32002   2.405   1.483   0.944
10368SOL    HW132003   2.387   1.395   0.899
10368SOL    HW232004   2.488   1.477   0.999
10369SOL     OW32005   4.055   1.290   6.627
10369SOL    HW132006   4.014   1.253   6.544
10369SOL    HW232007   4.067   1.389   6.616
10370SOL     OW32008   4.861   1.655   5.005
10370SOL    HW132009   4.912   1.670   4.921
10370SOL    HW232010   4.808   1.737   5.027
10371SOL     OW32011   3.729   5.719   5.215
10371SOL    HW132012   3.776   5.799   5.177
10371SOL    HW232013   3.632   5.740   5.229
10372SOL     OW32014   1.863   1.410   5.531
10372SOL    HW132015   1.956   1.382   5.553
10372SOL    HW232016   1.801   1.332   5.540
10373SOL     OW32017   1.875   6.579   4.813
10373SOL    HW132018   1.887   6.488   4.852
10373SOL    HW232019   1.784   6.613   4.835
10374SOL     OW32020   3.254   1.690   2.907
10374SOL    HW132021   3.157   1.715   2.911
10374SOL    HW232022   3.310   1.772   2.918
10375SOL     OW32023   4.600   1.900   6.932
10375SOL    HW132024   4.653   1.983   6.912
10375SOL    HW232025   4.629   1.862   0.004
10376SOL     OW32026   1.374   6.571   3.877
10376SOL    HW132027   1.368   6.523   3.965
10376SOL    HW232028   1.347   6.510   3.803
10377SOL     OW32029   6.194   0.787   3.803
10377SOL    HW132030   6.171   0.701   3.849
10377SOL    HW232031   6.293   0.798   3.801
10378SOL     OW32032   6.750   0.986   5.495
10378SOL    HW132033   6.671   1.031   5.536
10378SOL    HW232034   6.830   1.045   5.503
10379SOL     OW32035   4.667   0.617   4.929
10379SOL    HW132036   4.721   0.671   4.865
10379SOL    HW232037   4.728   0.565   4.989
10380SOL     OW32038   5.612   0.660   2.936
10380SOL    HW132039   5.673   0.610   2.875
10380SOL    HW232040   5.653   0.748   2.959
10381SOL     OW32041   5.021   5.794   6.113
10381SOL    HW132042   5.044   5.823   6.020
10381SOL    HW232043   4.934   5.744   6.112
10382SOL     OW32044   2.483   4.860   6.257
10382SOL    HW132045   2.436   4.865   6.168
10382SOL    HW232046   2.545   4.782   6.257
10383SOL     OW32047   0.638   3.389   0.775
10383SOL    HW132048   0.543   3.417   0.763
10383SOL    HW232049   0.671   3.343   0.692
10384SOL     OW32050   0.261   6.985   0.592
10384SOL    HW132051   0.169   6.956   0.615
10384SOL    HW232052   0.257   0.042   0.523
10385SOL     OW32053   4.961   6.888   6.083
10385SOL    HW132054   5.033   6.861   6.018
10385SOL    HW232055   4.987   6.972   6.129
10386SOL     OW32056   6.731   3.597   5.225
10386SOL    HW132057   6.679   3.683   5.219
10386SOL    HW232058   6.669   3.523   5.251
10387SOL     OW32059   2.735   2.009   2.684
10387SOL    HW132060   2.647   2.008   2.638
10387SOL    HW232061   2.795   2.076   2.639
10388SOL     OW32062   1.297   5.510   3.998
10388SOL    HW132063   1.362   5.526   3.924
10388SOL    HW232064   1.335   5.444   4.063
10389SOL     OW32065   0.484   5.233   2.415
10389SOL    HW132066   0.532   5.296   2.475
10389SOL    HW232067   0.532   5.145   2.411
10390SOL     OW32068   1.581   3.774   2.766
10390SOL    HW132069   1.650   3.846   2.768
10390SOL    HW232070   1.604   3.708   2.695
10391SOL     OW32071   1.286   6.182   6.593
10391SOL    HW132072   1.323   6.274   6.601
10391SOL    HW232073   1.186   6.186   6.594
10392SOL     OW32074   6.629   3.969   0.610
10392SOL    HW132075   6.694   3.990   0.537
10392SOL    HW232076   6.540   3.948   0.571
10393SOL     OW32077   0.805   1.549   3.899
10393SOL    HW132078   0.866   1.587   3.830
10393SOL    HW232079   0.818   1.598   3.985
10394SOL     OW32080   2.253   6.878   6.802
10394SOL    HW132081   2.264   6.834   6.892
10394SOL    HW232082   2.210   6.814   6.739
10395SOL     OW32083   6.816   0.924   3.978
10395SOL    HW132084   6.845   0.861   3.906
10395SOL    HW232085   6.737   0.885   4.026
10396SOL     OW32086   1.240   0.606   3.335
10396SOL    HW132087   1.159   0.572   3.384
10396SOL    HW232088   1.317   0.545   3.351
10397SOL     OW32089   3.563   0.846   3.387
10397SOL    HW132090   3.548   0.926   3.445
10397SOL    HW232091   3.594   0.769   3.443
10398SOL     OW32092   6.360   2.819   0.624
10398SOL    HW132093   6.276   2.816   0.680
10398SOL    HW232094   6.404   2.729   0.627
10399SOL     OW32095   4.649   2.239   5.638
10399SOL    HW132096   4.575   2.284   5.687
10399SOL    HW232097   4.679   2.158   5.687
10400SOL     OW32098   2.480   5.745   2.680
10400SOL    HW132099   2.449   5.771   2.771
10400SOL    HW232100   2.573   5.778   2.665
10401SOL     OW32101   6.531   6.032   2.120
10401SOL    HW132102   6.530   5.956   2.184
10401SOL    HW232103   6.592   6.011   2.044
10402SOL     OW32104   0.206   2.812   5.401
10402SOL    HW132105   0.139   2.738   5.389
10402SOL    HW232106   0.187   2.860   5.486
10403SOL     OW32107   5.460   1.467   2.372
10403SOL    HW132108   5.458   1.566   2.378
10403SOL    HW232109   5.427   1.427   2.458
10404SOL     OW32110   0.937   6.772   4.184
10404SOL    HW132111   0.945   6.846   4.251
10404SOL    HW232112   0.961   6.685   4.228
10405SOL     OW32113   1.134   5.698   5.199
10405SOL    HW132114   1.207   5.761   5.176
10405SOL    HW232115   1.147   5.611   5.151
10406SOL     OW32116   1.811   4.767   5.648
10406SOL    HW132117   1.718   4.788   5.679
10406SOL    HW232118   1.808   4.741   5.551
10407SOL     OW32119   1.335   1.040   6.114
10407SOL    HW132120   1.415   1.024   6.170
10407SOL    HW232121   1.356   1.108   6.043
10408SOL     OW32122   4.560   5.034   3.093
10408SOL    HW132123   4.479   5.079   3.129
10408SOL    HW232124   4.572   5.057   2.996
10409SOL     OW32125   0.035   3.790   1.833
10409SOL    HW132126   0.101   3.737   1.779
10409SOL    HW232127   0.050   3.772   1.930
10410SOL     OW32128   4.947   1.187   1.352
10410SOL    HW132129   5.005   1.168   1.431
10410SOL    HW232130   5.000   1.174   1.268
10411SOL     OW32131   2.102   4.827   3.275
10411SOL    HW132132   2.040   4.803   3.200
10411SOL    HW232133   2.099   4.926   3.290
10412SOL     OW32134   0.895   2.363   6.540
10412SOL    HW132135   0.809   2.357   6.592
10412SOL    HW232136   0.971   2.372   6.603
10413SOL     OW32137   0.653   1.683   0.177
10413SOL    HW132138   0.671   1.675   0.275
10413SOL    HW232139   0.559   1.716   0.163
10414SOL     OW32140   4.796   6.326   6.701
10414SOL    HW132141   4.718   6.331   6.763
10414SOL    HW232142   4.791   6.401   6.635
10415SOL     OW32143   0.539   5.328   3.379
10415SOL    HW132144   0.481   5.319   3.299
10415SOL    HW232145   0.631   5.294   3.359
10416SOL     OW32146   6.337   2.556   5.577
10416SOL    HW132147   6.272   2.545   5.503
10416SOL    HW232148   6.430   2.558   5.540
10417SOL     OW32149   3.910   5.150   2.781
10417SOL    HW132150   3.999   5.144   2.825
10417SOL    HW232151   3.922   5.185   2.687
10418SOL     OW32152   6.825   4.080   5.735
10418SOL    HW132153   6.745   4.093   5.675
10418SOL    HW232154   6.800   4.103   5.829
10419SOL     OW32155   3.535   1.008   5.342
10419SOL    HW132156   3.465   1.078   5.327
10419SOL    HW232157   3.585   0.993   5.258
10420SOL     OW32158   6.547   3.303   3.203
10420SOL    HW132159   6.598   3.356   3.136
10420SOL    HW232160   6.608   3.276   3.278
10421SOL     OW32161   0.930   4.726   3.214
10421SOL    HW132162   0.987   4.656   3.173
10421SOL    HW232163   0.839   4.689   3.234
10422SOL     OW32164   6.972   3.606   4.835
10422SOL    HW132165   6.939   3.534   4.895
10422SOL    HW232166   6.923   3.691   4.854
10423SOL     OW32167   3.439   5.378   4.333
10423SOL    HW132168   3.379   5.412   4.406
10423SOL    HW232169   3.394   5.303   4.286
10424SOL     OW32170   3.968   1.074   6.792
10424SOL    HW132171   3.999   1.166   6.766
10424SOL    HW232172   4.023   1.041   6.869
10425SOL     OW32173   2.304   0.252   1.161
10425SOL    HW132174   2.228   0.308   1.129
10425SOL    HW232175   2.390   0.299   1.140
10426SOL     OW32176   4.941   2.908   5.533
10426SOL    HW132177   5.023   2.949   5.494
10426SOL    HW232178   4.874   2.893   5.460
10427SOL     OW32179   4.749   6.093   4.877
10427SOL    HW132180   4.762   6.192   4.886
10427SOL    HW232181   4.694   6.060   4.954
10428SOL     OW32182   1.501   1.559   3.451
10428SOL    HW132183   1.551   1.478   3.482
10428SOL    HW232184   1.566   1.633   3.433
10429SOL     OW32185   1.073   3.410   2.657
10429SOL    HW132186   1.085   3.481   2.588
10429SOL    HW232187   1.107   3.443   2.745
10430SOL     OW32188   3.697   6.911   3.755
10430SOL    HW132189   3.791   6.931   3.726
10430SOL    HW232190   3.653   6.853   3.687
10431SOL     OW32191   2.935   2.192   3.921
10431SOL    HW132192   2.914   2.094   3.918
10431SOL    HW232193   2.973   2.221   3.833
10432SOL     OW32194   6.792   6.941   5.894
10432SOL    HW132195   6.777   0.023   5.874
10432SOL    HW232196   6.850   6.932   5.975
10433SOL     OW32197   2.267   6.575   1.830
10433SOL    HW132198   2.185   6.538   1.874
10433SOL    HW232199   2.276   6.672   1.854
10434SOL     OW32200   4.919   0.203   5.991
10434SOL    HW132201   4.936   0.301   5.981
10434SOL    HW232202   4.908   0.162   5.901
10435SOL     OW32203   0.928   2.126   6.457
10435SOL    HW132204   1.020   2.101   6.427
10435SOL    HW232205   0.924   2.224   6.476
10436SOL     OW32206   0.886   4.145   5.050
10436SOL    HW132207   0.792   4.120   5.071
10436SOL    HW232208   0.901   4.140   4.951
10437SOL     OW32209   5.536   4.999   5.288
10437SOL    HW132210   5.509   5.075   5.348
10437SOL    HW232211   5.611   4.948   5.330
10438SOL     OW32212   6.895   6.265   6.342
10438SOL    HW132213   6.946   6.352   6.346
10438SOL    HW232214   6.819   6.274   6.278
10439SOL     OW32215   0.272   0.033   4.501
10439SOL    HW132216   0.199   0.059   4.438
10439SOL    HW232217   0.278   0.101   4.574
10440SOL     OW32218   0.075   1.703   6.616
10440SOL    HW132219   0.032   1.665   6.697
10440SOL    HW232220   0.170   1.728   6.637
10441SOL     OW32221   3.711   1.802   0.721
10441SOL    HW132222   3.795   1.791   0.774
10441SOL    HW232223   3.676   1.712   0.694
10442SOL     OW32224   2.945   1.320   5.463
10442SOL    HW132225   3.004   1.283   5.535
10442SOL    HW232226   2.976   1.284   5.374
10443SOL     OW32227   6.769   1.039   3.304
10443SOL    HW132228   6.672   1.024   3.284
10443SOL    HW232229   6.779   1.119   3.364
10444SOL     OW32230   3.739   5.819   3.800
10444SOL    HW132231   3.741   5.736   3.856
10444SOL    HW232232   3.831   5.859   3.798
10445SOL     OW32233   1.495   4.036   2.592
10445SOL    HW132234   1.587   3.998   2.604
10445SOL    HW232235   1.441   3.974   2.535
10446SOL     OW32236   1.988   4.503   4.921
10446SOL    HW132237   1.898   4.494   4.962
10446SOL    HW232238   1.984   4.566   4.844
10447SOL     OW32239   7.010   1.859   2.584
10447SOL    HW132240   6.965   1.920   2.649
10447SOL    HW232241   0.094   1.868   2.592
10448SOL     OW32242   2.277   6.752   2.937
10448SOL    HW132243   2.272   6.811   3.017
10448SOL    HW232244   2.241   6.800   2.857
10449SOL     OW32245   3.366   5.824   6.689
10449SOL    HW132246   3.435   5.893   6.667
10449SOL    HW232247   3.300   5.818   6.613
10450SOL     OW32248   6.046   0.279   5.597
10450SOL    HW132249   5.980   0.293   5.671
10450SOL    HW232250   6.022   0.336   5.519
10451SOL     OW32251   1.845   0.287   4.093
10451SOL    HW132252   1.867   0.359   4.026
10451SOL    HW232253   1.927   0.267   4.148
10452SOL     OW32254   0.080   3.635   3.919
10452SOL    HW132255   0.087   3.635   3.819
10452SOL    HW232256   0.045   3.546   3.949
10453SOL     OW32257   4.207   5.828   3.549
10453SOL    HW132258   4.124   5.815   3.495
10453SOL    HW232259   4.287   5.824   3.489
10454SOL     OW32260   6.509   1.695   6.079
10454SOL    HW132261   6.477   1.757   6.150
10454SOL    HW232262   6.608   1.707   6.067
10455SOL     OW32263   6.258   6.502   4.341
10455SOL    HW132264   6.229   6.449   4.261
10455SOL    HW232265   6.291   6.592   4.310
10456SOL     OW32266   0.054   5.701   0.061
10456SOL    HW132267   0.059   5.607   0.029
10456SOL    HW232268   0.081   5.763   7.003
10457SOL     OW32269   3.929   2.725   0.190
10457SOL    HW132270   3.933   2.697   0.286
10457SOL    HW232271   3.946   2.823   0.184
10458SOL     OW32272   6.654   6.615   6.200
10458SOL    HW132273   6.741   6.610   6.250
10458SOL    HW232274   6.583   6.568   6.252
10459SOL     OW32275   0.249   5.467   0.442
10459SOL    HW132276   0.307   5.418   0.377
10459SOL    HW232277   0.153   5.444   0.426
10460SOL     OW32278   7.007   3.950   0.804
10460SOL    HW132279   0.010   3.988   0.895
10460SOL    HW232280   0.014   4.018   0.735
10461SOL     OW32281   6.997   4.758   5.386
10461SOL    HW132282   0.058   4.771   5.450
10461SOL    HW232283   7.000   4.830   5.317
10462SOL     OW32284   4.900   1.709   1.346
10462SOL    HW132285   4.875   1.699   1.250
10462SOL    HW232286   4.820   1.739   1.399
10463SOL     OW32287   4.647   2.839   6.379
10463SOL    HW132288   4.567   2.859   6.324
10463SOL    HW232289   4.675   2.922   6.429
10464SOL     OW32290   5.355   5.432   2.926
10464SOL    HW132291   5.257   5.434   2.905
10464SOL    HW232292   5.380   5.515   2.976
10465SOL     OW32293   5.632   3.340   1.964
10465SOL    HW132294   5.540   3.312   1.934
10465SOL    HW232295   5.698   3.316   1.892
10466SOL     OW32296   5.575   5.114   6.447
10466SOL    HW132297   5.666   5.076   6.463
10466SOL    HW232298   5.507   5.056   6.492
10467SOL     OW32299   1.985   2.888   6.749
10467SOL    HW132300   1.975   2.982   6.717
10467SOL    HW232301   2.056   2.841   6.696
10468SOL     OW32302   2.703   4.650   3.864
10468SOL    HW132303   2.617   4.624   3.909
10468SOL    HW232304   2.767   4.684   3.933
10469SOL     OW32305   5.764   2.223   5.282
10469SOL    HW132306   5.805   2.136   5.312
10469SOL    HW232307   5.833   2.280   5.239
10470SOL     OW32308   2.185   2.351   3.921
10470SOL    HW132309   2.240   2.285   3.871
10470SOL    HW232310   2.100   2.309   3.952
10471SOL     OW32311   2.847   0.822   0.279
10471SOL    HW132312   2.863   0.730   0.316
10471SOL    HW232313   2.749   0.837   0.269
10472SOL     OW32314   3.708   5.150   0.508
10472SOL    HW132315   3.764   5.107   0.578
10472SOL    HW232316   3.765   5.177   0.431
10473SOL     OW32317   5.641   5.599   6.481
10473SOL    HW132318   5.591   5.591   6.567
10473SOL    HW232319   5.580   5.580   6.405
10474SOL     OW32320   5.256   1.051   3.816
10474SOL    HW132321   5.296   0.985   3.753
10474SOL    HW232322   5.317   1.064   3.894
10475SOL     OW32323   2.044   6.090   1.999
10475SOL    HW132324   2.004   6.130   1.916
10475SOL    HW232325   2.124   6.036   1.975
10476SOL     OW32326   3.931   6.102   0.131
10476SOL    HW132327   3.950   6.128   0.226
10476SOL    HW232328   3.834   6.118   0.112
10477SOL     OW32329   6.950   6.338   3.990
10477SOL    HW132330   0.004   6.267   3.988
10477SOL    HW232331   6.864   6.303   3.952
10478SOL     OW32332   5.865   6.789   0.364
10478SOL    HW132333   5.771   6.758   0.380
10478SOL    HW232334   5.880   6.876   0.411
10479SOL     OW32335   6.817   2.552   2.882
10479SOL    HW132336   6.791   2.502   2.965
10479SOL    HW232337   6.735   2.590   2.839
10480SOL     OW32338   1.716   6.866   2.271
10480SOL    HW132339   1.777   6.927   2.220
10480SOL    HW232340   1.633   6.850   2.218
10481SOL     OW32341   1.065   6.954   3.007
10481SOL    HW132342   1.061   0.002   2.930
10481SOL    HW232343   0.994   6.884   2.997
10482SOL     OW32344   5.949   4.163   4.126
10482SOL    HW132345   5.949   4.183   4.028
10482SOL    HW232346   5.860   4.127   4.153
10483SOL     OW32347   5.825   5.382   0.050
10483SOL    HW132348   5.732   5.420   0.049
10483SOL    HW232349   5.830   5.310   0.119
10484SOL     OW32350   5.795   0.971   0.915
10484SOL    HW132351   5.858   0.979   0.992
10484SOL    HW232352   5.809   1.047   0.852
10485SOL     OW32353   4.120   4.431   6.204
10485SOL    HW132354   4.183   4.374   6.258
10485SOL    HW232355   4.110   4.391   6.113
10486SOL     OW32356   6.586   2.971   0.584
10486SOL    HW132357   6.491   2.941   0.580
10486SOL    HW232358   6.589   3.069   0.607
10487SOL     OW32359   5.831   6.394   1.586
10487SOL    HW132360   5.802   6.446   1.506
10487SOL    HW232361   5.897   6.324   1.558
10488SOL     OW32362   2.934   2.985   6.222
10488SOL    HW132363   2.908   3.080   6.243
10488SOL    HW232364   3.004   2.955   6.287
10489SOL     OW32365   0.658   6.384   6.048
10489SOL    HW132366   0.676   6.461   5.987
10489SOL    HW232367   0.744   6.338   6.070
10490SOL     OW32368   6.179   1.288   3.365
10490SOL    HW132369   6.086   1.272   3.397
10490SOL    HW232370   6.185   1.379   3.324
10491SOL     OW32371   1.733   3.834   5.990
10491SOL    HW132372   1.745   3.811   5.894
10491SOL    HW232373   1.816   3.877   6.025
10492SOL     OW32374   4.938   3.717   5.199
10492SOL    HW132375   4.889   3.660   5.133
10492SOL    HW232376   5.034   3.724   5.172
10493SOL     OW32377   3.552   0.792   1.301
10493SOL    HW132378   3.546   0.810   1.203
10493SOL    HW232379   3.480   0.727   1.327
10494SOL     OW32380   5.578   2.372   4.523
10494SOL    HW132381   5.494   2.401   4.478
10494SOL    HW232382   5.644   2.447   4.520
10495SOL     OW32383   1.801   6.824   0.955
10495SOL    HW132384   1.774   6.733   0.988
10495SOL    HW232385   1.818   6.884   1.033
10496SOL     OW32386   0.047   6.815   0.498
10496SOL    HW132387   0.127   6.755   0.502
10496SOL    HW232388   7.009   6.805   0.582
10497SOL     OW32389   1.725   0.410   0.691
10497SOL    HW132390   1.747   0.484   0.627
10497SOL    HW232391   1.634   0.424   0.728
10498SOL     OW32392   2.475   0.208   0.252
10498SOL    HW132393   2.403   0.192   0.321
10498SOL    HW232394   2.564   0.184   0.291
10499SOL     OW32395   2.595   6.413   3.033
10499SOL    HW132396   2.583   6.513   3.027
10499SOL    HW232397   2.692   6.391   3.032
10500SOL     OW32398   0.141   1.879   5.747
10500SOL    HW132399   0.061   1.847   5.799
10500SOL    HW232400   0.224   1.858   5.798
10501SOL     OW32401   2.157   5.094   2.882
10501SOL    HW132402   2.224   5.025   2.853
10501SOL    HW232403   2.074   5.084   2.827
10502SOL     OW32404   3.047   6.918   0.922
10502SOL    HW132405   3.078   6.834   0.968
10502SOL    HW232406   3.009   6.980   0.990
10503SOL     OW32407   3.982   3.165   0.610
10503SOL    HW132408   4.080   3.141   0.610
10503SOL    HW232409   3.970   3.255   0.569
10504SOL     OW32410   1.700   2.852   0.111
10504SOL    HW132411   1.679   2.918   0.183
10504SOL    HW232412   1.796   2.862   0.084
10505SOL     OW32413   5.868   5.898   0.879
10505SOL    HW132414   5.877   5.798   0.877
10505SOL    HW232415   5.958   5.940   0.885
10506SOL     OW32416   0.167   4.486   6.386
10506SOL    HW132417   0.135   4.572   6.347
10506SOL    HW232418   0.101   4.413   6.367
10507SOL     OW32419   2.130   0.478   0.190
10507SOL    HW132420   2.219   0.440   0.165
10507SOL    HW232421   2.080   0.502   0.107
10508SOL     OW32422   5.371   5.436   3.468
10508SOL    HW132423   5.435   5.364   3.495
10508SOL    HW232424   5.414   5.496   3.401
10509SOL     OW32425   1.033   6.752   6.593
10509SOL    HW132426   0.996   6.818   6.658
10509SOL    HW232427   0.985   6.665   6.604
10510SOL     OW32428   6.097   4.939   6.267
10510SOL    HW132429   6.000   4.917   6.282
10510SOL    HW232430   6.131   4.885   6.190
10511SOL     OW32431   4.380   3.263   0.933
10511SOL    HW132432   4.291   3.217   0.930
10511SOL    HW232433   4.371   3.348   0.985
10512SOL     OW32434   4.295   0.866   6.482
10512SOL    HW132435   4.219   0.838   6.423
10512SOL    HW232436   4.271   0.951   6.530
10513SOL     OW32437   6.944   2.235   6.148
10513SOL    HW132438   0.014   2.236   6.097
10513SOL    HW232439   6.958   2.188   6.235
10514SOL     OW32440   6.264   4.114   0.846
10514SOL    HW132441   6.237   4.207   0.823
10514SOL    HW232442   6.359   4.113   0.877
10515SOL     OW32443   6.728   2.024   2.983
10515SOL    HW132444   6.667   2.096   2.950
10515SOL    HW232445   6.693   1.986   3.068
10516SOL     OW32446   4.757   0.789   6.384
10516SOL    HW132447   4.824   0.717   6.400
10516SOL    HW232448   4.787   0.873   6.431
10517SOL     OW32449   0.099   2.181   2.246
10517SOL    HW132450   0.110   2.218   2.338
10517SOL    HW232451   0.077   2.083   2.252
10518SOL     OW32452   1.085   5.072   0.067
10518SOL    HW132453   1.037   5.158   0.083
10518SOL    HW232454   1.018   4.998   0.057
10519SOL     OW32455   3.271   3.001   5.587
10519SOL    HW132456   3.297   2.930   5.652
10519SOL    HW232457   3.190   2.972   5.537
10520SOL     OW32458   2.866   2.882   6.597
10520SOL    HW132459   2.848   2.975   6.626
10520SOL    HW232460   2.964   2.864   6.599
10521SOL     OW32461   6.500   6.386   1.009
10521SOL    HW132462   6.571   6.322   1.037
10521SOL    HW232463   6.463   6.358   0.920
10522SOL     OW32464   6.690   0.577   0.200
10522SOL    HW132465   6.662   0.616   0.112
10522SOL    HW232466   6.702   0.650   0.267
10523SOL     OW32467   0.179   6.060   4.474
10523SOL    HW132468   0.147   5.968   4.498
10523SOL    HW232469   0.227   6.100   4.552
10524SOL     OW32470   2.013   0.224   4.937
10524SOL    HW132471   2.018   0.169   4.853
10524SOL    HW232472   1.985   0.318   4.914
10525SOL     OW32473   2.981   6.256   5.500
10525SOL    HW132474   3.075   6.287   5.514
10525SOL    HW232475   2.982   6.163   5.462
10526SOL     OW32476   0.534   0.652   2.745
10526SOL    HW132477   0.448   0.685   2.706
10526SOL    HW232478   0.550   0.697   2.833
10527SOL     OW32479   1.177   2.661   4.594
10527SOL    HW132480   1.201   2.724   4.667
10527SOL    HW232481   1.248   2.663   4.523
10528SOL     OW32482   1.496   4.491   5.088
10528SOL    HW132483   1.464   4.427   5.158
10528SOL    HW232484   1.573   4.449   5.039
10529SOL     OW32485   1.040   5.754   2.535
10529SOL    HW132486   0.956   5.789   2.577
10529SOL    HW232487   1.018   5.711   2.448
10530SOL     OW32488   2.284   1.783   6.281
10530SOL    HW132489   2.203   1.829   6.245
10530SOL    HW232490   2.325   1.840   6.352
10531SOL     OW32491   2.070   3.822   4.265
10531SOL    HW132492   2.055   3.723   4.259
10531SOL    HW232493   2.161   3.844   4.231
10532SOL     OW32494   1.915   2.859   0.351
10532SOL    HW132495   1.948   2.774   0.312
10532SOL    HW232496   1.965   2.936   0.311
10533SOL     OW32497   2.675   1.250   4.364
10533SOL    HW132498   2.755   1.191   4.361
10533SOL    HW232499   2.652   1.280   4.272
10534SOL     OW32500   0.093   5.850   0.908
10534SOL    HW132501   0.160   5.919   0.936
10534SOL    HW232502   0.099   5.835   0.810
10535SOL     OW32503   0.004   1.642   2.222
10535SOL    HW132504   6.991   1.564   2.277
10535SOL    HW232505   0.096   1.671   2.250
10536SOL     OW32506   4.116   0.401   2.778
10536SOL    HW132507   4.153   0.310   2.760
10536SOL    HW232508   4.107   0.413   2.877
10537SOL     OW32509   3.334   5.638   3.388
10537SOL    HW132510   3.413   5.615   3.445
10537SOL    HW232511   3.284   5.714   3.429
10538SOL     OW32512   4.321   3.373   6.443
10538SOL    HW132513   4.393   3.303   6.437
10538SOL    HW232514   4.255   3.360   6.369
10539SOL     OW32515   0.405   3.770   6.559
10539SOL    HW132516   0.415   3.854   6.505
10539SOL    HW232517   0.458   3.779   6.643
10540SOL     OW32518   1.427   0.743   5.805
10540SOL    HW132519   1.512   0.690   5.812
10540SOL    HW232520   1.449   0.840   5.790
10541SOL     OW32521   3.606   3.745   1.457
10541SOL    HW132522   3.591   3.838   1.424
10541SOL    HW232523   3.648   3.748   1.548
10542SOL     OW32524   0.008   1.617   0.657
10542SOL    HW132525   6.928   1.631   0.684
10542SOL    HW232526   0.011   1.570   0.568
10543SOL     OW32527   6.902   1.507   5.674
10543SOL    HW132528   6.937   1.439   5.739
10543SOL    HW232529   6.978   1.563   5.640
10544SOL     OW32530   2.512   1.657   2.626
10544SOL    HW132531   2.544   1.697   2.540
10544SOL    HW232532   2.444   1.586   2.607
10545SOL     OW32533   6.973   6.699   2.107
10545SOL    HW132534   6.975   6.705   2.207
10545SOL    HW232535   6.886   6.661   2.077
10546SOL     OW32536   1.675   0.401   5.034
10546SOL    HW132537   1.583   0.428   5.007
10546SOL    HW232538   1.727   0.374   4.953
10547SOL     OW32539   4.962   1.256   2.778
10547SOL    HW132540   4.900   1.272   2.855
10547SOL    HW232541   4.998   1.344   2.746
10548SOL     OW32542   5.303   3.670   4.604
10548SOL    HW132543   5.383   3.698   4.659
10548SOL    HW232544   5.265   3.586   4.642
10549SOL     OW32545   6.887   0.523   2.457
10549SOL    HW132546   6.924   0.577   2.382
10549SOL    HW232547   6.800   0.482   2.429
10550SOL     OW32548   4.640   6.631   4.177
10550SOL    HW132549   4.717   6.695   4.186
10550SOL    HW232550   4.556   6.679   4.200
10551SOL     OW32551   1.698   2.312   4.984
10551SOL    HW132552   1.606   2.342   4.959
10551SOL    HW232553   1.739   2.378   5.046
10552SOL     OW32554   4.080   1.782   5.083
10552SOL    HW132555   3.996   1.763   5.032
10552SOL    HW232556   4.059   1.791   5.180
10553SOL     OW32557   0.972   4.803   1.260
10553SOL    HW132558   0.882   4.771   1.290
10553SOL    HW232559   1.038   4.727   1.265
10554SOL     OW32560   6.054   4.733   6.837
10554SOL    HW132561   5.964   4.777   6.828
10554SOL    HW232562   6.124   4.803   6.854
10555SOL     OW32563   3.121   2.138   1.628
10555SOL    HW132564   3.147   2.146   1.724
10555SOL    HW232565   3.132   2.226   1.582
10556SOL     OW32566   2.022   3.053   4.759
10556SOL    HW132567   2.112   3.009   4.757
10556SOL    HW232568   2.031   3.148   4.731
10557SOL     OW32569   0.547   2.271   3.510
10557SOL    HW132570   0.548   2.341   3.582
10557SOL    HW232571   0.637   2.226   3.506
10558SOL     OW32572   4.439   0.276   5.036
10558SOL    HW132573   4.350   0.233   5.027
10558SOL    HW232574   4.429   0.368   5.074
10559SOL     OW32575   4.314   1.516   1.170
10559SOL    HW132576   4.248   1.442   1.173
10559SOL    HW232577   4.282   1.587   1.108
10560SOL     OW32578   1.912   5.398   5.047
10560SOL    HW132579   1.876   5.487   5.075
10560SOL    HW232580   2.002   5.384   5.087
10561SOL     OW32581   2.162   5.007   0.263
10561SOL    HW132582   2.181   4.956   0.178
10561SOL    HW232583   2.248   5.029   0.308
10562SOL     OW32584   4.887   6.904   0.708
10562SOL    HW132585   4.847   6.812   0.699
10562SOL    HW232586   4.837   6.954   0.779
10563SOL     OW32587   1.865   0.842   4.463
10563SOL    HW132588   1.938   0.784   4.497
10563SOL    HW232589   1.861   0.837   4.364
10564SOL     OW32590   5.569   6.836   1.413
10564SOL    HW132591   5.533   6.775   1.342
10564SOL    HW232592   5.641   6.893   1.374
10565SOL     OW32593   0.258   1.151   5.684
10565SOL    HW132594   0.294   1.062   5.711
10565SOL    HW232595   0.320   1.223   5.716
10566SOL     OW32596   3.882   3.829   6.772
10566SOL    HW132597   3.959   3.767   6.754
10566SOL    HW232598   3.802   3.799   6.720
10567SOL     OW32599   2.064   3.558   4.182
10567SOL    HW132600   2.091   3.512   4.097
10567SOL    HW232601   1.970   3.535   4.204
10568SOL     OW32602   5.610   1.319   2.619
10568SOL    HW132603   5.515   1.338   2.647
10568SOL    HW232604   5.658   1.406   2.607
10569SOL     OW32605   6.551   3.432   2.385
10569SOL    HW132606   6.552   3.511   2.323
10569SOL    HW232607   6.602   3.357   2.344
10570SOL     OW32608   1.178   4.404   2.561
10570SOL    HW132609   1.203   4.416   2.657
10570SOL    HW232610   1.095   4.349   2.555
10571SOL     OW32611   6.654   5.358   3.436
10571SOL    HW132612   6.560   5.389   3.422
10571SOL    HW232613   6.659   5.302   3.518
10572SOL     OW32614   6.036   3.847   3.040
10572SOL    HW132615   5.943   3.883   3.043
10572SOL    HW232616   6.033   3.750   3.015
10573SOL     OW32617   5.795   6.464   2.978
10573SOL    HW132618   5.873   6.410   2.946
10573SOL    HW232619   5.795   6.553   2.932
10574SOL     OW32620   1.804   2.024   3.491
10574SOL    HW132621   1.855   2.026   3.577
10574SOL    HW232622   1.843   1.953   3.432
10575SOL     OW32623   0.315   0.381   3.766
10575SOL    HW132624   0.223   0.420   3.774
10575SOL    HW232625   0.383   0.446   3.798
10576SOL     OW32626   0.883   6.812   4.861
10576SOL    HW132627   0.797   6.767   4.835
10576SOL    HW232628   0.918   6.863   4.783
10577SOL     OW32629   1.458   3.116   6.397
10577SOL    HW132630   1.529   3.185   6.386
10577SOL    HW232631   1.431   3.082   6.307
10578SOL     OW32632   6.379   1.134   4.974
10578SOL    HW132633   6.425   1.082   5.047
10578SOL    HW232634   6.319   1.073   4.922
10579SOL     OW32635   4.469   1.210   1.192
10579SOL    HW132636   4.560   1.251   1.206
10579SOL    HW232637   4.426   1.194   1.280
10580SOL     OW32638   6.757   6.953   6.467
10580SOL    HW132639   6.737   0.032   6.494
10580SOL    HW232640   6.674   6.897   6.476
10581SOL     OW32641   6.243   0.235   2.755
10581SOL    HW132642   6.212   0.141   2.763
10581SOL    HW232643   6.342   0.239   2.770
10582SOL     OW32644   3.764   4.592   0.146
10582SOL    HW132645   3.754   4.655   0.069
10582SOL    HW232646   3.839   4.528   0.127
10583SOL     OW32647   4.199   0.755   6.871
10583SOL    HW132648   4.192   0.686   6.944
10583SOL    HW232649   4.143   0.726   6.793
10584SOL     OW32650   5.001   6.209   1.165
10584SOL    HW132651   5.007   6.266   1.247
10584SOL    HW232652   5.060   6.128   1.177
10585SOL     OW32653   1.575   3.006   5.646
10585SOL    HW132654   1.661   3.027   5.599
10585SOL    HW232655   1.518   2.948   5.588
10586SOL     OW32656   2.154   5.900   5.845
10586SOL    HW132657   2.198   5.812   5.863
10586SOL    HW232658   2.093   5.891   5.766
10587SOL     OW32659   5.570   3.109   0.520
10587SOL    HW132660   5.480   3.081   0.487
10587SOL    HW232661   5.600   3.190   0.469
10588SOL     OW32662   1.318   3.908   1.701
10588SOL    HW132663   1.323   3.896   1.602
10588SOL    HW232664   1.317   4.005   1.723
10589SOL     OW32665   5.847   1.827   4.206
10589SOL    HW132666   5.847   1.752   4.140
10589SOL    HW232667   5.759   1.830   4.253
10590SOL     OW32668   1.477   6.838   2.135
10590SOL    HW132669   1.390   6.789   2.124
10590SOL    HW232670   1.496   6.891   2.053
10591SOL     OW32671   1.747   1.733   6.082
10591SOL    HW132672   1.776   1.650   6.033
10591SOL    HW232673   1.797   1.739   6.168
10592SOL     OW32674   5.303   1.750   0.137
10592SOL    HW132675   5.291   1.779   0.042
10592SOL    HW232676   5.213   1.740   0.180
10593SOL     OW32677   2.835   6.323   0.908
10593SOL    HW132678   2.798   6.267   0.834
10593SOL    HW232679   2.801   6.417   0.900
10594SOL     OW32680   6.369   1.720   3.911
10594SOL    HW132681   6.406   1.797   3.859
10594SOL    HW232682   6.414   1.716   4.000
10595SOL     OW32683   3.343   6.945   5.953
10595SOL    HW132684   3.280   6.900   5.889
10595SOL    HW232685   3.291   6.989   6.026
10596SOL     OW32686   3.758   0.012   1.587
10596SOL    HW132687   3.808   6.952   1.544
10596SOL    HW232688   3.661   7.002   1.595
10597SOL     OW32689   2.449   1.184   4.492
10597SOL    HW132690   2.531   1.205   4.439
10597SOL    HW232691   2.372   1.239   4.458
10598SOL     OW32692   2.357   2.466   6.595
10598SOL    HW132693   2.437   2.483   6.653
10598SOL    HW232694   2.275   2.459   6.652
10599SOL     OW32695   5.542   1.351   0.030
10599SOL    HW132696   5.531   1.359   6.947
10599SOL    HW232697   5.468   1.399   0.077
10600SOL     OW32698   2.094   3.457   6.811
10600SOL    HW132699   2.127   3.409   6.893
10600SOL    HW232700   2.141   3.420   6.731
10601SOL     OW32701   3.148   5.401   5.997
10601SOL    HW132702   3.128   5.371   5.904
10601SOL    HW232703   3.066   5.442   6.037
10602SOL     OW32704   5.288   1.366   1.924
10602SOL    HW132705   5.322   1.422   2.000
10602SOL    HW232706   5.215   1.415   1.876
10603SOL     OW32707   1.367   6.399   3.650
10603SOL    HW132708   1.320   6.377   3.565
10603SOL    HW232709   1.423   6.321   3.679
10604SOL     OW32710   5.906   4.391   4.567
10604SOL    HW132711   5.829   4.425   4.621
10604SOL    HW232712   5.991   4.412   4.615
10605SOL     OW32713   0.838   4.994   0.277
10605SOL    HW132714   0.769   5.022   0.343
10605SOL    HW232715   0.849   4.894   0.281
10606SOL     OW32716   6.806   0.877   1.468
10606SOL    HW132717   6.752   0.948   1.513
10606SOL    HW232718   6.806   0.794   1.523
10607SOL     OW32719   3.757   4.759   6.275
10607SOL    HW132720   3.768   4.852   6.311
10607SOL    HW232721   3.825   4.699   6.317
10608SOL     OW32722   5.979   1.578   4.645
10608SOL    HW132723   6.012   1.494   4.688
10608SOL    HW232724   6.048   1.612   4.580
10609SOL     OW32725   3.448   6.027   1.441
10609SOL    HW132726   3.521   5.974   1.485
10609SOL    HW232727   3.392   5.967   1.385
10610SOL     OW32728   0.913   4.135   6.405
10610SOL    HW132729   0.816   4.124   6.384
10610SOL    HW232730   0.959   4.047   6.395
10611SOL     OW32731   5.908   3.187   6.895
10611SOL    HW132732   5.970   3.127   6.844
10611SOL    HW232733   5.958   3.231   6.970
10612SOL     OW32734   2.343   0.021   6.570
10612SOL    HW132735   2.393   0.104   6.595
10612SOL    HW232736   2.311   6.990   6.653
10613SOL     OW32737   6.280   0.259   5.915
10613SOL    HW132738   6.319   0.311   5.839
10613SOL    HW232739   6.354   0.218   5.969
10614SOL     OW32740   6.620   0.400   3.961
10614SOL    HW132741   6.675   0.450   4.027
10614SOL    HW232742   6.586   0.463   3.891
10615SOL     OW32743   4.295   5.491   5.406
10615SOL    HW132744   4.229   5.460   5.337
10615SOL    HW232745   4.387   5.491   5.366
10616SOL     OW32746   2.874   6.440   0.324
10616SOL    HW132747   2.951   6.431   0.261
10616SOL    HW232748   2.815   6.360   0.315
10617SOL     OW32749   2.016   2.401   0.612
10617SOL    HW132750   2.110   2.400   0.646
10617SOL    HW232751   1.976   2.310   0.622
10618SOL     OW32752   6.124   2.612   0.367
10618SOL    HW132753   6.053   2.682   0.366
10618SOL    HW232754   6.207   2.648   0.323
10619SOL     OW32755   0.937   4.046   3.130
10619SOL    HW132756   0.984   3.962   3.158
10619SOL    HW232757   0.978   4.124   3.176
10620SOL     OW32758   1.221   5.913   5.484
10620SOL    HW132759   1.142   5.871   5.439
10620SOL    HW232760   1.305   5.873   5.447
10621SOL     OW32761   1.572   5.697   0.189
10621SOL    HW132762   1.570   5.794   0.164
10621SOL    HW232763   1.606   5.644   0.111
10622SOL     OW32764   4.515   0.789   2.053
10622SOL    HW132765   4.541   0.879   2.088
10622SOL    HW232766   4.584   0.758   1.988
10623SOL     OW32767   5.658   2.744   3.634
10623SOL    HW132768   5.631   2.661   3.586
10623SOL    HW232769   5.580   2.779   3.686
10624SOL     OW32770   1.253   1.313   5.145
10624SOL    HW132771   1.251   1.355   5.055
10624SOL    HW232772   1.207   1.373   5.211
10625SOL     OW32773   0.586   4.353   6.872
10625SOL    HW132774   0.503   4.348   6.927
10625SOL    HW232775   0.666   4.345   6.931
10626SOL     OW32776   1.460   2.136   1.766
10626SOL    HW132777   1.486   2.144   1.670
10626SOL    HW232778   1.542   2.130   1.823
10627SOL     OW32779   6.399   6.183   2.490
10627SOL    HW132780   6.423   6.178   2.586
10627SOL    HW232781   6.357   6.272   2.471
10628SOL     OW32782   6.007   5.449   5.250
10628SOL    HW132783   5.920   5.497   5.245
10628SOL    HW232784   6.023   5.418   5.344
10629SOL     OW32785   2.318   4.500   6.064
10629SOL    HW132786   2.228   4.472   6.029
10629SOL    HW232787   2.390   4.447   6.018
10630SOL     OW32788   6.353   0.352   3.709
10630SOL    HW132789   6.303   0.301   3.779
10630SOL    HW232790   6.401   0.429   3.751
10631SOL     OW32791   1.253   6.823   4.313
10631SOL    HW132792   1.194   6.853   4.238
10631SOL    HW232793   1.347   6.810   4.279
10632SOL     OW32794   6.310   2.270   4.634
10632SOL    HW132795   6.321   2.175   4.605
10632SOL    HW232796   6.217   2.285   4.666
10633SOL     OW32797   2.415   4.606   1.014
10633SOL    HW132798   2.355   4.571   1.086
10633SOL    HW232799   2.360   4.632   0.935
10634SOL     OW32800   2.792   5.821   0.512
10634SOL    HW132801   2.797   5.873   0.426
10634SOL    HW232802   2.838   5.734   0.500
10635SOL     OW32803   3.456   1.335   0.986
10635SOL    HW132804   3.482   1.345   1.082
10635SOL    HW232805   3.375   1.390   0.967
10636SOL     OW32806   0.528   1.820   1.264
10636SOL    HW132807   0.561   1.781   1.178
10636SOL    HW232808   0.429   1.837   1.257
10637SOL     OW32809   3.115   3.820   5.399
10637SOL    HW132810   3.183   3.747   5.386
10637SOL    HW232811   3.150   3.904   5.358
10638SOL     OW32812   0.469   6.533   4.094
10638SOL    HW132813   0.523   6.615   4.112
10638SOL    HW232814   0.451   6.525   3.996
10639SOL     OW32815   0.729   1.349   4.446
10639SOL    HW132816   0.732   1.435   4.395
10639SOL    HW232817   0.671   1.360   4.527
10640SOL     OW32818   4.538   0.208   0.122
10640SOL    HW132819   4.507   0.113   0.123
10640SOL    HW232820   4.571   0.233   0.214
10641SOL     OW32821   4.995   1.823   0.093
10641SOL    HW132822   5.038   1.797   0.180
10641SOL    HW232823   4.919   1.761   0.074
10642SOL     OW32824   0.320   2.230   1.501
10642SOL    HW132825   0.270   2.186   1.576
10642SOL    HW232826   0.283   2.322   1.486
10643SOL     OW32827   2.387   3.705   5.447
10643SOL    HW132828   2.430   3.733   5.533
10643SOL    HW232829   2.362   3.787   5.395
10644SOL     OW32830   4.506   1.775   3.905
10644SOL    HW132831   4.422   1.721   3.909
10644SOL    HW232832   4.581   1.718   3.873
10645SOL     OW32833   1.021   0.883   4.756
10645SOL    HW132834   0.961   0.961   4.775
10645SOL    HW232835   1.053   0.843   4.842
10646SOL     OW32836   0.302   2.903   5.858
10646SOL    HW132837   0.228   2.903   5.925
10646SOL    HW232838   0.348   2.991   5.859
10647SOL     OW32839   6.328   5.257   0.136
10647SOL    HW132840   6.293   5.273   0.228
10647SOL    HW232841   6.424   5.287   0.132
10648SOL     OW32842   4.844   3.466   6.787
10648SOL    HW132843   4.933   3.469   6.742
10648SOL    HW232844   4.781   3.529   6.741
10649SOL     OW32845   6.955   4.963   4.678
10649SOL    HW132846   6.906   4.921   4.755
10649SOL    HW232847   0.014   5.020   4.712
10650SOL     OW32848   2.198   6.466   4.147
10650SOL    HW132849   2.135   6.474   4.070
10650SOL    HW232850   2.199   6.552   4.198
10651SOL     OW32851   4.367   0.065   5.666
10651SOL    HW132852   4.414   0.035   5.583
10651SOL    HW232853   4.340   7.001   5.720
10652SOL     OW32854   3.149   0.057   6.128
10652SOL    HW132855   3.157   0.135   6.066
10652SOL    HW232856   3.153   0.088   6.222
10653SOL     OW32857   4.984   4.407   4.650
10653SOL    HW132858   4.954   4.383   4.743
10653SOL    HW232859   5.082   4.390   4.641
10654SOL     OW32860   2.676   0.403   1.550
10654SOL    HW132861   2.635   0.319   1.585
10654SOL    HW232862   2.668   0.406   1.451
10655SOL     OW32863   2.970   5.411   2.123
10655SOL    HW132864   2.995   5.328   2.172
10655SOL    HW232865   2.971   5.393   2.024
10656SOL     OW32866   6.074   2.268   6.961
10656SOL    HW132867   6.017   2.306   6.888
10656SOL    HW232868   6.161   2.316   6.965
10657SOL     OW32869   5.874   6.833   1.003
10657SOL    HW132870   5.824   6.906   1.048
10657SOL    HW232871   5.814   6.787   0.937
10658SOL     OW32872   1.436   4.707   4.687
10658SOL    HW132873   1.407   4.729   4.781
10658SOL    HW232874   1.498   4.779   4.654
10659SOL     OW32875   5.722   6.690   0.822
10659SOL    HW132876   5.639   6.700   0.876
10659SOL    HW232877   5.714   6.610   0.762
10660SOL     OW32878   4.683   3.763   5.869
10660SOL    HW132879   4.775   3.797   5.887
10660SOL    HW232880   4.641   3.815   5.795
10661SOL     OW32881   0.255   6.871   1.857
10661SOL    HW132882   0.224   6.939   1.923
10661SOL    HW232883   0.177   6.822   1.819
10662SOL     OW32884   0.044   1.256   0.450
10662SOL    HW132885   0.059   1.243   0.547
10662SOL    HW232886   6.995   1.332   0.436
10663SOL     OW32887   0.563   0.387   1.761
10663SOL    HW132888   0.486   0.391   1.697
10663SOL    HW232889   0.631   0.455   1.735
10664SOL     OW32890   2.248   4.239   0.124
10664SOL    HW132891   2.280   4.228   0.030
10664SOL    HW232892   2.158   4.195   0.134
10665SOL     OW32893   0.408   1.804   0.183
10665SOL    HW132894   0.375   1.789   0.276
10665SOL    HW232895   0.333   1.839   0.127
10666SOL     OW32896   3.466   5.540   6.857
10666SOL    HW132897   3.436   5.499   6.943
10666SOL    HW232898   3.431   5.634   6.852
10667SOL     OW32899   3.997   1.829   5.348
10667SOL    HW132900   3.929   1.832   5.420
10667SOL    HW232901   4.081   1.786   5.382
10668SOL     OW32902   1.499   2.047   6.378
10668SOL    HW132903   1.500   1.948   6.365
10668SOL    HW232904   1.421   2.073   6.435
10669SOL     OW32905   1.046   7.008   0.441
10669SOL    HW132906   1.106   6.990   0.519
10669SOL    HW232907   1.094   6.986   0.356
10670SOL     OW32908   5.626   4.675   5.682
10670SOL    HW132909   5.639   4.594   5.626
10670SOL    HW232910   5.528   4.696   5.688
10671SOL     OW32911   2.348   2.630   2.917
10671SOL    HW132912   2.266   2.586   2.881
10671SOL    HW232913   2.369   2.592   3.007
10672SOL     OW32914   0.357   2.276   0.393
10672SOL    HW132915   0.324   2.256   0.301
10672SOL    HW232916   0.366   2.192   0.445
10673SOL     OW32917   2.736   2.934   5.431
10673SOL    HW132918   2.734   2.834   5.434
10673SOL    HW232919   2.647   2.969   5.402
10674SOL     OW32920   3.825   3.865   0.830
10674SOL    HW132921   3.860   3.771   0.836
10674SOL    HW232922   3.854   3.906   0.744
10675SOL     OW32923   6.997   0.242   5.993
10675SOL    HW132924   6.934   0.295   6.050
10675SOL    HW232925   6.945   0.178   5.937
10676SOL     OW32926   6.075   0.495   6.223
10676SOL    HW132927   6.017   0.571   6.253
10676SOL    HW232928   6.047   0.467   6.131
10677SOL     OW32929   0.404   0.595   1.869
10677SOL    HW132930   0.314   0.580   1.910
10677SOL    HW232931   0.469   0.528   1.905
10678SOL     OW32932   2.784   5.379   2.935
10678SOL    HW132933   2.879   5.398   2.909
10678SOL    HW232934   2.761   5.285   2.908
10679SOL     OW32935   6.098   5.533   4.314
10679SOL    HW132936   5.999   5.523   4.314
10679SOL    HW232937   6.128   5.559   4.406
10680SOL     OW32938   1.384   3.168   2.546
10680SOL    HW132939   1.458   3.138   2.485
10680SOL    HW232940   1.323   3.092   2.564
10681SOL     OW32941   6.300   3.468   6.111
10681SOL    HW132942   6.399   3.479   6.096
10681SOL    HW232943   6.280   3.373   6.135
10682SOL     OW32944   0.753   1.615   2.640
10682SOL    HW132945   0.713   1.707   2.646
10682SOL    HW232946   0.760   1.589   2.544
10683SOL     OW32947   1.520   2.175   4.575
10683SOL    HW132948   1.503   2.082   4.544
10683SOL    HW232949   1.616   2.199   4.559
10684SOL     OW32950   6.118   3.852   0.525
10684SOL    HW132951   6.057   3.803   0.462
10684SOL    HW232952   6.098   3.825   0.619
10685SOL     OW32953   0.694   3.770   3.411
10685SOL    HW132954   0.612   3.783   3.467
10685SOL    HW232955   0.690   3.829   3.331
10686SOL     OW32956   3.390   6.151   0.132
10686SOL    HW132957   3.323   6.134   0.059
10686SOL    HW232958   3.351   6.125   0.220
10687SOL     OW32959   6.943   4.811   2.855
10687SOL    HW132960   6.850   4.812   2.818
10687SOL    HW232961   7.002   4.871   2.801
10688SOL     OW32962   6.887   4.613   2.061
10688SOL    HW132963   6.835   4.698   2.052
10688SOL    HW232964   6.825   4.540   2.091
10689SOL     OW32965   0.096   0.611   2.760
10689SOL    HW132966   0.028   0.630   2.830
10689SOL    HW232967   0.073   0.526   2.713
10690SOL     OW32968   4.160   5.445   2.416
10690SOL    HW132969   4.144   5.525   2.358
10690SOL    HW232970   4.222   5.382   2.369
10691SOL     OW32971   0.081   1.210   1.584
10691SOL    HW132972   0.037   1.131   1.544
10691SOL    HW232973   0.031   1.293   1.559
10692SOL     OW32974   3.884   6.167   3.741
10692SOL    HW132975   3.913   6.072   3.754
10692SOL    HW232976   3.785   6.169   3.722
10693SOL     OW32977   0.399   1.204   1.254
10693SOL    HW132978   0.394   1.128   1.319
10693SOL    HW232979   0.484   1.254   1.267
10694SOL     OW32980   3.667   5.854   1.484
10694SOL    HW132981   3.661   5.813   1.393
10694SOL    HW232982   3.742   5.920   1.486
10695SOL     OW32983   0.435   2.445   4.320
10695SOL    HW132984   0.383   2.359   4.322
10695SOL    HW232985   0.398   2.504   4.248
10696SOL     OW32986   0.235   6.061   1.002
10696SOL    HW132987   0.305   6.051   1.073
10696SOL    HW232988   0.264   6.131   0.937
10697SOL     OW32989   0.758   6.212   3.993
10697SOL    HW132990   0.691   6.195   3.920
10697SOL    HW232991   0.757   6.135   4.057
10698SOL     OW32992   3.032   7.007   3.366
10698SOL    HW132993   3.057   0.089   3.373
10698SOL    HW232994   2.948   6.991   3.418
10699SOL     OW32995   3.990   1.568   2.603
10699SOL    HW132996   4.005   1.661   2.571
10699SOL    HW232997   3.995   1.505   2.525
10700SOL     OW32998   6.881   6.489   1.118
10700SOL    HW132999   6.800   6.544   1.100
10700SOL    HW233000   6.957   6.522   1.062
10701SOL     OW33001   3.657   6.157   0.033
10701SOL    HW133002   3.679   6.066   7.013
10701SOL    HW233003   3.572   6.153   0.085
10702SOL     OW33004   6.158   2.561   0.016
10702SOL    HW133005   6.084   2.579   6.967
10702SOL    HW233006   6.123   2.511   0.095
10703SOL     OW33007   3.991   3.869   3.416
10703SOL    HW133008   3.907   3.838   3.371
10703SOL    HW233009   4.062   3.885   3.347
10704SOL     OW33010   5.027   0.332   2.279
10704SOL    HW133011   4.932   0.363   2.274
10704SOL    HW233012   5.086   0.399   2.235
10705SOL     OW33013   1.094   3.122   6.287
10705SOL    HW133014   1.054   3.107   6.377
10705SOL    HW233015   1.131   3.215   6.282
10706SOL     OW33016   3.979   0.828   1.630
10706SOL    HW133017   3.919   0.824   1.549
10706SOL    HW233018   3.943   0.896   1.694
10707SOL     OW33019   6.069   6.826   5.708
10707SOL    HW133020   6.122   6.745   5.732
10707SOL    HW233021   6.128   6.906   5.710
10708SOL     OW33022   4.874   1.028   1.042
10708SOL    HW133023   4.804   0.959   1.057
10708SOL    HW233024   4.840   1.096   0.977
10709SOL     OW33025   6.133   6.946   5.209
10709SOL    HW133026   6.128   6.881   5.132
10709SOL    HW233027   6.070   6.916   5.281
10710SOL     OW33028   6.076   5.791   3.730
10710SOL    HW133029   6.047   5.783   3.635
10710SOL    HW233030   6.025   5.865   3.774
10711SOL     OW33031   1.431   0.076   4.281
10711SOL    HW133032   1.467   0.140   4.213
10711SOL    HW233033   1.454   6.998   4.254
10712SOL     OW33034   3.698   0.833   4.749
10712SOL    HW133035   3.736   0.886   4.674
10712SOL    HW233036   3.646   0.893   4.810
10713SOL     OW33037   2.178   5.775   1.764
10713SOL    HW133038   2.232   5.847   1.807
10713SOL    HW233039   2.156   5.704   1.831
10714SOL     OW33040   0.436   5.223   5.092
10714SOL    HW133041   0.487   5.201   5.175
10714SOL    HW233042   0.482   5.182   5.013
10715SOL     OW33043   4.631   2.002   4.031
10715SOL    HW133044   4.716   2.011   3.979
10715SOL    HW233045   4.585   1.918   4.004
10716SOL     OW33046   6.546   0.698   4.125
10716SOL    HW133047   6.486   0.778   4.121
10716SOL    HW233048   6.491   0.614   4.120
10717SOL     OW33049   6.797   0.614   1.664
10717SOL    HW133050   6.858   0.671   1.719
10717SOL    HW233051   6.809   0.518   1.690
10718SOL     OW33052   6.608   5.103   6.396
10718SOL    HW133053   6.606   5.199   6.368
10718SOL    HW233054   6.656   5.095   6.483
10719SOL     OW33055   5.591   0.992   1.865
10719SOL    HW133056   5.622   0.971   1.772
10719SOL    HW233057   5.639   0.934   1.930
10720SOL     OW33058   0.167   3.365   6.527
10720SOL    HW133059   0.231   3.298   6.565
10720SOL    HW233060   0.179   3.371   6.428
10721SOL     OW33061   6.073   2.359   4.380
10721SOL    HW133062   6.015   2.338   4.459
10721SOL    HW233063   6.135   2.282   4.362
10722SOL     OW33064   6.496   3.581   0.502
10722SOL    HW133065   6.405   3.546   0.525
10722SOL    HW233066   6.497   3.681   0.509
10723SOL     OW33067   5.562   4.119   6.811
10723SOL    HW133068   5.503   4.144   6.735
10723SOL    HW233069   5.645   4.176   6.809
10724SOL     OW33070   4.028   6.519   6.222
10724SOL    HW133071   4.000   6.567   6.140
10724SOL    HW233072   4.118   6.477   6.207
10725SOL     OW33073   0.484   5.933   4.262
10725SOL    HW133074   0.570   5.934   4.211
10725SOL    HW233075   0.501   5.908   4.357
10726SOL     OW33076   5.573   0.192   4.586
10726SOL    HW133077   5.583   0.182   4.487
10726SOL    HW233078   5.572   0.101   4.629
10727SOL     OW33079   2.325   5.683   5.853
10727SOL    HW133080   2.357   5.588   5.845
10727SOL    HW233081   2.273   5.707   5.772
10728SOL     OW33082   4.633   6.761   2.862
10728SOL    HW133083   4.611   6.689   2.927
10728SOL    HW233084   4.670   6.720   2.779
10729SOL     OW33085   6.084   2.654   2.951
10729SOL    HW133086   6.007   2.718   2.940
10729SOL    HW233087   6.102   2.641   3.049
10730SOL     OW33088   1.671   6.938   2.524
10730SOL    HW133089   1.679   6.907   2.429
10730SOL    HW233090   1.640   6.863   2.581
10731SOL     OW33091   3.438   6.596   0.024
10731SOL    HW133092   3.345   6.567   0.006
10731SOL    HW233093   3.502   6.532   6.998
10732SOL     OW33094   5.705   5.885   3.011
10732SOL    HW133095   5.693   5.837   2.925
10732SOL    HW233096   5.783   5.947   3.005
10733SOL     OW33097   6.269   1.357   5.913
10733SOL    HW133098   6.357   1.326   5.949
10733SOL    HW233099   6.201   1.356   5.987
10734SOL     OW33100   1.688   1.050   5.995
10734SOL    HW133101   1.671   1.034   6.092
10734SOL    HW233102   1.785   1.034   5.976
10735SOL     OW33103   1.478   5.028   1.692
10735SOL    HW133104   1.465   4.940   1.648
10735SOL    HW233105   1.576   5.046   1.704
10736SOL     OW33106   6.746   6.916   3.302
10736SOL    HW133107   6.743   6.917   3.202
10736SOL    HW233108   6.838   6.893   3.332
10737SOL     OW33109   6.941   1.379   1.443
10737SOL    HW133110   6.954   1.383   1.344
10737SOL    HW233111   6.931   1.472   1.479
10738SOL     OW33112   2.654   0.760   2.847
10738SOL    HW133113   2.604   0.686   2.802
10738SOL    HW233114   2.751   0.737   2.849
10739SOL     OW33115   5.994   1.942   2.547
10739SOL    HW133116   6.041   1.884   2.481
10739SOL    HW233117   5.902   1.962   2.515
10740SOL     OW33118   1.573   6.746   5.852
10740SOL    HW133119   1.564   6.845   5.837
10740SOL    HW233120   1.614   6.704   5.772
10741SOL     OW33121   1.740   2.668   3.188
10741SOL    HW133122   1.790   2.640   3.270
10741SOL    HW233123   1.642   2.654   3.202
10742SOL     OW33124   6.255   5.481   2.337
10742SOL    HW133125   6.273   5.576   2.362
10742SOL    HW233126   6.172   5.449   2.382
10743SOL     OW33127   3.378   1.249   5.288
10743SOL    HW133128   3.466   1.278   5.327
10743SOL    HW233129   3.380   1.259   5.189
10744SOL     OW33130   2.463   0.404   1.000
10744SOL    HW133131   2.452   0.487   1.055
10744SOL    HW233132   2.403   0.409   0.920
10745SOL     OW33133   2.020   4.534   1.116
10745SOL    HW133134   1.944   4.469   1.124
10745SOL    HW233135   2.103   4.485   1.089
10746SOL     OW33136   1.920   6.281   6.571
10746SOL    HW133137   1.885   6.199   6.526
10746SOL    HW233138   1.958   6.343   6.502
10747SOL     OW33139   6.701   2.020   4.266
10747SOL    HW133140   6.715   1.986   4.359
10747SOL    HW233141   6.777   1.992   4.208
10748SOL     OW33142   3.981   5.338   1.107
10748SOL    HW133143   4.069   5.303   1.141
10748SOL    HW233144   3.921   5.261   1.086
10749SOL     OW33145   6.391   5.175   2.824
10749SOL    HW133146   6.293   5.183   2.843
10749SOL    HW233147   6.438   5.257   2.856
10750SOL     OW33148   4.667   2.765   3.904
10750SOL    HW133149   4.595   2.695   3.899
10750SOL    HW233150   4.683   2.789   4.000
10751SOL     OW33151   1.214   4.102   5.376
10751SOL    HW133152   1.150   4.066   5.444
10751SOL    HW233153   1.284   4.032   5.357
10752SOL     OW33154   6.003   5.951   0.634
10752SOL    HW133155   5.911   5.957   0.674
10752SOL    HW233156   6.028   5.856   0.621
10753SOL     OW33157   5.219   6.171   3.821
10753SOL    HW133158   5.137   6.116   3.809
10753SOL    HW233159   5.241   6.179   3.918
10754SOL     OW33160   1.514   2.907   2.075
10754SOL    HW133161   1.581   2.947   2.013
10754SOL    HW233162   1.554   2.827   2.121
10755SOL     OW33163   6.474   3.074   0.839
10755SOL    HW133164   6.496   3.146   0.774
10755SOL    HW233165   6.557   3.046   0.887
10756SOL     OW33166   0.300   2.801   0.676
10756SOL    HW133167   0.389   2.812   0.719
10756SOL    HW233168   0.270   2.889   0.639
10757SOL     OW33169   6.324   4.130   1.148
10757SOL    HW133170   6.224   4.132   1.148
10757SOL    HW233171   6.357   4.077   1.070
10758SOL     OW33172   0.635   6.635   6.846
10758SOL    HW133173   0.619   6.722   6.893
10758SOL    HW233174   0.592   6.637   6.756
10759SOL     OW33175   2.164   1.997   6.620
10759SOL    HW133176   2.107   2.057   6.564
10759SOL    HW233177   2.108   1.955   6.692
10760SOL     OW33178   0.343   5.605   0.042
10760SOL    HW133179   0.428   5.657   0.042
10760SOL    HW233180   0.265   5.667   0.048
10761SOL     OW33181   0.670   1.684   6.240
10761SOL    HW133182   0.627   1.685   6.330
10761SOL    HW233183   0.760   1.727   6.245
10762SOL     OW33184   4.221   0.348   5.630
10762SOL    HW133185   4.161   0.273   5.656
10762SOL    HW233186   4.315   0.326   5.657
10763SOL     OW33187   5.517   0.133   2.982
10763SOL    HW133188   5.463   0.064   2.936
10763SOL    HW233189   5.477   0.153   3.071
10764SOL     OW33190   4.337   1.331   5.201
10764SOL    HW133191   4.316   1.325   5.104
10764SOL    HW233192   4.369   1.242   5.234
10765SOL     OW33193   6.394   2.340   2.712
10765SOL    HW133194   6.298   2.370   2.717
10765SOL    HW233195   6.420   2.329   2.617
10766SOL     OW33196   1.334   4.825   6.573
10766SOL    HW133197   1.348   4.751   6.508
10766SOL    HW233198   1.268   4.796   6.643
10767SOL     OW33199   1.734   6.037   0.901
10767SOL    HW133200   1.686   6.093   0.833
10767SOL    HW233201   1.762   5.951   0.859
10768SOL     OW33202   5.926   6.152   0.199
10768SOL    HW133203   5.834   6.188   0.185
10768SOL    HW233204   5.951   6.161   0.295
10769SOL     OW33205   3.083   3.688   5.087
10769SOL    HW133206   3.162   3.746   5.108
10769SOL    HW233207   3.113   3.594   5.071
10770SOL     OW33208   5.519   6.761   4.341
10770SOL    HW133209   5.461   6.843   4.342
10770SOL    HW233210   5.506   6.709   4.425
10771SOL     OW33211   5.330   6.078   5.710
10771SOL    HW133212   5.314   6.129   5.625
10771SOL    HW233213   5.372   5.990   5.689
10772SOL     OW33214   5.789   5.138   3.001
10772SOL    HW133215   5.713   5.198   2.977
10772SOL    HW233216   5.772   5.097   3.091
10773SOL     OW33217   6.542   4.408   1.030
10773SOL    HW133218   6.525   4.444   0.938
10773SOL    HW233219   6.626   4.354   1.029
10774SOL     OW33220   1.085   2.176   1.157
10774SOL    HW133221   1.027   2.257   1.166
10774SOL    HW233222   1.169   2.200   1.109
10775SOL     OW33223   1.221   4.324   0.917
10775SOL    HW133224   1.185   4.393   0.979
10775SOL    HW233225   1.170   4.239   0.929
10776SOL     OW33226   6.993   0.927   3.226
10776SOL    HW133227   0.043   0.964   3.161
10776SOL    HW233228   6.902   0.965   3.208
10777SOL     OW33229   2.914   0.984   3.032
10777SOL    HW133230   2.914   0.916   2.959
10777SOL    HW233231   2.834   1.043   3.024
10778SOL     OW33232   6.261   6.446   3.897
10778SOL    HW133233   6.235   6.533   3.854
10778SOL    HW233234   6.239   6.371   3.835
10779SOL     OW33235   5.665   4.044   4.153
10779SOL    HW133236   5.632   3.960   4.109
10779SOL    HW233237   5.625   4.051   4.245
10780SOL     OW33238   1.174   5.718   4.904
10780SOL    HW133239   1.170   5.618   4.912
10780SOL    HW233240   1.148   5.759   4.991
10781SOL     OW33241   5.865   2.600   4.808
10781SOL    HW133242   5.812   2.527   4.852
10781SOL    HW233243   5.962   2.590   4.831
10782SOL     OW33244   1.033   3.222   5.282
10782SOL    HW133245   1.084   3.141   5.310
10782SOL    HW233246   0.954   3.234   5.342
10783SOL     OW33247   0.889   2.299   2.634
10783SOL    HW133248   0.941   2.344   2.562
10783SOL    HW233249   0.801   2.269   2.598
10784SOL     OW33250   3.408   6.141   2.190
10784SOL    HW133251   3.435   6.076   2.119
10784SOL    HW233252   3.311   6.130   2.210
10785SOL     OW33253   1.793   5.585   2.360
10785SOL    HW133254   1.859   5.656   2.386
10785SOL    HW233255   1.771   5.594   2.263
10786SOL     OW33256   4.958   1.697   2.266
10786SOL    HW133257   4.952   1.712   2.364
10786SOL    HW233258   5.002   1.609   2.248
10787SOL     OW33259   3.452   1.092   3.463
10787SOL    HW133260   3.428   1.169   3.521
10787SOL    HW233261   3.490   1.125   3.377
10788SOL     OW33262   0.499   4.167   0.372
10788SOL    HW133263   0.548   4.244   0.414
10788SOL    HW233264   0.537   4.150   0.281
10789SOL     OW33265   6.127   1.228   0.136
10789SOL    HW133266   6.206   1.176   0.170
10789SOL    HW233267   6.080   1.176   0.066
10790SOL     OW33268   0.687   2.214   4.622
10790SOL    HW133269   0.769   2.185   4.670
10790SOL    HW233270   0.697   2.309   4.592
10791SOL     OW33271   1.945   1.521   2.780
10791SOL    HW133272   1.875   1.536   2.711
10791SOL    HW233273   2.016   1.590   2.771
10792SOL     OW33274   3.939   2.255   1.336
10792SOL    HW133275   3.913   2.342   1.378
10792SOL    HW233276   3.872   2.185   1.360
10793SOL     OW33277   4.790   1.898   5.096
10793SOL    HW133278   4.793   1.865   5.191
10793SOL    HW233279   4.787   1.998   5.096
10794SOL     OW33280   4.538   3.285   1.683
10794SOL    HW133281   4.549   3.227   1.763
10794SOL    HW233282   4.577   3.375   1.700
10795SOL     OW33283   0.073   3.547   3.360
10795SOL    HW133284   6.998   3.504   3.350
10795SOL    HW233285   0.076   3.630   3.304
10796SOL     OW33286   6.490   6.384   6.567
10796SOL    HW133287   6.583   6.418   6.583
10796SOL    HW233288   6.434   6.399   6.648
10797SOL     OW33289   4.166   3.421   0.764
10797SOL    HW133290   4.165   3.352   0.836
10797SOL    HW233291   4.258   3.460   0.757
10798SOL     OW33292   2.664   0.044   6.257
10798SOL    HW133293   2.614   6.996   6.317
10798SOL    HW233294   2.760   0.047   6.285
10799SOL     OW33295   2.915   1.613   2.737
10799SOL    HW133296   2.963   1.576   2.816
10799SOL    HW233297   2.908   1.543   2.666
10800SOL     OW33298   1.599   0.459   6.153
10800SOL    HW133299   1.647   0.400   6.218
10800SOL    HW233300   1.501   0.445   6.162
10801SOL     OW33301   2.437   5.846   6.222
10801SOL    HW133302   2.499   5.788   6.168
10801SOL    HW233303   2.344   5.810   6.216
10802SOL     OW33304   0.860   3.380   4.530
10802SOL    HW133305   0.774   3.383   4.478
10802SOL    HW233306   0.839   3.369   4.627
10803SOL     OW33307   6.417   4.689   5.118
10803SOL    HW133308   6.495   4.631   5.143
10803SOL    HW233309   6.445   4.750   5.043
10804SOL     OW33310   5.467   4.718   2.071
10804SOL    HW133311   5.373   4.699   2.043
10804SOL    HW233312   5.486   4.675   2.159
10805SOL     OW33313   4.413   6.789   0.661
10805SOL    HW133314   4.332   6.737   0.687
10805SOL    HW233315   4.388   6.857   0.592
10806SOL     OW33316   5.307   3.893   0.171
10806SOL    HW133317   5.355   3.817   0.127
10806SOL    HW233318   5.311   3.974   0.112
10807SOL     OW33319   4.037   6.266   3.323
10807SOL    HW133320   4.022   6.168   3.332
10807SOL    HW233321   4.025   6.293   3.227
10808SOL     OW33322   7.013   3.133   5.723
10808SOL    HW133323   0.007   3.180   5.812
10808SOL    HW233324   6.939   3.176   5.671
10809SOL     OW33325   2.560   0.214   3.462
10809SOL    HW133326   2.576   0.126   3.415
10809SOL    HW233327   2.470   0.214   3.504
10810SOL     OW33328   0.211   1.427   5.387
10810SOL    HW133329   0.115   1.455   5.384
10810SOL    HW233330   0.230   1.366   5.310
10811SOL     OW33331   4.784   4.682   5.076
10811SOL    HW133332   4.795   4.662   4.978
10811SOL    HW233333   4.691   4.659   5.104
10812SOL     OW33334   6.350   2.782   2.630
10812SOL    HW133335   6.287   2.838   2.684
10812SOL    HW233336   6.298   2.717   2.575
10813SOL     OW33337   2.830   6.036   1.838
10813SOL    HW133338   2.817   6.072   1.930
10813SOL    HW233339   2.923   6.056   1.807
10814SOL     OW33340   2.003   0.212   5.201
10814SOL    HW133341   1.908   0.228   5.228
10814SOL    HW233342   2.009   0.211   5.101
10815SOL     OW33343   5.107   3.987   3.043
10815SOL    HW133344   5.014   3.966   3.073
10815SOL    HW233345   5.139   3.916   2.981
10816SOL     OW33346   1.617   1.033   2.159
10816SOL    HW133347   1.664   0.954   2.199
10816SOL    HW233348   1.583   1.008   2.068
10817SOL     OW33349   4.680   0.061   2.532
10817SOL    HW133350   4.761   0.097   2.579
10817SOL    HW233351   4.615   0.026   2.600
10818SOL     OW33352   4.739   2.830   0.010
10818SOL    HW133353   4.662   2.875   6.980
10818SOL    HW233354   4.710   2.739   0.041
10819SOL     OW33355   0.020   4.485   6.668
10819SOL    HW133356   0.022   4.558   6.737
10819SOL    HW233357   0.085   4.507   6.595
10820SOL     OW33358   0.227   6.559   4.220
10820SOL    HW133359   0.314   6.529   4.182
10820SOL    HW233360   0.225   6.541   4.318
10821SOL     OW33361   6.665   0.295   0.943
10821SOL    HW133362   6.671   0.393   0.921
10821SOL    HW233363   6.572   0.263   0.927
10822SOL     OW33364   0.568   4.016   2.292
10822SOL    HW133365   0.562   4.048   2.387
10822SOL    HW233366   0.530   3.924   2.285
10823SOL     OW33367   2.128   6.176   1.249
10823SOL    HW133368   2.221   6.181   1.285
10823SOL    HW233369   2.082   6.094   1.283
10824SOL     OW33370   5.290   0.658   2.513
10824SOL    HW133371   5.379   0.663   2.467
10824SOL    HW233372   5.304   0.637   2.609
10825SOL     OW33373   3.842   1.008   0.844
10825SOL    HW133374   3.898   1.021   0.926
10825SOL    HW233375   3.837   0.910   0.823
10826SOL     OW33376   0.183   3.496   2.312
10826SOL    HW133377   0.238   3.470   2.391
10826SOL    HW233378   0.088   3.467   2.326
10827SOL     OW33379   6.932   3.076   4.308
10827SOL    HW133380   6.869   3.091   4.384
10827SOL    HW233381   6.919   2.984   4.271
10828SOL     OW33382   1.485   5.448   0.505
10828SOL    HW133383   1.561   5.488   0.454
10828SOL    HW233384   1.509   5.442   0.602
10829SOL     OW33385   3.223   3.905   2.202
10829SOL    HW133386   3.144   3.882   2.146
10829SOL    HW233387   3.198   3.979   2.265
10830SOL     OW33388   5.123   2.869   4.567
10830SOL    HW133389   5.220   2.848   4.553
10830SOL    HW233390   5.101   2.956   4.523
10831SOL     OW33391   5.140   1.363   3.049
10831SOL    HW133392   5.092   1.292   3.100
10831SOL    HW233393   5.209   1.320   2.990
10832SOL     OW33394   0.833   1.890   0.562
10832SOL    HW133395   0.920   1.881   0.610
10832SOL    HW233396   0.791   1.978   0.584
10833SOL     OW33397   2.568   0.561   4.334
10833SOL    HW133398   2.548   0.645   4.285
10833SOL    HW233399   2.655   0.571   4.383
10834SOL     OW33400   1.263   1.642   5.512
10834SOL    HW133401   1.266   1.740   5.533
10834SOL    HW233402   1.244   1.630   5.414
10835SOL     OW33403   5.634   1.845   2.288
10835SOL    HW133404   5.542   1.847   2.250
10835SOL    HW233405   5.698   1.816   2.218
10836SOL     OW33406   1.807   1.800   6.364
10836SOL    HW133407   1.839   1.788   6.458
10836SOL    HW233408   1.867   1.864   6.316
10837SOL     OW33409   6.626   4.575   0.563
10837SOL    HW133410   6.588   4.505   0.624
10837SOL    HW233411   6.717   4.546   0.532
10838SOL     OW33412   5.904   6.848   6.358
10838SOL    HW133413   5.970   6.775   6.341
10838SOL    HW233414   5.820   6.829   6.307
10839SOL     OW33415   2.088   2.348   0.169
10839SOL    HW133416   2.144   2.308   0.242
10839SOL    HW233417   2.005   2.388   0.210
10840SOL     OW33418   3.716   5.277   1.875
10840SOL    HW133419   3.664   5.353   1.914
10840SOL    HW233420   3.664   5.192   1.883
10841SOL     OW33421   4.075   5.424   5.578
10841SOL    HW133422   4.085   5.427   5.677
10841SOL    HW233423   4.155   5.467   5.535
10842SOL     OW33424   6.168   3.449   1.384
10842SOL    HW133425   6.108   3.420   1.309
10842SOL    HW233426   6.189   3.546   1.375
10843SOL     OW33427   0.546   1.568   2.323
10843SOL    HW133428   0.578   1.663   2.323
10843SOL    HW233429   0.614   1.509   2.280
10844SOL     OW33430   4.919   0.373   3.619
10844SOL    HW133431   4.968   0.461   3.622
10844SOL    HW233432   4.927   0.328   3.708
10845SOL     OW33433   1.114   1.492   1.245
10845SOL    HW133434   1.086   1.588   1.250
10845SOL    HW233435   1.042   1.435   1.284
10846SOL     OW33436   4.155   1.919   0.998
10846SOL    HW133437   4.211   1.990   0.953
10846SOL    HW233438   4.134   1.948   1.091
10847SOL     OW33439   3.889   2.442   6.374
10847SOL    HW133440   3.936   2.514   6.322
10847SOL    HW233441   3.799   2.425   6.333
10848SOL     OW33442   0.996   1.032   0.006
10848SOL    HW133443   0.899   1.054   0.005
10848SOL    HW233444   1.026   1.010   6.928
10849SOL     OW33445   3.152   5.376   4.439
10849SOL    HW133446   3.092   5.306   4.400
10849SOL    HW233447   3.156   5.366   4.538
10850SOL     OW33448   5.166   6.320   0.665
10850SOL    HW133449   5.239   6.273   0.616
10850SOL    HW233450   5.197   6.411   0.694
10851SOL     OW33451   3.488   2.121   6.697
10851SOL    HW133452   3.566   2.176   6.668
10851SOL    HW233453   3.428   2.177   6.755
10852SOL     OW33454   0.485   1.002   6.470
10852SOL    HW133455   0.486   0.910   6.508
10852SOL    HW233456   0.554   1.058   6.516
10853SOL     OW33457   2.542   1.459   4.733
10853SOL    HW133458   2.603   1.391   4.774
10853SOL    HW233459   2.596   1.524   4.680
10854SOL     OW33460   6.686   6.640   6.854
10854SOL    HW133461   6.674   6.571   6.783
10854SOL    HW233462   6.716   6.726   6.813
10855SOL     OW33463   1.558   6.129   1.565
10855SOL    HW133464   1.632   6.076   1.607
10855SOL    HW233465   1.596   6.183   1.489
10856SOL     OW33466   6.125   6.910   6.921
10856SOL    HW133467   6.101   6.824   6.966
10856SOL    HW233468   6.045   6.948   6.875
10857SOL     OW33469   6.025   1.401   3.927
10857SOL    HW133470   6.066   1.478   3.877
10857SOL    HW233471   5.930   1.390   3.897
10858SOL     OW33472   1.619   3.205   6.874
10858SOL    HW133473   1.689   3.254   6.823
10858SOL    HW233474   1.566   3.147   6.812
10859SOL     OW33475   0.945   4.214   2.456
10859SOL    HW133476   0.926   4.307   2.488
10859SOL    HW233477   0.962   4.215   2.357
10860SOL     OW33478   6.034   1.822   6.918
10860SOL    HW133479   5.983   1.764   6.982
10860SOL    HW233480   6.091   1.886   6.970
10861SOL     OW33481   3.349   2.785   1.822
10861SOL    HW133482   3.393   2.874   1.808
10861SOL    HW233483   3.328   2.772   1.919
10862SOL     OW33484   3.466   3.015   5.376
10862SOL    HW133485   3.558   3.024   5.415
10862SOL    HW233486   3.410   2.958   5.436
10863SOL     OW33487   2.411   1.272   2.949
10863SOL    HW133488   2.326   1.227   2.979
10863SOL    HW233489   2.442   1.335   3.020
10864SOL     OW33490   2.607   4.653   2.080
10864SOL    HW133491   2.700   4.618   2.073
10864SOL    HW233492   2.596   4.731   2.017
10865SOL     OW33493   4.194   1.847   3.033
10865SOL    HW133494   4.120   1.785   3.006
10865SOL    HW233495   4.183   1.873   3.128
10866SOL     OW33496   0.224   4.065   2.984
10866SOL    HW133497   0.319   4.037   2.981
10866SOL    HW233498   0.203   4.121   2.904
10867SOL     OW33499   3.641   3.217   0.811
10867SOL    HW133500   3.654   3.304   0.857
10867SOL    HW233501   3.543   3.196   0.805
10868SOL     OW33502   1.304   1.673   3.896
10868SOL    HW133503   1.304   1.645   3.992
10868SOL    HW233504   1.236   1.620   3.846
10869NA      NA33505   0.064   2.311   5.793
10870NA      NA33506   4.223   4.626   5.224
10871NA      NA33507   1.059   5.265   2.542
10872NA      NA33508   5.263   4.170   3.785
10873NA      NA33509   4.276   2.367   5.255
10874NA      NA33510   2.391   5.265   0.847
10875NA      NA33511   1.160   5.378   6.689
10876NA      NA33512   3.374   4.400   1.050
10877NA      NA33513   4.456   5.214   0.980
10878NA      NA33514   3.527   1.223   6.455
10879NA      NA33515   5.496   5.872   1.900
10880NA      NA33516   1.703   6.770   5.499
10881NA      NA33517   4.288   5.065   1.677
10882NA      NA33518   3.313   3.142   6.783
   7.01525   7.01525   7.01525
