Generated by trjconv : CNT in water t=  44.00000
33518
    1C        C    1   2.840   2.765   4.744
    1C        C    2   2.893   2.719   4.867
    1C        C    3   2.837   2.771   4.984
    1C        C    4   2.850   2.775   4.259
    1C        C    5   2.902   2.725   4.381
    1C        C    6   2.845   2.770   4.502
    1C        C    7   3.011   2.636   4.623
    1C        C    8   2.897   2.719   4.623
    1C        C    9   3.074   2.598   4.744
    1C        C   10   3.004   2.632   4.862
    1C        C   11   3.175   2.489   4.973
    1C        C   12   3.055   2.560   4.971
    1C        C   13   2.847   2.768   3.772
    1C        C   14   2.899   2.721   3.895
    1C        C   15   2.847   2.773   4.016
    1C        C   16   3.015   2.642   4.135
    1C        C   17   2.900   2.724   4.137
    1C        C   18   3.078   2.607   4.257
    1C        C   19   3.017   2.643   4.380
    1C        C   20   3.207   2.551   4.498
    1C        C   21   3.077   2.607   4.502
    1C        C   22   3.272   2.527   4.621
    1C        C   23   3.202   2.538   4.743
    1C        C   24   3.408   2.478   4.860
    1C        C   25   3.266   2.496   4.863
    1C        C   26   3.485   2.477   4.977
    1C        C   27   2.850   2.772   3.280
    1C        C   28   2.902   2.723   3.402
    1C        C   29   2.853   2.771   3.525
    1C        C   30   3.016   2.641   3.648
    1C        C   31   2.902   2.726   3.649
    1C        C   32   3.072   2.600   3.771
    1C        C   33   3.013   2.637   3.893
    1C        C   34   3.206   2.545   4.012
    1C        C   35   3.077   2.604   4.014
    1C        C   36   3.276   2.527   4.134
    1C        C   37   3.209   2.555   4.255
    1C        C   38   3.415   2.501   4.379
    1C        C   39   3.276   2.530   4.377
    1C        C   40   3.482   2.498   4.503
    1C        C   41   3.411   2.500   4.625
    1C        C   42   3.629   2.475   4.741
    1C        C   43   3.486   2.475   4.742
    1C        C   44   3.702   2.487   4.860
    1C        C   45   3.624   2.473   4.976
    1C        C   46   2.835   2.750   2.791
    1C        C   47   2.888   2.706   2.914
    1C        C   48   2.840   2.757   3.036
    1C        C   49   3.012   2.634   3.158
    1C        C   50   2.898   2.718   3.159
    1C        C   51   3.075   2.602   3.279
    1C        C   52   3.013   2.635   3.402
    1C        C   53   3.205   2.551   3.524
    1C        C   54   3.073   2.602   3.525
    1C        C   55   3.271   2.524   3.646
    1C        C   56   3.203   2.547   3.767
    1C        C   57   3.409   2.495   3.889
    1C        C   58   3.271   2.523   3.889
    1C        C   59   3.483   2.493   4.010
    1C        C   60   3.414   2.498   4.133
    1C        C   61   3.624   2.500   4.258
    1C        C   62   3.483   2.490   4.256
    1C        C   63   3.696   2.503   4.379
    1C        C   64   3.623   2.498   4.500
    1C        C   65   3.833   2.539   4.618
    1C        C   66   3.698   2.499   4.620
    1C        C   67   3.898   2.563   4.741
    1C        C   68   3.838   2.524   4.863
    1C        C   69   4.047   2.588   4.975
    1C        C   70   3.918   2.534   4.978
    1C        C   71   2.820   2.731   2.304
    1C        C   72   2.880   2.687   2.425
    1C        C   73   2.832   2.742   2.546
    1C        C   74   3.008   2.627   2.669
    1C        C   75   2.889   2.703   2.669
    1C        C   76   3.072   2.595   2.791
    1C        C   77   3.008   2.630   2.912
    1C        C   78   3.204   2.549   3.033
    1C        C   79   3.072   2.600   3.035
    1C        C   80   3.272   2.529   3.156
    1C        C   81   3.207   2.551   3.279
    1C        C   82   3.412   2.502   3.402
    1C        C   83   3.273   2.529   3.402
    1C        C   84   3.481   2.491   3.525
    1C        C   85   3.410   2.496   3.647
    1C        C   86   3.623   2.502   3.764
    1C        C   87   3.482   2.490   3.768
    1C        C   88   3.693   2.511   3.886
    1C        C   89   3.624   2.499   4.009
    1C        C   90   3.827   2.545   4.134
    1C        C   91   3.690   2.509   4.133
    1C        C   92   3.898   2.568   4.254
    1C        C   93   3.833   2.537   4.376
    1C        C   94   4.028   2.627   4.496
    1C        C   95   3.902   2.563   4.497
    1C        C   96   4.091   2.663   4.617
    1C        C   97   4.026   2.625   4.737
    1C        C   98   4.188   2.763   4.855
    1C        C   99   4.095   2.654   4.858
    1C        C  100   4.207   2.843   4.969
    1C        C  101   2.823   2.724   2.067
    1C        C  102   2.992   2.591   2.186
    1C        C  103   2.875   2.673   2.187
    1C        C  104   3.061   2.566   2.309
    1C        C  105   2.998   2.610   2.427
    1C        C  106   3.195   2.527   2.547
    1C        C  107   3.065   2.582   2.548
    1C        C  108   3.266   2.511   2.669
    1C        C  109   3.199   2.535   2.791
    1C        C  110   3.410   2.497   2.914
    1C        C  111   3.270   2.519   2.912
    1C        C  112   3.481   2.486   3.035
    1C        C  113   3.410   2.501   3.157
    1C        C  114   3.622   2.498   3.279
    1C        C  115   3.481   2.493   3.279
    1C        C  116   3.694   2.507   3.401
    1C        C  117   3.622   2.494   3.522
    1C        C  118   3.833   2.537   3.646
    1C        C  119   3.694   2.507   3.642
    1C        C  120   3.898   2.563   3.768
    1C        C  121   3.829   2.549   3.890
    1C        C  122   4.020   2.637   4.012
    1C        C  123   3.894   2.575   4.013
    1C        C  124   4.082   2.674   4.133
    1C        C  125   4.021   2.637   4.255
    1C        C  126   4.193   2.764   4.373
    1C        C  127   4.088   2.669   4.375
    1C        C  128   4.242   2.815   4.495
    1C        C  129   4.195   2.759   4.615
    1C        C  130   4.324   2.932   4.736
    1C        C  131   4.244   2.814   4.735
    1C        C  132   4.352   3.001   4.856
    1C        C  133   4.282   2.960   4.970
    1C        C  134   3.170   2.461   2.078
    1C        C  135   3.037   2.505   2.081
    1C        C  136   3.258   2.471   2.186
    1C        C  137   3.192   2.511   2.305
    1C        C  138   3.402   2.475   2.427
    1C        C  139   3.262   2.497   2.426
    1C        C  140   3.476   2.484   2.547
    1C        C  141   3.406   2.495   2.669
    1C        C  142   3.620   2.499   2.789
    1C        C  143   3.478   2.493   2.790
    1C        C  144   3.690   2.506   2.911
    1C        C  145   3.622   2.493   3.034
    1C        C  146   3.828   2.537   3.156
    1C        C  147   3.691   2.502   3.156
    1C        C  148   3.900   2.555   3.276
    1C        C  149   3.832   2.537   3.398
    1C        C  150   4.024   2.619   3.521
    1C        C  151   3.896   2.559   3.522
    1C        C  152   4.085   2.660   3.642
    1C        C  153   4.023   2.629   3.766
    1C        C  154   4.190   2.758   3.886
    1C        C  155   4.080   2.670   3.888
    1C        C  156   4.241   2.813   4.006
    1C        C  157   4.194   2.761   4.129
    1C        C  158   4.337   2.918   4.248
    1C        C  159   4.246   2.810   4.251
    1C        C  160   4.371   2.982   4.370
    1C        C  161   4.327   2.928   4.493
    1C        C  162   4.441   3.109   4.612
    1C        C  163   4.369   2.987   4.614
    1C        C  164   4.469   3.178   4.731
    1C        C  165   4.434   3.116   4.853
    1C        C  166   4.506   3.318   4.967
    1C        C  167   4.475   3.183   4.969
    1C        C  168   3.473   2.431   2.070
    1C        C  169   3.398   2.457   2.185
    1C        C  170   3.614   2.466   2.303
    1C        C  171   3.472   2.463   2.306
    1C        C  172   3.688   2.485   2.422
    1C        C  173   3.617   2.487   2.544
    1C        C  174   3.825   2.537   2.666
    1C        C  175   3.688   2.502   2.665
    1C        C  176   3.895   2.553   2.788
    1C        C  177   3.829   2.533   2.911
    1C        C  178   4.022   2.621   3.031
    1C        C  179   3.895   2.560   3.033
    1C        C  180   4.085   2.656   3.152
    1C        C  181   4.026   2.620   3.275
    1C        C  182   4.193   2.747   3.399
    1C        C  183   4.083   2.659   3.399
    1C        C  184   4.247   2.798   3.519
    1C        C  185   4.194   2.749   3.641
    1C        C  186   4.331   2.912   3.760
    1C        C  187   4.244   2.800   3.763
    1C        C  188   4.377   2.972   3.879
    1C        C  189   4.333   2.920   4.003
    1C        C  190   4.450   3.096   4.126
    1C        C  191   4.377   2.975   4.126
    1C        C  192   4.472   3.168   4.245
    1C        C  193   4.440   3.105   4.367
    1C        C  194   4.504   3.309   4.487
    1C        C  195   4.467   3.173   4.488
    1C        C  196   4.525   3.382   4.607
    1C        C  197   4.512   3.314   4.730
    1C        C  198   4.550   3.531   4.847
    1C        C  199   4.528   3.390   4.849
    1C        C  200   4.575   3.616   4.960
    1C        C  201   3.612   2.412   2.069
    1C        C  202   3.822   2.505   2.181
    1C        C  203   3.687   2.458   2.181
    1C        C  204   3.893   2.533   2.301
    1C        C  205   3.825   2.517   2.424
    1C        C  206   4.019   2.615   2.541
    1C        C  207   3.892   2.555   2.543
    1C        C  208   4.080   2.654   2.662
    1C        C  209   4.020   2.620   2.786
    1C        C  210   4.194   2.742   2.907
    1C        C  211   4.081   2.658   2.908
    1C        C  212   4.248   2.792   3.028
    1C        C  213   4.197   2.742   3.150
    1C        C  214   4.330   2.902   3.269
    1C        C  215   4.244   2.790   3.275
    1C        C  216   4.361   2.967   3.390
    1C        C  217   4.331   2.911   3.517
    1C        C  218   4.429   3.101   3.636
    1C        C  219   4.368   2.973   3.638
    1C        C  220   4.458   3.164   3.759
    1C        C  221   4.440   3.098   3.882
    1C        C  222   4.499   3.302   3.999
    1C        C  223   4.471   3.164   4.003
    1C        C  224   4.508   3.374   4.121
    1C        C  225   4.498   3.307   4.245
    1C        C  226   4.516   3.522   4.361
    1C        C  227   4.507   3.381   4.365
    1C        C  228   4.509   3.594   4.482
    1C        C  229   4.522   3.523   4.603
    1C        C  230   4.493   3.735   4.722
    1C        C  231   4.531   3.598   4.722
    1C        C  232   4.490   3.815   4.838
    1C        C  233   4.548   3.753   4.949
    1C        C  234   4.013   2.602   2.057
    1C        C  235   3.891   2.536   2.063
    1C        C  236   4.079   2.640   2.175
    1C        C  237   4.018   2.602   2.296
    1C        C  238   4.193   2.729   2.417
    1C        C  239   4.080   2.644   2.416
    1C        C  240   4.248   2.781   2.537
    1C        C  241   4.193   2.737   2.660
    1C        C  242   4.333   2.896   2.782
    1C        C  243   4.243   2.787   2.783
    1C        C  244   4.371   2.961   2.902
    1C        C  245   4.335   2.904   3.026
    1C        C  246   4.439   3.088   3.146
    1C        C  247   4.371   2.964   3.149
    1C        C  248   4.459   3.155   3.269
    1C        C  249   4.427   3.092   3.391
    1C        C  250   4.490   3.299   3.513
    1C        C  251   4.451   3.163   3.511
    1C        C  252   4.505   3.370   3.634
    1C        C  253   4.496   3.301   3.756
    1C        C  254   4.521   3.513   3.874
    1C        C  255   4.513   3.372   3.877
    1C        C  256   4.511   3.585   3.995
    1C        C  257   4.513   3.515   4.118
    1C        C  258   4.491   3.729   4.237
    1C        C  259   4.512   3.590   4.237
    1C        C  260   4.471   3.802   4.357
    1C        C  261   4.487   3.734   4.480
    1C        C  262   4.417   3.935   4.600
    1C        C  263   4.472   3.805   4.601
    1C        C  264   4.396   4.008   4.719
    1C        C  265   4.430   3.943   4.839
    1C        C  266   4.317   4.130   4.954
    1C        C  267   4.383   4.008   4.955
    1C        C  268   4.260   2.768   2.064
    1C        C  269   4.189   2.729   2.179
    1C        C  270   4.339   2.889   2.296
    1C        C  271   4.244   2.783   2.297
    1C        C  272   4.380   2.949   2.417
    1C        C  273   4.336   2.891   2.538
    1C        C  274   4.447   3.073   2.656
    1C        C  275   4.378   2.950   2.660
    1C        C  276   4.468   3.144   2.776
    1C        C  277   4.443   3.082   2.901
    1C        C  278   4.503   3.286   3.022
    1C        C  279   4.473   3.148   3.023
    1C        C  280   4.509   3.357   3.143
    1C        C  281   4.496   3.291   3.268
    1C        C  282   4.515   3.505   3.386
    1C        C  283   4.502   3.365   3.388
    1C        C  284   4.515   3.578   3.508
    1C        C  285   4.510   3.511   3.632
    1C        C  286   4.495   3.725   3.749
    1C        C  287   4.513   3.585   3.753
    1C        C  288   4.471   3.790   3.872
    1C        C  289   4.487   3.724   3.996
    1C        C  290   4.426   3.932   4.112
    1C        C  291   4.472   3.798   4.115
    1C        C  292   4.398   3.998   4.233
    1C        C  293   4.422   3.934   4.357
    1C        C  294   4.316   4.121   4.477
    1C        C  295   4.387   3.999   4.478
    1C        C  296   4.278   4.186   4.596
    1C        C  297   4.326   4.132   4.717
    1C        C  298   4.193   4.309   4.835
    1C        C  299   4.281   4.196   4.836
    1C        C  300   4.165   4.397   4.944
    1C        C  301   4.346   2.876   2.059
    1C        C  302   4.462   3.067   2.175
    1C        C  303   4.387   2.945   2.175
    1C        C  304   4.478   3.141   2.295
    1C        C  305   4.446   3.074   2.415
    1C        C  306   4.509   3.279   2.535
    1C        C  307   4.473   3.142   2.535
    1C        C  308   4.514   3.350   2.656
    1C        C  309   4.503   3.281   2.779
    1C        C  310   4.520   3.495   2.897
    1C        C  311   4.517   3.354   2.899
    1C        C  312   4.509   3.568   3.018
    1C        C  313   4.509   3.499   3.141
    1C        C  314   4.484   3.711   3.264
    1C        C  315   4.507   3.572   3.262
    1C        C  316   4.470   3.785   3.384
    1C        C  317   4.492   3.717   3.506
    1C        C  318   4.422   3.921   3.623
    1C        C  319   4.478   3.792   3.625
    1C        C  320   4.389   3.985   3.745
    1C        C  321   4.419   3.922   3.868
    1C        C  322   4.316   4.111   3.988
    1C        C  323   4.390   3.991   3.988
    1C        C  324   4.273   4.166   4.111
    1C        C  325   4.315   4.112   4.234
    1C        C  326   4.178   4.278   4.350
    1C        C  327   4.276   4.177   4.353
    1C        C  328   4.133   4.337   4.470
    1C        C  329   4.185   4.293   4.594
    1C        C  330   4.022   4.438   4.709
    1C        C  331   4.133   4.350   4.713
    1C        C  332   3.967   4.491   4.828
    1C        C  333   4.047   4.473   4.941
    1C        C  334   4.553   3.264   2.061
    1C        C  335   4.533   3.126   2.066
    1C        C  336   4.539   3.347   2.173
    1C        C  337   4.519   3.278   2.294
    1C        C  338   4.522   3.493   2.413
    1C        C  339   4.523   3.352   2.414
    1C        C  340   4.514   3.564   2.535
    1C        C  341   4.516   3.492   2.656
    1C        C  342   4.493   3.707   2.774
    1C        C  343   4.516   3.567   2.776
    1C        C  344   4.471   3.778   2.894
    1C        C  345   4.485   3.707   3.015
    1C        C  346   4.415   3.904   3.136
    1C        C  347   4.467   3.773   3.138
    1C        C  348   4.383   3.974   3.255
    1C        C  349   4.418   3.916   3.379
    1C        C  350   4.312   4.102   3.500
    1C        C  351   4.386   3.982   3.500
    1C        C  352   4.269   4.161   3.621
    1C        C  353   4.315   4.104   3.743
    1C        C  354   4.174   4.265   3.861
    1C        C  355   4.274   4.164   3.864
    1C        C  356   4.120   4.315   3.982
    1C        C  357   4.171   4.264   4.103
    1C        C  358   4.007   4.397   4.225
    1C        C  359   4.122   4.316   4.225
    1C        C  360   3.949   4.440   4.347
    1C        C  361   4.017   4.416   4.469
    1C        C  362   3.825   4.519   4.588
    1C        C  363   3.956   4.465   4.587
    1C        C  364   3.757   4.548   4.708
    1C        C  365   3.837   4.545   4.824
    1C        C  366   3.626   4.591   4.946
    1C        C  367   3.764   4.571   4.941
    1C        C  368   4.511   3.560   2.052
    1C        C  369   4.528   3.488   2.171
    1C        C  370   4.492   3.702   2.286
    1C        C  371   4.517   3.563   2.290
    1C        C  372   4.474   3.772   2.407
    1C        C  373   4.485   3.702   2.529
    1C        C  374   4.421   3.904   2.648
    1C        C  375   4.473   3.773   2.651
    1C        C  376   4.386   3.967   2.769
    1C        C  377   4.420   3.910   2.894
    1C        C  378   4.307   4.090   3.010
    1C        C  379   4.383   3.971   3.016
    1C        C  380   4.263   4.146   3.132
    1C        C  381   4.306   4.092   3.255
    1C        C  382   4.175   4.259   3.372
    1C        C  383   4.270   4.155   3.376
    1C        C  384   4.118   4.307   3.492
    1C        C  385   4.173   4.265   3.615
    1C        C  386   4.000   4.383   3.737
    1C        C  387   4.120   4.308   3.738
    1C        C  388   3.942   4.426   3.858
    1C        C  389   4.003   4.394   3.981
    1C        C  390   3.814   4.487   4.105
    1C        C  391   3.945   4.433   4.104
    1C        C  392   3.748   4.510   4.227
    1C        C  393   3.820   4.497   4.348
    1C        C  394   3.615   4.559   4.472
    1C        C  395   3.754   4.532   4.467
    1C        C  396   3.542   4.572   4.593
    1C        C  397   3.618   4.571   4.712
    1C        C  398   3.407   4.544   4.837
    1C        C  399   3.547   4.567   4.834
    1C        C  400   3.338   4.509   4.954
    1C        C  401   4.502   3.699   2.049
    1C        C  402   4.447   3.911   2.163
    1C        C  403   4.488   3.775   2.166
    1C        C  404   4.408   3.975   2.282
    1C        C  405   4.429   3.907   2.403
    1C        C  406   4.326   4.092   2.525
    1C        C  407   4.397   3.970   2.525
    1C        C  408   4.272   4.144   2.645
    1C        C  409   4.309   4.086   2.768
    1C        C  410   4.171   4.252   2.887
    1C        C  411   4.266   4.147   2.888
    1C        C  412   4.118   4.300   3.008
    1C        C  413   4.170   4.253   3.131
    1C        C  414   3.998   4.380   3.248
    1C        C  415   4.118   4.306   3.251
    1C        C  416   3.938   4.416   3.371
    1C        C  417   3.999   4.382   3.494
    1C        C  418   3.807   4.476   3.615
    1C        C  419   3.936   4.419   3.615
    1C        C  420   3.742   4.502   3.738
    1C        C  421   3.812   4.482   3.858
    1C        C  422   3.609   4.534   3.987
    1C        C  423   3.747   4.506   3.982
    1C        C  424   3.538   4.537   4.109
    1C        C  425   3.609   4.536   4.231
    1C        C  426   3.399   4.542   4.353
    1C        C  427   3.540   4.556   4.353
    1C        C  428   3.328   4.546   4.475
    1C        C  429   3.401   4.560   4.595
    1C        C  430   3.193   4.516   4.721
    1C        C  431   3.332   4.547   4.718
    1C        C  432   3.122   4.488   4.842
    1C        C  433   3.201   4.482   4.957
    1C        C  434   4.383   4.121   2.046
    1C        C  435   4.442   3.994   2.050
    1C        C  436   4.301   4.157   2.158
    1C        C  437   4.326   4.092   2.281
    1C        C  438   4.176   4.241   2.400
    1C        C  439   4.283   4.149   2.403
    1C        C  440   4.121   4.291   2.520
    1C        C  441   4.172   4.244   2.643
    1C        C  442   4.003   4.376   2.761
    1C        C  443   4.120   4.297   2.763
    1C        C  444   3.938   4.409   2.882
    1C        C  445   4.001   4.380   3.005
    1C        C  446   3.804   4.466   3.126
    1C        C  447   3.935   4.412   3.125
    1C        C  448   3.740   4.487   3.250
    1C        C  449   3.807   4.469   3.372
    1C        C  450   3.601   4.524   3.493
    1C        C  451   3.740   4.497   3.493
    1C        C  452   3.533   4.534   3.617
    1C        C  453   3.603   4.530   3.739
    1C        C  454   3.397   4.549   3.862
    1C        C  455   3.538   4.541   3.865
    1C        C  456   3.329   4.531   3.984
    1C        C  457   3.397   4.534   4.108
    1C        C  458   3.190   4.502   4.237
    1C        C  459   3.329   4.528   4.232
    1C        C  460   3.121   4.486   4.359
    1C        C  461   3.190   4.514   4.479
    1C        C  462   2.996   4.430   4.600
    1C        C  463   3.122   4.494   4.601
    1C        C  464   2.931   4.396   4.721
    1C        C  465   2.987   4.442   4.843
    1C        C  466   2.800   4.332   4.958
    1C        C  467   2.901   4.428   4.957
    1C        C  468   4.119   4.284   2.040
    1C        C  469   4.186   4.242   2.157
    1C        C  470   4.003   4.361   2.275
    1C        C  471   4.124   4.287   2.277
    1C        C  472   3.941   4.404   2.394
    1C        C  473   4.005   4.372   2.515
    1C        C  474   3.811   4.460   2.639
    1C        C  475   3.940   4.404   2.637
    1C        C  476   3.742   4.490   2.759
    1C        C  477   3.809   4.466   2.881
    1C        C  478   3.601   4.517   3.004
    1C        C  479   3.739   4.488   3.002
    1C        C  480   3.533   4.527   3.128
    1C        C  481   3.602   4.517   3.251
    1C        C  482   3.388   4.534   3.374
    1C        C  483   3.530   4.533   3.371
    1C        C  484   3.322   4.532   3.499
    1C        C  485   3.392   4.543   3.620
    1C        C  486   3.185   4.506   3.742
    1C        C  487   3.322   4.543   3.743
    1C        C  488   3.125   4.479   3.867
    1C        C  489   3.192   4.495   3.990
    1C        C  490   3.000   4.414   4.115
    1C        C  491   3.126   4.477   4.113
    1C        C  492   2.938   4.381   4.238
    1C        C  493   2.994   4.425   4.360
    1C        C  494   2.824   4.297   4.481
    1C        C  495   2.933   4.388   4.482
    1C        C  496   2.778   4.247   4.604
    1C        C  497   2.818   4.309   4.725
    1C        C  498   2.663   4.160   4.843
    1C        C  499   2.748   4.273   4.842
    1C        C  500   2.595   4.111   4.955
    1C        C  501   4.003   4.359   2.037
    1C        C  502   3.815   4.465   2.153
    1C        C  503   3.941   4.403   2.155
    1C        C  504   3.742   4.484   2.273
    1C        C  505   3.810   4.458   2.394
    1C        C  506   3.603   4.497   2.515
    1C        C  507   3.743   4.479   2.517
    1C        C  508   3.531   4.508   2.637
    1C        C  509   3.603   4.513   2.758
    1C        C  510   3.392   4.526   2.882
    1C        C  511   3.533   4.524   2.881
    1C        C  512   3.321   4.520   3.004
    1C        C  513   3.392   4.527   3.126
    1C        C  514   3.184   4.494   3.250
    1C        C  515   3.322   4.526   3.249
    1C        C  516   3.119   4.470   3.373
    1C        C  517   3.185   4.496   3.495
    1C        C  518   2.999   4.405   3.623
    1C        C  519   3.123   4.474   3.619
    1C        C  520   2.942   4.370   3.747
    1C        C  521   3.002   4.409   3.869
    1C        C  522   2.841   4.274   3.994
    1C        C  523   2.946   4.369   3.992
    1C        C  524   2.783   4.235   4.117
    1C        C  525   2.828   4.293   4.238
    1C        C  526   2.689   4.131   4.360
    1C        C  527   2.773   4.245   4.360
    1C        C  528   2.650   4.074   4.483
    1C        C  529   2.685   4.141   4.603
    1C        C  530   2.585   3.955   4.728
    1C        C  531   2.641   4.086   4.725
    1C        C  532   2.540   3.897   4.850
    1C        C  533   2.525   3.990   4.958
    1C        C  534   3.617   4.555   2.036
    1C        C  535   3.748   4.504   2.037
    1C        C  536   3.533   4.534   2.150
    1C        C  537   3.604   4.520   2.272
    1C        C  538   3.392   4.512   2.397
    1C        C  539   3.533   4.513   2.394
    1C        C  540   3.317   4.514   2.517
    1C        C  541   3.390   4.517   2.639
    1C        C  542   3.183   4.479   2.760
    1C        C  543   3.320   4.514   2.761
    1C        C  544   3.120   4.456   2.885
    1C        C  545   3.184   4.483   3.007
    1C        C  546   2.991   4.399   3.133
    1C        C  547   3.116   4.466   3.129
    1C        C  548   2.938   4.361   3.257
    1C        C  549   2.994   4.403   3.379
    1C        C  550   2.830   4.272   3.501
    1C        C  551   2.936   4.365   3.503
    1C        C  552   2.783   4.225   3.626
    1C        C  553   2.833   4.280   3.746
    1C        C  554   2.700   4.120   3.874
    1C        C  555   2.789   4.230   3.871
    1C        C  556   2.660   4.062   3.997
    1C        C  557   2.700   4.121   4.119
    1C        C  558   2.591   3.939   4.243
    1C        C  559   2.658   4.064   4.240
    1C        C  560   2.567   3.877   4.368
    1C        C  561   2.590   3.946   4.489
    1C        C  562   2.524   3.745   4.612
    1C        C  563   2.556   3.882   4.611
    1C        C  564   2.514   3.676   4.736
    1C        C  565   2.518   3.755   4.854
    1C        C  566   2.526   3.543   4.977
    1C        C  567   2.515   3.682   4.973
    1C        C  568   3.324   4.480   2.037
    1C        C  569   3.392   4.517   2.155
    1C        C  570   3.181   4.473   2.277
    1C        C  571   3.319   4.509   2.276
    1C        C  572   3.112   4.455   2.398
    1C        C  573   3.180   4.481   2.519
    1C        C  574   2.982   4.401   2.643
    1C        C  575   3.110   4.459   2.640
    1C        C  576   2.926   4.364   2.767
    1C        C  577   2.990   4.400   2.888
    1C        C  578   2.827   4.267   3.009
    1C        C  579   2.931   4.363   3.010
    1C        C  580   2.782   4.217   3.133
    1C        C  581   2.830   4.269   3.256
    1C        C  582   2.698   4.106   3.381
    1C        C  583   2.780   4.221   3.379
    1C        C  584   2.660   4.052   3.506
    1C        C  585   2.700   4.112   3.628
    1C        C  586   2.591   3.936   3.752
    1C        C  587   2.659   4.060   3.753
    1C        C  588   2.570   3.871   3.876
    1C        C  589   2.602   3.933   3.999
    1C        C  590   2.528   3.736   4.125
    1C        C  591   2.568   3.872   4.121
    1C        C  592   2.512   3.669   4.248
    1C        C  593   2.528   3.742   4.369
    1C        C  594   2.511   3.532   4.494
    1C        C  595   2.514   3.673   4.491
    1C        C  596   2.520   3.463   4.617
    1C        C  597   2.517   3.534   4.739
    1C        C  598   2.530   3.323   4.860
    1C        C  599   2.522   3.464   4.861
    1C        C  600   2.530   3.244   4.976
    1C        C  601   3.191   4.443   2.040
    1C        C  602   2.979   4.390   2.156
    1C        C  603   3.114   4.438   2.156
    1C        C  604   2.921   4.353   2.280
    1C        C  605   2.986   4.391   2.400
    1C        C  606   2.818   4.264   2.526
    1C        C  607   2.921   4.361   2.522
    1C        C  608   2.768   4.214   2.648
    1C        C  609   2.818   4.273   2.767
    1C        C  610   2.685   4.107   2.892
    1C        C  611   2.772   4.218   2.889
    1C        C  612   2.649   4.048   3.015
    1C        C  613   2.691   4.108   3.136
    1C        C  614   2.584   3.927   3.260
    1C        C  615   2.653   4.050   3.259
    1C        C  616   2.568   3.863   3.385
    1C        C  617   2.596   3.926   3.508
    1C        C  618   2.527   3.731   3.633
    1C        C  619   2.563   3.867   3.632
    1C        C  620   2.518   3.664   3.758
    1C        C  621   2.531   3.735   3.879
    1C        C  622   2.506   3.526   4.004
    1C        C  623   2.518   3.667   4.002
    1C        C  624   2.510   3.458   4.128
    1C        C  625   2.508   3.528   4.250
    1C        C  626   2.535   3.320   4.376
    1C        C  627   2.510   3.459   4.373
    1C        C  628   2.556   3.253   4.499
    1C        C  629   2.536   3.322   4.620
    1C        C  630   2.592   3.115   4.739
    1C        C  631   2.549   3.250   4.741
    1C        C  632   2.612   3.043   4.860
    1C        C  633   2.563   3.108   4.978
    1C        C  634   2.776   4.301   2.052
    1C        C  635   2.889   4.383   2.045
    1C        C  636   2.741   4.229   2.167
    1C        C  637   2.806   4.270   2.285
    1C        C  638   2.669   4.108   2.407
    1C        C  639   2.758   4.219   2.407
    1C        C  640   2.639   4.045   2.530
    1C        C  641   2.685   4.099   2.651
    1C        C  642   2.577   3.917   2.773
    1C        C  643   2.647   4.040   2.774
    1C        C  644   2.559   3.851   2.897
    1C        C  645   2.588   3.920   3.016
    1C        C  646   2.522   3.722   3.145
    1C        C  647   2.558   3.858   3.139
    1C        C  648   2.513   3.656   3.270
    1C        C  649   2.526   3.728   3.391
    1C        C  650   2.508   3.517   3.514
    1C        C  651   2.511   3.659   3.513
    1C        C  652   2.507   3.451   3.639
    1C        C  653   2.505   3.524   3.760
    1C        C  654   2.534   3.314   3.887
    1C        C  655   2.509   3.453   3.883
    1C        C  656   2.546   3.247   4.010
    1C        C  657   2.532   3.318   4.131
    1C        C  658   2.599   3.118   4.255
    1C        C  659   2.553   3.251   4.254
    1C        C  660   2.633   3.054   4.377
    1C        C  661   2.602   3.120   4.498
    1C        C  662   2.710   2.934   4.621
    1C        C  663   2.633   3.053   4.619
    1C        C  664   2.746   2.872   4.743
    1C        C  665   2.692   2.925   4.863
    1C        C  666   2.737   2.868   4.983
    1C        C  667   2.675   4.019   2.050
    1C        C  668   2.685   4.099   2.165
    1C        C  669   2.583   3.912   2.290
    1C        C  670   2.638   4.043   2.286
    1C        C  671   2.553   3.846   2.411
    1C        C  672   2.583   3.915   2.531
    1C        C  673   2.512   3.714   2.653
    1C        C  674   2.549   3.850   2.652
    1C        C  675   2.506   3.646   2.777
    1C        C  676   2.524   3.714   2.899
    1C        C  677   2.496   3.509   3.028
    1C        C  678   2.507   3.650   3.024
    1C        C  679   2.505   3.440   3.151
    1C        C  680   2.505   3.515   3.271
    1C        C  681   2.526   3.305   3.397
    1C        C  682   2.505   3.444   3.393
    1C        C  683   2.549   3.240   3.521
    1C        C  684   2.534   3.312   3.641
    1C        C  685   2.604   3.114   3.769
    1C        C  686   2.555   3.247   3.764
    1C        C  687   2.635   3.050   3.891
    1C        C  688   2.599   3.116   4.011
    1C        C  689   2.713   2.939   4.137
    1C        C  690   2.629   3.052   4.134
    1C        C  691   2.757   2.881   4.258
    1C        C  692   2.712   2.937   4.380
    1C        C  693   2.748   2.872   4.500
    1C        C  694   2.630   3.886   2.055
    1C        C  695   2.525   3.702   2.174
    1C        C  696   2.581   3.832   2.175
    1C        C  697   2.501   3.635   2.296
    1C        C  698   2.510   3.712   2.414
    1C        C  699   2.479   3.499   2.539
    1C        C  700   2.494   3.639   2.534
    1C        C  701   2.500   3.433   2.662
    1C        C  702   2.504   3.505   2.783
    1C        C  703   2.524   3.297   2.908
    1C        C  704   2.501   3.436   2.907
    1C        C  705   2.542   3.230   3.031
    1C        C  706   2.528   3.301   3.152
    1C        C  707   2.593   3.103   3.276
    1C        C  708   2.538   3.233   3.276
    1C        C  709   2.627   3.044   3.400
    1C        C  710   2.601   3.109   3.522
    1C        C  711   2.708   2.931   3.647
    1C        C  712   2.631   3.049   3.647
    1C        C  713   2.757   2.877   3.769
    1C        C  714   2.714   2.933   3.891
    1C        C  715   2.758   2.882   4.015
    1C        C  716   2.441   3.497   2.063
    1C        C  717   2.485   3.630   2.061
    1C        C  718   2.462   3.417   2.181
    1C        C  719   2.475   3.495   2.299
    1C        C  720   2.513   3.286   2.422
    1C        C  721   2.477   3.422   2.420
    1C        C  722   2.539   3.220   2.545
    1C        C  723   2.527   3.295   2.665
    1C        C  724   2.586   3.092   2.789
    1C        C  725   2.543   3.227   2.787
    1C        C  726   2.623   3.031   2.911
    1C        C  727   2.595   3.098   3.032
    1C        C  728   2.707   2.921   3.157
    1C        C  729   2.630   3.040   3.155
    1C        C  730   2.756   2.877   3.282
    1C        C  731   2.708   2.928   3.405
    1C        C  732   2.756   2.874   3.527
    1C        C  733   2.478   3.192   2.068
    1C        C  734   2.484   3.276   2.180
    1C        C  735   2.588   3.087   2.300
    1C        C  736   2.523   3.213   2.301
    1C        C  737   2.620   3.024   2.423
    1C        C  738   2.588   3.088   2.544
    1C        C  739   2.696   2.908   2.666
    1C        C  740   2.620   3.027   2.668
    1C        C  741   2.737   2.851   2.789
    1C        C  742   2.702   2.914   2.910
    1C        C  743   2.746   2.863   3.035
    1C        C  744   2.546   3.071   2.070
    1C        C  745   2.688   2.897   2.181
    1C        C  746   2.613   3.016   2.180
    1C        C  747   2.728   2.839   2.303
    1C        C  748   2.687   2.900   2.424
    1C        C  749   2.738   2.847   2.545
    1C        C  750   2.738   2.834   2.066
    1C        C  751   3.648   2.287   1.998
    1C        O  752   3.668   2.181   2.063
    1C        O  753   3.623   2.263   1.863
    1C        C  754   4.621   3.048   1.976
    1C        O  755   4.616   3.068   1.852
    1C        O  756   4.722   2.969   2.033
    1C        C  757   4.433   4.216   1.944
    1C        O  758   4.514   4.306   1.977
    1C        O  759   4.370   4.239   1.821
    1C        C  760   3.593   4.668   1.944
    1C        O  761   3.612   4.790   1.968
    1C        O  762   3.560   4.654   1.808
    1C        C  763   2.877   4.482   1.935
    1C        O  764   2.906   4.451   1.816
    1C        O  765   2.777   4.579   1.939
    1C        C  766   2.324   3.473   1.977
    1C        O  767   2.334   3.423   1.861
    1C        O  768   2.193   3.460   2.026
    1C        C  769   4.664   3.580   5.073
    1C        O  770   4.617   3.558   5.187
    1C        O  771   4.801   3.613   5.070
    1C        C  772   4.277   4.474   5.004
    1C        O  773   4.321   4.471   5.122
    1C        O  774   4.398   4.481   4.935
    1C        C  775   4.137   2.534   5.079
    1C        O  776   4.200   2.426   5.065
    1C        O  777   4.125   2.569   5.214
    1C        C  778   2.892   4.531   5.063
    1C        O  779   2.881   4.654   5.035
    1C        O  780   2.963   4.497   5.179
    1C        C  781   2.479   3.037   5.078
    1C        O  782   2.411   2.936   5.043
    1C        O  783   2.517   3.052   5.211
    1C        C  784   2.390   3.992   5.018
    1C        O  785   2.291   4.029   4.949
    1C        O  786   2.369   3.973   5.155
    1C        C  787   2.932   2.420   2.020
    1C        O  788   2.897   2.441   1.901
    1C        O  789   2.924   2.287   2.059
    1C        C  790   3.165   2.364   5.053
    1C        O  791   3.193   2.252   5.001
    1C        O  792   3.160   2.379   5.192
    1C        H  793   4.282   3.016   5.061
    1C        H  794   4.160   2.819   5.062
    1C        H  795   4.454   3.140   5.065
    1C        H  796   4.561   3.353   5.052
    1C        H  797   4.538   3.795   5.046
    1C        H  798   4.343   3.938   5.026
    1C        H  799   4.304   4.179   5.049
    1C        H  800   4.014   4.507   5.037
    1C        H  801   3.813   4.604   5.030
    1C        H  802   3.590   4.657   5.023
    1C        H  803   3.391   4.487   5.044
    1C        H  804   3.173   4.425   5.043
    1C        H  805   3.882   2.505   5.075
    1C        H  806   3.661   2.400   5.045
    1C        H  807   2.996   2.554   5.061
    1C        H  808   3.433   2.473   5.071
    1C        H  809   2.877   2.737   5.077
    1C        H  810   2.747   2.935   5.066
    1C        H  811   2.497   3.295   5.065
    1C        H  812   2.569   3.512   5.069
    1C        H  813   2.501   3.728   5.069
    1C        H  814   2.648   4.115   5.048
    1C        H  815   2.785   4.279   5.050
    1C        H  816   2.728   2.885   1.972
    1C        H  817   2.851   2.679   1.974
    1C        H  818   3.193   2.387   2.004
    1C        H  819   3.425   2.423   1.974
    1C        H  820   3.834   2.553   1.974
    1C        H  821   4.064   2.611   1.963
    1C        H  822   4.269   2.693   1.988
    1C        H  823   4.410   2.883   1.973
    1C        H  824   4.607   3.309   1.980
    1C        H  825   4.536   3.513   1.959
    1C        H  826   4.494   3.751   1.956
    1C        H  827   3.797   4.511   1.942
    1C        H  828   3.961   4.388   1.943
    1C        H  829   4.141   4.232   1.949
    1C        H  830   4.488   3.962   1.959
    1C        H  831   2.661   3.830   1.970
    1C        H  832   2.685   4.067   1.955
    1C        H  833   2.718   4.289   1.963
    1C        H  834   3.353   4.531   1.948
    1C        H  835   3.142   4.423   1.947
    1C        H  836   2.509   3.006   1.992
    1C        H  837   2.404   3.218   1.995
    1C        H  838   2.449   3.693   1.981
    2V3OU   H29  839   2.802   3.548   1.077
    2V3OU   C27  840   2.775   3.499   1.174
    2V3OU   H27  841   2.720   3.571   1.241
    2V3OU   H28  842   2.722   3.403   1.152
    2V3OU   O11  843   2.904   3.464   1.223
    2V3OU   C15  844   2.921   3.393   1.340
    2V3OU   C13  845   3.050   3.372   1.393
    2V3OU   C14  846   3.073   3.266   1.482
    2V3OU   C16  847   2.969   3.187   1.530
    2V3OU    H6  848   2.990   3.100   1.594
    2V3OU   C12  849   3.213   3.224   1.507
    2V3OU    O2  850   3.235   3.126   1.581
    2V3OU   C10  851   3.324   3.306   1.457
    2V3OU    C8  852   3.456   3.270   1.481
    2V3OU   O10  853   3.484   3.148   1.534
    2V3OU   H26  854   3.401   3.122   1.576
    2V3OU    C6  855   3.566   3.343   1.425
    2V3OU    C5  856   3.536   3.462   1.359
    2V3OU    C4  857   3.704   3.287   1.424
    2V3OU    H4  858   3.721   3.217   1.511
    2V3OU    H5  859   3.708   3.221   1.332
    2V3OU    C2  860   3.813   3.393   1.415
    2V3OU    O6  861   3.802   3.468   1.537
    2V3OU   H21  862   3.761   3.552   1.511
    2V3OU    C3  863   3.778   3.488   1.300
    2V3OU    H2  864   3.857   3.567   1.294
    2V3OU    H3  865   3.783   3.437   1.200
    2V3OU   C25  866   3.943   3.319   1.386
    2V3OU    O7  867   3.987   3.295   1.274
    2V3OU   C26  868   4.026   3.284   1.509
    2V3OU   H22  869   4.056   3.382   1.555
    2V3OU   H23  870   4.115   3.224   1.480
    2V3OU    O8  871   3.963   3.201   1.605
    2V3OU   H24  872   3.925   3.263   1.669
    2V3OU    C1  873   3.645   3.557   1.320
    2V3OU    H1  874   3.622   3.614   1.224
    2V3OU    O3  875   3.652   3.653   1.425
    2V3OU   C19  876   3.619   3.793   1.420
    2V3OU    H9  877   3.517   3.800   1.371
    2V3OU    O4  878   3.716   3.848   1.334
    2V3OU   C20  879   3.846   3.874   1.389
    2V3OU   H10  880   3.889   3.771   1.407
    2V3OU   C24  881   3.606   3.854   1.560
    2V3OU   H16  882   3.544   3.790   1.627
    2V3OU   H17  883   3.561   3.956   1.556
    2V3OU   C23  884   3.746   3.876   1.618
    2V3OU   H15  885   3.788   3.773   1.640
    2V3OU    N1  886   3.731   3.961   1.735
    2V3OU   H19  887   3.802   3.928   1.796
    2V3OU   H20  888   3.648   3.934   1.784
    2V3OU   C21  889   3.846   3.947   1.523
    2V3OU   H11  890   3.950   3.931   1.564
    2V3OU    O5  891   3.828   4.088   1.525
    2V3OU   H18  892   3.780   4.106   1.607
    2V3OU   C22  893   3.910   3.946   1.271
    2V3OU   H12  894   3.863   4.047   1.259
    2V3OU   H13  895   3.904   3.883   1.179
    2V3OU   H14  896   4.020   3.957   1.291
    2V3OU   C11  897   3.157   3.468   1.363
    2V3OU    O1  898   3.128   3.588   1.343
    2V3OU    C9  899   3.297   3.422   1.380
    2V3OU    C7  900   3.401   3.503   1.335
    2V3OU    O9  901   3.383   3.613   1.254
    2V3OU   H25  902   3.287   3.627   1.253
    2V3OU   C17  903   2.818   3.309   1.388
    2V3OU    H7  904   2.721   3.349   1.359
    2V3OU   C18  905   2.839   3.213   1.486
    2V3OU    H8  906   2.759   3.143   1.513
    3SOL     OW  907   0.485   3.672   0.903
    3SOL    HW1  908   0.415   3.686   0.834
    3SOL    HW2  909   0.558   3.739   0.892
    4SOL     OW  910   5.392   1.129   2.480
    4SOL    HW1  911   5.427   1.223   2.474
    4SOL    HW2  912   5.461   1.066   2.446
    5SOL     OW  913   3.842   3.108   1.053
    5SOL    HW1  914   3.931   3.148   1.032
    5SOL    HW2  915   3.851   3.046   1.132
    6SOL     OW  916   2.407   2.488   0.737
    6SOL    HW1  917   2.453   2.414   0.689
    6SOL    HW2  918   2.404   2.468   0.835
    7SOL     OW  919   5.956   1.170   1.510
    7SOL    HW1  920   5.939   1.268   1.503
    7SOL    HW2  921   5.965   1.132   1.418
    8SOL     OW  922   2.901   2.238   3.566
    8SOL    HW1  923   2.976   2.212   3.506
    8SOL    HW2  924   2.936   2.255   3.658
    9SOL     OW  925   0.589   4.017   5.808
    9SOL    HW1  926   0.645   4.070   5.872
    9SOL    HW2  927   0.551   3.937   5.856
   10SOL     OW  928   0.482   4.018   0.727
   10SOL    HW1  929   0.382   4.020   0.717
   10SOL    HW2  930   0.524   4.034   0.638
   11SOL     OW  931   3.970   6.478   6.909
   11SOL    HW1  932   4.048   6.420   6.884
   11SOL    HW2  933   3.910   6.490   6.829
   12SOL     OW  934   5.315   6.273   2.486
   12SOL    HW1  935   5.387   6.343   2.489
   12SOL    HW2  936   5.285   6.252   2.579
   13SOL     OW  937   1.396   0.007   3.825
   13SOL    HW1  938   1.300   0.013   3.853
   13SOL    HW2  939   1.453   0.057   3.890
   14SOL     OW  940   2.880   0.115   2.681
   14SOL    HW1  941   2.886   0.017   2.699
   14SOL    HW2  942   2.854   0.163   2.765
   15SOL     OW  943   2.514   6.519   6.267
   15SOL    HW1  944   2.487   6.555   6.357
   15SOL    HW2  945   2.592   6.570   6.233
   16SOL     OW  946   6.740   1.917   6.724
   16SOL    HW1  947   6.686   1.848   6.772
   16SOL    HW2  948   6.738   2.003   6.776
   17SOL     OW  949   4.588   6.258   3.307
   17SOL    HW1  950   4.681   6.268   3.341
   17SOL    HW2  951   4.544   6.348   3.304
   18SOL     OW  952   1.693   1.187   0.122
   18SOL    HW1  953   1.783   1.217   0.090
   18SOL    HW2  954   1.673   1.097   0.085
   19SOL     OW  955   0.825   6.983   1.636
   19SOL    HW1  956   0.832   6.884   1.624
   19SOL    HW2  957   0.896   0.011   1.582
   20SOL     OW  958   3.510   0.803   4.189
   20SOL    HW1  959   3.590   0.771   4.241
   20SOL    HW2  960   3.442   0.839   4.252
   21SOL     OW  961   2.770   2.819   1.628
   21SOL    HW1  962   2.729   2.902   1.666
   21SOL    HW2  963   2.869   2.822   1.641
   22SOL     OW  964   0.909   1.398   5.021
   22SOL    HW1  965   0.835   1.370   4.960
   22SOL    HW2  966   0.874   1.463   5.088
   23SOL     OW  967   3.198   5.735   4.755
   23SOL    HW1  968   3.243   5.647   4.773
   23SOL    HW2  969   3.266   5.809   4.759
   24SOL     OW  970   3.954   1.115   4.619
   24SOL    HW1  971   3.943   1.170   4.536
   24SOL    HW2  972   3.977   1.175   4.696
   25SOL     OW  973   2.639   4.652   1.254
   25SOL    HW1  974   2.673   4.572   1.204
   25SOL    HW2  975   2.691   4.665   1.338
   26SOL     OW  976   5.975   1.151   3.160
   26SOL    HW1  977   6.061   1.173   3.114
   26SOL    HW2  978   5.972   1.053   3.179
   27SOL     OW  979   6.228   6.603   1.871
   27SOL    HW1  980   6.238   6.575   1.776
   27SOL    HW2  981   6.317   6.607   1.915
   28SOL     OW  982   3.403   0.755   0.729
   28SOL    HW1  983   3.414   0.827   0.659
   28SOL    HW2  984   3.480   0.692   0.723
   29SOL     OW  985   3.906   2.856   1.517
   29SOL    HW1  986   3.934   2.773   1.566
   29SOL    HW2  987   3.810   2.849   1.492
   30SOL     OW  988   4.094   1.255   4.799
   30SOL    HW1  989   4.131   1.215   4.882
   30SOL    HW2  990   4.153   1.330   4.768
   31SOL     OW  991   0.649   1.161   5.055
   31SOL    HW1  992   0.640   1.225   4.979
   31SOL    HW2  993   0.671   1.070   5.019
   32SOL     OW  994   0.100   1.655   2.021
   32SOL    HW1  995   0.147   1.613   1.944
   32SOL    HW2  996   0.002   1.635   2.016
   33SOL     OW  997   1.890   2.104   5.099
   33SOL    HW1  998   1.920   2.090   5.193
   33SOL    HW2  999   1.811   2.045   5.080
   34SOL     OW 1000   1.079   0.489   4.660
   34SOL    HW1 1001   1.055   0.585   4.641
   34SOL    HW2 1002   0.999   0.442   4.697
   35SOL     OW 1003   3.795   1.851   6.317
   35SOL    HW1 1004   3.871   1.846   6.381
   35SOL    HW2 1005   3.728   1.917   6.349
   36SOL     OW 1006   1.425   1.740   5.683
   36SOL    HW1 1007   1.434   1.649   5.642
   36SOL    HW2 1008   1.388   1.803   5.615
   37SOL     OW 1009   2.264   6.593   0.594
   37SOL    HW1 1010   2.341   6.593   0.658
   37SOL    HW2 1011   2.178   6.599   0.646
   38SOL     OW 1012   0.105   6.501   1.892
   38SOL    HW1 1013   0.104   6.490   1.991
   38SOL    HW2 1014   0.145   6.419   1.850
   39SOL     OW 1015   0.007   2.853   5.890
   39SOL    HW1 1016   0.074   2.901   5.948
   39SOL    HW2 1017   6.948   2.914   5.871
   40SOL     OW 1018   6.715   0.797   1.291
   40SOL    HW1 1019   6.797   0.757   1.332
   40SOL    HW2 1020   6.652   0.724   1.264
   41SOL     OW 1021   1.646   0.706   5.826
   41SOL    HW1 1022   1.672   0.610   5.826
   41SOL    HW2 1023   1.560   0.717   5.876
   42SOL     OW 1024   3.985   0.262   0.814
   42SOL    HW1 1025   4.036   0.183   0.848
   42SOL    HW2 1026   4.012   0.280   0.719
   43SOL     OW 1027   5.134   5.759   4.966
   43SOL    HW1 1028   5.040   5.767   4.931
   43SOL    HW2 1029   5.134   5.701   5.047
   44SOL     OW 1030   0.467   3.326   6.774
   44SOL    HW1 1031   0.452   3.357   6.680
   44SOL    HW2 1032   0.559   3.289   6.783
   45SOL     OW 1033   2.619   0.576   1.679
   45SOL    HW1 1034   2.682   0.518   1.731
   45SOL    HW2 1035   2.596   0.532   1.593
   46SOL     OW 1036   1.403   4.902   3.949
   46SOL    HW1 1037   1.388   4.965   4.024
   46SOL    HW2 1038   1.501   4.897   3.929
   47SOL     OW 1039   5.568   4.585   3.055
   47SOL    HW1 1040   5.469   4.573   3.053
   47SOL    HW2 1041   5.602   4.561   3.146
   48SOL     OW 1042   0.764   1.469   5.718
   48SOL    HW1 1043   0.722   1.384   5.750
   48SOL    HW2 1044   0.748   1.479   5.620
   49SOL     OW 1045   5.477   2.714   0.657
   49SOL    HW1 1046   5.472   2.652   0.736
   49SOL    HW2 1047   5.499   2.806   0.689
   50SOL     OW 1048   0.285   3.823   4.538
   50SOL    HW1 1049   0.300   3.808   4.441
   50SOL    HW2 1050   0.223   3.753   4.574
   51SOL     OW 1051   2.946   5.608   2.839
   51SOL    HW1 1052   2.895   5.523   2.827
   51SOL    HW2 1053   2.952   5.656   2.751
   52SOL     OW 1054   0.972   2.186   1.615
   52SOL    HW1 1055   1.056   2.172   1.563
   52SOL    HW2 1056   0.905   2.116   1.589
   53SOL     OW 1057   4.871   6.354   4.404
   53SOL    HW1 1058   4.859   6.279   4.339
   53SOL    HW2 1059   4.822   6.435   4.371
   54SOL     OW 1060   4.549   5.643   6.021
   54SOL    HW1 1061   4.454   5.674   6.030
   54SOL    HW2 1062   4.599   5.704   5.960
   55SOL     OW 1063   3.661   2.474   0.717
   55SOL    HW1 1064   3.615   2.385   0.706
   55SOL    HW2 1065   3.594   2.547   0.708
   56SOL     OW 1066   0.365   6.634   1.406
   56SOL    HW1 1067   0.382   6.702   1.477
   56SOL    HW2 1068   0.267   6.615   1.401
   57SOL     OW 1069   5.936   1.432   0.933
   57SOL    HW1 1070   6.026   1.396   0.959
   57SOL    HW2 1071   5.933   1.530   0.953
   58SOL     OW 1072   0.030   6.943   6.424
   58SOL    HW1 1073   6.948   6.948   6.429
   58SOL    HW2 1074   0.066   6.923   6.515
   59SOL     OW 1075   0.683   0.166   5.098
   59SOL    HW1 1076   0.637   0.108   5.030
   59SOL    HW2 1077   0.688   0.260   5.064
   60SOL     OW 1078   4.900   6.695   4.880
   60SOL    HW1 1079   4.897   6.633   4.958
   60SOL    HW2 1080   4.812   6.693   4.833
   61SOL     OW 1081   4.116   0.243   5.087
   61SOL    HW1 1082   4.046   0.303   5.127
   61SOL    HW2 1083   4.078   0.194   5.009
   62SOL     OW 1084   2.982   1.358   5.089
   62SOL    HW1 1085   2.891   1.399   5.087
   62SOL    HW2 1086   2.975   1.260   5.074
   63SOL     OW 1087   0.155   3.410   3.252
   63SOL    HW1 1088   0.161   3.319   3.293
   63SOL    HW2 1089   0.247   3.452   3.250
   64SOL     OW 1090   6.825   2.532   5.368
   64SOL    HW1 1091   6.842   2.579   5.455
   64SOL    HW2 1092   6.743   2.570   5.326
   65SOL     OW 1093   0.200   3.385   5.859
   65SOL    HW1 1094   0.178   3.325   5.782
   65SOL    HW2 1095   0.291   3.364   5.893
   66SOL     OW 1096   2.565   1.052   0.947
   66SOL    HW1 1097   2.613   1.103   1.018
   66SOL    HW2 1098   2.631   1.002   0.891
   67SOL     OW 1099   4.696   5.771   3.905
   67SOL    HW1 1100   4.749   5.808   3.981
   67SOL    HW2 1101   4.747   5.695   3.864
   68SOL     OW 1102   5.422   2.979   6.387
   68SOL    HW1 1103   5.483   2.967   6.466
   68SOL    HW2 1104   5.353   3.048   6.409
   69SOL     OW 1105   2.406   2.802   5.709
   69SOL    HW1 1106   2.407   2.703   5.698
   69SOL    HW2 1107   2.433   2.826   5.803
   70SOL     OW 1108   6.444   6.187   1.884
   70SOL    HW1 1109   6.518   6.216   1.944
   70SOL    HW2 1110   6.358   6.227   1.916
   71SOL     OW 1111   2.168   3.263   3.144
   71SOL    HW1 1112   2.105   3.190   3.119
   71SOL    HW2 1113   2.124   3.352   3.130
   72SOL     OW 1114   3.029   5.520   3.907
   72SOL    HW1 1115   3.080   5.599   3.941
   72SOL    HW2 1116   3.001   5.536   3.813
   73SOL     OW 1117   4.068   2.492   6.428
   73SOL    HW1 1118   4.020   2.500   6.515
   73SOL    HW2 1119   4.017   2.430   6.368
   74SOL     OW 1120   5.295   6.315   6.011
   74SOL    HW1 1121   5.315   6.354   6.100
   74SOL    HW2 1122   5.296   6.387   5.941
   75SOL     OW 1123   3.894   4.861   5.114
   75SOL    HW1 1124   3.914   4.843   5.018
   75SOL    HW2 1125   3.800   4.895   5.123
   76SOL     OW 1126   2.646   3.072   1.220
   76SOL    HW1 1127   2.617   2.988   1.265
   76SOL    HW2 1128   2.574   3.140   1.226
   77SOL     OW 1129   5.319   4.967   6.184
   77SOL    HW1 1130   5.366   4.880   6.171
   77SOL    HW2 1131   5.264   4.963   6.267
   78SOL     OW 1132   6.939   6.655   6.006
   78SOL    HW1 1133   6.958   6.605   6.090
   78SOL    HW2 1134   6.985   6.744   6.009
   79SOL     OW 1135   3.336   6.822   0.205
   79SOL    HW1 1136   3.421   6.822   0.257
   79SOL    HW2 1137   3.258   6.833   0.267
   80SOL     OW 1138   6.962   1.220   4.098
   80SOL    HW1 1139   6.945   1.204   4.196
   80SOL    HW2 1140   0.041   1.236   4.083
   81SOL     OW 1141   1.385   0.244   4.203
   81SOL    HW1 1142   1.305   0.197   4.240
   81SOL    HW2 1143   1.375   0.343   4.220
   82SOL     OW 1144   0.017   4.398   5.613
   82SOL    HW1 1145   6.999   4.312   5.578
   82SOL    HW2 1146   0.002   4.470   5.545
   83SOL     OW 1147   6.709   0.031   6.612
   83SOL    HW1 1148   6.731   6.995   6.693
   83SOL    HW2 1149   6.776   0.105   6.602
   84SOL     OW 1150   6.031   3.388   1.575
   84SOL    HW1 1151   6.063   3.478   1.605
   84SOL    HW2 1152   6.091   3.317   1.613
   85SOL     OW 1153   0.868   1.612   5.292
   85SOL    HW1 1154   0.919   1.687   5.333
   85SOL    HW2 1155   0.797   1.649   5.231
   86SOL     OW 1156   1.834   1.062   4.994
   86SOL    HW1 1157   1.786   1.149   4.992
   86SOL    HW2 1158   1.799   1.006   5.069
   87SOL     OW 1159   4.411   0.305   1.278
   87SOL    HW1 1160   4.351   0.235   1.315
   87SOL    HW2 1161   4.476   0.262   1.214
   88SOL     OW 1162   5.564   0.605   0.343
   88SOL    HW1 1163   5.569   0.666   0.421
   88SOL    HW2 1164   5.567   0.658   0.258
   89SOL     OW 1165   2.333   1.717   5.582
   89SOL    HW1 1166   2.237   1.719   5.612
   89SOL    HW2 1167   2.388   1.670   5.651
   90SOL     OW 1168   6.633   5.854   3.846
   90SOL    HW1 1169   6.676   5.929   3.796
   90SOL    HW2 1170   6.577   5.800   3.783
   91SOL     OW 1171   4.807   5.001   4.876
   91SOL    HW1 1172   4.735   5.066   4.853
   91SOL    HW2 1173   4.891   5.026   4.828
   92SOL     OW 1174   2.993   6.439   1.545
   92SOL    HW1 1175   2.935   6.393   1.477
   92SOL    HW2 1176   2.940   6.510   1.590
   93SOL     OW 1177   3.809   4.982   5.686
   93SOL    HW1 1178   3.840   4.887   5.691
   93SOL    HW2 1179   3.824   5.018   5.594
   94SOL     OW 1180   2.235   6.135   1.337
   94SOL    HW1 1181   2.299   6.081   1.392
   94SOL    HW2 1182   2.178   6.190   1.397
   95SOL     OW 1183   6.647   0.001   4.998
   95SOL    HW1 1184   6.548   7.010   5.003
   95SOL    HW2 1185   6.675   0.003   4.902
   96SOL     OW 1186   1.380   6.912   5.051
   96SOL    HW1 1187   1.429   6.834   5.013
   96SOL    HW2 1188   1.440   6.964   5.112
   97SOL     OW 1189   6.226   3.028   4.857
   97SOL    HW1 1190   6.320   2.996   4.855
   97SOL    HW2 1191   6.167   2.958   4.897
   98SOL     OW 1192   5.804   2.263   5.772
   98SOL    HW1 1193   5.888   2.261   5.718
   98SOL    HW2 1194   5.749   2.343   5.746
   99SOL     OW 1195   4.086   2.252   1.445
   99SOL    HW1 1196   4.020   2.196   1.495
   99SOL    HW2 1197   4.052   2.346   1.440
  100SOL     OW 1198   6.070   4.821   6.636
  100SOL    HW1 1199   5.982   4.835   6.679
  100SOL    HW2 1200   6.097   4.904   6.587
  101SOL     OW 1201   1.029   6.475   4.424
  101SOL    HW1 1202   0.970   6.406   4.466
  101SOL    HW2 1203   1.077   6.435   4.347
  102SOL     OW 1204   4.610   0.329   3.273
  102SOL    HW1 1205   4.594   0.303   3.368
  102SOL    HW2 1206   4.524   0.323   3.223
  103SOL     OW 1207   3.593   1.999   1.642
  103SOL    HW1 1208   3.544   2.074   1.687
  103SOL    HW2 1209   3.584   1.916   1.697
  104SOL     OW 1210   6.981   5.940   1.807
  104SOL    HW1 1211   6.893   5.902   1.835
  104SOL    HW2 1212   0.014   5.969   1.888
  105SOL     OW 1213   5.049   1.316   5.333
  105SOL    HW1 1214   5.008   1.311   5.424
  105SOL    HW2 1215   5.148   1.308   5.341
  106SOL     OW 1216   3.476   6.507   0.501
  106SOL    HW1 1217   3.521   6.422   0.472
  106SOL    HW2 1218   3.545   6.577   0.520
  107SOL     OW 1219   2.452   3.249   1.254
  107SOL    HW1 1220   2.455   3.338   1.301
  107SOL    HW2 1221   2.387   3.254   1.179
  108SOL     OW 1222   5.097   4.285   5.455
  108SOL    HW1 1223   4.998   4.271   5.449
  108SOL    HW2 1224   5.139   4.263   5.367
  109SOL     OW 1225   6.133   0.739   1.204
  109SOL    HW1 1226   6.175   0.650   1.223
  109SOL    HW2 1227   6.153   0.802   1.279
  110SOL     OW 1228   2.874   5.985   5.142
  110SOL    HW1 1229   2.945   5.914   5.147
  110SOL    HW2 1230   2.788   5.944   5.114
  111SOL     OW 1231   3.938   1.035   3.461
  111SOL    HW1 1232   3.997   1.113   3.440
  111SOL    HW2 1233   3.942   0.968   3.387
  112SOL     OW 1234   0.019   1.268   6.417
  112SOL    HW1 1235   7.017   1.348   6.474
  112SOL    HW2 1236   0.054   1.298   6.328
  113SOL     OW 1237   6.894   6.035   3.930
  113SOL    HW1 1238   6.966   6.040   3.861
  113SOL    HW2 1239   6.838   6.118   3.927
  114SOL     OW 1240   0.864   6.646   6.825
  114SOL    HW1 1241   0.932   6.717   6.846
  114SOL    HW2 1242   0.822   6.614   6.910
  115SOL     OW 1243   5.484   1.010   5.161
  115SOL    HW1 1244   5.573   1.008   5.206
  115SOL    HW2 1245   5.412   1.016   5.230
  116SOL     OW 1246   5.749   4.528   2.643
  116SOL    HW1 1247   5.679   4.598   2.659
  116SOL    HW2 1248   5.747   4.461   2.717
  117SOL     OW 1249   1.344   6.589   6.239
  117SOL    HW1 1250   1.416   6.642   6.284
  117SOL    HW2 1251   1.381   6.502   6.209
  118SOL     OW 1252   1.588   0.165   2.656
  118SOL    HW1 1253   1.611   0.262   2.663
  118SOL    HW2 1254   1.516   0.153   2.587
  119SOL     OW 1255   6.689   2.861   6.347
  119SOL    HW1 1256   6.677   2.769   6.384
  119SOL    HW2 1257   6.674   2.929   6.419
  120SOL     OW 1258   5.544   6.580   1.473
  120SOL    HW1 1259   5.546   6.490   1.431
  120SOL    HW2 1260   5.514   6.572   1.568
  121SOL     OW 1261   2.834   3.291   5.917
  121SOL    HW1 1262   2.861   3.253   5.828
  121SOL    HW2 1263   2.846   3.222   5.987
  122SOL     OW 1264   0.389   3.131   4.484
  122SOL    HW1 1265   0.301   3.094   4.512
  122SOL    HW2 1266   0.376   3.190   4.404
  123SOL     OW 1267   0.785   1.990   1.449
  123SOL    HW1 1268   0.812   2.056   1.379
  123SOL    HW2 1269   0.699   2.019   1.491
  124SOL     OW 1270   4.612   3.209   0.986
  124SOL    HW1 1271   4.539   3.177   0.926
  124SOL    HW2 1272   4.629   3.306   0.968
  125SOL     OW 1273   2.002   3.643   1.888
  125SOL    HW1 1274   2.070   3.575   1.917
  125SOL    HW2 1275   1.941   3.664   1.964
  126SOL     OW 1276   3.440   4.498   0.984
  126SOL    HW1 1277   3.440   4.544   1.072
  126SOL    HW2 1278   3.347   4.496   0.947
  127SOL     OW 1279   0.961   5.109   5.797
  127SOL    HW1 1280   0.961   5.062   5.885
  127SOL    HW2 1281   1.053   5.104   5.757
  128SOL     OW 1282   4.253   2.495   1.584
  128SOL    HW1 1283   4.244   2.594   1.585
  128SOL    HW2 1284   4.183   2.454   1.642
  129SOL     OW 1285   2.737   3.645   6.278
  129SOL    HW1 1286   2.768   3.729   6.232
  129SOL    HW2 1287   2.746   3.568   6.215
  130SOL     OW 1288   1.525   2.386   4.586
  130SOL    HW1 1289   1.484   2.344   4.505
  130SOL    HW2 1290   1.624   2.388   4.577
  131SOL     OW 1291   5.661   1.948   2.757
  131SOL    HW1 1292   5.670   1.963   2.855
  131SOL    HW2 1293   5.628   2.031   2.713
  132SOL     OW 1294   0.278   2.564   1.643
  132SOL    HW1 1295   0.301   2.499   1.716
  132SOL    HW2 1296   0.179   2.562   1.627
  133SOL     OW 1297   6.486   6.001   2.235
  133SOL    HW1 1298   6.425   5.933   2.195
  133SOL    HW2 1299   6.571   5.957   2.264
  134SOL     OW 1300   0.543   4.046   2.658
  134SOL    HW1 1301   0.560   3.998   2.572
  134SOL    HW2 1302   0.478   4.121   2.643
  135SOL     OW 1303   4.208   1.624   4.056
  135SOL    HW1 1304   4.273   1.610   3.981
  135SOL    HW2 1305   4.258   1.635   4.142
  136SOL     OW 1306   4.805   5.042   5.505
  136SOL    HW1 1307   4.839   4.959   5.459
  136SOL    HW2 1308   4.880   5.105   5.521
  137SOL     OW 1309   3.487   0.755   5.834
  137SOL    HW1 1310   3.432   0.778   5.754
  137SOL    HW2 1311   3.561   0.693   5.807
  138SOL     OW 1312   6.340   5.325   4.710
  138SOL    HW1 1313   6.374   5.417   4.695
  138SOL    HW2 1314   6.317   5.313   4.807
  139SOL     OW 1315   3.397   5.650   5.220
  139SOL    HW1 1316   3.384   5.740   5.180
  139SOL    HW2 1317   3.461   5.655   5.297
  140SOL     OW 1318   6.464   4.600   4.905
  140SOL    HW1 1319   6.419   4.540   4.971
  140SOL    HW2 1320   6.477   4.691   4.945
  141SOL     OW 1321   1.527   2.200   2.631
  141SOL    HW1 1322   1.437   2.235   2.659
  141SOL    HW2 1323   1.575   2.164   2.712
  142SOL     OW 1324   1.341   5.768   1.399
  142SOL    HW1 1325   1.337   5.676   1.438
  142SOL    HW2 1326   1.433   5.786   1.365
  143SOL     OW 1327   5.036   4.045   1.935
  143SOL    HW1 1328   4.942   4.036   1.902
  143SOL    HW2 1329   5.049   3.984   2.013
  144SOL     OW 1330   2.458   6.212   0.693
  144SOL    HW1 1331   2.402   6.275   0.747
  144SOL    HW2 1332   2.399   6.143   0.651
  145SOL     OW 1333   6.858   5.229   0.642
  145SOL    HW1 1334   6.813   5.180   0.568
  145SOL    HW2 1335   6.918   5.167   0.692
  146SOL     OW 1336   6.137   4.814   0.465
  146SOL    HW1 1337   6.117   4.788   0.559
  146SOL    HW2 1338   6.052   4.815   0.412
  147SOL     OW 1339   6.059   2.404   1.657
  147SOL    HW1 1340   6.019   2.450   1.737
  147SOL    HW2 1341   6.014   2.316   1.642
  148SOL     OW 1342   1.194   4.996   5.627
  148SOL    HW1 1343   1.267   4.939   5.591
  148SOL    HW2 1344   1.151   5.046   5.553
  149SOL     OW 1345   3.045   1.339   5.747
  149SOL    HW1 1346   2.981   1.322   5.822
  149SOL    HW2 1347   2.998   1.324   5.659
  150SOL     OW 1348   0.359   5.862   5.920
  150SOL    HW1 1349   0.338   5.936   5.856
  150SOL    HW2 1350   0.284   5.851   5.984
  151SOL     OW 1351   3.889   0.550   1.624
  151SOL    HW1 1352   3.907   0.593   1.536
  151SOL    HW2 1353   3.879   0.620   1.694
  152SOL     OW 1354   3.422   0.749   4.883
  152SOL    HW1 1355   3.444   0.826   4.942
  152SOL    HW2 1356   3.345   0.698   4.921
  153SOL     OW 1357   1.571   0.611   3.284
  153SOL    HW1 1358   1.554   0.657   3.197
  153SOL    HW2 1359   1.640   0.662   3.336
  154SOL     OW 1360   6.534   1.992   2.932
  154SOL    HW1 1361   6.444   2.003   2.890
  154SOL    HW2 1362   6.603   1.981   2.861
  155SOL     OW 1363   0.483   1.304   2.793
  155SOL    HW1 1364   0.397   1.275   2.753
  155SOL    HW2 1365   0.470   1.324   2.890
  156SOL     OW 1366   0.238   2.227   1.661
  156SOL    HW1 1367   0.287   2.169   1.726
  156SOL    HW2 1368   0.233   2.180   1.572
  157SOL     OW 1369   5.941   3.094   2.660
  157SOL    HW1 1370   5.976   3.004   2.634
  157SOL    HW2 1371   5.842   3.097   2.646
  158SOL     OW 1372   1.470   1.569   3.591
  158SOL    HW1 1373   1.445   1.592   3.685
  158SOL    HW2 1374   1.417   1.626   3.528
  159SOL     OW 1375   4.949   3.352   2.283
  159SOL    HW1 1376   4.915   3.280   2.222
  159SOL    HW2 1377   4.883   3.427   2.286
  160SOL     OW 1378   6.680   4.459   5.480
  160SOL    HW1 1379   6.701   4.499   5.569
  160SOL    HW2 1380   6.748   4.388   5.458
  161SOL     OW 1381   3.775   4.775   5.386
  161SOL    HW1 1382   3.788   4.832   5.304
  161SOL    HW2 1383   3.677   4.761   5.400
  162SOL     OW 1384   4.672   6.302   2.358
  162SOL    HW1 1385   4.748   6.336   2.413
  162SOL    HW2 1386   4.592   6.360   2.374
  163SOL     OW 1387   5.387   0.795   2.098
  163SOL    HW1 1388   5.388   0.741   2.183
  163SOL    HW2 1389   5.465   0.768   2.041
  164SOL     OW 1390   6.273   3.143   1.115
  164SOL    HW1 1391   6.182   3.138   1.072
  164SOL    HW2 1392   6.339   3.176   1.048
  165SOL     OW 1393   5.945   4.056   6.196
  165SOL    HW1 1394   5.914   3.963   6.180
  165SOL    HW2 1395   6.038   4.067   6.161
  166SOL     OW 1396   1.577   0.589   1.534
  166SOL    HW1 1397   1.539   0.672   1.494
  166SOL    HW2 1398   1.554   0.585   1.631
  167SOL     OW 1399   6.441   3.252   0.496
  167SOL    HW1 1400   6.342   3.245   0.507
  167SOL    HW2 1401   6.484   3.261   0.585
  168SOL     OW 1402   2.644   5.553   1.698
  168SOL    HW1 1403   2.678   5.601   1.779
  168SOL    HW2 1404   2.687   5.463   1.693
  169SOL     OW 1405   0.984   0.056   1.443
  169SOL    HW1 1406   0.938   0.057   1.354
  169SOL    HW2 1407   1.083   0.064   1.430
  170SOL     OW 1408   0.421   1.380   3.065
  170SOL    HW1 1409   0.334   1.430   3.074
  170SOL    HW2 1410   0.437   1.327   3.148
  171SOL     OW 1411   3.469   3.768   0.417
  171SOL    HW1 1412   3.505   3.782   0.325
  171SOL    HW2 1413   3.519   3.693   0.461
  172SOL     OW 1414   6.860   2.971   1.026
  172SOL    HW1 1415   6.844   2.873   1.016
  172SOL    HW2 1416   6.833   3.019   0.943
  173SOL     OW 1417   0.315   6.151   6.037
  173SOL    HW1 1418   0.301   6.238   6.083
  173SOL    HW2 1419   0.413   6.132   6.031
  174SOL     OW 1420   2.452   5.694   3.240
  174SOL    HW1 1421   2.532   5.657   3.193
  174SOL    HW2 1422   2.433   5.786   3.206
  175SOL     OW 1423   0.634   5.739   3.054
  175SOL    HW1 1424   0.546   5.727   3.100
  175SOL    HW2 1425   0.621   5.731   2.955
  176SOL     OW 1426   2.879   5.510   0.660
  176SOL    HW1 1427   2.969   5.490   0.622
  176SOL    HW2 1428   2.830   5.571   0.598
  177SOL     OW 1429   4.477   2.447   3.325
  177SOL    HW1 1430   4.482   2.469   3.228
  177SOL    HW2 1431   4.512   2.524   3.378
  178SOL     OW 1432   5.819   4.392   5.731
  178SOL    HW1 1433   5.846   4.390   5.828
  178SOL    HW2 1434   5.730   4.436   5.723
  179SOL     OW 1435   2.906   0.266   1.199
  179SOL    HW1 1436   2.854   0.185   1.170
  179SOL    HW2 1437   2.976   0.287   1.131
  180SOL     OW 1438   1.303   2.380   6.729
  180SOL    HW1 1439   1.211   2.350   6.707
  180SOL    HW2 1440   1.343   2.426   6.650
  181SOL     OW 1441   3.148   3.100   4.606
  181SOL    HW1 1442   3.176   3.072   4.698
  181SOL    HW2 1443   3.162   3.199   4.596
  182SOL     OW 1444   4.857   2.972   5.203
  182SOL    HW1 1445   4.880   2.893   5.145
  182SOL    HW2 1446   4.941   3.016   5.233
  183SOL     OW 1447   5.372   1.811   2.577
  183SOL    HW1 1448   5.368   1.768   2.487
  183SOL    HW2 1449   5.287   1.860   2.595
  184SOL     OW 1450   0.072   4.688   3.267
  184SOL    HW1 1451   7.017   4.625   3.240
  184SOL    HW2 1452   0.119   4.652   3.348
  185SOL     OW 1453   2.612   3.286   6.303
  185SOL    HW1 1454   2.549   3.215   6.335
  185SOL    HW2 1455   2.619   3.358   6.371
  186SOL     OW 1456   6.155   6.504   3.467
  186SOL    HW1 1457   6.117   6.413   3.477
  186SOL    HW2 1458   6.083   6.569   3.442
  187SOL     OW 1459   5.640   0.925   4.196
  187SOL    HW1 1460   5.734   0.933   4.229
  187SOL    HW2 1461   5.603   1.016   4.177
  188SOL     OW 1462   6.297   2.398   4.233
  188SOL    HW1 1463   6.296   2.413   4.332
  188SOL    HW2 1464   6.212   2.432   4.193
  189SOL     OW 1465   1.912   4.080   2.634
  189SOL    HW1 1466   1.929   4.013   2.561
  189SOL    HW2 1467   1.875   4.163   2.594
  190SOL     OW 1468   3.202   1.461   6.802
  190SOL    HW1 1469   3.231   1.390   6.737
  190SOL    HW2 1470   3.111   1.493   6.777
  191SOL     OW 1471   4.167   5.936   5.397
  191SOL    HW1 1472   4.093   5.897   5.451
  191SOL    HW2 1473   4.236   5.976   5.457
  192SOL     OW 1474   0.021   0.299   0.912
  192SOL    HW1 1475   0.049   0.366   0.844
  192SOL    HW2 1476   6.939   0.298   0.919
  193SOL     OW 1477   5.529   4.468   0.101
  193SOL    HW1 1478   5.531   4.495   0.005
  193SOL    HW2 1479   5.583   4.385   0.114
  194SOL     OW 1480   4.397   6.953   4.554
  194SOL    HW1 1481   4.357   7.015   4.621
  194SOL    HW2 1482   4.333   6.938   4.479
  195SOL     OW 1483   6.821   5.257   3.496
  195SOL    HW1 1484   6.737   5.271   3.444
  195SOL    HW2 1485   6.809   5.293   3.588
  196SOL     OW 1486   1.065   1.120   0.984
  196SOL    HW1 1487   0.986   1.134   0.925
  196SOL    HW2 1488   1.148   1.118   0.928
  197SOL     OW 1489   2.038   1.132   0.638
  197SOL    HW1 1490   1.952   1.184   0.638
  197SOL    HW2 1491   2.114   1.193   0.658
  198SOL     OW 1492   3.106   1.300   3.822
  198SOL    HW1 1493   3.041   1.347   3.762
  198SOL    HW2 1494   3.188   1.275   3.770
  199SOL     OW 1495   0.811   1.933   4.438
  199SOL    HW1 1496   0.778   2.025   4.458
  199SOL    HW2 1497   0.795   1.912   4.341
  200SOL     OW 1498   6.480   2.165   0.209
  200SOL    HW1 1499   6.435   2.135   0.293
  200SOL    HW2 1500   6.441   2.117   0.131
  201SOL     OW 1501   0.503   0.847   6.614
  201SOL    HW1 1502   0.583   0.832   6.555
  201SOL    HW2 1503   0.476   0.761   6.656
  202SOL     OW 1504   4.998   0.058   0.602
  202SOL    HW1 1505   5.038   6.986   0.586
  202SOL    HW2 1506   4.904   0.047   0.635
  203SOL     OW 1507   6.121   2.612   6.283
  203SOL    HW1 1508   6.044   2.676   6.275
  203SOL    HW2 1509   6.206   2.658   6.257
  204SOL     OW 1510   6.298   0.837   5.167
  204SOL    HW1 1511   6.381   0.795   5.128
  204SOL    HW2 1512   6.227   0.839   5.097
  205SOL     OW 1513   2.063   3.710   2.826
  205SOL    HW1 1514   1.992   3.770   2.788
  205SOL    HW2 1515   2.117   3.761   2.893
  206SOL     OW 1516   6.898   3.165   0.488
  206SOL    HW1 1517   6.855   3.200   0.404
  206SOL    HW2 1518   6.921   3.069   0.476
  207SOL     OW 1519   6.015   2.745   4.515
  207SOL    HW1 1520   6.110   2.767   4.539
  207SOL    HW2 1521   5.986   2.803   4.439
  208SOL     OW 1522   1.017   3.373   5.113
  208SOL    HW1 1523   1.031   3.286   5.160
  208SOL    HW2 1524   1.101   3.398   5.064
  209SOL     OW 1525   6.678   4.602   2.775
  209SOL    HW1 1526   6.582   4.576   2.763
  209SOL    HW2 1527   6.692   4.637   2.868
  210SOL     OW 1528   4.240   3.009   0.284
  210SOL    HW1 1529   4.284   3.027   0.372
  210SOL    HW2 1530   4.141   3.005   0.296
  211SOL     OW 1531   1.046   1.386   2.253
  211SOL    HW1 1532   0.999   1.330   2.321
  211SOL    HW2 1533   1.000   1.377   2.165
  212SOL     OW 1534   2.070   3.791   2.297
  212SOL    HW1 1535   2.136   3.844   2.244
  212SOL    HW2 1536   2.098   3.695   2.299
  213SOL     OW 1537   1.174   4.890   0.784
  213SOL    HW1 1538   1.118   4.944   0.722
  213SOL    HW2 1539   1.224   4.821   0.733
  214SOL     OW 1540   5.646   6.556   2.020
  214SOL    HW1 1541   5.603   6.638   2.056
  214SOL    HW2 1542   5.738   6.578   1.986
  215SOL     OW 1543   2.376   5.171   2.872
  215SOL    HW1 1544   2.392   5.079   2.906
  215SOL    HW2 1545   2.377   5.236   2.949
  216SOL     OW 1546   0.982   5.994   3.204
  216SOL    HW1 1547   0.959   6.012   3.109
  216SOL    HW2 1548   1.011   6.079   3.248
  217SOL     OW 1549   0.879   4.517   5.902
  217SOL    HW1 1550   0.813   4.538   5.974
  217SOL    HW2 1551   0.873   4.587   5.831
  218SOL     OW 1552   2.201   1.862   5.176
  218SOL    HW1 1553   2.137   1.887   5.103
  218SOL    HW2 1554   2.262   1.790   5.144
  219SOL     OW 1555   4.586   2.247   1.552
  219SOL    HW1 1556   4.575   2.346   1.561
  219SOL    HW2 1557   4.499   2.207   1.522
  220SOL     OW 1558   3.335   6.519   1.290
  220SOL    HW1 1559   3.365   6.450   1.225
  220SOL    HW2 1560   3.365   6.610   1.260
  221SOL     OW 1561   5.397   4.422   2.027
  221SOL    HW1 1562   5.318   4.416   1.965
  221SOL    HW2 1563   5.406   4.516   2.059
  222SOL     OW 1564   2.386   4.548   6.459
  222SOL    HW1 1565   2.366   4.608   6.382
  222SOL    HW2 1566   2.373   4.599   6.545
  223SOL     OW 1567   6.201   2.472   4.809
  223SOL    HW1 1568   6.209   2.560   4.856
  223SOL    HW2 1569   6.283   2.417   4.828
  224SOL     OW 1570   2.935   2.023   5.474
  224SOL    HW1 1571   2.970   2.085   5.404
  224SOL    HW2 1572   2.835   2.025   5.472
  225SOL     OW 1573   3.800   6.434   6.082
  225SOL    HW1 1574   3.847   6.461   5.998
  225SOL    HW2 1575   3.708   6.402   6.060
  226SOL     OW 1576   1.223   2.625   6.312
  226SOL    HW1 1577   1.221   2.717   6.353
  226SOL    HW2 1578   1.277   2.564   6.371
  227SOL     OW 1579   1.687   3.510   1.353
  227SOL    HW1 1580   1.778   3.517   1.394
  227SOL    HW2 1581   1.644   3.600   1.350
  228SOL     OW 1582   1.052   0.136   2.212
  228SOL    HW1 1583   1.048   0.221   2.264
  228SOL    HW2 1584   1.021   0.060   2.269
  229SOL     OW 1585   3.938   6.552   5.862
  229SOL    HW1 1586   4.010   6.518   5.803
  229SOL    HW2 1587   3.877   6.611   5.809
  230SOL     OW 1588   5.805   5.724   5.695
  230SOL    HW1 1589   5.810   5.745   5.597
  230SOL    HW2 1590   5.709   5.715   5.721
  231SOL     OW 1591   5.217   1.708   6.870
  231SOL    HW1 1592   5.315   1.724   6.865
  231SOL    HW2 1593   5.200   1.614   6.898
  232SOL     OW 1594   1.391   1.662   5.939
  232SOL    HW1 1595   1.303   1.617   5.955
  232SOL    HW2 1596   1.391   1.704   5.848
  233SOL     OW 1597   3.661   1.783   3.368
  233SOL    HW1 1598   3.591   1.846   3.335
  233SOL    HW2 1599   3.748   1.831   3.375
  234SOL     OW 1600   5.103   0.638   1.074
  234SOL    HW1 1601   5.064   0.632   0.982
  234SOL    HW2 1602   5.103   0.547   1.116
  235SOL     OW 1603   4.919   2.968   2.605
  235SOL    HW1 1604   4.824   2.947   2.627
  235SOL    HW2 1605   4.950   2.908   2.530
  236SOL     OW 1606   4.068   4.440   6.170
  236SOL    HW1 1607   4.166   4.461   6.166
  236SOL    HW2 1608   4.055   4.354   6.219
  237SOL     OW 1609   6.240   3.766   2.991
  237SOL    HW1 1610   6.299   3.842   2.962
  237SOL    HW2 1611   6.260   3.685   2.936
  238SOL     OW 1612   6.487   2.088   0.643
  238SOL    HW1 1613   6.587   2.088   0.652
  238SOL    HW2 1614   6.446   2.054   0.729
  239SOL     OW 1615   1.166   3.284   0.036
  239SOL    HW1 1616   1.169   3.186   0.020
  239SOL    HW2 1617   1.090   3.305   0.099
  240SOL     OW 1618   4.894   3.689   3.451
  240SOL    HW1 1619   4.988   3.683   3.418
  240SOL    HW2 1620   4.875   3.610   3.511
  241SOL     OW 1621   2.385   2.071   4.095
  241SOL    HW1 1622   2.319   1.999   4.073
  241SOL    HW2 1623   2.447   2.085   4.018
  242SOL     OW 1624   3.609   3.643   2.523
  242SOL    HW1 1625   3.581   3.570   2.585
  242SOL    HW2 1626   3.632   3.725   2.576
  243SOL     OW 1627   3.908   2.665   6.130
  243SOL    HW1 1628   3.809   2.656   6.138
  243SOL    HW2 1629   3.949   2.574   6.122
  244SOL     OW 1630   5.021   3.162   4.963
  244SOL    HW1 1631   5.011   3.259   4.988
  244SOL    HW2 1632   5.070   3.114   5.035
  245SOL     OW 1633   3.878   0.840   3.249
  245SOL    HW1 1634   3.843   0.891   3.171
  245SOL    HW2 1635   3.829   0.753   3.257
  246SOL     OW 1636   6.185   1.163   2.058
  246SOL    HW1 1637   6.255   1.159   2.129
  246SOL    HW2 1638   6.207   1.099   1.985
  247SOL     OW 1639   1.255   1.542   1.312
  247SOL    HW1 1640   1.343   1.527   1.358
  247SOL    HW2 1641   1.271   1.550   1.213
  248SOL     OW 1642   2.264   2.929   1.818
  248SOL    HW1 1643   2.240   3.024   1.797
  248SOL    HW2 1644   2.217   2.869   1.753
  249SOL     OW 1645   4.712   6.338   4.652
  249SOL    HW1 1646   4.765   6.386   4.581
  249SOL    HW2 1647   4.643   6.400   4.689
  250SOL     OW 1648   4.053   2.401   0.403
  250SOL    HW1 1649   3.990   2.413   0.480
  250SOL    HW2 1650   4.143   2.372   0.438
  251SOL     OW 1651   3.865   4.200   5.608
  251SOL    HW1 1652   3.785   4.144   5.630
  251SOL    HW2 1653   3.838   4.276   5.549
  252SOL     OW 1654   6.848   6.530   5.730
  252SOL    HW1 1655   6.843   6.567   5.822
  252SOL    HW2 1656   6.938   6.488   5.715
  253SOL     OW 1657   4.126   6.418   6.113
  253SOL    HW1 1658   4.193   6.477   6.159
  253SOL    HW2 1659   4.064   6.475   6.059
  254SOL     OW 1660   5.888   2.359   5.385
  254SOL    HW1 1661   5.970   2.341   5.439
  254SOL    HW2 1662   5.817   2.397   5.444
  255SOL     OW 1663   1.338   3.939   6.644
  255SOL    HW1 1664   1.240   3.920   6.652
  255SOL    HW2 1665   1.358   4.030   6.679
  256SOL     OW 1666   5.311   2.258   5.277
  256SOL    HW1 1667   5.279   2.315   5.353
  256SOL    HW2 1668   5.261   2.172   5.275
  257SOL     OW 1669   4.839   6.858   2.225
  257SOL    HW1 1670   4.863   6.776   2.277
  257SOL    HW2 1671   4.749   6.846   2.183
  258SOL     OW 1672   1.679   3.114   6.205
  258SOL    HW1 1673   1.682   3.160   6.117
  258SOL    HW2 1674   1.769   3.118   6.248
  259SOL     OW 1675   3.739   6.657   3.962
  259SOL    HW1 1676   3.662   6.720   3.975
  259SOL    HW2 1677   3.703   6.566   3.939
  260SOL     OW 1678   3.711   5.471   3.288
  260SOL    HW1 1679   3.699   5.499   3.383
  260SOL    HW2 1680   3.655   5.390   3.270
  261SOL     OW 1681   4.302   4.989   0.555
  261SOL    HW1 1682   4.264   4.978   0.647
  261SOL    HW2 1683   4.376   5.056   0.557
  262SOL     OW 1684   0.867   4.264   6.547
  262SOL    HW1 1685   0.914   4.194   6.601
  262SOL    HW2 1686   0.878   4.244   6.449
  263SOL     OW 1687   0.801   6.678   4.152
  263SOL    HW1 1688   0.799   6.774   4.124
  263SOL    HW2 1689   0.780   6.672   4.249
  264SOL     OW 1690   6.497   3.425   6.208
  264SOL    HW1 1691   6.510   3.521   6.233
  264SOL    HW2 1692   6.435   3.382   6.273
  265SOL     OW 1693   6.512   0.123   3.948
  265SOL    HW1 1694   6.430   0.129   4.005
  265SOL    HW2 1695   6.492   0.070   3.866
  266SOL     OW 1696   3.484   1.025   5.906
  266SOL    HW1 1697   3.531   1.075   5.833
  266SOL    HW2 1698   3.485   0.927   5.886
  267SOL     OW 1699   1.873   0.554   3.818
  267SOL    HW1 1700   1.851   0.504   3.734
  267SOL    HW2 1701   1.957   0.606   3.805
  268SOL     OW 1702   3.129   2.570   1.306
  268SOL    HW1 1703   3.201   2.624   1.350
  268SOL    HW2 1704   3.123   2.481   1.351
  269SOL     OW 1705   4.099   1.933   0.240
  269SOL    HW1 1706   4.149   1.979   0.167
  269SOL    HW2 1707   4.163   1.904   0.311
  270SOL     OW 1708   5.466   1.146   6.838
  270SOL    HW1 1709   5.493   1.228   6.887
  270SOL    HW2 1710   5.412   1.171   6.758
  271SOL     OW 1711   0.749   3.310   6.687
  271SOL    HW1 1712   0.715   3.404   6.689
  271SOL    HW2 1713   0.761   3.278   6.781
  272SOL     OW 1714   3.266   5.997   3.679
  272SOL    HW1 1715   3.340   6.038   3.732
  272SOL    HW2 1716   3.303   5.924   3.621
  273SOL     OW 1717   2.123   4.639   6.115
  273SOL    HW1 1718   2.039   4.645   6.061
  273SOL    HW2 1719   2.196   4.600   6.058
  274SOL     OW 1720   4.985   2.878   3.967
  274SOL    HW1 1721   4.890   2.883   3.935
  274SOL    HW2 1722   5.039   2.828   3.899
  275SOL     OW 1723   6.399   6.250   1.247
  275SOL    HW1 1724   6.448   6.243   1.335
  275SOL    HW2 1725   6.303   6.271   1.264
  276SOL     OW 1726   1.089   0.688   5.143
  276SOL    HW1 1727   1.167   0.657   5.197
  276SOL    HW2 1728   1.009   0.632   5.164
  277SOL     OW 1729   1.667   4.343   0.541
  277SOL    HW1 1730   1.588   4.281   0.543
  277SOL    HW2 1731   1.706   4.344   0.449
  278SOL     OW 1732   0.477   3.065   2.421
  278SOL    HW1 1733   0.520   3.014   2.495
  278SOL    HW2 1734   0.523   3.044   2.334
  279SOL     OW 1735   6.257   1.424   3.871
  279SOL    HW1 1736   6.266   1.484   3.950
  279SOL    HW2 1737   6.301   1.467   3.792
  280SOL     OW 1738   1.273   4.573   2.209
  280SOL    HW1 1739   1.322   4.658   2.190
  280SOL    HW2 1740   1.180   4.595   2.239
  281SOL     OW 1741   2.156   4.425   1.422
  281SOL    HW1 1742   2.168   4.339   1.473
  281SOL    HW2 1743   2.211   4.422   1.339
  282SOL     OW 1744   2.805   1.642   6.115
  282SOL    HW1 1745   2.827   1.732   6.152
  282SOL    HW2 1746   2.832   1.638   6.019
  283SOL     OW 1747   3.627   2.158   5.607
  283SOL    HW1 1748   3.560   2.121   5.543
  283SOL    HW2 1749   3.609   2.255   5.623
  284SOL     OW 1750   1.443   3.789   4.105
  284SOL    HW1 1751   1.361   3.845   4.117
  284SOL    HW2 1752   1.431   3.726   4.029
  285SOL     OW 1753   5.085   4.764   4.257
  285SOL    HW1 1754   5.163   4.705   4.278
  285SOL    HW2 1755   5.073   4.768   4.157
  286SOL     OW 1756   2.917   3.682   6.941
  286SOL    HW1 1757   2.895   3.592   6.981
  286SOL    HW2 1758   2.961   3.668   6.853
  287SOL     OW 1759   1.490   2.991   0.301
  287SOL    HW1 1760   1.509   3.044   0.218
  287SOL    HW2 1761   1.564   3.003   0.366
  288SOL     OW 1762   4.678   3.484   0.990
  288SOL    HW1 1763   4.587   3.503   0.955
  288SOL    HW2 1764   4.739   3.560   0.969
  289SOL     OW 1765   3.757   5.424   6.365
  289SOL    HW1 1766   3.787   5.329   6.376
  289SOL    HW2 1767   3.686   5.428   6.294
  290SOL     OW 1768   1.531   1.081   4.651
  290SOL    HW1 1769   1.588   1.161   4.629
  290SOL    HW2 1770   1.522   1.073   4.750
  291SOL     OW 1771   6.789   2.230   2.313
  291SOL    HW1 1772   6.789   2.140   2.356
  291SOL    HW2 1773   6.695   2.261   2.300
  292SOL     OW 1774   2.767   0.046   3.992
  292SOL    HW1 1775   2.778   7.002   3.914
  292SOL    HW2 1776   2.672   0.075   3.998
  293SOL     OW 1777   3.444   4.943   3.834
  293SOL    HW1 1778   3.404   4.903   3.917
  293SOL    HW2 1779   3.392   4.913   3.754
  294SOL     OW 1780   4.402   0.657   0.224
  294SOL    HW1 1781   4.465   0.648   0.147
  294SOL    HW2 1782   4.383   0.566   0.262
  295SOL     OW 1783   5.626   0.011   3.302
  295SOL    HW1 1784   5.629   0.031   3.204
  295SOL    HW2 1785   5.716   0.029   3.342
  296SOL     OW 1786   2.513   1.846   2.896
  296SOL    HW1 1787   2.549   1.783   2.828
  296SOL    HW2 1788   2.469   1.923   2.850
  297SOL     OW 1789   1.601   5.177   2.088
  297SOL    HW1 1790   1.624   5.274   2.093
  297SOL    HW2 1791   1.649   5.135   2.011
  298SOL     OW 1792   6.376   4.817   0.723
  298SOL    HW1 1793   6.280   4.802   0.747
  298SOL    HW2 1794   6.387   4.908   0.685
  299SOL     OW 1795   5.834   2.514   4.568
  299SOL    HW1 1796   5.758   2.500   4.503
  299SOL    HW2 1797   5.903   2.572   4.526
  300SOL     OW 1798   7.015   0.037   2.307
  300SOL    HW1 1799   6.998   0.059   2.211
  300SOL    HW2 1800   0.086   7.011   2.316
  301SOL     OW 1801   4.077   2.744   5.781
  301SOL    HW1 1802   4.065   2.842   5.802
  301SOL    HW2 1803   4.158   2.732   5.723
  302SOL     OW 1804   0.488   6.551   3.765
  302SOL    HW1 1805   0.574   6.535   3.812
  302SOL    HW2 1806   0.506   6.601   3.680
  303SOL     OW 1807   6.027   6.876   2.623
  303SOL    HW1 1808   6.098   6.944   2.607
  303SOL    HW2 1809   6.066   6.784   2.614
  304SOL     OW 1810   3.848   6.624   3.602
  304SOL    HW1 1811   3.869   6.650   3.508
  304SOL    HW2 1812   3.768   6.563   3.603
  305SOL     OW 1813   1.580   4.198   1.285
  305SOL    HW1 1814   1.597   4.202   1.384
  305SOL    HW2 1815   1.484   4.216   1.267
  306SOL     OW 1816   2.187   0.555   3.502
  306SOL    HW1 1817   2.107   0.573   3.445
  306SOL    HW2 1818   2.237   0.640   3.517
  307SOL     OW 1819   3.021   0.215   1.881
  307SOL    HW1 1820   3.106   0.262   1.856
  307SOL    HW2 1821   2.991   0.245   1.971
  308SOL     OW 1822   1.125   4.971   4.170
  308SOL    HW1 1823   1.218   4.993   4.196
  308SOL    HW2 1824   1.100   5.022   4.088
  309SOL     OW 1825   3.362   4.941   5.254
  309SOL    HW1 1826   3.343   4.917   5.158
  309SOL    HW2 1827   3.454   4.981   5.260
  310SOL     OW 1828   1.242   5.500   6.281
  310SOL    HW1 1829   1.228   5.512   6.379
  310SOL    HW2 1830   1.300   5.420   6.265
  311SOL     OW 1831   6.984   0.660   1.341
  311SOL    HW1 1832   6.980   0.562   1.321
  311SOL    HW2 1833   0.025   0.676   1.419
  312SOL     OW 1834   3.772   1.342   5.275
  312SOL    HW1 1835   3.814   1.330   5.185
  312SOL    HW2 1836   3.675   1.318   5.270
  313SOL     OW 1837   0.330   4.866   0.578
  313SOL    HW1 1838   0.424   4.891   0.602
  313SOL    HW2 1839   0.322   4.859   0.479
  314SOL     OW 1840   3.295   6.186   1.503
  314SOL    HW1 1841   3.359   6.241   1.556
  314SOL    HW2 1842   3.207   6.182   1.551
  315SOL     OW 1843   0.904   3.527   2.595
  315SOL    HW1 1844   0.913   3.578   2.680
  315SOL    HW2 1845   0.991   3.485   2.571
  316SOL     OW 1846   2.147   3.636   5.008
  316SOL    HW1 1847   2.171   3.678   5.096
  316SOL    HW2 1848   2.135   3.707   4.939
  317SOL     OW 1849   6.555   1.108   6.829
  317SOL    HW1 1850   6.631   1.058   6.789
  317SOL    HW2 1851   6.557   1.098   6.929
  318SOL     OW 1852   2.317   4.403   1.204
  318SOL    HW1 1853   2.332   4.326   1.141
  318SOL    HW2 1854   2.332   4.489   1.155
  319SOL     OW 1855   1.558   0.226   6.984
  319SOL    HW1 1856   1.591   0.261   6.897
  319SOL    HW2 1857   1.521   0.301   0.021
  320SOL     OW 1858   5.411   3.139   0.605
  320SOL    HW1 1859   5.504   3.174   0.607
  320SOL    HW2 1860   5.406   3.060   0.544
  321SOL     OW 1861   2.535   1.315   2.331
  321SOL    HW1 1862   2.597   1.296   2.254
  321SOL    HW2 1863   2.515   1.230   2.378
  322SOL     OW 1864   3.170   1.886   5.604
  322SOL    HW1 1865   3.082   1.886   5.556
  322SOL    HW2 1866   3.242   1.918   5.542
  323SOL     OW 1867   0.195   4.474   1.922
  323SOL    HW1 1868   0.259   4.432   1.987
  323SOL    HW2 1869   0.195   4.421   1.837
  324SOL     OW 1870   0.601   2.959   4.529
  324SOL    HW1 1871   0.530   3.019   4.493
  324SOL    HW2 1872   0.587   2.947   4.627
  325SOL     OW 1873   2.169   2.089   2.905
  325SOL    HW1 1874   2.264   2.089   2.938
  325SOL    HW2 1875   2.166   2.058   2.810
  326SOL     OW 1876   2.120   4.695   5.317
  326SOL    HW1 1877   2.073   4.609   5.297
  326SOL    HW2 1878   2.219   4.680   5.315
  327SOL     OW 1879   5.933   5.043   6.262
  327SOL    HW1 1880   5.992   5.039   6.342
  327SOL    HW2 1881   5.989   5.055   6.180
  328SOL     OW 1882   3.702   5.751   1.552
  328SOL    HW1 1883   3.660   5.837   1.521
  328SOL    HW2 1884   3.801   5.761   1.556
  329SOL     OW 1885   3.193   3.956   2.480
  329SOL    HW1 1886   3.195   4.001   2.570
  329SOL    HW2 1887   3.220   3.860   2.490
  330SOL     OW 1888   2.539   2.097   1.990
  330SOL    HW1 1889   2.570   2.187   1.958
  330SOL    HW2 1890   2.596   2.067   2.065
  331SOL     OW 1891   5.908   4.176   5.511
  331SOL    HW1 1892   5.947   4.263   5.542
  331SOL    HW2 1893   5.815   4.167   5.545
  332SOL     OW 1894   4.241   2.297   3.294
  332SOL    HW1 1895   4.314   2.353   3.333
  332SOL    HW2 1896   4.179   2.266   3.366
  333SOL     OW 1897   4.461   6.022   0.587
  333SOL    HW1 1898   4.405   6.105   0.584
  333SOL    HW2 1899   4.449   5.977   0.675
  334SOL     OW 1900   5.113   6.472   2.528
  334SOL    HW1 1901   5.150   6.383   2.557
  334SOL    HW2 1902   5.149   6.544   2.586
  335SOL     OW 1903   3.641   6.645   2.807
  335SOL    HW1 1904   3.665   6.597   2.891
  335SOL    HW2 1905   3.547   6.680   2.815
  336SOL     OW 1906   3.565   6.973   5.020
  336SOL    HW1 1907   3.538   6.908   5.092
  336SOL    HW2 1908   3.496   6.973   4.948
  337SOL     OW 1909   0.134   4.137   1.883
  337SOL    HW1 1910   0.173   4.124   1.974
  337SOL    HW2 1911   0.201   4.181   1.823
  338SOL     OW 1912   2.413   2.296   1.686
  338SOL    HW1 1913   2.510   2.308   1.661
  338SOL    HW2 1914   2.398   2.333   1.778
  339SOL     OW 1915   4.518   1.211   3.094
  339SOL    HW1 1916   4.516   1.174   3.001
  339SOL    HW2 1917   4.500   1.137   3.159
  340SOL     OW 1918   5.075   4.377   4.506
  340SOL    HW1 1919   5.079   4.301   4.441
  340SOL    HW2 1920   4.980   4.398   4.527
  341SOL     OW 1921   4.618   4.926   5.652
  341SOL    HW1 1922   4.668   4.994   5.598
  341SOL    HW2 1923   4.609   4.842   5.598
  342SOL     OW 1924   5.862   3.820   0.223
  342SOL    HW1 1925   5.796   3.759   0.179
  342SOL    HW2 1926   5.945   3.769   0.247
  343SOL     OW 1927   2.176   0.557   2.587
  343SOL    HW1 1928   2.246   0.505   2.540
  343SOL    HW2 1929   2.141   0.503   2.664
  344SOL     OW 1930   3.911   6.107   0.227
  344SOL    HW1 1931   3.941   6.201   0.240
  344SOL    HW2 1932   3.858   6.100   0.142
  345SOL     OW 1933   1.390   1.349   6.091
  345SOL    HW1 1934   1.387   1.273   6.155
  345SOL    HW2 1935   1.404   1.435   6.141
  346SOL     OW 1936   3.297   0.803   4.362
  346SOL    HW1 1937   3.275   0.849   4.448
  346SOL    HW2 1938   3.265   0.709   4.365
  347SOL     OW 1939   4.543   6.875   5.753
  347SOL    HW1 1940   4.483   6.816   5.808
  347SOL    HW2 1941   4.520   6.866   5.656
  348SOL     OW 1942   2.430   6.437   2.813
  348SOL    HW1 1943   2.525   6.427   2.841
  348SOL    HW2 1944   2.407   6.367   2.746
  349SOL     OW 1945   2.744   5.009   2.061
  349SOL    HW1 1946   2.806   5.077   2.022
  349SOL    HW2 1947   2.753   5.009   2.160
  350SOL     OW 1948   4.340   3.379   1.064
  350SOL    HW1 1949   4.392   3.423   0.991
  350SOL    HW2 1950   4.249   3.355   1.031
  351SOL     OW 1951   2.906   1.842   0.774
  351SOL    HW1 1952   2.860   1.926   0.802
  351SOL    HW2 1953   2.839   1.768   0.768
  352SOL     OW 1954   3.316   1.719   5.790
  352SOL    HW1 1955   3.259   1.781   5.736
  352SOL    HW2 1956   3.334   1.761   5.879
  353SOL     OW 1957   2.153   0.042   1.485
  353SOL    HW1 1958   2.208   0.075   1.409
  353SOL    HW2 1959   2.209   0.039   1.568
  354SOL     OW 1960   5.085   0.812   2.484
  354SOL    HW1 1961   5.147   0.860   2.421
  354SOL    HW2 1962   5.048   0.731   2.437
  355SOL     OW 1963   1.526   1.321   1.919
  355SOL    HW1 1964   1.568   1.303   1.830
  355SOL    HW2 1965   1.554   1.250   1.984
  356SOL     OW 1966   3.966   6.587   2.939
  356SOL    HW1 1967   3.891   6.534   2.979
  356SOL    HW2 1968   3.999   6.543   2.856
  357SOL     OW 1969   1.373   4.752   5.594
  357SOL    HW1 1970   1.376   4.702   5.681
  357SOL    HW2 1971   1.460   4.800   5.580
  358SOL     OW 1972   5.292   1.139   3.432
  358SOL    HW1 1973   5.209   1.191   3.410
  358SOL    HW2 1974   5.372   1.187   3.396
  359SOL     OW 1975   0.774   1.876   0.191
  359SOL    HW1 1976   0.749   1.854   0.285
  359SOL    HW2 1977   0.761   1.974   0.175
  360SOL     OW 1978   5.366   6.989   0.258
  360SOL    HW1 1979   5.380   0.056   0.309
  360SOL    HW2 1980   5.446   6.970   0.202
  361SOL     OW 1981   3.465   0.921   3.115
  361SOL    HW1 1982   3.495   0.899   3.207
  361SOL    HW2 1983   3.400   0.997   3.118
  362SOL     OW 1984   2.789   3.871   1.298
  362SOL    HW1 1985   2.791   3.845   1.202
  362SOL    HW2 1986   2.865   3.827   1.346
  363SOL     OW 1987   4.409   4.543   3.793
  363SOL    HW1 1988   4.508   4.548   3.808
  363SOL    HW2 1989   4.390   4.533   3.695
  364SOL     OW 1990   2.106   5.757   6.471
  364SOL    HW1 1991   2.170   5.777   6.397
  364SOL    HW2 1992   2.134   5.673   6.517
  365SOL     OW 1993   4.908   6.955   2.987
  365SOL    HW1 1994   4.923   6.955   2.888
  365SOL    HW2 1995   4.843   0.009   3.011
  366SOL     OW 1996   5.251   1.109   0.651
  366SOL    HW1 1997   5.269   1.185   0.590
  366SOL    HW2 1998   5.229   1.143   0.743
  367SOL     OW 1999   4.602   1.930   2.340
  367SOL    HW1 2000   4.699   1.910   2.328
  367SOL    HW2 2001   4.554   1.914   2.254
  368SOL     OW 2002   1.851   5.212   5.638
  368SOL    HW1 2003   1.916   5.156   5.689
  368SOL    HW2 2004   1.830   5.168   5.551
  369SOL     OW 2005   0.613   3.676   1.354
  369SOL    HW1 2006   0.542   3.627   1.303
  369SOL    HW2 2007   0.667   3.731   1.290
  370SOL     OW 2008   3.540   1.726   6.622
  370SOL    HW1 2009   3.479   1.800   6.652
  370SOL    HW2 2010   3.486   1.655   6.578
  371SOL     OW 2011   3.340   3.043   6.312
  371SOL    HW1 2012   3.399   3.048   6.232
  371SOL    HW2 2013   3.394   3.014   6.391
  372SOL     OW 2014   2.280   5.237   0.206
  372SOL    HW1 2015   2.266   5.298   0.128
  372SOL    HW2 2016   2.229   5.272   0.285
  373SOL     OW 2017   6.199   6.807   6.647
  373SOL    HW1 2018   6.294   6.790   6.672
  373SOL    HW2 2019   6.148   6.835   6.728
  374SOL     OW 2020   4.418   0.567   1.345
  374SOL    HW1 2021   4.422   0.619   1.260
  374SOL    HW2 2022   4.431   0.469   1.325
  375SOL     OW 2023   6.515   4.322   0.359
  375SOL    HW1 2024   6.534   4.356   0.452
  375SOL    HW2 2025   6.486   4.398   0.301
  376SOL     OW 2026   1.880   4.032   4.766
  376SOL    HW1 2027   1.924   4.105   4.819
  376SOL    HW2 2028   1.856   3.957   4.828
  377SOL     OW 2029   4.679   1.753   4.850
  377SOL    HW1 2030   4.704   1.684   4.783
  377SOL    HW2 2031   4.667   1.841   4.804
  378SOL     OW 2032   5.433   2.283   5.029
  378SOL    HW1 2033   5.398   2.266   5.121
  378SOL    HW2 2034   5.411   2.377   5.002
  379SOL     OW 2035   6.846   2.469   1.818
  379SOL    HW1 2036   6.874   2.533   1.746
  379SOL    HW2 2037   6.925   2.413   1.845
  380SOL     OW 2038   1.365   1.980   6.750
  380SOL    HW1 2039   1.410   1.915   6.811
  380SOL    HW2 2040   1.299   2.035   6.802
  381SOL     OW 2041   4.154   5.261   0.570
  381SOL    HW1 2042   4.080   5.312   0.526
  381SOL    HW2 2043   4.142   5.163   0.554
  382SOL     OW 2044   2.714   5.443   0.394
  382SOL    HW1 2045   2.634   5.461   0.452
  382SOL    HW2 2046   2.685   5.397   0.310
  383SOL     OW 2047   6.383   1.796   0.103
  383SOL    HW1 2048   6.437   1.812   0.186
  383SOL    HW2 2049   6.331   1.711   0.113
  384SOL     OW 2050   1.553   5.420   5.372
  384SOL    HW1 2051   1.649   5.404   5.350
  384SOL    HW2 2052   1.521   5.349   5.435
  385SOL     OW 2053   4.788   5.376   2.036
  385SOL    HW1 2054   4.709   5.315   2.039
  385SOL    HW2 2055   4.817   5.398   2.129
  386SOL     OW 2056   2.795   6.264   4.541
  386SOL    HW1 2057   2.794   6.187   4.605
  386SOL    HW2 2058   2.701   6.283   4.511
  387SOL     OW 2059   6.621   0.555   6.048
  387SOL    HW1 2060   6.606   0.645   6.089
  387SOL    HW2 2061   6.717   0.528   6.061
  388SOL     OW 2062   0.008   1.923   4.414
  388SOL    HW1 2063   0.014   1.826   4.440
  388SOL    HW2 2064   0.067   1.940   4.336
  389SOL     OW 2065   5.091   3.790   2.020
  389SOL    HW1 2066   5.108   3.756   1.927
  389SOL    HW2 2067   5.170   3.770   2.077
  390SOL     OW 2068   4.086   2.929   6.548
  390SOL    HW1 2069   4.047   3.021   6.538
  390SOL    HW2 2070   4.086   2.883   6.459
  391SOL     OW 2071   4.002   3.874   3.575
  391SOL    HW1 2072   4.056   3.815   3.635
  391SOL    HW2 2073   3.909   3.838   3.568
  392SOL     OW 2074   1.879   3.947   1.493
  392SOL    HW1 2075   1.901   4.019   1.427
  392SOL    HW2 2076   1.958   3.930   1.551
  393SOL     OW 2077   1.568   5.923   1.673
  393SOL    HW1 2078   1.578   5.964   1.583
  393SOL    HW2 2079   1.637   5.961   1.735
  394SOL     OW 2080   6.111   0.984   6.413
  394SOL    HW1 2081   6.208   1.008   6.410
  394SOL    HW2 2082   6.088   0.926   6.335
  395SOL     OW 2083   6.021   4.271   6.790
  395SOL    HW1 2084   5.997   4.342   6.724
  395SOL    HW2 2085   6.118   4.247   6.779
  396SOL     OW 2086   1.194   0.724   1.389
  396SOL    HW1 2087   1.119   0.783   1.361
  396SOL    HW2 2088   1.186   0.705   1.487
  397SOL     OW 2089   4.632   2.342   4.641
  397SOL    HW1 2090   4.572   2.271   4.602
  397SOL    HW2 2091   4.607   2.358   4.736
  398SOL     OW 2092   0.210   1.500   3.166
  398SOL    HW1 2093   0.134   1.565   3.172
  398SOL    HW2 2094   0.291   1.541   3.206
  399SOL     OW 2095   5.648   6.074   3.563
  399SOL    HW1 2096   5.639   6.147   3.631
  399SOL    HW2 2097   5.566   6.072   3.506
  400SOL     OW 2098   6.957   6.504   3.183
  400SOL    HW1 2099   6.889   6.445   3.228
  400SOL    HW2 2100   7.000   6.563   3.251
  401SOL     OW 2101   1.002   5.300   5.004
  401SOL    HW1 2102   1.095   5.298   4.968
  401SOL    HW2 2103   0.996   5.239   5.083
  402SOL     OW 2104   5.802   1.552   4.022
  402SOL    HW1 2105   5.894   1.590   4.028
  402SOL    HW2 2106   5.797   1.486   3.948
  403SOL     OW 2107   3.005   1.907   4.541
  403SOL    HW1 2108   3.044   1.861   4.461
  403SOL    HW2 2109   2.906   1.895   4.541
  404SOL     OW 2110   2.887   5.242   3.786
  404SOL    HW1 2111   2.925   5.193   3.865
  404SOL    HW2 2112   2.788   5.251   3.797
  405SOL     OW 2113   2.789   4.987   4.021
  405SOL    HW1 2114   2.763   4.965   4.115
  405SOL    HW2 2115   2.726   5.056   3.984
  406SOL     OW 2116   0.542   6.908   6.536
  406SOL    HW1 2117   0.614   6.932   6.471
  406SOL    HW2 2118   0.464   6.870   6.487
  407SOL     OW 2119   2.114   3.547   3.948
  407SOL    HW1 2120   2.150   3.454   3.936
  407SOL    HW2 2121   2.139   3.580   4.039
  408SOL     OW 2122   2.608   2.435   2.036
  408SOL    HW1 2123   2.702   2.455   2.010
  408SOL    HW2 2124   2.598   2.448   2.135
  409SOL     OW 2125   0.234   2.729   2.637
  409SOL    HW1 2126   0.172   2.651   2.644
  409SOL    HW2 2127   0.198   2.794   2.570
  410SOL     OW 2128   1.827   3.106   1.959
  410SOL    HW1 2129   1.770   3.098   2.041
  410SOL    HW2 2130   1.911   3.154   1.981
  411SOL     OW 2131   6.970   1.691   0.519
  411SOL    HW1 2132   7.007   1.719   0.608
  411SOL    HW2 2133   0.028   1.684   0.453
  412SOL     OW 2134   1.508   4.899   2.484
  412SOL    HW1 2135   1.420   4.855   2.465
  412SOL    HW2 2136   1.512   4.986   2.435
  413SOL     OW 2137   6.153   4.739   1.836
  413SOL    HW1 2138   6.144   4.669   1.764
  413SOL    HW2 2139   6.150   4.829   1.794
  414SOL     OW 2140   2.539   6.456   3.239
  414SOL    HW1 2141   2.615   6.470   3.176
  414SOL    HW2 2142   2.572   6.411   3.322
  415SOL     OW 2143   5.699   2.258   0.181
  415SOL    HW1 2144   5.740   2.338   0.224
  415SOL    HW2 2145   5.748   2.236   0.097
  416SOL     OW 2146   5.685   3.056   6.162
  416SOL    HW1 2147   5.664   3.105   6.246
  416SOL    HW2 2148   5.768   3.001   6.176
  417SOL     OW 2149   2.278   2.430   5.712
  417SOL    HW1 2150   2.199   2.474   5.670
  417SOL    HW2 2151   2.278   2.332   5.689
  418SOL     OW 2152   3.687   6.120   6.060
  418SOL    HW1 2153   3.647   6.198   6.011
  418SOL    HW2 2154   3.709   6.147   6.154
  419SOL     OW 2155   5.636   0.941   6.812
  419SOL    HW1 2156   5.565   1.010   6.798
  419SOL    HW2 2157   5.668   0.944   6.907
  420SOL     OW 2158   3.403   6.595   0.971
  420SOL    HW1 2159   3.470   6.668   0.989
  420SOL    HW2 2160   3.447   6.506   0.986
  421SOL     OW 2161   4.777   4.095   2.591
  421SOL    HW1 2162   4.716   4.068   2.516
  421SOL    HW2 2163   4.735   4.170   2.642
  422SOL     OW 2164   3.891   1.892   1.806
  422SOL    HW1 2165   3.983   1.890   1.766
  422SOL    HW2 2166   3.853   1.984   1.795
  423SOL     OW 2167   3.138   1.114   6.182
  423SOL    HW1 2168   3.190   1.134   6.099
  423SOL    HW2 2169   3.185   1.042   6.233
  424SOL     OW 2170   1.687   3.950   4.524
  424SOL    HW1 2171   1.746   4.007   4.582
  424SOL    HW2 2172   1.707   3.968   4.428
  425SOL     OW 2173   3.399   1.280   0.294
  425SOL    HW1 2174   3.318   1.250   0.344
  425SOL    HW2 2175   3.481   1.246   0.339
  426SOL     OW 2176   2.343   1.921   3.725
  426SOL    HW1 2177   2.362   1.885   3.816
  426SOL    HW2 2178   2.424   1.967   3.689
  427SOL     OW 2179   4.492   1.469   3.953
  427SOL    HW1 2180   4.423   1.469   3.880
  427SOL    HW2 2181   4.514   1.564   3.978
  428SOL     OW 2182   2.453   2.115   6.544
  428SOL    HW1 2183   2.361   2.139   6.575
  428SOL    HW2 2184   2.446   2.053   6.466
  429SOL     OW 2185   0.169   6.334   3.362
  429SOL    HW1 2186   0.177   6.305   3.266
  429SOL    HW2 2187   0.145   6.431   3.365
  430SOL     OW 2188   2.275   1.205   3.500
  430SOL    HW1 2189   2.289   1.179   3.404
  430SOL    HW2 2190   2.363   1.221   3.544
  431SOL     OW 2191   2.849   0.944   1.637
  431SOL    HW1 2192   2.795   1.000   1.701
  431SOL    HW2 2193   2.945   0.971   1.643
  432SOL     OW 2194   4.986   1.979   1.322
  432SOL    HW1 2195   4.946   2.017   1.406
  432SOL    HW2 2196   5.082   1.958   1.338
  433SOL     OW 2197   2.170   4.439   0.432
  433SOL    HW1 2198   2.154   4.372   0.359
  433SOL    HW2 2199   2.252   4.492   0.411
  434SOL     OW 2200   4.172   5.664   2.668
  434SOL    HW1 2201   4.145   5.571   2.642
  434SOL    HW2 2202   4.093   5.712   2.707
  435SOL     OW 2203   3.242   2.526   6.128
  435SOL    HW1 2204   3.161   2.470   6.114
  435SOL    HW2 2205   3.275   2.559   6.040
  436SOL     OW 2206   5.707   6.561   2.296
  436SOL    HW1 2207   5.683   6.560   2.199
  436SOL    HW2 2208   5.739   6.653   2.321
  437SOL     OW 2209   6.937   0.931   5.391
  437SOL    HW1 2210   7.011   0.946   5.325
  437SOL    HW2 2211   6.862   0.881   5.348
  438SOL     OW 2212   0.746   4.273   2.387
  438SOL    HW1 2213   0.739   4.184   2.430
  438SOL    HW2 2214   0.842   4.294   2.368
  439SOL     OW 2215   0.542   0.625   6.150
  439SOL    HW1 2216   0.618   0.679   6.114
  439SOL    HW2 2217   0.567   0.590   6.241
  440SOL     OW 2218   3.707   1.978   1.093
  440SOL    HW1 2219   3.719   1.879   1.088
  440SOL    HW2 2220   3.668   2.003   1.181
  441SOL     OW 2221   0.352   4.946   2.377
  441SOL    HW1 2222   0.364   4.850   2.401
  441SOL    HW2 2223   0.256   4.971   2.388
  442SOL     OW 2224   3.621   3.183   4.984
  442SOL    HW1 2225   3.591   3.247   4.913
  442SOL    HW2 2226   3.720   3.167   4.975
  443SOL     OW 2227   4.682   2.568   3.089
  443SOL    HW1 2228   4.616   2.496   3.070
  443SOL    HW2 2229   4.732   2.547   3.173
  444SOL     OW 2230   4.431   2.449   1.379
  444SOL    HW1 2231   4.354   2.462   1.442
  444SOL    HW2 2232   4.425   2.515   1.304
  445SOL     OW 2233   2.543   5.608   2.847
  445SOL    HW1 2234   2.518   5.518   2.811
  445SOL    HW2 2235   2.495   5.679   2.796
  446SOL     OW 2236   6.039   6.966   0.858
  446SOL    HW1 2237   6.003   6.933   0.771
  446SOL    HW2 2238   6.038   0.048   0.859
  447SOL     OW 2239   6.018   3.747   6.673
  447SOL    HW1 2240   5.994   3.834   6.715
  447SOL    HW2 2241   6.052   3.763   6.580
  448SOL     OW 2242   3.461   6.153   3.857
  448SOL    HW1 2243   3.396   6.142   3.933
  448SOL    HW2 2244   3.493   6.248   3.854
  449SOL     OW 2245   0.582   3.969   4.638
  449SOL    HW1 2246   0.651   3.899   4.658
  449SOL    HW2 2247   0.514   3.970   4.711
  450SOL     OW 2248   6.900   3.963   2.939
  450SOL    HW1 2249   6.915   3.964   2.840
  450SOL    HW2 2250   6.830   4.031   2.962
  451SOL     OW 2251   2.164   1.965   0.064
  451SOL    HW1 2252   2.120   2.054   0.073
  451SOL    HW2 2253   2.250   1.975   0.015
  452SOL     OW 2254   4.021   5.520   1.760
  452SOL    HW1 2255   3.993   5.429   1.791
  452SOL    HW2 2256   4.073   5.511   1.675
  453SOL     OW 2257   4.833   0.635   0.264
  453SOL    HW1 2258   4.898   0.578   0.314
  453SOL    HW2 2259   4.852   0.630   0.166
  454SOL     OW 2260   6.856   3.290   4.080
  454SOL    HW1 2261   6.941   3.281   4.029
  454SOL    HW2 2262   6.874   3.272   4.177
  455SOL     OW 2263   5.538   5.384   0.011
  455SOL    HW1 2264   5.622   5.425   6.993
  455SOL    HW2 2265   5.472   5.456   0.031
  456SOL     OW 2266   1.596   0.769   3.045
  456SOL    HW1 2267   1.573   0.714   2.964
  456SOL    HW2 2268   1.692   0.796   3.040
  457SOL     OW 2269   2.900   5.845   0.170
  457SOL    HW1 2270   2.923   5.780   0.242
  457SOL    HW2 2271   2.880   5.934   0.210
  458SOL     OW 2272   3.700   1.092   3.606
  458SOL    HW1 2273   3.636   1.022   3.639
  458SOL    HW2 2274   3.784   1.048   3.574
  459SOL     OW 2275   2.648   0.971   3.282
  459SOL    HW1 2276   2.620   1.056   3.326
  459SOL    HW2 2277   2.624   0.975   3.185
  460SOL     OW 2278   0.904   1.577   6.952
  460SOL    HW1 2279   0.947   1.558   6.864
  460SOL    HW2 2280   0.945   1.659   6.993
  461SOL     OW 2281   1.082   6.997   5.621
  461SOL    HW1 2282   1.093   6.904   5.587
  461SOL    HW2 2283   1.165   0.007   5.670
  462SOL     OW 2284   3.811   4.024   4.981
  462SOL    HW1 2285   3.775   3.954   5.043
  462SOL    HW2 2286   3.885   3.984   4.926
  463SOL     OW 2287   5.143   6.124   2.943
  463SOL    HW1 2288   5.124   6.029   2.968
  463SOL    HW2 2289   5.075   6.184   2.987
  464SOL     OW 2290   4.339   6.129   5.142
  464SOL    HW1 2291   4.302   6.205   5.089
  464SOL    HW2 2292   4.337   6.151   5.239
  465SOL     OW 2293   0.120   4.807   6.992
  465SOL    HW1 2294   0.174   4.725   6.972
  465SOL    HW2 2295   0.171   4.888   6.965
  466SOL     OW 2296   3.955   4.876   4.254
  466SOL    HW1 2297   3.893   4.906   4.326
  466SOL    HW2 2298   4.043   4.851   4.293
  467SOL     OW 2299   6.570   0.292   1.693
  467SOL    HW1 2300   6.645   0.343   1.650
  467SOL    HW2 2301   6.598   0.197   1.706
  468SOL     OW 2302   2.269   5.784   6.275
  468SOL    HW1 2303   2.352   5.728   6.268
  468SOL    HW2 2304   2.235   5.803   6.183
  469SOL     OW 2305   3.230   4.541   5.338
  469SOL    HW1 2306   3.151   4.517   5.282
  469SOL    HW2 2307   3.232   4.640   5.352
  470SOL     OW 2308   2.026   5.186   2.353
  470SOL    HW1 2309   1.979   5.248   2.417
  470SOL    HW2 2310   1.973   5.179   2.269
  471SOL     OW 2311   1.416   1.860   4.211
  471SOL    HW1 2312   1.316   1.857   4.209
  471SOL    HW2 2313   1.448   1.843   4.305
  472SOL     OW 2314   5.642   4.157   6.374
  472SOL    HW1 2315   5.718   4.152   6.439
  472SOL    HW2 2316   5.669   4.210   6.294
  473SOL     OW 2317   5.483   2.905   2.284
  473SOL    HW1 2318   5.467   2.831   2.219
  473SOL    HW2 2319   5.462   2.874   2.376
  474SOL     OW 2320   4.899   5.493   3.319
  474SOL    HW1 2321   4.805   5.521   3.334
  474SOL    HW2 2322   4.915   5.478   3.222
  475SOL     OW 2323   4.797   1.462   0.360
  475SOL    HW1 2324   4.892   1.482   0.382
  475SOL    HW2 2325   4.758   1.402   0.429
  476SOL     OW 2326   0.938   3.368   0.142
  476SOL    HW1 2327   0.986   3.452   0.166
  476SOL    HW2 2328   0.839   3.384   0.145
  477SOL     OW 2329   6.349   5.482   3.590
  477SOL    HW1 2330   6.256   5.498   3.624
  477SOL    HW2 2331   6.411   5.471   3.668
  478SOL     OW 2332   6.331   5.259   2.531
  478SOL    HW1 2333   6.316   5.358   2.536
  478SOL    HW2 2334   6.428   5.240   2.519
  479SOL     OW 2335   3.188   3.616   3.050
  479SOL    HW1 2336   3.122   3.683   3.017
  479SOL    HW2 2337   3.176   3.602   3.148
  480SOL     OW 2338   0.903   0.858   1.601
  480SOL    HW1 2339   0.823   0.911   1.628
  480SOL    HW2 2340   0.876   0.764   1.580
  481SOL     OW 2341   5.804   5.915   1.100
  481SOL    HW1 2342   5.790   5.819   1.077
  481SOL    HW2 2343   5.793   5.971   1.017
  482SOL     OW 2344   3.830   5.119   2.727
  482SOL    HW1 2345   3.838   5.020   2.721
  482SOL    HW2 2346   3.846   5.160   2.637
  483SOL     OW 2347   6.459   0.475   4.038
  483SOL    HW1 2348   6.509   0.560   4.049
  483SOL    HW2 2349   6.466   0.443   3.943
  484SOL     OW 2350   2.185   4.759   3.422
  484SOL    HW1 2351   2.165   4.661   3.432
  484SOL    HW2 2352   2.099   4.811   3.429
  485SOL     OW 2353   4.821   2.640   0.893
  485SOL    HW1 2354   4.829   2.657   0.795
  485SOL    HW2 2355   4.909   2.659   0.937
  486SOL     OW 2356   6.034   6.291   5.540
  486SOL    HW1 2357   6.086   6.367   5.579
  486SOL    HW2 2358   6.091   6.240   5.476
  487SOL     OW 2359   0.017   0.641   6.443
  487SOL    HW1 2360   6.939   0.617   6.457
  487SOL    HW2 2361   0.073   0.592   6.510
  488SOL     OW 2362   1.887   5.706   3.221
  488SOL    HW1 2363   1.837   5.733   3.138
  488SOL    HW2 2364   1.983   5.729   3.211
  489SOL     OW 2365   2.902   4.593   5.409
  489SOL    HW1 2366   2.965   4.664   5.439
  489SOL    HW2 2367   2.927   4.563   5.317
  490SOL     OW 2368   1.576   3.306   4.932
  490SOL    HW1 2369   1.627   3.375   4.880
  490SOL    HW2 2370   1.638   3.259   4.994
  491SOL     OW 2371   5.962   3.607   1.019
  491SOL    HW1 2372   6.047   3.615   1.071
  491SOL    HW2 2373   5.928   3.699   0.996
  492SOL     OW 2374   1.576   2.664   5.705
  492SOL    HW1 2375   1.513   2.680   5.629
  492SOL    HW2 2376   1.597   2.566   5.711
  493SOL     OW 2377   1.578   5.474   3.551
  493SOL    HW1 2378   1.646   5.426   3.607
  493SOL    HW2 2379   1.624   5.527   3.481
  494SOL     OW 2380   2.843   0.479   4.008
  494SOL    HW1 2381   2.884   0.389   3.996
  494SOL    HW2 2382   2.787   0.480   4.091
  495SOL     OW 2383   3.618   4.888   6.901
  495SOL    HW1 2384   3.534   4.938   6.877
  495SOL    HW2 2385   3.594   4.813   6.964
  496SOL     OW 2386   5.166   0.869   3.129
  496SOL    HW1 2387   5.104   0.838   3.201
  496SOL    HW2 2388   5.219   0.947   3.163
  497SOL     OW 2389   4.589   2.699   1.050
  497SOL    HW1 2390   4.508   2.657   1.010
  497SOL    HW2 2391   4.670   2.672   0.998
  498SOL     OW 2392   0.397   0.396   1.133
  498SOL    HW1 2393   0.450   0.480   1.142
  498SOL    HW2 2394   0.390   0.371   1.037
  499SOL     OW 2395   2.831   6.809   6.999
  499SOL    HW1 2396   2.737   6.780   7.011
  499SOL    HW2 2397   2.860   6.864   0.059
  500SOL     OW 2398   5.837   1.963   6.423
  500SOL    HW1 2399   5.852   2.055   6.387
  500SOL    HW2 2400   5.759   1.922   6.375
  501SOL     OW 2401   1.501   1.841   4.452
  501SOL    HW1 2402   1.587   1.807   4.490
  501SOL    HW2 2403   1.431   1.843   4.523
  502SOL     OW 2404   2.514   3.385   6.709
  502SOL    HW1 2405   2.589   3.338   6.756
  502SOL    HW2 2406   2.551   3.451   6.644
  503SOL     OW 2407   3.635   4.954   1.234
  503SOL    HW1 2408   3.646   4.922   1.328
  503SOL    HW2 2409   3.603   4.879   1.176
  504SOL     OW 2410   6.435   6.965   0.276
  504SOL    HW1 2411   6.416   0.036   0.316
  504SOL    HW2 2412   6.374   6.896   0.316
  505SOL     OW 2413   6.463   3.976   5.574
  505SOL    HW1 2414   6.531   4.049   5.569
  505SOL    HW2 2415   6.431   3.967   5.668
  506SOL     OW 2416   2.552   5.559   2.438
  506SOL    HW1 2417   2.542   5.490   2.509
  506SOL    HW2 2418   2.542   5.516   2.348
  507SOL     OW 2419   2.935   0.015   3.130
  507SOL    HW1 2420   2.854   0.024   3.072
  507SOL    HW2 2421   2.932   0.085   3.202
  508SOL     OW 2422   0.345   5.310   3.855
  508SOL    HW1 2423   0.289   5.335   3.776
  508SOL    HW2 2424   0.341   5.211   3.870
  509SOL     OW 2425   4.217   0.412   5.834
  509SOL    HW1 2426   4.217   0.330   5.777
  509SOL    HW2 2427   4.303   0.462   5.820
  510SOL     OW 2428   6.682   4.573   6.838
  510SOL    HW1 2429   6.681   4.625   6.752
  510SOL    HW2 2430   6.758   4.604   6.895
  511SOL     OW 2431   0.865   1.167   0.103
  511SOL    HW1 2432   0.958   1.142   0.130
  511SOL    HW2 2433   0.849   1.140   0.008
  512SOL     OW 2434   0.920   2.013   4.172
  512SOL    HW1 2435   0.864   1.943   4.128
  512SOL    HW2 2436   0.865   2.096   4.183
  513SOL     OW 2437   5.708   6.218   2.755
  513SOL    HW1 2438   5.734   6.233   2.659
  513SOL    HW2 2439   5.696   6.307   2.800
  514SOL     OW 2440   4.703   1.557   4.648
  514SOL    HW1 2441   4.750   1.527   4.565
  514SOL    HW2 2442   4.662   1.478   4.694
  515SOL     OW 2443   3.481   0.929   0.211
  515SOL    HW1 2444   3.550   0.996   0.181
  515SOL    HW2 2445   3.488   0.846   0.156
  516SOL     OW 2446   1.070   5.828   2.200
  516SOL    HW1 2447   1.107   5.812   2.108
  516SOL    HW2 2448   1.141   5.869   2.257
  517SOL     OW 2449   3.518   4.654   1.270
  517SOL    HW1 2450   3.420   4.656   1.248
  517SOL    HW2 2451   3.533   4.700   1.357
  518SOL     OW 2452   2.546   6.313   3.945
  518SOL    HW1 2453   2.592   6.227   3.925
  518SOL    HW2 2454   2.615   6.384   3.960
  519SOL     OW 2455   6.719   0.504   2.681
  519SOL    HW1 2456   6.757   0.448   2.755
  519SOL    HW2 2457   6.793   0.550   2.632
  520SOL     OW 2458   2.517   5.610   0.858
  520SOL    HW1 2459   2.491   5.514   0.864
  520SOL    HW2 2460   2.570   5.635   0.939
  521SOL     OW 2461   6.736   6.013   5.407
  521SOL    HW1 2462   6.768   6.065   5.487
  521SOL    HW2 2463   6.809   6.010   5.339
  522SOL     OW 2464   3.604   4.741   6.654
  522SOL    HW1 2465   3.625   4.758   6.750
  522SOL    HW2 2466   3.642   4.815   6.598
  523SOL     OW 2467   1.745   6.912   6.084
  523SOL    HW1 2468   1.821   6.910   6.018
  523SOL    HW2 2469   1.658   6.916   6.035
  524SOL     OW 2470   6.914   0.890   0.606
  524SOL    HW1 2471   6.848   0.964   0.593
  524SOL    HW2 2472   6.894   0.841   0.690
  525SOL     OW 2473   0.972   3.778   3.411
  525SOL    HW1 2474   0.900   3.719   3.448
  525SOL    HW2 2475   1.055   3.768   3.467
  526SOL     OW 2476   3.891   6.720   4.787
  526SOL    HW1 2477   3.869   6.812   4.819
  526SOL    HW2 2478   3.918   6.663   4.865
  527SOL     OW 2479   0.267   1.042   1.032
  527SOL    HW1 2480   0.190   0.982   1.013
  527SOL    HW2 2481   0.312   1.068   0.946
  528SOL     OW 2482   6.758   1.298   4.666
  528SOL    HW1 2483   6.741   1.391   4.700
  528SOL    HW2 2484   6.743   1.296   4.567
  529SOL     OW 2485   1.392   1.346   5.805
  529SOL    HW1 2486   1.314   1.287   5.783
  529SOL    HW2 2487   1.388   1.370   5.902
  530SOL     OW 2488   3.305   4.485   1.552
  530SOL    HW1 2489   3.362   4.405   1.570
  530SOL    HW2 2490   3.353   4.567   1.580
  531SOL     OW 2491   0.664   0.860   6.338
  531SOL    HW1 2492   0.589   0.903   6.287
  531SOL    HW2 2493   0.726   0.932   6.372
  532SOL     OW 2494   3.319   0.807   6.692
  532SOL    HW1 2495   3.249   0.793   6.762
  532SOL    HW2 2496   3.366   0.894   6.708
  533SOL     OW 2497   4.523   6.883   4.877
  533SOL    HW1 2498   4.553   6.978   4.879
  533SOL    HW2 2499   4.428   6.878   4.846
  534SOL     OW 2500   2.000   4.025   1.943
  534SOL    HW1 2501   1.997   4.120   1.913
  534SOL    HW2 2502   1.987   3.964   1.865
  535SOL     OW 2503   4.607   4.452   4.277
  535SOL    HW1 2504   4.610   4.429   4.180
  535SOL    HW2 2505   4.692   4.497   4.304
  536SOL     OW 2506   6.447   6.460   0.925
  536SOL    HW1 2507   6.475   6.364   0.924
  536SOL    HW2 2508   6.511   6.513   0.980
  537SOL     OW 2509   2.949   1.754   2.508
  537SOL    HW1 2510   2.991   1.717   2.425
  537SOL    HW2 2511   2.853   1.726   2.512
  538SOL     OW 2512   4.211   4.396   5.350
  538SOL    HW1 2513   4.116   4.418   5.370
  538SOL    HW2 2514   4.238   4.440   5.264
  539SOL     OW 2515   2.483   0.447   6.731
  539SOL    HW1 2516   2.468   0.408   6.822
  539SOL    HW2 2517   2.397   0.446   6.680
  540SOL     OW 2518   1.989   1.385   5.124
  540SOL    HW1 2519   1.909   1.444   5.133
  540SOL    HW2 2520   1.974   1.299   5.173
  541SOL     OW 2521   4.966   6.099   3.259
  541SOL    HW1 2522   4.915   6.147   3.330
  541SOL    HW2 2523   4.999   6.012   3.294
  542SOL     OW 2524   3.685   5.996   5.816
  542SOL    HW1 2525   3.700   6.007   5.915
  542SOL    HW2 2526   3.718   5.905   5.788
  543SOL     OW 2527   6.554   2.422   4.758
  543SOL    HW1 2528   6.554   2.521   4.745
  543SOL    HW2 2529   6.596   2.378   4.679
  544SOL     OW 2530   0.659   2.720   0.909
  544SOL    HW1 2531   0.679   2.684   1.000
  544SOL    HW2 2532   0.744   2.728   0.857
  545SOL     OW 2533   6.809   4.937   0.507
  545SOL    HW1 2534   6.748   4.952   0.429
  545SOL    HW2 2535   6.791   4.847   0.547
  546SOL     OW 2536   7.006   4.889   2.029
  546SOL    HW1 2537   6.944   4.812   2.047
  546SOL    HW2 2538   0.083   4.861   2.044
  547SOL     OW 2539   4.118   0.006   6.722
  547SOL    HW1 2540   4.073   6.955   6.665
  547SOL    HW2 2541   4.202   6.986   6.760
  548SOL     OW 2542   4.190   2.488   0.171
  548SOL    HW1 2543   4.123   2.486   0.246
  548SOL    HW2 2544   4.234   2.577   0.168
  549SOL     OW 2545   5.352   2.739   3.914
  549SOL    HW1 2546   5.312   2.676   3.981
  549SOL    HW2 2547   5.286   2.756   3.840
  550SOL     OW 2548   6.681   5.643   3.536
  550SOL    HW1 2549   6.664   5.606   3.445
  550SOL    HW2 2550   6.594   5.664   3.580
  551SOL     OW 2551   5.185   0.716   0.356
  551SOL    HW1 2552   5.223   0.769   0.433
  551SOL    HW2 2553   5.190   0.771   0.273
  552SOL     OW 2554   0.404   0.205   4.707
  552SOL    HW1 2555   0.338   0.152   4.653
  552SOL    HW2 2556   0.354   0.262   4.772
  553SOL     OW 2557   3.424   2.357   5.409
  553SOL    HW1 2558   3.393   2.449   5.385
  553SOL    HW2 2559   3.373   2.323   5.488
  554SOL     OW 2560   6.660   5.525   0.545
  554SOL    HW1 2561   6.632   5.614   0.578
  554SOL    HW2 2562   6.760   5.521   0.539
  555SOL     OW 2563   2.806   4.149   6.309
  555SOL    HW1 2564   2.860   4.219   6.263
  555SOL    HW2 2565   2.713   4.184   6.324
  556SOL     OW 2566   6.204   6.554   2.228
  556SOL    HW1 2567   6.134   6.483   2.242
  556SOL    HW2 2568   6.164   6.644   2.247
  557SOL     OW 2569   5.567   3.544   6.343
  557SOL    HW1 2570   5.544   3.638   6.368
  557SOL    HW2 2571   5.636   3.545   6.271
  558SOL     OW 2572   3.321   3.839   2.195
  558SOL    HW1 2573   3.298   3.763   2.256
  558SOL    HW2 2574   3.247   3.906   2.195
  559SOL     OW 2575   6.216   1.195   6.835
  559SOL    HW1 2576   6.260   1.228   6.751
  559SOL    HW2 2577   6.172   1.107   6.818
  560SOL     OW 2578   0.452   2.171   3.559
  560SOL    HW1 2579   0.487   2.083   3.525
  560SOL    HW2 2580   0.390   2.210   3.491
  561SOL     OW 2581   0.262   3.754   6.913
  561SOL    HW1 2582   0.207   3.837   6.912
  561SOL    HW2 2583   0.326   3.757   6.989
  562SOL     OW 2584   4.184   6.427   3.707
  562SOL    HW1 2585   4.272   6.418   3.754
  562SOL    HW2 2586   4.170   6.523   3.682
  563SOL     OW 2587   0.839   1.197   4.134
  563SOL    HW1 2588   0.847   1.288   4.176
  563SOL    HW2 2589   0.912   1.138   4.169
  564SOL     OW 2590   6.118   1.974   5.412
  564SOL    HW1 2591   6.145   1.880   5.432
  564SOL    HW2 2592   6.022   1.988   5.438
  565SOL     OW 2593   2.847   3.575   3.957
  565SOL    HW1 2594   2.884   3.486   3.931
  565SOL    HW2 2595   2.876   3.598   4.050
  566SOL     OW 2596   1.865   2.362   3.693
  566SOL    HW1 2597   1.925   2.383   3.771
  566SOL    HW2 2598   1.881   2.428   3.619
  567SOL     OW 2599   1.813   3.305   5.537
  567SOL    HW1 2600   1.785   3.210   5.551
  567SOL    HW2 2601   1.839   3.318   5.441
  568SOL     OW 2602   1.310   0.034   0.027
  568SOL    HW1 2603   1.323   0.121   6.996
  568SOL    HW2 2604   1.256   0.050   0.109
  569SOL     OW 2605   5.079   3.652   5.557
  569SOL    HW1 2606   5.125   3.684   5.474
  569SOL    HW2 2607   5.092   3.719   5.630
  570SOL     OW 2608   3.415   0.968   6.207
  570SOL    HW1 2609   3.489   0.962   6.140
  570SOL    HW2 2610   3.444   1.025   6.284
  571SOL     OW 2611   2.431   4.163   1.631
  571SOL    HW1 2612   2.515   4.193   1.586
  571SOL    HW2 2613   2.417   4.215   1.715
  572SOL     OW 2614   2.869   1.241   4.254
  572SOL    HW1 2615   2.936   1.292   4.199
  572SOL    HW2 2616   2.914   1.204   4.336
  573SOL     OW 2617   0.379   0.723   5.380
  573SOL    HW1 2618   0.354   0.704   5.285
  573SOL    HW2 2619   0.381   0.637   5.431
  574SOL     OW 2620   2.027   1.280   6.283
  574SOL    HW1 2621   2.024   1.358   6.220
  574SOL    HW2 2622   2.105   1.221   6.261
  575SOL     OW 2623   3.841   3.685   0.387
  575SOL    HW1 2624   3.848   3.694   0.287
  575SOL    HW2 2625   3.933   3.683   0.427
  576SOL     OW 2626   0.507   1.008   2.993
  576SOL    HW1 2627   0.557   0.936   3.039
  576SOL    HW2 2628   0.570   1.083   2.969
  577SOL     OW 2629   0.221   6.982   1.993
  577SOL    HW1 2630   0.202   0.047   2.045
  577SOL    HW2 2631   0.288   7.003   1.921
  578SOL     OW 2632   4.277   0.048   0.307
  578SOL    HW1 2633   4.270   0.099   0.222
  578SOL    HW2 2634   4.185   0.023   0.338
  579SOL     OW 2635   0.917   3.881   1.807
  579SOL    HW1 2636   0.871   3.941   1.742
  579SOL    HW2 2637   1.015   3.901   1.809
  580SOL     OW 2638   4.715   5.219   4.745
  580SOL    HW1 2639   4.751   5.311   4.731
  580SOL    HW2 2640   4.708   5.172   4.657
  581SOL     OW 2641   1.728   2.305   4.177
  581SOL    HW1 2642   1.660   2.235   4.199
  581SOL    HW2 2643   1.795   2.267   4.113
  582SOL     OW 2644   5.627   4.205   5.119
  582SOL    HW1 2645   5.532   4.220   5.091
  582SOL    HW2 2646   5.630   4.133   5.188
  583SOL     OW 2647   3.271   6.037   5.618
  583SOL    HW1 2648   3.235   6.130   5.609
  583SOL    HW2 2649   3.356   6.029   5.567
  584SOL     OW 2650   4.205   1.063   4.986
  584SOL    HW1 2651   4.292   1.026   5.019
  584SOL    HW2 2652   4.145   0.988   4.959
  585SOL     OW 2653   3.725   6.718   1.569
  585SOL    HW1 2654   3.661   6.791   1.547
  585SOL    HW2 2655   3.714   6.642   1.505
  586SOL     OW 2656   3.491   0.030   0.902
  586SOL    HW1 2657   3.460   0.121   0.873
  586SOL    HW2 2658   3.519   6.995   0.821
  587SOL     OW 2659   5.083   1.800   2.564
  587SOL    HW1 2660   5.083   1.737   2.642
  587SOL    HW2 2661   5.123   1.754   2.485
  588SOL     OW 2662   2.351   4.397   3.094
  588SOL    HW1 2663   2.326   4.364   3.003
  588SOL    HW2 2664   2.317   4.333   3.163
  589SOL     OW 2665   3.466   5.208   0.140
  589SOL    HW1 2666   3.565   5.191   0.144
  589SOL    HW2 2667   3.439   5.222   0.045
  590SOL     OW 2668   2.746   2.049   6.318
  590SOL    HW1 2669   2.719   2.145   6.316
  590SOL    HW2 2670   2.809   2.030   6.243
  591SOL     OW 2671   2.401   6.871   3.741
  591SOL    HW1 2672   2.464   6.826   3.804
  591SOL    HW2 2673   2.424   6.968   3.733
  592SOL     OW 2674   5.148   2.792   4.964
  592SOL    HW1 2675   5.135   2.726   5.038
  592SOL    HW2 2676   5.073   2.783   4.898
  593SOL     OW 2677   2.136   0.777   6.549
  593SOL    HW1 2678   2.197   0.856   6.544
  593SOL    HW2 2679   2.060   0.796   6.612
  594SOL     OW 2680   3.661   0.991   4.419
  594SOL    HW1 2681   3.621   1.043   4.344
  594SOL    HW2 2682   3.640   1.036   4.506
  595SOL     OW 2683   6.357   3.771   2.224
  595SOL    HW1 2684   6.363   3.862   2.265
  595SOL    HW2 2685   6.449   3.733   2.216
  596SOL     OW 2686   5.791   4.630   4.217
  596SOL    HW1 2687   5.880   4.641   4.173
  596SOL    HW2 2688   5.798   4.653   4.314
  597SOL     OW 2689   3.223   1.697   6.931
  597SOL    HW1 2690   3.154   1.689   7.004
  597SOL    HW2 2691   3.230   1.611   6.882
  598SOL     OW 2692   3.007   3.473   3.257
  598SOL    HW1 2693   3.090   3.421   3.274
  598SOL    HW2 2694   2.973   3.454   3.165
  599SOL     OW 2695   2.112   4.696   1.181
  599SOL    HW1 2696   2.081   4.705   1.086
  599SOL    HW2 2697   2.211   4.686   1.183
  600SOL     OW 2698   0.565   3.571   5.022
  600SOL    HW1 2699   0.659   3.568   4.987
  600SOL    HW2 2700   0.560   3.637   5.097
  601SOL     OW 2701   0.127   6.409   6.072
  601SOL    HW1 2702   0.204   6.410   6.135
  601SOL    HW2 2703   0.127   6.493   6.018
  602SOL     OW 2704   1.309   1.050   3.509
  602SOL    HW1 2705   1.390   1.076   3.562
  602SOL    HW2 2706   1.227   1.081   3.558
  603SOL     OW 2707   1.766   1.579   4.019
  603SOL    HW1 2708   1.830   1.599   3.945
  603SOL    HW2 2709   1.816   1.574   4.105
  604SOL     OW 2710   5.517   2.605   1.132
  604SOL    HW1 2711   5.491   2.699   1.151
  604SOL    HW2 2712   5.516   2.552   1.217
  605SOL     OW 2713   5.534   6.331   1.358
  605SOL    HW1 2714   5.439   6.308   1.377
  605SOL    HW2 2715   5.574   6.262   1.298
  606SOL     OW 2716   3.039   6.606   5.117
  606SOL    HW1 2717   3.044   6.705   5.104
  606SOL    HW2 2718   3.132   6.568   5.118
  607SOL     OW 2719   1.582   2.857   6.203
  607SOL    HW1 2720   1.635   2.941   6.211
  607SOL    HW2 2721   1.532   2.857   6.116
  608SOL     OW 2722   3.691   1.362   0.060
  608SOL    HW1 2723   3.611   1.312   0.025
  608SOL    HW2 2724   3.692   1.454   0.021
  609SOL     OW 2725   3.657   3.146   2.196
  609SOL    HW1 2726   3.722   3.076   2.165
  609SOL    HW2 2727   3.569   3.102   2.216
  610SOL     OW 2728   5.037   3.254   1.839
  610SOL    HW1 2729   4.973   3.240   1.763
  610SOL    HW2 2730   4.986   3.256   1.925
  611SOL     OW 2731   3.799   1.530   2.164
  611SOL    HW1 2732   3.770   1.529   2.260
  611SOL    HW2 2733   3.754   1.604   2.116
  612SOL     OW 2734   4.857   4.550   4.349
  612SOL    HW1 2735   4.906   4.506   4.274
  612SOL    HW2 2736   4.913   4.625   4.385
  613SOL     OW 2737   4.193   5.253   6.558
  613SOL    HW1 2738   4.168   5.234   6.653
  613SOL    HW2 2739   4.293   5.248   6.549
  614SOL     OW 2740   3.199   6.324   6.236
  614SOL    HW1 2741   3.294   6.351   6.226
  614SOL    HW2 2742   3.194   6.227   6.261
  615SOL     OW 2743   6.794   4.899   3.163
  615SOL    HW1 2744   6.862   4.972   3.168
  615SOL    HW2 2745   6.711   4.929   3.210
  616SOL     OW 2746   6.213   2.920   4.098
  616SOL    HW1 2747   6.241   2.990   4.032
  616SOL    HW2 2748   6.251   2.831   4.070
  617SOL     OW 2749   2.319   0.336   6.292
  617SOL    HW1 2750   2.356   0.429   6.294
  617SOL    HW2 2751   2.392   0.272   6.268
  618SOL     OW 2752   2.088   0.748   3.793
  618SOL    HW1 2753   2.008   0.800   3.761
  618SOL    HW2 2754   2.169   0.775   3.740
  619SOL     OW 2755   1.021   2.389   0.101
  619SOL    HW1 2756   0.964   2.415   0.179
  619SOL    HW2 2757   1.037   2.290   0.104
  620SOL     OW 2758   4.660   3.655   0.672
  620SOL    HW1 2759   4.624   3.710   0.747
  620SOL    HW2 2760   4.692   3.716   0.599
  621SOL     OW 2761   0.050   5.390   0.884
  621SOL    HW1 2762   0.015   5.300   0.858
  621SOL    HW2 2763   7.002   5.460   0.859
  622SOL     OW 2764   0.294   1.037   0.189
  622SOL    HW1 2765   0.338   1.015   0.102
  622SOL    HW2 2766   0.306   0.961   0.253
  623SOL     OW 2767   6.872   5.012   5.141
  623SOL    HW1 2768   6.932   4.976   5.070
  623SOL    HW2 2769   6.928   5.054   5.213
  624SOL     OW 2770   0.497   1.745   1.182
  624SOL    HW1 2771   0.580   1.797   1.159
  624SOL    HW2 2772   0.493   1.730   1.280
  625SOL     OW 2773   1.446   1.168   2.578
  625SOL    HW1 2774   1.497   1.105   2.519
  625SOL    HW2 2775   1.450   1.136   2.673
  626SOL     OW 2776   3.030   5.669   4.953
  626SOL    HW1 2777   2.966   5.601   4.916
  626SOL    HW2 2778   3.095   5.695   4.882
  627SOL     OW 2779   4.863   6.348   6.672
  627SOL    HW1 2780   4.774   6.374   6.633
  627SOL    HW2 2781   4.849   6.275   6.740
  628SOL     OW 2782   5.848   4.231   2.993
  628SOL    HW1 2783   5.802   4.167   3.055
  628SOL    HW2 2784   5.903   4.180   2.926
  629SOL     OW 2785   1.677   0.354   1.016
  629SOL    HW1 2786   1.681   0.313   0.924
  629SOL    HW2 2787   1.608   0.426   1.016
  630SOL     OW 2788   2.716   1.175   1.799
  630SOL    HW1 2789   2.812   1.205   1.800
  630SOL    HW2 2790   2.669   1.218   1.723
  631SOL     OW 2791   2.913   0.874   4.361
  631SOL    HW1 2792   2.927   0.806   4.289
  631SOL    HW2 2793   2.819   0.866   4.396
  632SOL     OW 2794   2.956   0.737   1.017
  632SOL    HW1 2795   2.909   0.656   1.051
  632SOL    HW2 2796   3.032   0.709   0.958
  633SOL     OW 2797   2.220   0.387   5.271
  633SOL    HW1 2798   2.125   0.359   5.273
  633SOL    HW2 2799   2.278   0.308   5.253
  634SOL     OW 2800   2.965   6.057   1.852
  634SOL    HW1 2801   2.944   6.071   1.755
  634SOL    HW2 2802   3.005   5.967   1.865
  635SOL     OW 2803   3.116   6.843   3.041
  635SOL    HW1 2804   3.052   6.919   3.037
  635SOL    HW2 2805   3.184   6.860   3.113
  636SOL     OW 2806   4.533   5.153   6.203
  636SOL    HW1 2807   4.601   5.227   6.195
  636SOL    HW2 2808   4.567   5.084   6.266
  637SOL     OW 2809   5.725   5.366   6.370
  637SOL    HW1 2810   5.646   5.315   6.336
  637SOL    HW2 2811   5.734   5.452   6.319
  638SOL     OW 2812   5.281   1.841   3.394
  638SOL    HW1 2813   5.368   1.830   3.442
  638SOL    HW2 2814   5.296   1.834   3.296
  639SOL     OW 2815   4.741   3.876   1.669
  639SOL    HW1 2816   4.802   3.798   1.652
  639SOL    HW2 2817   4.646   3.846   1.661
  640SOL     OW 2818   2.420   3.149   5.437
  640SOL    HW1 2819   2.443   3.247   5.437
  640SOL    HW2 2820   2.462   3.106   5.357
  641SOL     OW 2821   6.875   6.034   4.961
  641SOL    HW1 2822   6.821   6.074   4.887
  641SOL    HW2 2823   6.836   6.060   5.049
  642SOL     OW 2824   1.237   4.380   6.469
  642SOL    HW1 2825   1.249   4.453   6.401
  642SOL    HW2 2826   1.323   4.332   6.481
  643SOL     OW 2827   6.025   6.333   4.817
  643SOL    HW1 2828   6.085   6.398   4.770
  643SOL    HW2 2829   6.017   6.359   4.913
  644SOL     OW 2830   2.443   6.518   1.354
  644SOL    HW1 2831   2.360   6.524   1.297
  644SOL    HW2 2832   2.419   6.486   1.445
  645SOL     OW 2833   0.427   2.774   3.359
  645SOL    HW1 2834   0.436   2.827   3.443
  645SOL    HW2 2835   0.344   2.801   3.311
  646SOL     OW 2836   1.482   3.206   4.429
  646SOL    HW1 2837   1.394   3.219   4.474
  646SOL    HW2 2838   1.546   3.277   4.458
  647SOL     OW 2839   5.377   3.538   0.394
  647SOL    HW1 2840   5.405   3.632   0.416
  647SOL    HW2 2841   5.301   3.512   0.453
  648SOL     OW 2842   4.444   2.420   4.203
  648SOL    HW1 2843   4.467   2.369   4.286
  648SOL    HW2 2844   4.364   2.379   4.160
  649SOL     OW 2845   4.517   4.539   1.841
  649SOL    HW1 2846   4.580   4.503   1.772
  649SOL    HW2 2847   4.478   4.463   1.894
  650SOL     OW 2848   5.349   4.794   0.865
  650SOL    HW1 2849   5.350   4.879   0.917
  650SOL    HW2 2850   5.254   4.766   0.848
  651SOL     OW 2851   1.602   5.571   6.561
  651SOL    HW1 2852   1.511   5.577   6.602
  651SOL    HW2 2853   1.662   5.639   6.603
  652SOL     OW 2854   5.102   1.977   2.115
  652SOL    HW1 2855   5.159   2.012   2.189
  652SOL    HW2 2856   5.135   2.015   2.028
  653SOL     OW 2857   3.430   4.923   2.756
  653SOL    HW1 2858   3.354   4.929   2.821
  653SOL    HW2 2859   3.393   4.918   2.663
  654SOL     OW 2860   6.618   5.059   6.238
  654SOL    HW1 2861   6.641   5.083   6.332
  654SOL    HW2 2862   6.669   5.119   6.175
  655SOL     OW 2863   1.214   2.151   6.896
  655SOL    HW1 2864   1.162   2.149   6.982
  655SOL    HW2 2865   1.244   2.245   6.878
  656SOL     OW 2866   1.922   6.225   1.220
  656SOL    HW1 2867   2.007   6.175   1.203
  656SOL    HW2 2868   1.845   6.172   1.183
  657SOL     OW 2869   4.344   0.616   6.864
  657SOL    HW1 2870   4.433   0.650   6.895
  657SOL    HW2 2871   4.283   0.694   6.848
  658SOL     OW 2872   3.802   5.313   6.947
  658SOL    HW1 2873   3.791   5.288   0.025
  658SOL    HW2 2874   3.714   5.347   6.911
  659SOL     OW 2875   3.771   0.543   6.204
  659SOL    HW1 2876   3.791   0.449   6.231
  659SOL    HW2 2877   3.856   0.589   6.177
  660SOL     OW 2878   3.669   6.200   3.071
  660SOL    HW1 2879   3.744   6.166   3.014
  660SOL    HW2 2880   3.663   6.146   3.155
  661SOL     OW 2881   5.573   5.033   2.689
  661SOL    HW1 2882   5.608   5.032   2.596
  661SOL    HW2 2883   5.614   4.959   2.742
  662SOL     OW 2884   4.301   1.557   6.817
  662SOL    HW1 2885   4.232   1.619   6.854
  662SOL    HW2 2886   4.256   1.485   6.764
  663SOL     OW 2887   1.111   4.344   4.755
  663SOL    HW1 2888   1.074   4.267   4.703
  663SOL    HW2 2889   1.107   4.427   4.699
  664SOL     OW 2890   5.935   0.080   6.321
  664SOL    HW1 2891   5.945   0.057   6.224
  664SOL    HW2 2892   6.015   0.048   6.371
  665SOL     OW 2893   0.881   4.273   1.798
  665SOL    HW1 2894   0.847   4.211   1.869
  665SOL    HW2 2895   0.867   4.232   1.708
  666SOL     OW 2896   4.671   1.355   1.798
  666SOL    HW1 2897   4.580   1.350   1.758
  666SOL    HW2 2898   4.739   1.356   1.725
  667SOL     OW 2899   0.946   0.268   2.005
  667SOL    HW1 2900   0.972   0.188   2.059
  667SOL    HW2 2901   0.891   0.330   2.060
  668SOL     OW 2902   5.936   3.421   0.073
  668SOL    HW1 2903   5.936   3.446   6.994
  668SOL    HW2 2904   5.939   3.322   0.082
  669SOL     OW 2905   5.296   1.757   3.099
  669SOL    HW1 2906   5.210   1.776   3.052
  669SOL    HW2 2907   5.347   1.687   3.048
  670SOL     OW 2908   3.844   2.117   2.525
  670SOL    HW1 2909   3.837   2.023   2.558
  670SOL    HW2 2910   3.757   2.145   2.484
  671SOL     OW 2911   2.036   6.028   2.143
  671SOL    HW1 2912   1.997   6.069   2.061
  671SOL    HW2 2913   1.972   5.962   2.181
  672SOL     OW 2914   0.553   0.034   1.591
  672SOL    HW1 2915   0.501   6.969   1.572
  672SOL    HW2 2916   0.648   0.010   1.613
  673SOL     OW 2917   6.010   6.647   6.383
  673SOL    HW1 2918   5.999   6.735   6.429
  673SOL    HW2 2919   6.077   6.592   6.432
  674SOL     OW 2920   5.149   0.178   4.163
  674SOL    HW1 2921   5.099   0.222   4.089
  674SOL    HW2 2922   5.177   0.246   4.231
  675SOL     OW 2923   0.326   3.870   2.208
  675SOL    HW1 2924   0.322   3.804   2.133
  675SOL    HW2 2925   0.291   3.828   2.291
  676SOL     OW 2926   2.749   5.747   6.664
  676SOL    HW1 2927   2.795   5.734   6.752
  676SOL    HW2 2928   2.784   5.829   6.619
  677SOL     OW 2929   5.902   1.367   1.194
  677SOL    HW1 2930   5.880   1.402   1.103
  677SOL    HW2 2931   5.905   1.267   1.192
  678SOL     OW 2932   1.011   5.203   4.025
  678SOL    HW1 2933   1.069   5.246   3.956
  678SOL    HW2 2934   1.004   5.263   4.105
  679SOL     OW 2935   4.578   1.572   5.394
  679SOL    HW1 2936   4.614   1.637   5.326
  679SOL    HW2 2937   4.479   1.566   5.384
  680SOL     OW 2938   6.032   6.655   3.887
  680SOL    HW1 2939   5.997   6.660   3.980
  680SOL    HW2 2940   5.964   6.693   3.824
  681SOL     OW 2941   4.566   5.001   2.676
  681SOL    HW1 2942   4.524   5.071   2.733
  681SOL    HW2 2943   4.643   5.041   2.626
  682SOL     OW 2944   7.006   1.652   3.161
  682SOL    HW1 2945   7.005   1.655   3.061
  682SOL    HW2 2946   6.938   1.586   3.192
  683SOL     OW 2947   3.216   4.254   0.740
  683SOL    HW1 2948   3.169   4.176   0.700
  683SOL    HW2 2949   3.188   4.265   0.836
  684SOL     OW 2950   6.413   1.485   5.867
  684SOL    HW1 2951   6.486   1.458   5.929
  684SOL    HW2 2952   6.331   1.432   5.886
  685SOL     OW 2953   3.040   6.565   3.001
  685SOL    HW1 2954   3.047   6.521   3.091
  685SOL    HW2 2955   3.066   6.661   3.009
  686SOL     OW 2956   4.040   0.623   5.692
  686SOL    HW1 2957   4.075   0.691   5.757
  686SOL    HW2 2958   4.105   0.547   5.685
  687SOL     OW 2959   0.187   1.127   4.458
  687SOL    HW1 2960   0.144   1.079   4.381
  687SOL    HW2 2961   0.116   1.156   4.522
  688SOL     OW 2962   6.039   2.237   0.063
  688SOL    HW1 2963   6.035   2.330   0.100
  688SOL    HW2 2964   5.982   2.231   6.999
  689SOL     OW 2965   2.146   5.972   0.035
  689SOL    HW1 2966   2.116   6.050   0.090
  689SOL    HW2 2967   2.229   5.997   7.002
  690SOL     OW 2968   5.519   3.838   3.624
  690SOL    HW1 2969   5.618   3.844   3.633
  690SOL    HW2 2970   5.491   3.878   3.537
  691SOL     OW 2971   5.834   1.370   2.030
  691SOL    HW1 2972   5.814   1.460   2.069
  691SOL    HW2 2973   5.825   1.300   2.101
  692SOL     OW 2974   1.538   1.113   3.637
  692SOL    HW1 2975   1.540   1.122   3.736
  692SOL    HW2 2976   1.570   1.198   3.595
  693SOL     OW 2977   5.881   4.898   3.230
  693SOL    HW1 2978   5.817   4.975   3.218
  693SOL    HW2 2979   5.881   4.870   3.326
  694SOL     OW 2980   3.924   5.516   4.143
  694SOL    HW1 2981   3.992   5.589   4.133
  694SOL    HW2 2982   3.961   5.431   4.106
  695SOL     OW 2983   4.786   6.630   3.661
  695SOL    HW1 2984   4.852   6.587   3.599
  695SOL    HW2 2985   4.831   6.702   3.713
  696SOL     OW 2986   5.945   3.820   1.953
  696SOL    HW1 2987   5.858   3.771   1.957
  696SOL    HW2 2988   6.014   3.769   2.005
  697SOL     OW 2989   0.291   6.473   2.676
  697SOL    HW1 2990   0.244   6.440   2.594
  697SOL    HW2 2991   0.384   6.437   2.678
  698SOL     OW 2992   5.581   6.318   6.211
  698SOL    HW1 2993   5.649   6.304   6.282
  698SOL    HW2 2994   5.531   6.233   6.194
  699SOL     OW 2995   3.811   4.207   0.649
  699SOL    HW1 2996   3.761   4.129   0.687
  699SOL    HW2 2997   3.820   4.279   0.719
  700SOL     OW 2998   3.388   6.836   5.519
  700SOL    HW1 2999   3.338   6.759   5.560
  700SOL    HW2 3000   3.417   6.898   5.592
  701SOL     OW 3001   4.642   4.959   2.095
  701SOL    HW1 3002   4.688   4.984   2.180
  701SOL    HW2 3003   4.616   5.042   2.046
  702SOL     OW 3004   4.532   0.437   4.900
  702SOL    HW1 3005   4.536   0.474   4.993
  702SOL    HW2 3006   4.516   0.338   4.904
  703SOL     OW 3007   3.357   3.175   0.154
  703SOL    HW1 3008   3.443   3.126   0.172
  703SOL    HW2 3009   3.282   3.130   0.203
  704SOL     OW 3010   3.507   1.383   6.320
  704SOL    HW1 3011   3.448   1.352   6.246
  704SOL    HW2 3012   3.599   1.397   6.285
  705SOL     OW 3013   0.272   6.043   6.279
  705SOL    HW1 3014   0.178   6.073   6.296
  705SOL    HW2 3015   0.294   6.055   6.183
  706SOL     OW 3016   3.686   0.678   5.088
  706SOL    HW1 3017   3.779   0.647   5.070
  706SOL    HW2 3018   3.683   0.724   5.177
  707SOL     OW 3019   3.386   5.176   4.511
  707SOL    HW1 3020   3.416   5.203   4.419
  707SOL    HW2 3021   3.338   5.252   4.554
  708SOL     OW 3022   3.402   5.895   3.973
  708SOL    HW1 3023   3.483   5.910   3.916
  708SOL    HW2 3024   3.389   5.973   4.034
  709SOL     OW 3025   2.687   0.251   1.801
  709SOL    HW1 3026   2.649   0.295   1.882
  709SOL    HW2 3027   2.699   0.153   1.818
  710SOL     OW 3028   4.982   3.716   2.557
  710SOL    HW1 3029   4.916   3.744   2.627
  710SOL    HW2 3030   5.013   3.797   2.507
  711SOL     OW 3031   0.582   1.722   0.687
  711SOL    HW1 3032   0.511   1.770   0.739
  711SOL    HW2 3033   0.672   1.758   0.710
  712SOL     OW 3034   5.324   3.825   6.971
  712SOL    HW1 3035   5.276   3.739   6.989
  712SOL    HW2 3036   5.420   3.806   6.949
  713SOL     OW 3037   4.036   3.093   6.098
  713SOL    HW1 3038   4.090   3.173   6.069
  713SOL    HW2 3039   3.972   3.121   6.170
  714SOL     OW 3040   4.732   6.585   2.956
  714SOL    HW1 3041   4.715   6.542   3.045
  714SOL    HW2 3042   4.682   6.671   2.951
  715SOL     OW 3043   6.036   5.036   4.928
  715SOL    HW1 3044   6.090   4.956   4.904
  715SOL    HW2 3045   5.997   5.025   5.019
  716SOL     OW 3046   3.340   1.848   3.592
  716SOL    HW1 3047   3.377   1.762   3.556
  716SOL    HW2 3048   3.279   1.888   3.524
  717SOL     OW 3049   5.011   5.205   3.716
  717SOL    HW1 3050   4.966   5.223   3.629
  717SOL    HW2 3051   4.948   5.224   3.791
  718SOL     OW 3052   6.173   2.248   5.008
  718SOL    HW1 3053   6.073   2.239   5.011
  718SOL    HW2 3054   6.198   2.342   5.027
  719SOL     OW 3055   4.560   6.153   2.818
  719SOL    HW1 3056   4.543   6.194   2.908
  719SOL    HW2 3057   4.520   6.062   2.814
  720SOL     OW 3058   3.060   1.293   1.538
  720SOL    HW1 3059   3.114   1.288   1.622
  720SOL    HW2 3060   2.996   1.370   1.544
  721SOL     OW 3061   6.689   3.098   1.956
  721SOL    HW1 3062   6.721   3.185   1.993
  721SOL    HW2 3063   6.590   3.094   1.960
  722SOL     OW 3064   5.508   6.259   1.640
  722SOL    HW1 3065   5.546   6.271   1.548
  722SOL    HW2 3066   5.455   6.174   1.643
  723SOL     OW 3067   2.159   0.905   4.274
  723SOL    HW1 3068   2.193   0.825   4.225
  723SOL    HW2 3069   2.197   0.988   4.234
  724SOL     OW 3070   1.327   2.213   4.436
  724SOL    HW1 3071   1.248   2.262   4.473
  724SOL    HW2 3072   1.297   2.148   4.366
  725SOL     OW 3073   1.754   4.720   2.790
  725SOL    HW1 3074   1.784   4.662   2.865
  725SOL    HW2 3075   1.655   4.717   2.783
  726SOL     OW 3076   2.050   3.880   0.373
  726SOL    HW1 3077   2.088   3.803   0.425
  726SOL    HW2 3078   1.952   3.888   0.392
  727SOL     OW 3079   3.758   5.371   4.832
  727SOL    HW1 3080   3.789   5.461   4.862
  727SOL    HW2 3081   3.803   5.348   4.746
  728SOL     OW 3082   6.700   3.048   3.937
  728SOL    HW1 3083   6.739   3.128   3.984
  728SOL    HW2 3084   6.622   3.014   3.989
  729SOL     OW 3085   0.740   4.596   0.266
  729SOL    HW1 3086   0.733   4.554   0.176
  729SOL    HW2 3087   0.733   4.696   0.257
  730SOL     OW 3088   4.392   1.569   3.404
  730SOL    HW1 3089   4.379   1.475   3.372
  730SOL    HW2 3090   4.435   1.623   3.332
  731SOL     OW 3091   4.747   4.783   4.530
  731SOL    HW1 3092   4.838   4.759   4.565
  731SOL    HW2 3093   4.731   4.880   4.544
  732SOL     OW 3094   4.065   0.521   4.108
  732SOL    HW1 3095   4.106   0.525   4.017
  732SOL    HW2 3096   4.075   0.609   4.153
  733SOL     OW 3097   6.770   4.936   3.863
  733SOL    HW1 3098   6.718   4.985   3.794
  733SOL    HW2 3099   6.742   4.966   3.954
  734SOL     OW 3100   6.384   6.715   2.879
  734SOL    HW1 3101   6.399   6.628   2.833
  734SOL    HW2 3102   6.299   6.712   2.931
  735SOL     OW 3103   4.138   0.494   2.408
  735SOL    HW1 3104   4.129   0.417   2.472
  735SOL    HW2 3105   4.166   0.459   2.318
  736SOL     OW 3106   1.997   1.814   3.440
  736SOL    HW1 3107   1.914   1.870   3.447
  736SOL    HW2 3108   2.055   1.830   3.520
  737SOL     OW 3109   3.303   1.202   5.992
  737SOL    HW1 3110   3.355   1.118   5.973
  737SOL    HW2 3111   3.296   1.256   5.909
  738SOL     OW 3112   2.069   5.060   0.125
  738SOL    HW1 3113   2.148   5.119   0.141
  738SOL    HW2 3114   1.989   5.117   0.104
  739SOL     OW 3115   1.550   0.356   3.556
  739SOL    HW1 3116   1.475   0.292   3.541
  739SOL    HW2 3117   1.527   0.415   3.634
  740SOL     OW 3118   5.331   3.238   3.244
  740SOL    HW1 3119   5.340   3.301   3.167
  740SOL    HW2 3120   5.419   3.194   3.262
  741SOL     OW 3121   3.188   1.024   3.182
  741SOL    HW1 3122   3.092   1.004   3.166
  741SOL    HW2 3123   3.221   1.090   3.115
  742SOL     OW 3124   1.668   6.934   2.422
  742SOL    HW1 3125   1.662   6.845   2.466
  742SOL    HW2 3126   1.587   6.948   2.364
  743SOL     OW 3127   0.037   6.261   3.114
  743SOL    HW1 3128   0.088   6.244   3.030
  743SOL    HW2 3129   0.005   6.356   3.115
  744SOL     OW 3130   4.858   1.736   1.199
  744SOL    HW1 3131   4.876   1.653   1.252
  744SOL    HW2 3132   4.925   1.806   1.223
  745SOL     OW 3133   2.314   6.740   5.114
  745SOL    HW1 3134   2.228   6.784   5.088
  745SOL    HW2 3135   2.345   6.682   5.038
  746SOL     OW 3136   6.787   5.273   4.796
  746SOL    HW1 3137   6.727   5.352   4.776
  746SOL    HW2 3138   6.740   5.211   4.858
  747SOL     OW 3139   4.449   5.363   2.943
  747SOL    HW1 3140   4.501   5.396   2.864
  747SOL    HW2 3141   4.454   5.431   3.017
  748SOL     OW 3142   6.001   4.516   1.339
  748SOL    HW1 3143   6.066   4.579   1.296
  748SOL    HW2 3144   5.955   4.561   1.415
  749SOL     OW 3145   4.798   4.368   5.066
  749SOL    HW1 3146   4.732   4.370   4.991
  749SOL    HW2 3147   4.795   4.278   5.110
  750SOL     OW 3148   2.373   1.787   3.132
  750SOL    HW1 3149   2.446   1.810   3.067
  750SOL    HW2 3150   2.321   1.709   3.096
  751SOL     OW 3151   4.093   0.821   0.501
  751SOL    HW1 3152   4.161   0.883   0.540
  751SOL    HW2 3153   4.096   0.827   0.401
  752SOL     OW 3154   3.499   3.072   4.695
  752SOL    HW1 3155   3.489   3.144   4.627
  752SOL    HW2 3156   3.594   3.043   4.700
  753SOL     OW 3157   3.647   4.063   3.510
  753SOL    HW1 3158   3.665   4.112   3.425
  753SOL    HW2 3159   3.669   3.966   3.499
  754SOL     OW 3160   5.123   0.033   6.979
  754SOL    HW1 3161   5.092   0.024   0.055
  754SOL    HW2 3162   5.206   0.090   6.976
  755SOL     OW 3163   4.608   4.621   5.002
  755SOL    HW1 3164   4.670   4.563   4.949
  755SOL    HW2 3165   4.515   4.586   4.995
  756SOL     OW 3166   3.370   5.496   5.959
  756SOL    HW1 3167   3.311   5.442   5.899
  756SOL    HW2 3168   3.363   5.592   5.934
  757SOL     OW 3169   1.436   6.960   2.133
  757SOL    HW1 3170   1.432   6.963   2.233
  757SOL    HW2 3171   1.506   6.894   2.104
  758SOL     OW 3172   4.216   1.334   3.987
  758SOL    HW1 3173   4.150   1.259   3.995
  758SOL    HW2 3174   4.240   1.367   4.079
  759SOL     OW 3175   0.061   3.397   3.712
  759SOL    HW1 3176   0.017   3.410   3.623
  759SOL    HW2 3177   0.056   3.482   3.764
  760SOL     OW 3178   6.457   5.753   3.663
  760SOL    HW1 3179   6.412   5.699   3.735
  760SOL    HW2 3180   6.388   5.790   3.601
  761SOL     OW 3181   4.312   5.058   5.969
  761SOL    HW1 3182   4.313   5.144   5.917
  761SOL    HW2 3183   4.273   5.074   6.059
  762SOL     OW 3184   3.566   5.446   4.046
  762SOL    HW1 3185   3.479   5.398   4.033
  762SOL    HW2 3186   3.611   5.413   4.129
  763SOL     OW 3187   5.553   0.781   0.543
  763SOL    HW1 3188   5.455   0.802   0.545
  763SOL    HW2 3189   5.578   0.730   0.625
  764SOL     OW 3190   5.027   6.368   5.245
  764SOL    HW1 3191   4.993   6.306   5.316
  764SOL    HW2 3192   5.117   6.404   5.272
  765SOL     OW 3193   5.621   5.798   0.841
  765SOL    HW1 3194   5.684   5.732   0.880
  765SOL    HW2 3195   5.652   5.891   0.862
  766SOL     OW 3196   2.470   1.968   4.336
  766SOL    HW1 3197   2.425   2.019   4.410
  766SOL    HW2 3198   2.428   1.992   4.249
  767SOL     OW 3199   6.689   6.046   3.657
  767SOL    HW1 3200   6.746   6.107   3.602
  767SOL    HW2 3201   6.595   6.080   3.659
  768SOL     OW 3202   2.262   5.694   2.023
  768SOL    HW1 3203   2.212   5.687   1.936
  768SOL    HW2 3204   2.359   5.676   2.007
  769SOL     OW 3205   3.297   1.744   5.202
  769SOL    HW1 3206   3.384   1.695   5.193
  769SOL    HW2 3207   3.237   1.696   5.267
  770SOL     OW 3208   1.142   5.149   5.405
  770SOL    HW1 3209   1.099   5.219   5.461
  770SOL    HW2 3210   1.077   5.116   5.336
  771SOL     OW 3211   1.522   5.178   2.372
  771SOL    HW1 3212   1.536   5.179   2.273
  771SOL    HW2 3213   1.423   5.178   2.391
  772SOL     OW 3214   5.506   4.908   0.588
  772SOL    HW1 3215   5.586   4.926   0.531
  772SOL    HW2 3216   5.432   4.970   0.561
  773SOL     OW 3217   2.182   4.517   4.034
  773SOL    HW1 3218   2.173   4.456   4.112
  773SOL    HW2 3219   2.110   4.586   4.037
  774SOL     OW 3220   2.107   2.011   3.601
  774SOL    HW1 3221   2.199   2.004   3.639
  774SOL    HW2 3222   2.041   2.015   3.676
  775SOL     OW 3223   1.134   4.109   2.507
  775SOL    HW1 3224   1.196   4.130   2.431
  775SOL    HW2 3225   1.184   4.063   2.580
  776SOL     OW 3226   2.872   5.092   6.244
  776SOL    HW1 3227   2.955   5.125   6.290
  776SOL    HW2 3228   2.898   5.042   6.161
  777SOL     OW 3229   2.131   3.434   6.682
  777SOL    HW1 3230   2.189   3.412   6.604
  777SOL    HW2 3231   2.175   3.502   6.740
  778SOL     OW 3232   3.698   5.703   6.690
  778SOL    HW1 3233   3.611   5.655   6.681
  778SOL    HW2 3234   3.718   5.753   6.606
  779SOL     OW 3235   5.891   1.970   3.164
  779SOL    HW1 3236   5.945   2.009   3.239
  779SOL    HW2 3237   5.859   2.043   3.104
  780SOL     OW 3238   6.698   1.477   4.377
  780SOL    HW1 3239   6.795   1.501   4.369
  780SOL    HW2 3240   6.679   1.394   4.325
  781SOL     OW 3241   0.537   4.736   6.490
  781SOL    HW1 3242   0.496   4.805   6.430
  781SOL    HW2 3243   0.594   4.675   6.435
  782SOL     OW 3244   2.543   4.081   5.308
  782SOL    HW1 3245   2.594   4.016   5.364
  782SOL    HW2 3246   2.484   4.030   5.245
  783SOL     OW 3247   6.322   5.045   6.250
  783SOL    HW1 3248   6.299   4.950   6.230
  783SOL    HW2 3249   6.421   5.053   6.261
  784SOL     OW 3250   2.217   5.758   0.205
  784SOL    HW1 3251   2.277   5.813   0.263
  784SOL    HW2 3252   2.184   5.814   0.129
  785SOL     OW 3253   0.698   0.605   4.629
  785SOL    HW1 3254   0.643   0.592   4.547
  785SOL    HW2 3255   0.647   0.660   4.695
  786SOL     OW 3256   6.085   0.668   4.657
  786SOL    HW1 3257   5.998   0.672   4.707
  786SOL    HW2 3258   6.085   0.737   4.586
  787SOL     OW 3259   1.694   6.416   1.342
  787SOL    HW1 3260   1.659   6.446   1.431
  787SOL    HW2 3261   1.684   6.317   1.335
  788SOL     OW 3262   2.256   2.830   2.489
  788SOL    HW1 3263   2.252   2.923   2.454
  788SOL    HW2 3264   2.164   2.792   2.497
  789SOL     OW 3265   4.086   5.395   2.637
  789SOL    HW1 3266   4.008   5.346   2.599
  789SOL    HW2 3267   4.113   5.353   2.724
  790SOL     OW 3268   0.198   3.341   2.153
  790SOL    HW1 3269   0.255   3.264   2.124
  790SOL    HW2 3270   0.153   3.318   2.240
  791SOL     OW 3271   3.199   0.592   3.515
  791SOL    HW1 3272   3.165   0.665   3.456
  791SOL    HW2 3273   3.230   0.630   3.602
  792SOL     OW 3274   2.555   0.447   1.445
  792SOL    HW1 3275   2.465   0.432   1.405
  792SOL    HW2 3276   2.584   0.541   1.428
  793SOL     OW 3277   1.874   5.654   4.861
  793SOL    HW1 3278   1.848   5.661   4.957
  793SOL    HW2 3279   1.873   5.558   4.833
  794SOL     OW 3280   3.269   3.791   2.755
  794SOL    HW1 3281   3.182   3.743   2.758
  794SOL    HW2 3282   3.284   3.840   2.841
  795SOL     OW 3283   4.896   0.456   5.447
  795SOL    HW1 3284   4.979   0.400   5.455
  795SOL    HW2 3285   4.850   0.435   5.361
  796SOL     OW 3286   1.053   2.126   0.105
  796SOL    HW1 3287   1.095   2.084   0.186
  796SOL    HW2 3288   0.953   2.121   0.114
  797SOL     OW 3289   3.539   6.895   1.449
  797SOL    HW1 3290   3.574   6.986   1.427
  797SOL    HW2 3291   3.512   6.849   1.364
  798SOL     OW 3292   4.956   4.024   1.487
  798SOL    HW1 3293   5.027   4.039   1.555
  798SOL    HW2 3294   4.877   4.081   1.508
  799SOL     OW 3295   3.319   2.650   5.865
  799SOL    HW1 3296   3.242   2.651   5.801
  799SOL    HW2 3297   3.379   2.573   5.844
  800SOL     OW 3298   5.250   2.813   2.959
  800SOL    HW1 3299   5.254   2.816   3.059
  800SOL    HW2 3300   5.165   2.857   2.929
  801SOL     OW 3301   1.889   5.685   6.932
  801SOL    HW1 3302   1.891   5.710   0.012
  801SOL    HW2 3303   1.975   5.715   6.889
  802SOL     OW 3304   4.246   2.686   6.360
  802SOL    HW1 3305   4.199   2.755   6.305
  802SOL    HW2 3306   4.188   2.604   6.367
  803SOL     OW 3307   2.174   2.238   3.850
  803SOL    HW1 3308   2.205   2.316   3.903
  803SOL    HW2 3309   2.187   2.256   3.752
  804SOL     OW 3310   5.051   0.307   3.112
  804SOL    HW1 3311   5.018   0.260   3.031
  804SOL    HW2 3312   5.104   0.244   3.168
  805SOL     OW 3313   3.822   1.289   4.055
  805SOL    HW1 3314   3.864   1.380   4.058
  805SOL    HW2 3315   3.764   1.282   3.974
  806SOL     OW 3316   3.332   6.087   5.928
  806SOL    HW1 3317   3.288   6.174   5.951
  806SOL    HW2 3318   3.330   6.074   5.829
  807SOL     OW 3319   1.351   5.967   6.515
  807SOL    HW1 3320   1.269   6.016   6.545
  807SOL    HW2 3321   1.328   5.871   6.499
  808SOL     OW 3322   5.455   2.912   6.130
  808SOL    HW1 3323   5.440   2.981   6.059
  808SOL    HW2 3324   5.450   2.956   6.220
  809SOL     OW 3325   3.265   6.509   6.651
  809SOL    HW1 3326   3.180   6.558   6.630
  809SOL    HW2 3327   3.341   6.574   6.656
  810SOL     OW 3328   3.358   3.747   0.093
  810SOL    HW1 3329   3.457   3.749   0.107
  810SOL    HW2 3330   3.315   3.824   0.140
  811SOL     OW 3331   5.159   5.350   4.041
  811SOL    HW1 3332   5.213   5.429   4.071
  811SOL    HW2 3333   5.079   5.341   4.100
  812SOL     OW 3334   0.885   3.744   1.503
  812SOL    HW1 3335   0.867   3.747   1.404
  812SOL    HW2 3336   0.807   3.702   1.549
  813SOL     OW 3337   3.078   1.614   4.658
  813SOL    HW1 3338   3.085   1.660   4.569
  813SOL    HW2 3339   2.987   1.576   4.669
  814SOL     OW 3340   0.238   4.687   1.718
  814SOL    HW1 3341   0.247   4.638   1.804
  814SOL    HW2 3342   0.229   4.622   1.643
  815SOL     OW 3343   4.895   1.891   3.875
  815SOL    HW1 3344   4.825   1.952   3.911
  815SOL    HW2 3345   4.897   1.807   3.929
  816SOL     OW 3346   5.044   3.572   6.313
  816SOL    HW1 3347   5.066   3.641   6.381
  816SOL    HW2 3348   5.006   3.491   6.358
  817SOL     OW 3349   0.048   4.872   6.387
  817SOL    HW1 3350   7.003   4.817   6.332
  817SOL    HW2 3351   0.006   4.891   6.476
  818SOL     OW 3352   0.077   1.535   5.149
  818SOL    HW1 3353   0.109   1.492   5.233
  818SOL    HW2 3354   7.014   1.590   5.167
  819SOL     OW 3355   5.448   3.212   0.978
  819SOL    HW1 3356   5.395   3.287   0.939
  819SOL    HW2 3357   5.398   3.174   1.056
  820SOL     OW 3358   2.486   1.851   4.965
  820SOL    HW1 3359   2.396   1.881   4.933
  820SOL    HW2 3360   2.515   1.771   4.912
  821SOL     OW 3361   4.640   3.845   6.749
  821SOL    HW1 3362   4.560   3.856   6.690
  821SOL    HW2 3363   4.712   3.796   6.700
  822SOL     OW 3364   0.247   4.888   3.583
  822SOL    HW1 3365   0.275   4.796   3.559
  822SOL    HW2 3366   0.196   4.929   3.508
  823SOL     OW 3367   1.944   2.580   4.544
  823SOL    HW1 3368   1.986   2.670   4.558
  823SOL    HW2 3369   1.850   2.592   4.513
  824SOL     OW 3370   5.150   0.714   6.561
  824SOL    HW1 3371   5.060   0.670   6.566
  824SOL    HW2 3372   5.138   0.813   6.554
  825SOL     OW 3373   5.986   5.585   0.835
  825SOL    HW1 3374   6.017   5.539   0.918
  825SOL    HW2 3375   6.066   5.614   0.781
  826SOL     OW 3376   3.907   1.971   0.444
  826SOL    HW1 3377   3.965   1.969   0.363
  826SOL    HW2 3378   3.817   2.009   0.420
  827SOL     OW 3379   3.592   3.576   4.667
  827SOL    HW1 3380   3.579   3.645   4.596
  827SOL    HW2 3381   3.689   3.564   4.685
  828SOL     OW 3382   0.732   6.023   6.751
  828SOL    HW1 3383   0.636   6.016   6.777
  828SOL    HW2 3384   0.789   6.031   6.834
  829SOL     OW 3385   3.871   3.412   1.787
  829SOL    HW1 3386   3.820   3.414   1.873
  829SOL    HW2 3387   3.811   3.440   1.712
  830SOL     OW 3388   6.624   4.254   5.898
  830SOL    HW1 3389   6.722   4.262   5.880
  830SOL    HW2 3390   6.608   4.178   5.961
  831SOL     OW 3391   5.761   1.354   3.059
  831SOL    HW1 3392   5.776   1.302   3.143
  831SOL    HW2 3393   5.719   1.442   3.081
  832SOL     OW 3394   3.233   2.106   4.393
  832SOL    HW1 3395   3.148   2.154   4.417
  832SOL    HW2 3396   3.275   2.151   4.314
  833SOL     OW 3397   3.966   3.007   0.299
  833SOL    HW1 3398   3.876   3.002   0.341
  833SOL    HW2 3399   3.965   2.961   0.211
  834SOL     OW 3400   5.202   3.000   0.317
  834SOL    HW1 3401   5.281   3.008   0.256
  834SOL    HW2 3402   5.125   2.958   0.268
  835SOL     OW 3403   6.942   6.855   4.825
  835SOL    HW1 3404   6.869   6.921   4.807
  835SOL    HW2 3405   7.005   6.893   4.892
  836SOL     OW 3406   5.656   0.245   3.912
  836SOL    HW1 3407   5.602   0.230   3.828
  836SOL    HW2 3408   5.644   0.339   3.943
  837SOL     OW 3409   1.648   0.307   6.738
  837SOL    HW1 3410   1.696   0.395   6.738
  837SOL    HW2 3411   1.644   0.271   6.645
  838SOL     OW 3412   1.902   5.443   3.594
  838SOL    HW1 3413   1.868   5.537   3.591
  838SOL    HW2 3414   1.936   5.423   3.686
  839SOL     OW 3415   1.466   2.267   0.144
  839SOL    HW1 3416   1.456   2.319   0.229
  839SOL    HW2 3417   1.405   2.188   0.146
  840SOL     OW 3418   4.046   5.214   0.824
  840SOL    HW1 3419   4.093   5.232   0.738
  840SOL    HW2 3420   3.981   5.288   0.842
  841SOL     OW 3421   2.870   5.330   6.573
  841SOL    HW1 3422   2.789   5.310   6.519
  841SOL    HW2 3423   2.904   5.246   6.616
  842SOL     OW 3424   4.655   6.672   0.608
  842SOL    HW1 3425   4.729   6.619   0.650
  842SOL    HW2 3426   4.691   6.723   0.530
  843SOL     OW 3427   1.507   0.863   1.818
  843SOL    HW1 3428   1.533   0.772   1.786
  843SOL    HW2 3429   1.501   0.863   1.918
  844SOL     OW 3430   6.944   0.153   1.387
  844SOL    HW1 3431   0.006   0.128   1.331
  844SOL    HW2 3432   6.884   0.073   1.396
  845SOL     OW 3433   3.941   1.784   2.047
  845SOL    HW1 3434   3.921   1.690   2.018
  845SOL    HW2 3435   3.907   1.848   1.978
  846SOL     OW 3436   1.719   1.890   1.017
  846SOL    HW1 3437   1.816   1.872   1.030
  846SOL    HW2 3438   1.682   1.936   1.097
  847SOL     OW 3439   2.421   3.470   1.434
  847SOL    HW1 3440   2.351   3.485   1.504
  847SOL    HW2 3441   2.452   3.558   1.399
  848SOL     OW 3442   6.654   5.980   0.290
  848SOL    HW1 3443   6.558   5.964   0.267
  848SOL    HW2 3444   6.710   5.912   0.243
  849SOL     OW 3445   5.520   2.928   6.638
  849SOL    HW1 3446   5.486   2.835   6.651
  849SOL    HW2 3447   5.446   2.993   6.653
  850SOL     OW 3448   1.597   1.069   4.294
  850SOL    HW1 3449   1.686   1.025   4.290
  850SOL    HW2 3450   1.531   1.008   4.337
  851SOL     OW 3451   4.898   2.560   6.248
  851SOL    HW1 3452   4.841   2.554   6.167
  851SOL    HW2 3453   4.857   2.507   6.322
  852SOL     OW 3454   6.634   5.125   2.032
  852SOL    HW1 3455   6.595   5.036   2.053
  852SOL    HW2 3456   6.733   5.117   2.021
  853SOL     OW 3457   2.970   3.409   0.530
  853SOL    HW1 3458   2.917   3.457   0.599
  853SOL    HW2 3459   3.004   3.322   0.567
  854SOL     OW 3460   6.831   6.979   5.401
  854SOL    HW1 3461   6.926   6.986   5.369
  854SOL    HW2 3462   6.830   6.930   5.489
  855SOL     OW 3463   4.542   2.007   0.355
  855SOL    HW1 3464   4.606   2.001   0.431
  855SOL    HW2 3465   4.495   2.096   0.357
  856SOL     OW 3466   1.899   5.423   1.766
  856SOL    HW1 3467   1.961   5.372   1.707
  856SOL    HW2 3468   1.853   5.494   1.712
  857SOL     OW 3469   6.550   5.623   4.890
  857SOL    HW1 3470   6.592   5.578   4.812
  857SOL    HW2 3471   6.466   5.669   4.862
  858SOL     OW 3472   3.891   4.287   0.103
  858SOL    HW1 3473   3.897   4.187   0.101
  858SOL    HW2 3474   3.963   4.327   0.047
  859SOL     OW 3475   5.167   5.558   5.157
  859SOL    HW1 3476   5.108   5.562   5.238
  859SOL    HW2 3477   5.215   5.471   5.154
  860SOL     OW 3478   4.406   2.914   5.885
  860SOL    HW1 3479   4.416   2.959   5.796
  860SOL    HW2 3480   4.460   2.830   5.886
  861SOL     OW 3481   1.022   5.666   2.716
  861SOL    HW1 3482   1.040   5.722   2.797
  861SOL    HW2 3483   1.108   5.627   2.683
  862SOL     OW 3484   0.692   4.214   3.747
  862SOL    HW1 3485   0.597   4.194   3.724
  862SOL    HW2 3486   0.750   4.188   3.670
  863SOL     OW 3487   5.942   0.799   1.616
  863SOL    HW1 3488   5.869   0.808   1.549
  863SOL    HW2 3489   5.951   0.885   1.667
  864SOL     OW 3490   5.931   5.800   2.608
  864SOL    HW1 3491   5.918   5.850   2.522
  864SOL    HW2 3492   5.864   5.832   2.675
  865SOL     OW 3493   1.359   5.103   4.760
  865SOL    HW1 3494   1.278   5.075   4.709
  865SOL    HW2 3495   1.363   5.051   4.846
  866SOL     OW 3496   3.761   0.326   1.891
  866SOL    HW1 3497   3.783   0.324   1.794
  866SOL    HW2 3498   3.713   0.242   1.916
  867SOL     OW 3499   5.959   3.577   5.619
  867SOL    HW1 3500   5.936   3.654   5.678
  867SOL    HW2 3501   5.995   3.611   5.532
  868SOL     OW 3502   0.595   2.060   1.891
  868SOL    HW1 3503   0.604   2.113   1.976
  868SOL    HW2 3504   0.500   2.059   1.862
  869SOL     OW 3505   6.894   3.335   2.768
  869SOL    HW1 3506   6.908   3.400   2.842
  869SOL    HW2 3507   6.917   3.243   2.800
  870SOL     OW 3508   3.668   5.139   2.118
  870SOL    HW1 3509   3.574   5.171   2.127
  870SOL    HW2 3510   3.677   5.082   2.036
  871SOL     OW 3511   4.961   1.587   3.964
  871SOL    HW1 3512   4.978   1.546   3.874
  871SOL    HW2 3513   5.038   1.646   3.989
  872SOL     OW 3514   1.425   2.018   4.941
  872SOL    HW1 3515   1.505   2.015   5.001
  872SOL    HW2 3516   1.430   2.099   4.883
  873SOL     OW 3517   4.075   0.337   6.592
  873SOL    HW1 3518   4.077   0.322   6.493
  873SOL    HW2 3519   4.081   0.250   6.639
  874SOL     OW 3520   5.967   3.713   1.515
  874SOL    HW1 3521   5.999   3.784   1.577
  874SOL    HW2 3522   5.889   3.666   1.555
  875SOL     OW 3523   5.402   5.802   2.174
  875SOL    HW1 3524   5.379   5.876   2.111
  875SOL    HW2 3525   5.484   5.755   2.140
  876SOL     OW 3526   5.555   0.519   6.632
  876SOL    HW1 3527   5.621   0.451   6.601
  876SOL    HW2 3528   5.499   0.549   6.555
  877SOL     OW 3529   1.074   3.417   6.833
  877SOL    HW1 3530   0.991   3.468   6.853
  877SOL    HW2 3531   1.122   3.394   6.918
  878SOL     OW 3532   3.708   6.298   4.121
  878SOL    HW1 3533   3.771   6.361   4.167
  878SOL    HW2 3534   3.728   6.204   4.151
  879SOL     OW 3535   5.805   6.799   6.785
  879SOL    HW1 3536   5.819   6.708   6.747
  879SOL    HW2 3537   5.892   6.834   6.819
  880SOL     OW 3538   2.877   3.412   2.980
  880SOL    HW1 3539   2.908   3.470   2.904
  880SOL    HW2 3540   2.788   3.373   2.958
  881SOL     OW 3541   4.192   2.258   0.616
  881SOL    HW1 3542   4.228   2.231   0.705
  881SOL    HW2 3543   4.106   2.210   0.599
  882SOL     OW 3544   1.904   3.041   3.278
  882SOL    HW1 3545   1.877   3.078   3.190
  882SOL    HW2 3546   1.829   2.987   3.317
  883SOL     OW 3547   2.296   6.778   3.039
  883SOL    HW1 3548   2.262   6.727   2.959
  883SOL    HW2 3549   2.277   6.726   3.122
  884SOL     OW 3550   2.696   3.434   6.088
  884SOL    HW1 3551   2.671   3.365   6.156
  884SOL    HW2 3552   2.732   3.389   6.006
  885SOL     OW 3553   4.356   2.955   6.159
  885SOL    HW1 3554   4.406   2.939   6.074
  885SOL    HW2 3555   4.260   2.929   6.146
  886SOL     OW 3556   3.773   1.575   6.930
  886SOL    HW1 3557   3.855   1.624   6.900
  886SOL    HW2 3558   3.737   1.520   6.855
  887SOL     OW 3559   5.020   1.060   5.182
  887SOL    HW1 3560   4.947   1.075   5.115
  887SOL    HW2 3561   5.035   1.143   5.235
  888SOL     OW 3562   6.761   6.428   1.741
  888SOL    HW1 3563   6.786   6.338   1.705
  888SOL    HW2 3564   6.834   6.494   1.722
  889SOL     OW 3565   0.320   3.406   0.210
  889SOL    HW1 3566   0.308   3.321   0.159
  889SOL    HW2 3567   0.264   3.403   0.293
  890SOL     OW 3568   2.417   6.322   4.180
  890SOL    HW1 3569   2.465   6.323   4.092
  890SOL    HW2 3570   2.344   6.391   4.178
  891SOL     OW 3571   5.317   4.811   2.379
  891SOL    HW1 3572   5.345   4.903   2.352
  891SOL    HW2 3573   5.394   4.764   2.423
  892SOL     OW 3574   2.368   4.979   0.654
  892SOL    HW1 3575   2.338   4.883   0.656
  892SOL    HW2 3576   2.390   5.005   0.560
  893SOL     OW 3577   1.165   5.066   2.906
  893SOL    HW1 3578   1.164   5.145   2.844
  893SOL    HW2 3579   1.124   5.092   2.993
  894SOL     OW 3580   0.947   4.387   0.719
  894SOL    HW1 3581   1.035   4.434   0.730
  894SOL    HW2 3582   0.901   4.382   0.807
  895SOL     OW 3583   6.891   5.329   3.973
  895SOL    HW1 3584   6.800   5.309   4.007
  895SOL    HW2 3585   6.945   5.245   3.971
  896SOL     OW 3586   0.929   0.721   6.516
  896SOL    HW1 3587   0.922   0.787   6.591
  896SOL    HW2 3588   0.837   0.698   6.483
  897SOL     OW 3589   4.701   1.277   0.546
  897SOL    HW1 3590   4.775   1.253   0.609
  897SOL    HW2 3591   4.692   1.206   0.476
  898SOL     OW 3592   3.865   0.581   3.031
  898SOL    HW1 3593   3.791   0.590   3.098
  898SOL    HW2 3594   3.850   0.500   2.975
  899SOL     OW 3595   6.772   5.728   0.182
  899SOL    HW1 3596   6.861   5.708   0.223
  899SOL    HW2 3597   6.785   5.766   0.091
  900SOL     OW 3598   5.306   5.096   0.907
  900SOL    HW1 3599   5.347   5.153   0.836
  900SOL    HW2 3600   5.323   5.137   0.997
  901SOL     OW 3601   1.228   0.116   3.101
  901SOL    HW1 3602   1.272   0.185   3.158
  901SOL    HW2 3603   1.129   0.127   3.105
  902SOL     OW 3604   6.550   2.978   1.528
  902SOL    HW1 3605   6.492   3.059   1.526
  902SOL    HW2 3606   6.536   2.925   1.444
  903SOL     OW 3607   0.439   1.500   1.039
  903SOL    HW1 3608   0.353   1.500   1.091
  903SOL    HW2 3609   0.490   1.583   1.060
  904SOL     OW 3610   2.391   0.979   2.903
  904SOL    HW1 3611   2.434   1.055   2.953
  904SOL    HW2 3612   2.443   0.895   2.918
  905SOL     OW 3613   5.967   2.055   6.643
  905SOL    HW1 3614   5.919   2.013   6.566
  905SOL    HW2 3615   5.920   2.139   6.670
  906SOL     OW 3616   5.289   2.979   0.048
  906SOL    HW1 3617   5.370   2.991   7.009
  906SOL    HW2 3618   5.214   2.942   7.010
  907SOL     OW 3619   5.476   4.478   6.541
  907SOL    HW1 3620   5.551   4.521   6.491
  907SOL    HW2 3621   5.465   4.384   6.510
  908SOL     OW 3622   1.110   4.478   3.269
  908SOL    HW1 3623   1.092   4.487   3.367
  908SOL    HW2 3624   1.125   4.569   3.230
  909SOL     OW 3625   5.290   5.894   6.119
  909SOL    HW1 3626   5.354   5.952   6.169
  909SOL    HW2 3627   5.331   5.804   6.106
  910SOL     OW 3628   2.704   4.800   0.335
  910SOL    HW1 3629   2.678   4.755   0.421
  910SOL    HW2 3630   2.718   4.731   0.264
  911SOL     OW 3631   1.385   4.530   5.817
  911SOL    HW1 3632   1.301   4.497   5.861
  911SOL    HW2 3633   1.385   4.502   5.721
  912SOL     OW 3634   4.930   1.879   4.639
  912SOL    HW1 3635   4.926   1.817   4.561
  912SOL    HW2 3636   4.989   1.841   4.710
  913SOL     OW 3637   5.195   6.612   2.760
  913SOL    HW1 3638   5.265   6.623   2.830
  913SOL    HW2 3639   5.124   6.550   2.792
  914SOL     OW 3640   3.493   6.390   6.281
  914SOL    HW1 3641   3.486   6.345   6.370
  914SOL    HW2 3642   3.542   6.476   6.290
  915SOL     OW 3643   5.079   5.820   1.517
  915SOL    HW1 3644   5.078   5.763   1.435
  915SOL    HW2 3645   5.159   5.797   1.573
  916SOL     OW 3646   1.548   3.129   2.501
  916SOL    HW1 3647   1.594   3.153   2.587
  916SOL    HW2 3648   1.592   3.048   2.462
  917SOL     OW 3649   0.531   6.693   6.729
  917SOL    HW1 3650   0.553   6.713   6.634
  917SOL    HW2 3651   0.576   6.760   6.789
  918SOL     OW 3652   3.204   6.616   0.052
  918SOL    HW1 3653   3.147   6.663   7.003
  918SOL    HW2 3654   3.233   6.680   0.123
  919SOL     OW 3655   4.784   1.265   5.857
  919SOL    HW1 3656   4.714   1.214   5.908
  919SOL    HW2 3657   4.739   1.324   5.790
  920SOL     OW 3658   2.917   5.155   1.920
  920SOL    HW1 3659   2.893   5.130   1.826
  920SOL    HW2 3660   3.009   5.120   1.941
  921SOL     OW 3661   5.113   5.484   4.889
  921SOL    HW1 3662   5.051   5.406   4.900
  921SOL    HW2 3663   5.126   5.529   4.977
  922SOL     OW 3664   3.415   3.361   3.478
  922SOL    HW1 3665   3.338   3.368   3.542
  922SOL    HW2 3666   3.501   3.376   3.527
  923SOL     OW 3667   2.050   3.464   5.430
  923SOL    HW1 3668   2.093   3.412   5.504
  923SOL    HW2 3669   1.983   3.527   5.469
  924SOL     OW 3670   0.375   3.329   1.318
  924SOL    HW1 3671   0.384   3.424   1.287
  924SOL    HW2 3672   0.460   3.280   1.302
  925SOL     OW 3673   0.756   1.658   0.481
  925SOL    HW1 3674   0.758   1.558   0.484
  925SOL    HW2 3675   0.693   1.692   0.550
  926SOL     OW 3676   1.805   1.843   1.652
  926SOL    HW1 3677   1.875   1.774   1.635
  926SOL    HW2 3678   1.718   1.799   1.673
  927SOL     OW 3679   0.278   3.810   4.261
  927SOL    HW1 3680   0.213   3.734   4.253
  927SOL    HW2 3681   0.364   3.784   4.217
  928SOL     OW 3682   3.157   4.960   5.692
  928SOL    HW1 3683   3.175   4.880   5.749
  928SOL    HW2 3684   3.238   5.018   5.689
  929SOL     OW 3685   0.493   1.927   4.394
  929SOL    HW1 3686   0.516   1.952   4.488
  929SOL    HW2 3687   0.475   2.010   4.341
  930SOL     OW 3688   5.561   5.482   4.541
  930SOL    HW1 3689   5.568   5.458   4.444
  930SOL    HW2 3690   5.556   5.581   4.550
  931SOL     OW 3691   6.306   0.749   3.386
  931SOL    HW1 3692   6.273   0.717   3.475
  931SOL    HW2 3693   6.401   0.778   3.394
  932SOL     OW 3694   3.523   0.469   3.940
  932SOL    HW1 3695   3.482   0.405   3.875
  932SOL    HW2 3696   3.494   0.563   3.918
  933SOL     OW 3697   1.417   5.702   1.752
  933SOL    HW1 3698   1.323   5.697   1.720
  933SOL    HW2 3699   1.455   5.792   1.730
  934SOL     OW 3700   1.826   3.329   0.656
  934SOL    HW1 3701   1.737   3.300   0.688
  934SOL    HW2 3702   1.888   3.250   0.652
  935SOL     OW 3703   5.833   2.778   5.538
  935SOL    HW1 3704   5.770   2.847   5.502
  935SOL    HW2 3705   5.874   2.811   5.623
  936SOL     OW 3706   2.009   0.788   6.059
  936SOL    HW1 3707   2.014   0.763   5.963
  936SOL    HW2 3708   2.099   0.819   6.090
  937SOL     OW 3709   3.516   2.345   5.787
  937SOL    HW1 3710   3.579   2.422   5.776
  937SOL    HW2 3711   3.558   2.277   5.847
  938SOL     OW 3712   5.076   6.123   4.684
  938SOL    HW1 3713   5.040   6.216   4.687
  938SOL    HW2 3714   5.173   6.124   4.708
  939SOL     OW 3715   1.395   0.372   5.606
  939SOL    HW1 3716   1.452   0.311   5.661
  939SOL    HW2 3717   1.300   0.368   5.639
  940SOL     OW 3718   1.708   5.251   0.931
  940SOL    HW1 3719   1.805   5.256   0.905
  940SOL    HW2 3720   1.654   5.216   0.855
  941SOL     OW 3721   3.622   6.843   1.032
  941SOL    HW1 3722   3.569   6.919   0.995
  941SOL    HW2 3723   3.719   6.868   1.035
  942SOL     OW 3724   6.491   4.696   6.957
  942SOL    HW1 3725   6.573   4.657   6.915
  942SOL    HW2 3726   6.415   4.690   6.892
  943SOL     OW 3727   3.573   5.595   1.265
  943SOL    HW1 3728   3.594   5.608   1.361
  943SOL    HW2 3729   3.620   5.513   1.231
  944SOL     OW 3730   6.754   6.061   3.256
  944SOL    HW1 3731   6.659   6.043   3.230
  944SOL    HW2 3732   6.778   6.004   3.335
  945SOL     OW 3733   0.376   5.411   6.307
  945SOL    HW1 3734   0.285   5.408   6.266
  945SOL    HW2 3735   0.433   5.339   6.267
  946SOL     OW 3736   6.110   2.218   4.018
  946SOL    HW1 3737   6.043   2.230   3.945
  946SOL    HW2 3738   6.068   2.171   4.095
  947SOL     OW 3739   3.785   4.034   3.215
  947SOL    HW1 3740   3.841   3.966   3.260
  947SOL    HW2 3741   3.833   4.070   3.135
  948SOL     OW 3742   3.436   1.092   3.961
  948SOL    HW1 3743   3.359   1.057   4.014
  948SOL    HW2 3744   3.511   1.115   4.022
  949SOL     OW 3745   3.014   0.122   5.663
  949SOL    HW1 3746   3.084   0.183   5.700
  949SOL    HW2 3747   2.937   0.177   5.630
  950SOL     OW 3748   6.984   0.430   2.161
  950SOL    HW1 3749   7.005   0.505   2.224
  950SOL    HW2 3750   6.967   0.468   2.070
  951SOL     OW 3751   1.472   0.050   3.424
  951SOL    HW1 3752   1.538   7.011   3.473
  951SOL    HW2 3753   1.521   0.113   3.364
  952SOL     OW 3754   3.913   1.824   3.485
  952SOL    HW1 3755   3.890   1.728   3.468
  952SOL    HW2 3756   3.941   1.835   3.580
  953SOL     OW 3757   0.674   5.236   5.850
  953SOL    HW1 3758   0.757   5.182   5.837
  953SOL    HW2 3759   0.654   5.286   5.766
  954SOL     OW 3760   4.915   6.627   2.391
  954SOL    HW1 3761   4.828   6.655   2.432
  954SOL    HW2 3762   4.977   6.598   2.464
  955SOL     OW 3763   2.342   5.165   1.255
  955SOL    HW1 3764   2.399   5.155   1.336
  955SOL    HW2 3765   2.362   5.253   1.211
  956SOL     OW 3766   4.166   0.482   1.179
  956SOL    HW1 3767   4.246   0.439   1.221
  956SOL    HW2 3768   4.180   0.488   1.080
  957SOL     OW 3769   5.902   6.837   3.064
  957SOL    HW1 3770   5.846   6.797   3.137
  957SOL    HW2 3771   5.899   6.937   3.073
  958SOL     OW 3772   5.186   6.181   1.755
  958SOL    HW1 3773   5.241   6.125   1.693
  958SOL    HW2 3774   5.202   6.152   1.849
  959SOL     OW 3775   5.170   0.116   3.282
  959SOL    HW1 3776   5.249   0.136   3.340
  959SOL    HW2 3777   5.087   0.115   3.338
  960SOL     OW 3778   1.781   6.343   6.129
  960SOL    HW1 3779   1.832   6.423   6.098
  960SOL    HW2 3780   1.830   6.299   6.204
  961SOL     OW 3781   4.114   1.220   3.386
  961SOL    HW1 3782   4.211   1.227   3.364
  961SOL    HW2 3783   4.074   1.312   3.390
  962SOL     OW 3784   0.149   0.120   4.589
  962SOL    HW1 3785   0.087   0.140   4.664
  962SOL    HW2 3786   0.155   0.021   4.576
  963SOL     OW 3787   5.816   2.984   1.179
  963SOL    HW1 3788   5.746   3.014   1.243
  963SOL    HW2 3789   5.820   3.047   1.101
  964SOL     OW 3790   3.732   6.580   5.124
  964SOL    HW1 3791   3.784   6.496   5.140
  964SOL    HW2 3792   3.781   6.637   5.058
  965SOL     OW 3793   5.024   2.604   4.274
  965SOL    HW1 3794   4.966   2.535   4.317
  965SOL    HW2 3795   5.007   2.693   4.317
  966SOL     OW 3796   5.219   1.284   4.075
  966SOL    HW1 3797   5.225   1.378   4.109
  966SOL    HW2 3798   5.152   1.233   4.128
  967SOL     OW 3799   4.028   5.061   6.459
  967SOL    HW1 3800   4.061   4.997   6.390
  967SOL    HW2 3801   4.092   5.137   6.469
  968SOL     OW 3802   3.770   0.520   1.118
  968SOL    HW1 3803   3.753   0.422   1.107
  968SOL    HW2 3804   3.821   0.555   1.039
  969SOL     OW 3805   2.529   3.998   6.410
  969SOL    HW1 3806   2.606   3.935   6.420
  969SOL    HW2 3807   2.563   4.090   6.392
  970SOL     OW 3808   5.052   6.680   5.489
  970SOL    HW1 3809   5.070   6.759   5.430
  970SOL    HW2 3810   5.137   6.629   5.503
  971SOL     OW 3811   5.182   3.607   3.383
  971SOL    HW1 3812   5.216   3.660   3.305
  971SOL    HW2 3813   5.152   3.517   3.351
  972SOL     OW 3814   0.253   2.441   0.864
  972SOL    HW1 3815   0.297   2.351   0.853
  972SOL    HW2 3816   0.186   2.455   0.791
  973SOL     OW 3817   0.129   2.543   5.043
  973SOL    HW1 3818   0.183   2.474   5.090
  973SOL    HW2 3819   0.177   2.572   4.960
  974SOL     OW 3820   0.895   3.803   2.099
  974SOL    HW1 3821   0.971   3.751   2.139
  974SOL    HW2 3822   0.904   3.801   1.999
  975SOL     OW 3823   3.032   0.453   2.597
  975SOL    HW1 3824   2.961   0.402   2.549
  975SOL    HW2 3825   3.084   0.508   2.531
  976SOL     OW 3826   0.318   3.032   4.021
  976SOL    HW1 3827   0.265   2.950   4.003
  976SOL    HW2 3828   0.402   3.031   3.966
  977SOL     OW 3829   6.236   1.444   2.401
  977SOL    HW1 3830   6.203   1.394   2.481
  977SOL    HW2 3831   6.174   1.430   2.324
  978SOL     OW 3832   4.737   3.133   0.593
  978SOL    HW1 3833   4.799   3.210   0.583
  978SOL    HW2 3834   4.717   3.118   0.690
  979SOL     OW 3835   0.267   4.653   6.417
  979SOL    HW1 3836   0.363   4.670   6.438
  979SOL    HW2 3837   0.219   4.741   6.407
  980SOL     OW 3838   4.343   1.317   4.481
  980SOL    HW1 3839   4.323   1.390   4.547
  980SOL    HW2 3840   4.428   1.339   4.432
  981SOL     OW 3841   0.966   6.106   5.426
  981SOL    HW1 3842   0.888   6.067   5.475
  981SOL    HW2 3843   0.953   6.205   5.417
  982SOL     OW 3844   0.127   0.847   6.794
  982SOL    HW1 3845   0.140   0.815   6.888
  982SOL    HW2 3846   0.034   0.883   6.784
  983SOL     OW 3847   0.332   3.758   3.046
  983SOL    HW1 3848   0.234   3.763   3.061
  983SOL    HW2 3849   0.354   3.792   2.954
  984SOL     OW 3850   0.550   3.581   3.670
  984SOL    HW1 3851   0.515   3.672   3.649
  984SOL    HW2 3852   0.572   3.575   3.767
  985SOL     OW 3853   5.809   5.874   4.909
  985SOL    HW1 3854   5.719   5.874   4.867
  985SOL    HW2 3855   5.825   5.786   4.953
  986SOL     OW 3856   4.186   5.372   1.204
  986SOL    HW1 3857   4.248   5.304   1.166
  986SOL    HW2 3858   4.143   5.336   1.286
  987SOL     OW 3859   4.969   4.515   4.855
  987SOL    HW1 3860   5.028   4.445   4.895
  987SOL    HW2 3861   4.934   4.482   4.767
  988SOL     OW 3862   2.955   4.799   2.082
  988SOL    HW1 3863   2.976   4.840   1.994
  988SOL    HW2 3864   2.883   4.730   2.071
  989SOL     OW 3865   0.457   2.837   1.239
  989SOL    HW1 3866   0.416   2.773   1.173
  989SOL    HW2 3867   0.554   2.849   1.218
  990SOL     OW 3868   3.663   0.337   5.282
  990SOL    HW1 3869   3.643   0.382   5.195
  990SOL    HW2 3870   3.696   0.244   5.265
  991SOL     OW 3871   1.119   5.898   4.168
  991SOL    HW1 3872   1.190   5.877   4.236
  991SOL    HW2 3873   1.106   5.818   4.109
  992SOL     OW 3874   6.699   2.330   0.216
  992SOL    HW1 3875   6.677   2.426   0.199
  992SOL    HW2 3876   6.614   2.276   0.222
  993SOL     OW 3877   1.949   4.273   0.098
  993SOL    HW1 3878   2.024   4.290   0.162
  993SOL    HW2 3879   1.928   4.356   0.047
  994SOL     OW 3880   2.819   0.004   1.517
  994SOL    HW1 3881   2.806   6.970   1.432
  994SOL    HW2 3882   2.769   0.091   1.511
  995SOL     OW 3883   6.013   3.702   5.372
  995SOL    HW1 3884   6.042   3.797   5.381
  995SOL    HW2 3885   6.020   3.674   5.276
  996SOL     OW 3886   4.140   6.520   4.978
  996SOL    HW1 3887   4.216   6.501   5.041
  996SOL    HW2 3888   4.073   6.578   5.024
  997SOL     OW 3889   1.597   5.978   3.625
  997SOL    HW1 3890   1.696   5.965   3.630
  997SOL    HW2 3891   1.554   5.893   3.594
  998SOL     OW 3892   4.554   0.215   6.905
  998SOL    HW1 3893   4.465   0.229   6.861
  998SOL    HW2 3894   4.597   0.304   6.922
  999SOL     OW 3895   5.434   2.881   2.544
  999SOL    HW1 3896   5.340   2.860   2.570
  999SOL    HW2 3897   5.496   2.846   2.615
 1000SOL     OW 3898   5.223   1.561   2.116
 1000SOL    HW1 3899   5.221   1.467   2.083
 1000SOL    HW2 3900   5.190   1.622   2.044
 1001SOL     OW 3901   2.727   6.748   2.729
 1001SOL    HW1 3902   2.638   6.745   2.683
 1001SOL    HW2 3903   2.722   6.694   2.813
 1002SOL     OW 3904   4.138   2.490   1.145
 1002SOL    HW1 3905   4.077   2.441   1.082
 1002SOL    HW2 3906   4.160   2.431   1.222
 1003SOL     OW 3907   0.980   0.176   3.036
 1003SOL    HW1 3908   0.923   0.097   3.059
 1003SOL    HW2 3909   0.925   0.260   3.045
 1004SOL     OW 3910   5.153   1.548   4.453
 1004SOL    HW1 3911   5.096   1.466   4.449
 1004SOL    HW2 3912   5.236   1.528   4.504
 1005SOL     OW 3913   0.678   5.267   1.718
 1005SOL    HW1 3914   0.666   5.169   1.737
 1005SOL    HW2 3915   0.768   5.296   1.748
 1006SOL     OW 3916   2.213   4.426   1.822
 1006SOL    HW1 3917   2.295   4.372   1.840
 1006SOL    HW2 3918   2.237   4.523   1.816
 1007SOL     OW 3919   4.672   1.067   6.343
 1007SOL    HW1 3920   4.625   1.008   6.278
 1007SOL    HW2 3921   4.613   1.082   6.423
 1008SOL     OW 3922   0.616   5.067   4.767
 1008SOL    HW1 3923   0.544   5.127   4.732
 1008SOL    HW2 3924   0.580   4.974   4.777
 1009SOL     OW 3925   6.462   5.914   5.968
 1009SOL    HW1 3926   6.475   5.979   6.044
 1009SOL    HW2 3927   6.373   5.870   5.977
 1010SOL     OW 3928   3.113   3.681   0.254
 1010SOL    HW1 3929   3.184   3.622   0.216
 1010SOL    HW2 3930   3.043   3.625   0.298
 1011SOL     OW 3931   6.799   4.709   2.132
 1011SOL    HW1 3932   6.788   4.616   2.098
 1011SOL    HW2 3933   6.719   4.763   2.108
 1012SOL     OW 3934   5.963   6.270   2.948
 1012SOL    HW1 3935   5.915   6.347   2.991
 1012SOL    HW2 3936   5.921   6.184   2.978
 1013SOL     OW 3937   0.144   0.225   5.932
 1013SOL    HW1 3938   0.221   0.264   5.983
 1013SOL    HW2 3939   0.178   0.150   5.874
 1014SOL     OW 3940   0.938   4.842   4.538
 1014SOL    HW1 3941   0.934   4.744   4.554
 1014SOL    HW2 3942   0.846   4.880   4.532
 1015SOL     OW 3943   1.816   6.829   0.323
 1015SOL    HW1 3944   1.750   6.775   0.272
 1015SOL    HW2 3945   1.908   6.794   0.305
 1016SOL     OW 3946   0.067   4.410   0.762
 1016SOL    HW1 3947   0.005   4.335   0.785
 1016SOL    HW2 3948   0.152   4.374   0.725
 1017SOL     OW 3949   2.351   1.039   2.640
 1017SOL    HW1 3950   2.363   1.021   2.738
 1017SOL    HW2 3951   2.268   1.093   2.626
 1018SOL     OW 3952   5.951   6.084   4.196
 1018SOL    HW1 3953   5.953   5.985   4.184
 1018SOL    HW2 3954   5.982   6.108   4.288
 1019SOL     OW 3955   5.823   4.082   0.999
 1019SOL    HW1 3956   5.852   4.172   1.032
 1019SOL    HW2 3957   5.844   4.074   0.901
 1020SOL     OW 3958   5.191   1.479   1.720
 1020SOL    HW1 3959   5.262   1.457   1.653
 1020SOL    HW2 3960   5.159   1.573   1.706
 1021SOL     OW 3961   1.128   6.995   0.842
 1021SOL    HW1 3962   1.071   6.914   0.829
 1021SOL    HW2 3963   1.121   0.008   0.937
 1022SOL     OW 3964   2.156   4.990   6.420
 1022SOL    HW1 3965   2.068   5.037   6.416
 1022SOL    HW2 3966   2.149   4.901   6.375
 1023SOL     OW 3967   0.781   1.972   2.310
 1023SOL    HW1 3968   0.713   1.909   2.347
 1023SOL    HW2 3969   0.855   1.920   2.268
 1024SOL     OW 3970   1.887   2.093   4.431
 1024SOL    HW1 3971   1.945   2.102   4.350
 1024SOL    HW2 3972   1.801   2.050   4.406
 1025SOL     OW 3973   4.603   4.371   1.179
 1025SOL    HW1 3974   4.525   4.309   1.191
 1025SOL    HW2 3975   4.677   4.321   1.135
 1026SOL     OW 3976   3.051   3.035   1.956
 1026SOL    HW1 3977   2.951   3.032   1.949
 1026SOL    HW2 3978   3.085   3.120   1.917
 1027SOL     OW 3979   6.378   6.170   7.018
 1027SOL    HW1 3980   6.473   6.147   0.019
 1027SOL    HW2 3981   6.326   6.171   0.086
 1028SOL     OW 3982   0.687   4.676   2.743
 1028SOL    HW1 3983   0.621   4.622   2.691
 1028SOL    HW2 3984   0.679   4.772   2.717
 1029SOL     OW 3985   1.359   0.818   5.338
 1029SOL    HW1 3986   1.423   0.781   5.405
 1029SOL    HW2 3987   1.270   0.774   5.349
 1030SOL     OW 3988   3.754   3.452   0.846
 1030SOL    HW1 3989   3.849   3.472   0.822
 1030SOL    HW2 3990   3.696   3.527   0.815
 1031SOL     OW 3991   4.492   3.459   0.572
 1031SOL    HW1 3992   4.556   3.532   0.597
 1031SOL    HW2 3993   4.415   3.499   0.523
 1032SOL     OW 3994   1.846   1.572   0.971
 1032SOL    HW1 3995   1.921   1.606   0.914
 1032SOL    HW2 3996   1.831   1.475   0.952
 1033SOL     OW 3997   6.819   0.745   2.139
 1033SOL    HW1 3998   6.762   0.668   2.165
 1033SOL    HW2 3999   6.873   0.721   2.059
 1034SOL     OW 4000   3.139   0.784   5.454
 1034SOL    HW1 4001   3.148   0.751   5.360
 1034SOL    HW2 4002   3.068   0.855   5.458
 1035SOL     OW 4003   1.444   0.230   0.632
 1035SOL    HW1 4004   1.416   0.223   0.537
 1035SOL    HW2 4005   1.364   0.253   0.689
 1036SOL     OW 4006   4.671   1.556   1.995
 1036SOL    HW1 4007   4.684   1.466   1.953
 1036SOL    HW2 4008   4.679   1.627   1.925
 1037SOL     OW 4009   1.675   3.667   2.788
 1037SOL    HW1 4010   1.629   3.655   2.699
 1037SOL    HW2 4011   1.741   3.742   2.781
 1038SOL     OW 4012   2.066   6.154   0.249
 1038SOL    HW1 4013   2.145   6.201   0.208
 1038SOL    HW2 4014   2.020   6.215   0.312
 1039SOL     OW 4015   3.305   3.395   3.045
 1039SOL    HW1 4016   3.242   3.359   3.114
 1039SOL    HW2 4017   3.271   3.483   3.012
 1040SOL     OW 4018   3.602   1.658   3.000
 1040SOL    HW1 4019   3.681   1.718   3.002
 1040SOL    HW2 4020   3.519   1.712   2.987
 1041SOL     OW 4021   0.012   6.561   6.297
 1041SOL    HW1 4022   0.078   6.635   6.283
 1041SOL    HW2 4023   0.061   6.474   6.308
 1042SOL     OW 4024   5.143   3.786   3.924
 1042SOL    HW1 4025   5.122   3.789   3.826
 1042SOL    HW2 4026   5.242   3.777   3.937
 1043SOL     OW 4027   2.657   1.893   3.753
 1043SOL    HW1 4028   2.688   1.906   3.659
 1043SOL    HW2 4029   2.650   1.795   3.772
 1044SOL     OW 4030   5.629   4.530   2.248
 1044SOL    HW1 4031   5.687   4.579   2.313
 1044SOL    HW2 4032   5.552   4.588   2.221
 1045SOL     OW 4033   1.923   0.376   2.739
 1045SOL    HW1 4034   1.908   0.475   2.746
 1045SOL    HW2 4035   2.012   0.353   2.778
 1046SOL     OW 4036   2.647   2.233   1.116
 1046SOL    HW1 4037   2.565   2.266   1.069
 1046SOL    HW2 4038   2.727   2.279   1.079
 1047SOL     OW 4039   3.926   0.630   3.484
 1047SOL    HW1 4040   3.992   0.617   3.558
 1047SOL    HW2 4041   3.972   0.672   3.406
 1048SOL     OW 4042   1.003   6.933   1.927
 1048SOL    HW1 4043   1.009   6.833   1.924
 1048SOL    HW2 4044   0.912   6.961   1.899
 1049SOL     OW 4045   4.039   6.802   0.302
 1049SOL    HW1 4046   4.132   6.767   0.317
 1049SOL    HW2 4047   3.990   6.740   0.241
 1050SOL     OW 4048   2.676   1.058   4.237
 1050SOL    HW1 4049   2.759   1.113   4.237
 1050SOL    HW2 4050   2.694   0.969   4.280
 1051SOL     OW 4051   1.894   1.580   5.411
 1051SOL    HW1 4052   1.816   1.595   5.471
 1051SOL    HW2 4053   1.958   1.657   5.420
 1052SOL     OW 4054   4.202   1.768   7.006
 1052SOL    HW1 4055   4.143   1.728   0.058
 1052SOL    HW2 4056   4.297   1.766   0.020
 1053SOL     OW 4057   4.963   2.759   4.749
 1053SOL    HW1 4058   5.026   2.771   4.672
 1053SOL    HW2 4059   4.898   2.834   4.752
 1054SOL     OW 4060   4.480   5.506   6.706
 1054SOL    HW1 4061   4.473   5.418   6.658
 1054SOL    HW2 4062   4.390   5.547   6.716
 1055SOL     OW 4063   4.896   5.743   6.711
 1055SOL    HW1 4064   4.878   5.839   6.693
 1055SOL    HW2 4065   4.824   5.687   6.671
 1056SOL     OW 4066   3.606   3.846   0.129
 1056SOL    HW1 4067   3.690   3.795   0.111
 1056SOL    HW2 4068   3.616   3.940   0.095
 1057SOL     OW 4069   3.169   3.272   6.509
 1057SOL    HW1 4070   3.084   3.280   6.458
 1057SOL    HW2 4071   3.243   3.317   6.458
 1058SOL     OW 4072   3.029   2.043   2.085
 1058SOL    HW1 4073   2.996   2.137   2.075
 1058SOL    HW2 4074   3.038   2.002   1.994
 1059SOL     OW 4075   2.416   6.372   2.318
 1059SOL    HW1 4076   2.457   6.414   2.399
 1059SOL    HW2 4077   2.435   6.273   2.318
 1060SOL     OW 4078   6.363   0.594   5.258
 1060SOL    HW1 4079   6.403   0.553   5.340
 1060SOL    HW2 4080   6.339   0.690   5.277
 1061SOL     OW 4081   0.105   3.230   6.460
 1061SOL    HW1 4082   0.115   3.254   6.557
 1061SOL    HW2 4083   0.193   3.198   6.425
 1062SOL     OW 4084   3.354   5.336   5.059
 1062SOL    HW1 4085   3.288   5.319   5.132
 1062SOL    HW2 4086   3.442   5.363   5.098
 1063SOL     OW 4087   3.006   6.434   4.059
 1063SOL    HW1 4088   3.011   6.481   3.971
 1063SOL    HW2 4089   2.912   6.407   4.078
 1064SOL     OW 4090   0.662   3.425   0.138
 1064SOL    HW1 4091   0.609   3.506   0.113
 1064SOL    HW2 4092   0.660   3.413   0.237
 1065SOL     OW 4093   6.065   0.751   5.011
 1065SOL    HW1 4094   6.132   0.713   4.947
 1065SOL    HW2 4095   6.044   0.683   5.081
 1066SOL     OW 4096   4.917   6.030   1.467
 1066SOL    HW1 4097   4.970   5.949   1.492
 1066SOL    HW2 4098   4.941   6.105   1.528
 1067SOL     OW 4099   2.501   1.714   0.327
 1067SOL    HW1 4100   2.476   1.617   0.324
 1067SOL    HW2 4101   2.491   1.753   0.235
 1068SOL     OW 4102   6.097   3.058   1.509
 1068SOL    HW1 4103   6.062   3.001   1.434
 1068SOL    HW2 4104   6.028   3.063   1.582
 1069SOL     OW 4105   6.655   2.551   2.474
 1069SOL    HW1 4106   6.578   2.561   2.412
 1069SOL    HW2 4107   6.740   2.575   2.428
 1070SOL     OW 4108   0.974   0.341   2.379
 1070SOL    HW1 4109   0.984   0.348   2.478
 1070SOL    HW2 4110   0.879   0.360   2.353
 1071SOL     OW 4111   0.695   3.006   6.004
 1071SOL    HW1 4112   0.743   3.033   5.921
 1071SOL    HW2 4113   0.598   2.994   5.984
 1072SOL     OW 4114   2.102   1.481   1.995
 1072SOL    HW1 4115   2.119   1.407   1.929
 1072SOL    HW2 4116   2.175   1.549   1.988
 1073SOL     OW 4117   5.418   2.456   3.073
 1073SOL    HW1 4118   5.388   2.397   3.148
 1073SOL    HW2 4119   5.341   2.473   3.012
 1074SOL     OW 4120   3.345   5.373   1.237
 1074SOL    HW1 4121   3.372   5.391   1.332
 1074SOL    HW2 4122   3.268   5.431   1.212
 1075SOL     OW 4123   6.545   3.950   4.901
 1075SOL    HW1 4124   6.449   3.967   4.922
 1075SOL    HW2 4125   6.596   3.938   4.986
 1076SOL     OW 4126   2.166   4.227   5.056
 1076SOL    HW1 4127   2.094   4.275   5.005
 1076SOL    HW2 4128   2.187   4.140   5.011
 1077SOL     OW 4129   6.973   6.287   0.381
 1077SOL    HW1 4130   6.973   6.375   0.428
 1077SOL    HW2 4131   6.906   6.227   0.424
 1078SOL     OW 4132   6.163   5.893   4.510
 1078SOL    HW1 4133   6.146   5.837   4.592
 1078SOL    HW2 4134   6.121   5.849   4.431
 1079SOL     OW 4135   0.687   6.799   1.088
 1079SOL    HW1 4136   0.736   6.729   1.140
 1079SOL    HW2 4137   0.592   6.803   1.120
 1080SOL     OW 4138   4.181   6.002   0.457
 1080SOL    HW1 4139   4.084   6.004   0.479
 1080SOL    HW2 4140   4.227   5.937   0.518
 1081SOL     OW 4141   6.776   6.435   3.679
 1081SOL    HW1 4142   6.697   6.474   3.631
 1081SOL    HW2 4143   6.805   6.352   3.633
 1082SOL     OW 4144   4.446   6.850   0.232
 1082SOL    HW1 4145   4.500   6.885   0.156
 1082SOL    HW2 4146   4.372   6.914   0.253
 1083SOL     OW 4147   6.124   3.685   2.127
 1083SOL    HW1 4148   6.203   3.739   2.158
 1083SOL    HW2 4149   6.096   3.624   2.201
 1084SOL     OW 4150   5.792   0.598   5.558
 1084SOL    HW1 4151   5.770   0.596   5.656
 1084SOL    HW2 4152   5.780   0.507   5.519
 1085SOL     OW 4153   1.929   3.467   5.076
 1085SOL    HW1 4154   2.016   3.514   5.062
 1085SOL    HW2 4155   1.943   3.384   5.130
 1086SOL     OW 4156   5.846   4.968   1.853
 1086SOL    HW1 4157   5.922   4.929   1.906
 1086SOL    HW2 4158   5.861   4.950   1.756
 1087SOL     OW 4159   3.994   0.509   6.006
 1087SOL    HW1 4160   4.079   0.492   5.957
 1087SOL    HW2 4161   3.990   0.604   6.036
 1088SOL     OW 4162   6.894   5.130   4.326
 1088SOL    HW1 4163   6.975   5.153   4.271
 1088SOL    HW2 4164   6.828   5.205   4.321
 1089SOL     OW 4165   5.521   5.220   3.990
 1089SOL    HW1 4166   5.463   5.299   4.010
 1089SOL    HW2 4167   5.617   5.247   3.994
 1090SOL     OW 4168   5.772   2.730   5.111
 1090SOL    HW1 4169   5.677   2.757   5.129
 1090SOL    HW2 4170   5.773   2.642   5.063
 1091SOL     OW 4171   2.114   3.546   3.138
 1091SOL    HW1 4172   2.105   3.615   3.210
 1091SOL    HW2 4173   2.195   3.566   3.083
 1092SOL     OW 4174   0.808   6.485   0.738
 1092SOL    HW1 4175   0.837   6.395   0.705
 1092SOL    HW2 4176   0.728   6.475   0.797
 1093SOL     OW 4177   1.411   0.761   3.629
 1093SOL    HW1 4178   1.390   0.853   3.595
 1093SOL    HW2 4179   1.471   0.715   3.565
 1094SOL     OW 4180   0.524   0.084   2.632
 1094SOL    HW1 4181   0.597   0.076   2.564
 1094SOL    HW2 4182   0.532   0.010   2.699
 1095SOL     OW 4183   5.950   4.035   0.421
 1095SOL    HW1 4184   5.917   3.943   0.397
 1095SOL    HW2 4185   5.994   4.076   0.342
 1096SOL     OW 4186   1.895   5.835   1.788
 1096SOL    HW1 4187   1.976   5.776   1.798
 1096SOL    HW2 4188   1.904   5.889   1.704
 1097SOL     OW 4189   3.253   6.415   4.778
 1097SOL    HW1 4190   3.267   6.341   4.844
 1097SOL    HW2 4191   3.162   6.407   4.739
 1098SOL     OW 4192   6.992   3.568   0.228
 1098SOL    HW1 4193   6.898   3.602   0.237
 1098SOL    HW2 4194   0.012   3.552   0.319
 1099SOL     OW 4195   5.290   0.511   6.768
 1099SOL    HW1 4196   5.254   0.573   6.698
 1099SOL    HW2 4197   5.388   0.497   6.752
 1100SOL     OW 4198   4.601   1.992   4.755
 1100SOL    HW1 4199   4.518   2.046   4.740
 1100SOL    HW2 4200   4.667   2.012   4.683
 1101SOL     OW 4201   5.045   2.623   6.597
 1101SOL    HW1 4202   5.002   2.610   6.507
 1101SOL    HW2 4203   5.102   2.544   6.618
 1102SOL     OW 4204   2.780   0.431   3.717
 1102SOL    HW1 4205   2.687   0.459   3.694
 1102SOL    HW2 4206   2.792   0.434   3.816
 1103SOL     OW 4207   3.441   5.897   1.052
 1103SOL    HW1 4208   3.417   5.948   1.134
 1103SOL    HW2 4209   3.405   5.804   1.058
 1104SOL     OW 4210   6.916   2.320   4.074
 1104SOL    HW1 4211   6.894   2.371   3.991
 1104SOL    HW2 4212   6.930   2.383   4.150
 1105SOL     OW 4213   5.052   1.010   6.684
 1105SOL    HW1 4214   5.050   1.040   6.588
 1105SOL    HW2 4215   4.967   0.961   6.705
 1106SOL     OW 4216   6.346   1.536   1.185
 1106SOL    HW1 4217   6.283   1.521   1.261
 1106SOL    HW2 4218   6.424   1.474   1.194
 1107SOL     OW 4219   1.138   1.383   0.147
 1107SOL    HW1 4220   1.067   1.400   0.079
 1107SOL    HW2 4221   1.171   1.470   0.183
 1108SOL     OW 4222   2.513   1.242   3.296
 1108SOL    HW1 4223   2.554   1.214   3.383
 1108SOL    HW2 4224   2.468   1.331   3.308
 1109SOL     OW 4225   4.820   1.941   4.992
 1109SOL    HW1 4226   4.828   1.882   5.073
 1109SOL    HW2 4227   4.782   1.888   4.917
 1110SOL     OW 4228   1.425   0.923   2.441
 1110SOL    HW1 4229   1.477   0.854   2.390
 1110SOL    HW2 4230   1.369   0.878   2.510
 1111SOL     OW 4231   5.809   3.162   6.534
 1111SOL    HW1 4232   5.758   3.223   6.595
 1111SOL    HW2 4233   5.793   3.191   6.439
 1112SOL     OW 4234   5.913   0.546   2.592
 1112SOL    HW1 4235   5.868   0.572   2.678
 1112SOL    HW2 4236   5.931   0.629   2.538
 1113SOL     OW 4237   6.555   2.905   3.114
 1113SOL    HW1 4238   6.610   2.837   3.065
 1113SOL    HW2 4239   6.458   2.879   3.109
 1114SOL     OW 4240   3.665   3.344   4.776
 1114SOL    HW1 4241   3.690   3.344   4.679
 1114SOL    HW2 4242   3.637   3.436   4.803
 1115SOL     OW 4243   2.121   4.756   5.837
 1115SOL    HW1 4244   2.027   4.739   5.866
 1115SOL    HW2 4245   2.132   4.726   5.742
 1116SOL     OW 4246   4.572   0.071   0.411
 1116SOL    HW1 4247   4.476   0.049   0.392
 1116SOL    HW2 4248   4.577   0.134   0.488
 1117SOL     OW 4249   1.726   2.295   2.012
 1117SOL    HW1 4250   1.724   2.253   2.102
 1117SOL    HW2 4251   1.764   2.387   2.018
 1118SOL     OW 4252   4.553   6.148   7.013
 1118SOL    HW1 4253   4.614   6.118   0.068
 1118SOL    HW2 4254   4.528   6.244   0.009
 1119SOL     OW 4255   3.675   5.099   3.851
 1119SOL    HW1 4256   3.706   5.079   3.944
 1119SOL    HW2 4257   3.588   5.053   3.835
 1120SOL     OW 4258   6.820   3.288   1.604
 1120SOL    HW1 4259   6.799   3.191   1.615
 1120SOL    HW2 4260   6.809   3.314   1.508
 1121SOL     OW 4261   6.275   4.245   5.585
 1121SOL    HW1 4262   6.265   4.343   5.601
 1121SOL    HW2 4263   6.372   4.221   5.586
 1122SOL     OW 4264   6.077   1.468   2.172
 1122SOL    HW1 4265   6.042   1.551   2.128
 1122SOL    HW2 4266   6.044   1.387   2.122
 1123SOL     OW 4267   3.904   1.906   4.866
 1123SOL    HW1 4268   3.817   1.856   4.862
 1123SOL    HW2 4269   3.909   1.971   4.790
 1124SOL     OW 4270   2.256   2.996   3.942
 1124SOL    HW1 4271   2.210   3.076   3.980
 1124SOL    HW2 4272   2.234   2.988   3.845
 1125SOL     OW 4273   1.445   3.137   3.359
 1125SOL    HW1 4274   1.366   3.086   3.326
 1125SOL    HW2 4275   1.489   3.183   3.282
 1126SOL     OW 4276   4.381   4.584   4.289
 1126SOL    HW1 4277   4.459   4.521   4.286
 1126SOL    HW2 4278   4.358   4.612   4.195
 1127SOL     OW 4279   6.662   6.806   1.578
 1127SOL    HW1 4280   6.617   6.737   1.636
 1127SOL    HW2 4281   6.682   6.887   1.632
 1128SOL     OW 4282   4.541   1.712   4.499
 1128SOL    HW1 4283   4.590   1.776   4.439
 1128SOL    HW2 4284   4.606   1.669   4.562
 1129SOL     OW 4285   1.456   0.449   0.102
 1129SOL    HW1 4286   1.413   0.462   0.191
 1129SOL    HW2 4287   1.456   0.536   0.052
 1130SOL     OW 4288   2.305   4.880   2.144
 1130SOL    HW1 4289   2.287   4.923   2.056
 1130SOL    HW2 4290   2.338   4.787   2.130
 1131SOL     OW 4291   2.066   5.604   3.955
 1131SOL    HW1 4292   2.104   5.535   4.016
 1131SOL    HW2 4293   2.139   5.647   3.902
 1132SOL     OW 4294   0.936   1.726   2.273
 1132SOL    HW1 4295   0.921   1.627   2.278
 1132SOL    HW2 4296   0.923   1.765   2.364
 1133SOL     OW 4297   1.530   6.345   6.727
 1133SOL    HW1 4298   1.443   6.383   6.695
 1133SOL    HW2 4299   1.602   6.367   6.661
 1134SOL     OW 4300   4.047   5.868   0.787
 1134SOL    HW1 4301   4.130   5.839   0.739
 1134SOL    HW2 4302   4.036   5.814   0.870
 1135SOL     OW 4303   1.528   6.868   3.145
 1135SOL    HW1 4304   1.580   6.783   3.159
 1135SOL    HW2 4305   1.498   6.904   3.233
 1136SOL     OW 4306   1.477   4.742   2.071
 1136SOL    HW1 4307   1.501   4.839   2.073
 1136SOL    HW2 4308   1.550   4.689   2.116
 1137SOL     OW 4309   1.368   5.759   4.315
 1137SOL    HW1 4310   1.442   5.695   4.337
 1137SOL    HW2 4311   1.374   5.784   4.218
 1138SOL     OW 4312   1.531   3.863   5.102
 1138SOL    HW1 4313   1.514   3.902   5.011
 1138SOL    HW2 4314   1.592   3.784   5.094
 1139SOL     OW 4315   2.609   5.533   5.081
 1139SOL    HW1 4316   2.685   5.475   5.109
 1139SOL    HW2 4317   2.595   5.525   4.982
 1140SOL     OW 4318   1.950   1.799   1.915
 1140SOL    HW1 4319   1.876   1.804   1.848
 1140SOL    HW2 4320   2.006   1.881   1.909
 1141SOL     OW 4321   6.562   4.806   5.435
 1141SOL    HW1 4322   6.649   4.828   5.390
 1141SOL    HW2 4323   6.580   4.767   5.526
 1142SOL     OW 4324   1.480   5.733   2.524
 1142SOL    HW1 4325   1.542   5.795   2.571
 1142SOL    HW2 4326   1.520   5.641   2.521
 1143SOL     OW 4327   6.976   4.183   1.400
 1143SOL    HW1 4328   7.008   4.115   1.467
 1143SOL    HW2 4329   6.879   4.201   1.416
 1144SOL     OW 4330   4.997   4.473   0.607
 1144SOL    HW1 4331   4.927   4.408   0.579
 1144SOL    HW2 4332   5.088   4.432   0.597
 1145SOL     OW 4333   5.966   6.950   0.298
 1145SOL    HW1 4334   5.915   6.979   0.379
 1145SOL    HW2 4335   6.064   6.951   0.319
 1146SOL     OW 4336   1.163   0.826   1.073
 1146SOL    HW1 4337   1.217   0.892   1.020
 1146SOL    HW2 4338   1.179   0.841   1.170
 1147SOL     OW 4339   2.019   6.004   0.963
 1147SOL    HW1 4340   2.095   5.940   0.951
 1147SOL    HW2 4341   2.044   6.094   0.927
 1148SOL     OW 4342   3.933   5.839   2.706
 1148SOL    HW1 4343   3.885   5.795   2.630
 1148SOL    HW2 4344   3.880   5.826   2.790
 1149SOL     OW 4345   4.954   2.941   1.820
 1149SOL    HW1 4346   5.019   2.973   1.889
 1149SOL    HW2 4347   4.861   2.956   1.851
 1150SOL     OW 4348   0.721   3.161   0.643
 1150SOL    HW1 4349   0.770   3.082   0.606
 1150SOL    HW2 4350   0.768   3.245   0.616
 1151SOL     OW 4351   5.581   5.413   4.280
 1151SOL    HW1 4352   5.613   5.319   4.263
 1151SOL    HW2 4353   5.552   5.454   4.194
 1152SOL     OW 4354   3.680   6.628   6.272
 1152SOL    HW1 4355   3.621   6.683   6.212
 1152SOL    HW2 4356   3.734   6.566   6.216
 1153SOL     OW 4357   6.083   6.796   1.565
 1153SOL    HW1 4358   6.027   6.714   1.567
 1153SOL    HW2 4359   6.164   6.780   1.510
 1154SOL     OW 4360   2.119   3.342   0.979
 1154SOL    HW1 4361   2.149   3.266   1.036
 1154SOL    HW2 4362   2.095   3.420   1.036
 1155SOL     OW 4363   3.600   5.580   3.810
 1155SOL    HW1 4364   3.627   5.676   3.822
 1155SOL    HW2 4365   3.603   5.534   3.899
 1156SOL     OW 4366   2.810   1.154   2.459
 1156SOL    HW1 4367   2.736   1.088   2.450
 1156SOL    HW2 4368   2.895   1.113   2.425
 1157SOL     OW 4369   2.973   1.545   0.507
 1157SOL    HW1 4370   3.026   1.567   0.425
 1157SOL    HW2 4371   2.884   1.508   0.480
 1158SOL     OW 4372   5.560   4.500   3.519
 1158SOL    HW1 4373   5.610   4.577   3.481
 1158SOL    HW2 4374   5.624   4.428   3.547
 1159SOL     OW 4375   5.892   4.850   0.334
 1159SOL    HW1 4376   5.879   4.949   0.331
 1159SOL    HW2 4377   5.893   4.813   0.242
 1160SOL     OW 4378   4.374   2.220   0.378
 1160SOL    HW1 4379   4.416   2.304   0.342
 1160SOL    HW2 4380   4.349   2.234   0.473
 1161SOL     OW 4381   6.615   5.528   0.967
 1161SOL    HW1 4382   6.549   5.488   0.903
 1161SOL    HW2 4383   6.603   5.487   1.057
 1162SOL     OW 4384   3.284   2.165   4.115
 1162SOL    HW1 4385   3.211   2.180   4.049
 1162SOL    HW2 4386   3.359   2.115   4.072
 1163SOL     OW 4387   5.945   2.145   1.594
 1163SOL    HW1 4388   5.999   2.111   1.670
 1163SOL    HW2 4389   5.848   2.146   1.619
 1164SOL     OW 4390   4.378   2.463   5.865
 1164SOL    HW1 4391   4.348   2.441   5.958
 1164SOL    HW2 4392   4.362   2.384   5.806
 1165SOL     OW 4393   4.574   6.835   3.643
 1165SOL    HW1 4394   4.624   6.921   3.642
 1165SOL    HW2 4395   4.638   6.759   3.628
 1166SOL     OW 4396   3.100   4.604   6.336
 1166SOL    HW1 4397   3.147   4.682   6.377
 1166SOL    HW2 4398   3.007   4.630   6.311
 1167SOL     OW 4399   4.730   4.156   2.921
 1167SOL    HW1 4400   4.663   4.187   2.854
 1167SOL    HW2 4401   4.742   4.227   2.991
 1168SOL     OW 4402   0.766   0.068   1.872
 1168SOL    HW1 4403   0.786   0.041   1.778
 1168SOL    HW2 4404   0.818   0.149   1.896
 1169SOL     OW 4405   4.462   1.294   5.376
 1169SOL    HW1 4406   4.439   1.390   5.389
 1169SOL    HW2 4407   4.428   1.240   5.453
 1170SOL     OW 4408   4.993   5.044   2.449
 1170SOL    HW1 4409   5.041   5.106   2.387
 1170SOL    HW2 4410   5.022   4.950   2.432
 1171SOL     OW 4411   0.285   6.265   0.982
 1171SOL    HW1 4412   0.271   6.175   1.022
 1171SOL    HW2 4413   0.204   6.290   0.928
 1172SOL     OW 4414   6.407   3.059   5.961
 1172SOL    HW1 4415   6.447   3.055   6.053
 1172SOL    HW2 4416   6.310   3.037   5.967
 1173SOL     OW 4417   3.470   2.644   0.698
 1173SOL    HW1 4418   3.501   2.739   0.694
 1173SOL    HW2 4419   3.415   2.630   0.781
 1174SOL     OW 4420   2.278   4.766   0.346
 1174SOL    HW1 4421   2.195   4.822   0.349
 1174SOL    HW2 4422   2.284   4.719   0.258
 1175SOL     OW 4423   3.226   3.073   3.915
 1175SOL    HW1 4424   3.181   3.104   3.831
 1175SOL    HW2 4425   3.209   3.140   3.987
 1176SOL     OW 4426   5.303   3.082   6.695
 1176SOL    HW1 4427   5.263   3.160   6.742
 1176SOL    HW2 4428   5.235   3.009   6.687
 1177SOL     OW 4429   1.210   1.576   4.871
 1177SOL    HW1 4430   1.259   1.540   4.950
 1177SOL    HW2 4431   1.201   1.504   4.802
 1178SOL     OW 4432   4.445   6.431   6.934
 1178SOL    HW1 4433   4.423   6.508   6.875
 1178SOL    HW2 4434   4.543   6.429   6.952
 1179SOL     OW 4435   0.358   5.777   6.997
 1179SOL    HW1 4436   0.376   5.863   0.027
 1179SOL    HW2 4437   0.357   5.793   6.898
 1180SOL     OW 4438   3.419   6.130   0.564
 1180SOL    HW1 4439   3.394   6.198   0.495
 1180SOL    HW2 4440   3.339   6.106   0.619
 1181SOL     OW 4441   6.563   6.595   6.600
 1181SOL    HW1 4442   6.529   6.501   6.611
 1181SOL    HW2 4443   6.525   6.652   6.672
 1182SOL     OW 4444   4.588   4.313   2.727
 1182SOL    HW1 4445   4.573   4.326   2.629
 1182SOL    HW2 4446   4.547   4.387   2.778
 1183SOL     OW 4447   1.846   3.832   6.521
 1183SOL    HW1 4448   1.829   3.745   6.568
 1183SOL    HW2 4449   1.907   3.817   6.443
 1184SOL     OW 4450   0.053   0.429   5.266
 1184SOL    HW1 4451   0.068   0.521   5.230
 1184SOL    HW2 4452   0.048   0.433   5.366
 1185SOL     OW 4453   6.300   1.081   0.049
 1185SOL    HW1 4454   6.396   1.096   0.070
 1185SOL    HW2 4455   6.273   1.140   6.990
 1186SOL     OW 4456   5.383   6.632   4.643
 1186SOL    HW1 4457   5.378   6.550   4.700
 1186SOL    HW2 4458   5.407   6.710   4.700
 1187SOL     OW 4459   6.194   1.194   5.710
 1187SOL    HW1 4460   6.204   1.110   5.764
 1187SOL    HW2 4461   6.161   1.268   5.769
 1188SOL     OW 4462   3.050   1.064   6.657
 1188SOL    HW1 4463   2.962   1.058   6.703
 1188SOL    HW2 4464   3.040   1.033   6.562
 1189SOL     OW 4465   5.225   3.616   3.662
 1189SOL    HW1 4466   5.247   3.713   3.674
 1189SOL    HW2 4467   5.226   3.594   3.564
 1190SOL     OW 4468   2.722   0.162   3.620
 1190SOL    HW1 4469   2.760   0.241   3.668
 1190SOL    HW2 4470   2.624   0.177   3.606
 1191SOL     OW 4471   4.252   6.448   3.041
 1191SOL    HW1 4472   4.200   6.417   3.121
 1191SOL    HW2 4473   4.240   6.384   2.966
 1192SOL     OW 4474   6.234   6.034   3.177
 1192SOL    HW1 4475   6.243   6.107   3.109
 1192SOL    HW2 4476   6.231   6.074   3.268
 1193SOL     OW 4477   6.892   5.801   4.805
 1193SOL    HW1 4478   6.867   5.882   4.860
 1193SOL    HW2 4479   6.959   5.746   4.855
 1194SOL     OW 4480   3.823   0.053   1.226
 1194SOL    HW1 4481   3.893   0.123   1.240
 1194SOL    HW2 4482   3.743   0.075   1.282
 1195SOL     OW 4483   5.106   2.628   3.788
 1195SOL    HW1 4484   5.090   2.677   3.703
 1195SOL    HW2 4485   5.114   2.530   3.769
 1196SOL     OW 4486   0.095   6.394   4.852
 1196SOL    HW1 4487   0.014   6.421   4.800
 1196SOL    HW2 4488   0.172   6.381   4.789
 1197SOL     OW 4489   1.967   6.401   0.348
 1197SOL    HW1 4490   1.903   6.444   0.285
 1197SOL    HW2 4491   2.039   6.467   0.371
 1198SOL     OW 4492   1.457   2.685   6.928
 1198SOL    HW1 4493   1.363   2.674   6.895
 1198SOL    HW2 4494   1.518   2.701   6.851
 1199SOL     OW 4495   6.603   3.778   1.735
 1199SOL    HW1 4496   6.564   3.698   1.780
 1199SOL    HW2 4497   6.538   3.854   1.739
 1200SOL     OW 4498   2.991   3.789   2.899
 1200SOL    HW1 4499   2.933   3.720   2.856
 1200SOL    HW2 4500   2.982   3.784   2.998
 1201SOL     OW 4501   1.422   1.781   4.768
 1201SOL    HW1 4502   1.366   1.711   4.813
 1201SOL    HW2 4503   1.425   1.862   4.826
 1202SOL     OW 4504   1.301   5.762   5.839
 1202SOL    HW1 4505   1.369   5.833   5.822
 1202SOL    HW2 4506   1.338   5.672   5.814
 1203SOL     OW 4507   3.272   5.708   5.602
 1203SOL    HW1 4508   3.343   5.749   5.545
 1203SOL    HW2 4509   3.273   5.609   5.590
 1204SOL     OW 4510   1.801   6.975   3.285
 1204SOL    HW1 4511   1.767   6.881   3.292
 1204SOL    HW2 4512   1.836   6.991   3.192
 1205SOL     OW 4513   5.709   3.718   1.959
 1205SOL    HW1 4514   5.662   3.632   1.942
 1205SOL    HW2 4515   5.708   3.738   2.058
 1206SOL     OW 4516   3.243   3.346   4.530
 1206SOL    HW1 4517   3.270   3.437   4.562
 1206SOL    HW2 4518   3.145   3.345   4.512
 1207SOL     OW 4519   0.958   6.050   2.941
 1207SOL    HW1 4520   1.046   6.034   2.896
 1207SOL    HW2 4521   0.914   6.130   2.900
 1208SOL     OW 4522   3.248   3.622   6.259
 1208SOL    HW1 4523   3.307   3.561   6.207
 1208SOL    HW2 4524   3.256   3.715   6.223
 1209SOL     OW 4525   3.736   6.221   5.673
 1209SOL    HW1 4526   3.643   6.256   5.662
 1209SOL    HW2 4527   3.734   6.140   5.732
 1210SOL     OW 4528   3.301   1.182   2.975
 1210SOL    HW1 4529   3.347   1.266   3.004
 1210SOL    HW2 4530   3.365   1.125   2.924
 1211SOL     OW 4531   1.106   2.649   0.579
 1211SOL    HW1 4532   1.087   2.688   0.488
 1211SOL    HW2 4533   1.103   2.550   0.574
 1212SOL     OW 4534   1.428   0.217   0.351
 1212SOL    HW1 4535   1.463   0.127   0.324
 1212SOL    HW2 4536   1.504   0.283   0.353
 1213SOL     OW 4537   5.584   3.033   1.374
 1213SOL    HW1 4538   5.497   3.010   1.331
 1213SOL    HW2 4539   5.576   3.121   1.422
 1214SOL     OW 4540   6.789   2.899   1.789
 1214SOL    HW1 4541   6.753   2.963   1.858
 1214SOL    HW2 4542   6.877   2.863   1.820
 1215SOL     OW 4543   1.668   5.586   3.321
 1215SOL    HW1 4544   1.756   5.614   3.283
 1215SOL    HW2 4545   1.598   5.592   3.249
 1216SOL     OW 4546   3.323   7.008   1.639
 1216SOL    HW1 4547   3.402   7.003   1.578
 1216SOL    HW2 4548   3.272   0.075   1.620
 1217SOL     OW 4549   2.642   4.618   6.921
 1217SOL    HW1 4550   2.681   4.589   7.009
 1217SOL    HW2 4551   2.642   4.718   6.916
 1218SOL     OW 4552   2.670   5.127   3.151
 1218SOL    HW1 4553   2.619   5.053   3.109
 1218SOL    HW2 4554   2.642   5.214   3.111
 1219SOL     OW 4555   3.920   6.265   2.254
 1219SOL    HW1 4556   3.936   6.259   2.156
 1219SOL    HW2 4557   3.952   6.182   2.299
 1220SOL     OW 4558   0.826   4.450   2.610
 1220SOL    HW1 4559   0.868   4.455   2.520
 1220SOL    HW2 4560   0.891   4.410   2.675
 1221SOL     OW 4561   4.445   4.835   6.510
 1221SOL    HW1 4562   4.397   4.772   6.449
 1221SOL    HW2 4563   4.514   4.886   6.459
 1222SOL     OW 4564   6.851   0.882   5.940
 1222SOL    HW1 4565   6.923   0.820   5.908
 1222SOL    HW2 4566   6.785   0.897   5.866
 1223SOL     OW 4567   3.465   6.333   1.041
 1223SOL    HW1 4568   3.521   6.291   1.112
 1223SOL    HW2 4569   3.436   6.263   0.976
 1224SOL     OW 4570   2.947   0.718   2.337
 1224SOL    HW1 4571   2.880   0.688   2.405
 1224SOL    HW2 4572   2.922   0.808   2.303
 1225SOL     OW 4573   2.907   4.016   5.756
 1225SOL    HW1 4574   2.924   4.052   5.664
 1225SOL    HW2 4575   2.816   4.044   5.786
 1226SOL     OW 4576   2.015   5.065   0.536
 1226SOL    HW1 4577   2.010   5.038   0.633
 1226SOL    HW2 4578   2.030   4.984   0.480
 1227SOL     OW 4579   0.754   3.560   5.726
 1227SOL    HW1 4580   0.709   3.478   5.689
 1227SOL    HW2 4581   0.817   3.596   5.657
 1228SOL     OW 4582   4.017   1.687   6.812
 1228SOL    HW1 4583   3.985   1.755   6.746
 1228SOL    HW2 4584   4.060   1.734   6.889
 1229SOL     OW 4585   2.933   4.384   6.566
 1229SOL    HW1 4586   2.950   4.383   6.467
 1229SOL    HW2 4587   2.962   4.298   6.606
 1230SOL     OW 4588   4.533   0.514   3.686
 1230SOL    HW1 4589   4.532   0.524   3.786
 1230SOL    HW2 4590   4.506   0.601   3.644
 1231SOL     OW 4591   0.966   4.130   4.605
 1231SOL    HW1 4592   0.916   4.142   4.520
 1231SOL    HW2 4593   0.926   4.055   4.658
 1232SOL     OW 4594   2.252   2.840   3.225
 1232SOL    HW1 4595   2.205   2.874   3.143
 1232SOL    HW2 4596   2.310   2.912   3.263
 1233SOL     OW 4597   1.001   2.682   4.432
 1233SOL    HW1 4598   0.950   2.742   4.493
 1233SOL    HW2 4599   0.942   2.655   4.356
 1234SOL     OW 4600   6.547   4.232   4.134
 1234SOL    HW1 4601   6.513   4.325   4.128
 1234SOL    HW2 4602   6.620   4.226   4.202
 1235SOL     OW 4603   6.665   5.595   4.005
 1235SOL    HW1 4604   6.726   5.605   4.084
 1235SOL    HW2 4605   6.655   5.684   3.959
 1236SOL     OW 4606   5.360   0.814   5.953
 1236SOL    HW1 4607   5.359   0.866   6.038
 1236SOL    HW2 4608   5.268   0.812   5.914
 1237SOL     OW 4609   2.609   4.903   6.395
 1237SOL    HW1 4610   2.707   4.885   6.386
 1237SOL    HW2 4611   2.567   4.897   6.304
 1238SOL     OW 4612   1.615   1.668   0.411
 1238SOL    HW1 4613   1.530   1.620   0.431
 1238SOL    HW2 4614   1.674   1.667   0.492
 1239SOL     OW 4615   0.532   0.199   5.505
 1239SOL    HW1 4616   0.533   0.219   5.603
 1239SOL    HW2 4617   0.600   0.129   5.484
 1240SOL     OW 4618   4.362   5.612   1.960
 1240SOL    HW1 4619   4.381   5.600   1.863
 1240SOL    HW2 4620   4.362   5.523   2.006
 1241SOL     OW 4621   0.168   2.209   4.200
 1241SOL    HW1 4622   0.112   2.253   4.270
 1241SOL    HW2 4623   0.193   2.276   4.130
 1242SOL     OW 4624   2.414   2.835   6.233
 1242SOL    HW1 4625   2.374   2.834   6.325
 1242SOL    HW2 4626   2.436   2.742   6.205
 1243SOL     OW 4627   2.215   5.287   5.087
 1243SOL    HW1 4628   2.147   5.252   5.152
 1243SOL    HW2 4629   2.173   5.358   5.030
 1244SOL     OW 4630   0.185   1.562   2.646
 1244SOL    HW1 4631   0.135   1.523   2.569
 1244SOL    HW2 4632   0.282   1.537   2.640
 1245SOL     OW 4633   2.933   3.230   5.666
 1245SOL    HW1 4634   3.022   3.275   5.663
 1245SOL    HW2 4635   2.872   3.271   5.598
 1246SOL     OW 4636   0.849   0.067   1.194
 1246SOL    HW1 4637   0.781   0.140   1.193
 1246SOL    HW2 4638   0.809   7.002   1.154
 1247SOL     OW 4639   1.397   6.861   6.585
 1247SOL    HW1 4640   1.342   6.940   6.558
 1247SOL    HW2 4641   1.353   6.816   6.663
 1248SOL     OW 4642   2.212   6.522   3.870
 1248SOL    HW1 4643   2.219   6.423   3.874
 1248SOL    HW2 4644   2.126   6.548   3.826
 1249SOL     OW 4645   5.674   2.764   3.208
 1249SOL    HW1 4646   5.685   2.859   3.178
 1249SOL    HW2 4647   5.695   2.702   3.131
 1250SOL     OW 4648   0.105   4.037   4.344
 1250SOL    HW1 4649   0.156   3.951   4.336
 1250SOL    HW2 4650   0.160   4.105   4.393
 1251SOL     OW 4651   3.359   0.222   6.317
 1251SOL    HW1 4652   3.391   0.193   6.407
 1251SOL    HW2 4653   3.415   0.297   6.284
 1252SOL     OW 4654   3.051   3.890   0.071
 1252SOL    HW1 4655   3.031   3.825   7.015
 1252SOL    HW2 4656   3.084   3.840   0.151
 1253SOL     OW 4657   4.339   0.337   2.570
 1253SOL    HW1 4658   4.255   0.287   2.588
 1253SOL    HW2 4659   4.319   0.435   2.564
 1254SOL     OW 4660   5.775   1.812   2.991
 1254SOL    HW1 4661   5.853   1.749   2.992
 1254SOL    HW2 4662   5.791   1.885   3.057
 1255SOL     OW 4663   6.220   0.575   0.650
 1255SOL    HW1 4664   6.182   0.621   0.570
 1255SOL    HW2 4665   6.248   0.482   0.624
 1256SOL     OW 4666   4.916   2.587   4.038
 1256SOL    HW1 4667   4.927   2.600   4.137
 1256SOL    HW2 4668   5.005   2.597   3.994
 1257SOL     OW 4669   6.229   1.158   3.803
 1257SOL    HW1 4670   6.144   1.162   3.750
 1257SOL    HW2 4671   6.253   1.249   3.835
 1258SOL     OW 4672   0.256   5.378   3.599
 1258SOL    HW1 4673   0.202   5.454   3.562
 1258SOL    HW2 4674   0.353   5.398   3.588
 1259SOL     OW 4675   4.813   2.460   4.984
 1259SOL    HW1 4676   4.731   2.483   4.933
 1259SOL    HW2 4677   4.787   2.416   5.070
 1260SOL     OW 4678   0.330   1.269   4.859
 1260SOL    HW1 4679   0.421   1.246   4.824
 1260SOL    HW2 4680   0.296   1.194   4.914
 1261SOL     OW 4681   6.626   3.929   0.772
 1261SOL    HW1 4682   6.715   3.973   0.755
 1261SOL    HW2 4683   6.618   3.847   0.716
 1262SOL     OW 4684   5.236   6.250   2.184
 1262SOL    HW1 4685   5.248   6.287   2.276
 1262SOL    HW2 4686   5.299   6.297   2.121
 1263SOL     OW 4687   0.218   2.329   3.504
 1263SOL    HW1 4688   0.172   2.250   3.544
 1263SOL    HW2 4689   0.184   2.344   3.411
 1264SOL     OW 4690   1.160   2.691   5.121
 1264SOL    HW1 4691   1.191   2.597   5.126
 1264SOL    HW2 4692   1.139   2.725   5.213
 1265SOL     OW 4693   5.535   0.273   5.397
 1265SOL    HW1 4694   5.513   0.260   5.494
 1265SOL    HW2 4695   5.474   0.340   5.357
 1266SOL     OW 4696   2.487   1.167   5.098
 1266SOL    HW1 4697   2.405   1.111   5.105
 1266SOL    HW2 4698   2.463   1.259   5.068
 1267SOL     OW 4699   3.344   0.334   2.491
 1267SOL    HW1 4700   3.417   0.290   2.439
 1267SOL    HW2 4701   3.305   0.408   2.437
 1268SOL     OW 4702   4.002   2.338   5.423
 1268SOL    HW1 4703   3.911   2.373   5.401
 1268SOL    HW2 4704   3.993   2.249   5.469
 1269SOL     OW 4705   6.038   1.696   3.586
 1269SOL    HW1 4706   6.119   1.746   3.617
 1269SOL    HW2 4707   5.995   1.650   3.664
 1270SOL     OW 4708   6.281   5.122   2.841
 1270SOL    HW1 4709   6.193   5.165   2.860
 1270SOL    HW2 4710   6.341   5.188   2.795
 1271SOL     OW 4711   2.300   1.427   1.451
 1271SOL    HW1 4712   2.260   1.471   1.532
 1271SOL    HW2 4713   2.399   1.419   1.463
 1272SOL     OW 4714   5.871   2.275   0.680
 1272SOL    HW1 4715   5.905   2.268   0.774
 1272SOL    HW2 4716   5.864   2.372   0.654
 1273SOL     OW 4717   2.069   4.380   5.620
 1273SOL    HW1 4718   2.152   4.350   5.666
 1273SOL    HW2 4719   2.005   4.303   5.613
 1274SOL     OW 4720   0.004   4.065   4.097
 1274SOL    HW1 4721   0.061   4.076   4.178
 1274SOL    HW2 4722   6.931   4.033   4.123
 1275SOL     OW 4723   2.312   1.649   2.666
 1275SOL    HW1 4724   2.374   1.676   2.593
 1275SOL    HW2 4725   2.288   1.728   2.722
 1276SOL     OW 4726   5.455   4.316   3.841
 1276SOL    HW1 4727   5.521   4.259   3.890
 1276SOL    HW2 4728   5.396   4.259   3.785
 1277SOL     OW 4729   0.847   5.822   6.614
 1277SOL    HW1 4730   0.807   5.813   6.522
 1277SOL    HW2 4731   0.803   5.897   6.663
 1278SOL     OW 4732   0.456   6.075   2.569
 1278SOL    HW1 4733   0.427   6.013   2.496
 1278SOL    HW2 4734   0.455   6.026   2.656
 1279SOL     OW 4735   2.642   3.397   0.863
 1279SOL    HW1 4736   2.608   3.363   0.776
 1279SOL    HW2 4737   2.738   3.374   0.873
 1280SOL     OW 4738   2.538   2.487   4.246
 1280SOL    HW1 4739   2.611   2.426   4.277
 1280SOL    HW2 4740   2.542   2.495   4.146
 1281SOL     OW 4741   5.767   6.373   4.675
 1281SOL    HW1 4742   5.850   6.346   4.724
 1281SOL    HW2 4743   5.705   6.419   4.737
 1282SOL     OW 4744   0.639   2.784   1.808
 1282SOL    HW1 4745   0.619   2.699   1.760
 1282SOL    HW2 4746   0.730   2.816   1.784
 1283SOL     OW 4747   6.978   1.289   4.382
 1283SOL    HW1 4748   6.966   1.385   4.355
 1283SOL    HW2 4749   0.004   1.285   4.471
 1284SOL     OW 4750   3.866   2.166   1.834
 1284SOL    HW1 4751   3.782   2.217   1.851
 1284SOL    HW2 4752   3.914   2.151   1.921
 1285SOL     OW 4753   4.555   1.381   4.296
 1285SOL    HW1 4754   4.514   1.459   4.247
 1285SOL    HW2 4755   4.627   1.341   4.240
 1286SOL     OW 4756   4.954   1.420   1.553
 1286SOL    HW1 4757   4.988   1.371   1.633
 1286SOL    HW2 4758   4.889   1.490   1.582
 1287SOL     OW 4759   5.030   5.206   5.561
 1287SOL    HW1 4760   4.991   5.233   5.649
 1287SOL    HW2 4761   5.093   5.277   5.529
 1288SOL     OW 4762   4.155   4.516   6.669
 1288SOL    HW1 4763   4.087   4.464   6.721
 1288SOL    HW2 4764   4.236   4.459   6.653
 1289SOL     OW 4765   6.623   6.885   0.592
 1289SOL    HW1 4766   6.682   6.842   0.524
 1289SOL    HW2 4767   6.679   6.930   0.662
 1290SOL     OW 4768   1.687   6.522   5.474
 1290SOL    HW1 4769   1.766   6.503   5.532
 1290SOL    HW2 4770   1.670   6.621   5.472
 1291SOL     OW 4771   5.896   5.517   3.714
 1291SOL    HW1 4772   5.807   5.562   3.703
 1291SOL    HW2 4773   5.882   5.425   3.750
 1292SOL     OW 4774   0.535   6.897   2.821
 1292SOL    HW1 4775   0.607   6.828   2.827
 1292SOL    HW2 4776   0.520   6.937   2.911
 1293SOL     OW 4777   4.705   0.727   1.109
 1293SOL    HW1 4778   4.761   0.804   1.077
 1293SOL    HW2 4779   4.765   0.654   1.140
 1294SOL     OW 4780   2.351   4.566   5.314
 1294SOL    HW1 4781   2.352   4.531   5.220
 1294SOL    HW2 4782   2.368   4.491   5.377
 1295SOL     OW 4783   6.855   4.412   0.144
 1295SOL    HW1 4784   6.808   4.499   0.163
 1295SOL    HW2 4785   6.797   4.336   0.174
 1296SOL     OW 4786   5.126   0.124   5.991
 1296SOL    HW1 4787   5.150   0.032   5.960
 1296SOL    HW2 4788   5.121   0.125   6.091
 1297SOL     OW 4789   6.210   6.497   0.121
 1297SOL    HW1 4790   6.305   6.491   0.152
 1297SOL    HW2 4791   6.208   6.501   0.021
 1298SOL     OW 4792   5.256   0.708   3.437
 1298SOL    HW1 4793   5.263   0.611   3.462
 1298SOL    HW2 4794   5.161   0.729   3.413
 1299SOL     OW 4795   1.141   3.573   4.783
 1299SOL    HW1 4796   1.126   3.663   4.825
 1299SOL    HW2 4797   1.190   3.514   4.847
 1300SOL     OW 4798   1.081   5.774   0.618
 1300SOL    HW1 4799   1.167   5.822   0.634
 1300SOL    HW2 4800   1.080   5.737   0.525
 1301SOL     OW 4801   6.391   0.407   0.354
 1301SOL    HW1 4802   6.378   0.343   0.279
 1301SOL    HW2 4803   6.488   0.412   0.378
 1302SOL     OW 4804   6.562   6.641   5.383
 1302SOL    HW1 4805   6.591   6.719   5.327
 1302SOL    HW2 4806   6.559   6.559   5.325
 1303SOL     OW 4807   3.063   6.781   1.881
 1303SOL    HW1 4808   3.149   6.756   1.835
 1303SOL    HW2 4809   3.018   6.854   1.829
 1304SOL     OW 4810   0.432   0.551   0.842
 1304SOL    HW1 4811   0.360   0.606   0.885
 1304SOL    HW2 4812   0.416   0.454   0.860
 1305SOL     OW 4813   4.034   4.223   6.324
 1305SOL    HW1 4814   4.078   4.171   6.251
 1305SOL    HW2 4815   4.058   4.185   6.413
 1306SOL     OW 4816   2.847   6.891   3.771
 1306SOL    HW1 4817   2.931   6.943   3.785
 1306SOL    HW2 4818   2.828   6.885   3.673
 1307SOL     OW 4819   1.770   2.732   4.367
 1307SOL    HW1 4820   1.847   2.736   4.304
 1307SOL    HW2 4821   1.758   2.822   4.411
 1308SOL     OW 4822   6.743   3.261   6.184
 1308SOL    HW1 4823   6.679   3.338   6.186
 1308SOL    HW2 4824   6.833   3.292   6.215
 1309SOL     OW 4825   5.682   3.809   6.477
 1309SOL    HW1 4826   5.585   3.821   6.458
 1309SOL    HW2 4827   5.703   3.847   6.567
 1310SOL     OW 4828   2.096   3.702   3.373
 1310SOL    HW1 4829   2.002   3.729   3.351
 1310SOL    HW2 4830   2.150   3.783   3.394
 1311SOL     OW 4831   5.308   5.151   0.237
 1311SOL    HW1 4832   5.267   5.224   0.183
 1311SOL    HW2 4833   5.297   5.064   0.190
 1312SOL     OW 4834   2.458   1.276   6.587
 1312SOL    HW1 4835   2.519   1.352   6.565
 1312SOL    HW2 4836   2.498   1.190   6.556
 1313SOL     OW 4837   5.841   5.192   1.549
 1313SOL    HW1 4838   5.846   5.291   1.562
 1313SOL    HW2 4839   5.751   5.159   1.578
 1314SOL     OW 4840   1.761   1.140   4.002
 1314SOL    HW1 4841   1.719   1.194   3.929
 1314SOL    HW2 4842   1.759   1.193   4.087
 1315SOL     OW 4843   6.215   1.096   2.783
 1315SOL    HW1 4844   6.117   1.094   2.803
 1315SOL    HW2 4845   6.265   1.056   2.860
 1316SOL     OW 4846   5.392   0.121   6.345
 1316SOL    HW1 4847   5.491   0.109   6.355
 1316SOL    HW2 4848   5.352   0.037   6.309
 1317SOL     OW 4849   3.368   2.851   5.225
 1317SOL    HW1 4850   3.416   2.880   5.142
 1317SOL    HW2 4851   3.342   2.931   5.278
 1318SOL     OW 4852   1.929   1.944   6.004
 1318SOL    HW1 4853   1.904   2.011   6.074
 1318SOL    HW2 4854   1.994   1.986   5.940
 1319SOL     OW 4855   6.852   0.620   0.308
 1319SOL    HW1 4856   6.869   0.607   0.210
 1319SOL    HW2 4857   6.931   0.666   0.350
 1320SOL     OW 4858   2.920   3.310   6.348
 1320SOL    HW1 4859   2.964   3.369   6.280
 1320SOL    HW2 4860   2.831   3.280   6.313
 1321SOL     OW 4861   0.032   2.607   1.314
 1321SOL    HW1 4862   6.977   2.567   1.259
 1321SOL    HW2 4863   0.051   2.700   1.281
 1322SOL     OW 4864   3.292   2.720   0.227
 1322SOL    HW1 4865   3.195   2.695   0.228
 1322SOL    HW2 4866   3.301   2.818   0.209
 1323SOL     OW 4867   3.978   0.208   1.714
 1323SOL    HW1 4868   4.008   0.289   1.765
 1323SOL    HW2 4869   3.908   0.235   1.647
 1324SOL     OW 4870   2.296   4.251   5.736
 1324SOL    HW1 4871   2.335   4.192   5.808
 1324SOL    HW2 4872   2.279   4.196   5.654
 1325SOL     OW 4873   3.696   5.992   5.104
 1325SOL    HW1 4874   3.787   5.996   5.145
 1325SOL    HW2 4875   3.675   6.079   5.060
 1326SOL     OW 4876   5.006   1.509   5.130
 1326SOL    HW1 4877   5.003   1.450   5.211
 1326SOL    HW2 4878   4.930   1.486   5.069
 1327SOL     OW 4879   4.842   5.804   2.527
 1327SOL    HW1 4880   4.780   5.864   2.477
 1327SOL    HW2 4881   4.846   5.832   2.623
 1328SOL     OW 4882   2.538   2.000   5.930
 1328SOL    HW1 4883   2.536   1.901   5.920
 1328SOL    HW2 4884   2.448   2.033   5.961
 1329SOL     OW 4885   1.474   3.230   3.873
 1329SOL    HW1 4886   1.497   3.290   3.950
 1329SOL    HW2 4887   1.520   3.262   3.790
 1330SOL     OW 4888   5.926   2.934   3.112
 1330SOL    HW1 4889   5.976   2.866   3.166
 1330SOL    HW2 4890   5.991   2.991   3.061
 1331SOL     OW 4891   4.787   2.407   3.839
 1331SOL    HW1 4892   4.810   2.464   3.918
 1331SOL    HW2 4893   4.688   2.401   3.830
 1332SOL     OW 4894   2.300   5.716   0.508
 1332SOL    HW1 4895   2.260   5.636   0.555
 1332SOL    HW2 4896   2.399   5.706   0.504
 1333SOL     OW 4897   3.472   3.874   2.996
 1333SOL    HW1 4898   3.511   3.966   3.001
 1333SOL    HW2 4899   3.508   3.827   2.915
 1334SOL     OW 4900   0.041   4.071   1.164
 1334SOL    HW1 4901   0.138   4.047   1.153
 1334SOL    HW2 4902   0.028   4.116   1.252
 1335SOL     OW 4903   6.931   3.594   3.239
 1335SOL    HW1 4904   6.837   3.569   3.217
 1335SOL    HW2 4905   6.989   3.512   3.235
 1336SOL     OW 4906   1.874   6.845   5.571
 1336SOL    HW1 4907   1.964   6.816   5.539
 1336SOL    HW2 4908   1.842   6.782   5.642
 1337SOL     OW 4909   0.652   6.857   1.991
 1337SOL    HW1 4910   0.629   6.874   2.087
 1337SOL    HW2 4911   0.683   6.942   1.949
 1338SOL     OW 4912   6.636   4.354   4.730
 1338SOL    HW1 4913   6.689   4.407   4.796
 1338SOL    HW2 4914   6.663   4.258   4.735
 1339SOL     OW 4915   5.835   1.280   6.724
 1339SOL    HW1 4916   5.868   1.261   6.632
 1339SOL    HW2 4917   5.890   1.229   6.790
 1340SOL     OW 4918   3.598   2.887   1.547
 1340SOL    HW1 4919   3.579   2.904   1.450
 1340SOL    HW2 4920   3.591   2.972   1.599
 1341SOL     OW 4921   4.862   5.501   6.417
 1341SOL    HW1 4922   4.956   5.500   6.452
 1341SOL    HW2 4923   4.857   5.554   6.333
 1342SOL     OW 4924   1.596   6.090   1.452
 1342SOL    HW1 4925   1.635   6.169   1.498
 1342SOL    HW2 4926   1.537   6.120   1.378
 1343SOL     OW 4927   4.868   6.027   3.015
 1343SOL    HW1 4928   4.911   6.031   3.106
 1343SOL    HW2 4929   4.831   6.117   2.993
 1344SOL     OW 4930   1.065   1.062   4.446
 1344SOL    HW1 4931   0.982   1.053   4.500
 1344SOL    HW2 4932   1.144   1.069   4.507
 1345SOL     OW 4933   1.502   6.765   6.365
 1345SOL    HW1 4934   1.442   6.787   6.442
 1345SOL    HW2 4935   1.597   6.766   6.397
 1346SOL     OW 4936   2.978   5.198   4.839
 1346SOL    HW1 4937   2.936   5.113   4.805
 1346SOL    HW2 4938   3.075   5.182   4.856
 1347SOL     OW 4939   1.781   0.557   6.169
 1347SOL    HW1 4940   1.715   0.633   6.162
 1347SOL    HW2 4941   1.843   0.561   6.091
 1348SOL     OW 4942   1.258   6.573   5.461
 1348SOL    HW1 4943   1.239   6.546   5.555
 1348SOL    HW2 4944   1.289   6.493   5.409
 1349SOL     OW 4945   5.284   3.948   4.122
 1349SOL    HW1 4946   5.205   3.947   4.061
 1349SOL    HW2 4947   5.367   3.938   4.068
 1350SOL     OW 4948   4.421   5.075   6.699
 1350SOL    HW1 4949   4.433   5.021   6.615
 1350SOL    HW2 4950   4.456   5.167   6.683
 1351SOL     OW 4951   0.210   2.457   5.801
 1351SOL    HW1 4952   0.143   2.395   5.843
 1351SOL    HW2 4953   0.272   2.404   5.743
 1352SOL     OW 4954   0.319   0.848   2.501
 1352SOL    HW1 4955   0.248   0.787   2.535
 1352SOL    HW2 4956   0.278   0.935   2.473
 1353SOL     OW 4957   6.681   1.522   6.784
 1353SOL    HW1 4958   6.776   1.520   6.815
 1353SOL    HW2 4959   6.646   1.615   6.792
 1354SOL     OW 4960   5.196   5.027   2.819
 1354SOL    HW1 4961   5.198   4.989   2.912
 1354SOL    HW2 4962   5.230   5.121   2.821
 1355SOL     OW 4963   4.373   3.536   5.304
 1355SOL    HW1 4964   4.471   3.529   5.285
 1355SOL    HW2 4965   4.355   3.502   5.397
 1356SOL     OW 4966   2.753   3.110   6.576
 1356SOL    HW1 4967   2.669   3.065   6.547
 1356SOL    HW2 4968   2.734   3.170   6.653
 1357SOL     OW 4969   1.791   2.752   5.497
 1357SOL    HW1 4970   1.888   2.750   5.524
 1357SOL    HW2 4971   1.734   2.734   5.577
 1358SOL     OW 4972   2.370   6.592   6.801
 1358SOL    HW1 4973   2.329   6.586   6.892
 1358SOL    HW2 4974   2.321   6.531   6.739
 1359SOL     OW 4975   6.132   4.312   0.592
 1359SOL    HW1 4976   6.149   4.328   0.495
 1359SOL    HW2 4977   6.154   4.217   0.614
 1360SOL     OW 4978   2.395   2.073   0.248
 1360SOL    HW1 4979   2.365   2.090   0.342
 1360SOL    HW2 4980   2.382   2.156   0.194
 1361SOL     OW 4981   6.610   5.010   5.145
 1361SOL    HW1 4982   6.708   4.996   5.158
 1361SOL    HW2 4983   6.572   5.060   5.223
 1362SOL     OW 4984   3.189   4.089   4.052
 1362SOL    HW1 4985   3.174   4.144   3.970
 1362SOL    HW2 4986   3.287   4.076   4.067
 1363SOL     OW 4987   0.809   6.504   3.785
 1363SOL    HW1 4988   0.864   6.569   3.732
 1363SOL    HW2 4989   0.835   6.509   3.881
 1364SOL     OW 4990   4.229   4.367   0.343
 1364SOL    HW1 4991   4.143   4.343   0.387
 1364SOL    HW2 4992   4.254   4.294   0.278
 1365SOL     OW 4993   5.775   2.573   6.532
 1365SOL    HW1 4994   5.822   2.633   6.467
 1365SOL    HW2 4995   5.807   2.593   6.624
 1366SOL     OW 4996   1.947   6.840   5.889
 1366SOL    HW1 4997   2.022   6.877   5.943
 1366SOL    HW2 4998   1.972   6.750   5.854
 1367SOL     OW 4999   3.077   1.500   2.316
 1367SOL    HW1 5000   2.989   1.471   2.355
 1367SOL    HW2 5001   3.061   1.567   2.243
 1368SOL     OW 5002   6.799   0.384   2.900
 1368SOL    HW1 5003   6.816   0.287   2.919
 1368SOL    HW2 5004   6.755   0.426   2.979
 1369SOL     OW 5005   0.729   0.369   2.299
 1369SOL    HW1 5006   0.699   0.408   2.212
 1369SOL    HW2 5007   0.681   0.415   2.374
 1370SOL     OW 5008   2.079   0.842   2.568
 1370SOL    HW1 5009   2.088   0.753   2.613
 1370SOL    HW2 5010   2.073   0.914   2.638
 1371SOL     OW 5011   3.433   0.729   6.330
 1371SOL    HW1 5012   3.420   0.828   6.321
 1371SOL    HW2 5013   3.357   0.691   6.383
 1372SOL     OW 5014   2.687   2.239   1.774
 1372SOL    HW1 5015   2.740   2.204   1.697
 1372SOL    HW2 5016   2.739   2.308   1.823
 1373SOL     OW 5017   1.590   6.127   0.198
 1373SOL    HW1 5018   1.535   6.178   0.264
 1373SOL    HW2 5019   1.583   6.170   0.108
 1374SOL     OW 5020   5.047   4.308   6.336
 1374SOL    HW1 5021   4.995   4.334   6.255
 1374SOL    HW2 5022   5.145   4.307   6.314
 1375SOL     OW 5023   0.858   4.298   4.398
 1375SOL    HW1 5024   0.847   4.247   4.312
 1375SOL    HW2 5025   0.873   4.395   4.377
 1376SOL     OW 5026   5.054   0.622   2.706
 1376SOL    HW1 5027   5.045   0.636   2.607
 1376SOL    HW2 5028   4.979   0.563   2.737
 1377SOL     OW 5029   0.632   4.629   4.372
 1377SOL    HW1 5030   0.626   4.641   4.471
 1377SOL    HW2 5031   0.609   4.535   4.348
 1378SOL     OW 5032   2.076   2.573   0.503
 1378SOL    HW1 5033   2.054   2.523   0.419
 1378SOL    HW2 5034   1.991   2.596   0.550
 1379SOL     OW 5035   3.904   6.031   1.137
 1379SOL    HW1 5036   3.844   5.951   1.142
 1379SOL    HW2 5037   3.993   6.008   1.176
 1380SOL     OW 5038   5.829   4.741   3.004
 1380SOL    HW1 5039   5.830   4.641   3.010
 1380SOL    HW2 5040   5.847   4.779   3.095
 1381SOL     OW 5041   5.185   6.953   2.361
 1381SOL    HW1 5042   5.256   0.005   2.368
 1381SOL    HW2 5043   5.099   6.996   2.332
 1382SOL     OW 5044   0.189   3.911   6.644
 1382SOL    HW1 5045   0.141   3.994   6.619
 1382SOL    HW2 5046   0.218   3.917   6.740
 1383SOL     OW 5047   2.592   0.074   1.157
 1383SOL    HW1 5048   2.502   0.059   1.197
 1383SOL    HW2 5049   2.583   0.098   1.060
 1384SOL     OW 5050   1.160   1.633   1.845
 1384SOL    HW1 5051   1.206   1.555   1.889
 1384SOL    HW2 5052   1.121   1.692   1.916
 1385SOL     OW 5053   5.187   3.548   4.219
 1385SOL    HW1 5054   5.245   3.612   4.270
 1385SOL    HW2 5055   5.105   3.596   4.187
 1386SOL     OW 5056   2.497   2.398   3.749
 1386SOL    HW1 5057   2.405   2.386   3.711
 1386SOL    HW2 5058   2.565   2.364   3.684
 1387SOL     OW 5059   3.265   0.663   4.058
 1387SOL    HW1 5060   3.247   0.630   4.150
 1387SOL    HW2 5061   3.341   0.729   4.061
 1388SOL     OW 5062   5.349   1.816   3.762
 1388SOL    HW1 5063   5.369   1.746   3.831
 1388SOL    HW2 5064   5.412   1.806   3.686
 1389SOL     OW 5065   0.006   0.326   3.597
 1389SOL    HW1 5066   7.000   0.328   3.694
 1389SOL    HW2 5067   0.058   0.409   3.574
 1390SOL     OW 5068   4.820   2.342   2.703
 1390SOL    HW1 5069   4.900   2.286   2.721
 1390SOL    HW2 5070   4.737   2.285   2.709
 1391SOL     OW 5071   5.630   0.747   5.063
 1391SOL    HW1 5072   5.667   0.752   4.970
 1391SOL    HW2 5073   5.670   0.820   5.118
 1392SOL     OW 5074   3.905   6.437   5.407
 1392SOL    HW1 5075   3.832   6.458   5.472
 1392SOL    HW2 5076   3.916   6.338   5.401
 1393SOL     OW 5077   4.959   0.477   0.076
 1393SOL    HW1 5078   4.996   0.435   7.011
 1393SOL    HW2 5079   5.024   0.465   0.151
 1394SOL     OW 5080   4.424   0.159   4.154
 1394SOL    HW1 5081   4.457   0.247   4.189
 1394SOL    HW2 5082   4.363   0.117   4.221
 1395SOL     OW 5083   0.377   5.450   2.449
 1395SOL    HW1 5084   0.401   5.355   2.470
 1395SOL    HW2 5085   0.458   5.508   2.460
 1396SOL     OW 5086   1.518   1.891   3.460
 1396SOL    HW1 5087   1.463   1.966   3.496
 1396SOL    HW2 5088   1.561   1.842   3.535
 1397SOL     OW 5089   2.086   4.866   5.079
 1397SOL    HW1 5090   2.087   4.807   5.159
 1397SOL    HW2 5091   2.158   4.837   5.016
 1398SOL     OW 5092   2.873   0.057   6.815
 1398SOL    HW1 5093   2.820   0.107   6.746
 1398SOL    HW2 5094   2.819   6.996   6.847
 1399SOL     OW 5095   3.740   7.001   0.483
 1399SOL    HW1 5096   3.737   0.033   0.570
 1399SOL    HW2 5097   3.753   0.049   0.408
 1400SOL     OW 5098   0.766   0.895   5.801
 1400SOL    HW1 5099   0.719   0.887   5.713
 1400SOL    HW2 5100   0.820   0.979   5.802
 1401SOL     OW 5101   4.848   0.291   2.354
 1401SOL    HW1 5102   4.812   0.263   2.265
 1401SOL    HW2 5103   4.814   0.228   2.425
 1402SOL     OW 5104   5.697   4.632   1.952
 1402SOL    HW1 5105   5.775   4.695   1.945
 1402SOL    HW2 5106   5.658   4.637   2.045
 1403SOL     OW 5107   3.115   3.386   6.756
 1403SOL    HW1 5108   3.131   3.352   6.663
 1403SOL    HW2 5109   3.164   3.328   6.821
 1404SOL     OW 5110   3.940   5.756   0.296
 1404SOL    HW1 5111   4.002   5.828   0.266
 1404SOL    HW2 5112   3.906   5.706   0.216
 1405SOL     OW 5113   0.873   3.596   6.894
 1405SOL    HW1 5114   0.916   3.672   6.942
 1405SOL    HW2 5115   0.776   3.592   6.918
 1406SOL     OW 5116   2.350   2.245   6.909
 1406SOL    HW1 5117   2.321   2.180   6.839
 1406SOL    HW2 5118   2.342   2.338   6.874
 1407SOL     OW 5119   0.052   2.780   1.782
 1407SOL    HW1 5120   0.147   2.806   1.763
 1407SOL    HW2 5121   0.020   2.716   1.713
 1408SOL     OW 5122   5.871   6.232   0.634
 1408SOL    HW1 5123   5.803   6.274   0.694
 1408SOL    HW2 5124   5.962   6.259   0.664
 1409SOL     OW 5125   6.078   1.926   5.850
 1409SOL    HW1 5126   6.131   2.010   5.837
 1409SOL    HW2 5127   6.138   1.846   5.839
 1410SOL     OW 5128   3.170   0.693   0.239
 1410SOL    HW1 5129   3.090   0.731   0.286
 1410SOL    HW2 5130   3.245   0.683   0.305
 1411SOL     OW 5131   3.767   6.132   7.017
 1411SOL    HW1 5132   3.720   6.082   6.944
 1411SOL    HW2 5133   3.705   6.201   0.037
 1412SOL     OW 5134   2.447   1.435   0.390
 1412SOL    HW1 5135   2.390   1.470   0.465
 1412SOL    HW2 5136   2.397   1.363   0.342
 1413SOL     OW 5137   2.203   1.520   5.019
 1413SOL    HW1 5138   2.139   1.462   5.069
 1413SOL    HW2 5139   2.253   1.464   4.952
 1414SOL     OW 5140   0.586   5.303   2.084
 1414SOL    HW1 5141   0.529   5.317   2.003
 1414SOL    HW2 5142   0.639   5.386   2.102
 1415SOL     OW 5143   3.847   1.933   5.287
 1415SOL    HW1 5144   3.782   2.002   5.256
 1415SOL    HW2 5145   3.800   1.845   5.300
 1416SOL     OW 5146   4.774   0.360   5.204
 1416SOL    HW1 5147   4.854   0.383   5.149
 1416SOL    HW2 5148   4.695   0.411   5.171
 1417SOL     OW 5149   3.822   3.334   4.254
 1417SOL    HW1 5150   3.839   3.406   4.186
 1417SOL    HW2 5151   3.741   3.282   4.229
 1418SOL     OW 5152   3.115   3.879   5.015
 1418SOL    HW1 5153   3.132   3.803   4.952
 1418SOL    HW2 5154   3.024   3.871   5.054
 1419SOL     OW 5155   0.574   5.571   2.064
 1419SOL    HW1 5156   0.488   5.551   2.112
 1419SOL    HW2 5157   0.554   5.621   1.980
 1420SOL     OW 5158   3.035   6.312   3.722
 1420SOL    HW1 5159   3.033   6.408   3.748
 1420SOL    HW2 5160   3.116   6.295   3.665
 1421SOL     OW 5161   1.807   5.791   0.744
 1421SOL    HW1 5162   1.884   5.730   0.763
 1421SOL    HW2 5163   1.784   5.843   0.826
 1422SOL     OW 5164   1.688   3.504   6.682
 1422SOL    HW1 5165   1.619   3.547   6.625
 1422SOL    HW2 5166   1.644   3.461   6.761
 1423SOL     OW 5167   5.229   1.095   4.997
 1423SOL    HW1 5168   5.321   1.062   5.019
 1423SOL    HW2 5169   5.164   1.061   5.064
 1424SOL     OW 5170   6.670   2.417   1.482
 1424SOL    HW1 5171   6.749   2.359   1.501
 1424SOL    HW2 5172   6.626   2.443   1.569
 1425SOL     OW 5173   5.436   6.409   3.090
 1425SOL    HW1 5174   5.398   6.317   3.082
 1425SOL    HW2 5175   5.407   6.463   3.011
 1426SOL     OW 5176   3.808   0.938   0.529
 1426SOL    HW1 5177   3.811   0.952   0.628
 1426SOL    HW2 5178   3.885   0.881   0.501
 1427SOL     OW 5179   0.894   0.455   4.028
 1427SOL    HW1 5180   0.972   0.392   4.023
 1427SOL    HW2 5181   0.845   0.454   3.941
 1428SOL     OW 5182   1.827   4.209   3.871
 1428SOL    HW1 5183   1.817   4.134   3.937
 1428SOL    HW2 5184   1.857   4.172   3.783
 1429SOL     OW 5185   6.133   0.379   1.721
 1429SOL    HW1 5186   6.153   0.295   1.771
 1429SOL    HW2 5187   6.164   0.368   1.626
 1430SOL     OW 5188   2.096   3.822   4.557
 1430SOL    HW1 5189   2.103   3.729   4.523
 1430SOL    HW2 5190   2.133   3.827   4.650
 1431SOL     OW 5191   3.595   2.165   0.696
 1431SOL    HW1 5192   3.577   2.119   0.609
 1431SOL    HW2 5193   3.515   2.154   0.756
 1432SOL     OW 5194   4.032   0.156   2.993
 1432SOL    HW1 5195   3.952   0.113   3.035
 1432SOL    HW2 5196   4.003   0.235   2.939
 1433SOL     OW 5197   2.677   1.839   4.094
 1433SOL    HW1 5198   2.590   1.851   4.047
 1433SOL    HW2 5199   2.738   1.784   4.036
 1434SOL     OW 5200   4.894   3.768   0.524
 1434SOL    HW1 5201   4.813   3.788   0.468
 1434SOL    HW2 5202   4.914   3.847   0.582
 1435SOL     OW 5203   0.361   6.134   3.998
 1435SOL    HW1 5204   0.356   6.063   3.928
 1435SOL    HW2 5205   0.308   6.213   3.969
 1436SOL     OW 5206   5.603   1.256   0.303
 1436SOL    HW1 5207   5.679   1.199   0.334
 1436SOL    HW2 5208   5.545   1.278   0.381
 1437SOL     OW 5209   4.548   1.779   0.926
 1437SOL    HW1 5210   4.460   1.747   0.892
 1437SOL    HW2 5211   4.535   1.860   0.983
 1438SOL     OW 5212   2.219   0.004   2.952
 1438SOL    HW1 5213   2.293   0.034   2.892
 1438SOL    HW2 5214   2.232   6.925   2.976
 1439SOL     OW 5215   0.476   5.711   5.080
 1439SOL    HW1 5216   0.457   5.804   5.111
 1439SOL    HW2 5217   0.393   5.656   5.085
 1440SOL     OW 5218   3.343   3.408   2.210
 1440SOL    HW1 5219   3.267   3.469   2.189
 1440SOL    HW2 5220   3.336   3.325   2.154
 1441SOL     OW 5221   0.293   1.945   5.488
 1441SOL    HW1 5222   0.316   2.004   5.410
 1441SOL    HW2 5223   0.203   1.971   5.523
 1442SOL     OW 5224   5.340   5.664   0.402
 1442SOL    HW1 5225   5.261   5.701   0.354
 1442SOL    HW2 5226   5.327   5.675   0.500
 1443SOL     OW 5227   1.340   2.863   3.677
 1443SOL    HW1 5228   1.376   2.813   3.598
 1443SOL    HW2 5229   1.414   2.880   3.742
 1444SOL     OW 5230   5.289   6.767   4.284
 1444SOL    HW1 5231   5.364   6.704   4.305
 1444SOL    HW2 5232   5.281   6.835   4.357
 1445SOL     OW 5233   0.049   2.063   0.140
 1445SOL    HW1 5234   0.021   1.974   0.105
 1445SOL    HW2 5235   6.996   2.099   0.201
 1446SOL     OW 5236   3.351   5.784   2.556
 1446SOL    HW1 5237   3.350   5.741   2.646
 1446SOL    HW2 5238   3.258   5.807   2.529
 1447SOL     OW 5239   6.652   0.479   4.487
 1447SOL    HW1 5240   6.648   0.575   4.458
 1447SOL    HW2 5241   6.744   0.443   4.470
 1448SOL     OW 5242   5.087   0.658   0.727
 1448SOL    HW1 5243   5.116   0.562   0.731
 1448SOL    HW2 5244   5.013   0.667   0.661
 1449SOL     OW 5245   4.553   5.327   0.171
 1449SOL    HW1 5246   4.516   5.307   0.080
 1449SOL    HW2 5247   4.480   5.319   0.239
 1450SOL     OW 5248   5.995   1.547   3.813
 1450SOL    HW1 5249   6.075   1.493   3.840
 1450SOL    HW2 5250   5.915   1.488   3.809
 1451SOL     OW 5251   1.220   0.016   1.735
 1451SOL    HW1 5252   1.308   6.993   1.759
 1451SOL    HW2 5253   1.146   6.982   1.779
 1452SOL     OW 5254   2.888   0.399   6.392
 1452SOL    HW1 5255   2.825   0.328   6.361
 1452SOL    HW2 5256   2.982   0.372   6.371
 1453SOL     OW 5257   5.429   4.378   4.340
 1453SOL    HW1 5258   5.397   4.285   4.350
 1453SOL    HW2 5259   5.526   4.377   4.315
 1454SOL     OW 5260   5.600   3.759   0.892
 1454SOL    HW1 5261   5.693   3.760   0.929
 1454SOL    HW2 5262   5.566   3.665   0.891
 1455SOL     OW 5263   1.578   1.732   1.679
 1455SOL    HW1 5264   1.582   1.767   1.772
 1455SOL    HW2 5265   1.483   1.717   1.653
 1456SOL     OW 5266   5.938   5.600   5.351
 1456SOL    HW1 5267   5.894   5.522   5.307
 1456SOL    HW2 5268   5.876   5.678   5.352
 1457SOL     OW 5269   1.974   0.796   4.585
 1457SOL    HW1 5270   1.932   0.778   4.496
 1457SOL    HW2 5271   1.924   0.870   4.630
 1458SOL     OW 5272   0.193   5.199   6.547
 1458SOL    HW1 5273   0.192   5.159   6.456
 1458SOL    HW2 5274   0.272   5.258   6.558
 1459SOL     OW 5275   2.358   6.753   1.756
 1459SOL    HW1 5276   2.366   6.804   1.670
 1459SOL    HW2 5277   2.400   6.663   1.746
 1460SOL     OW 5278   0.167   0.217   6.925
 1460SOL    HW1 5279   0.137   0.303   6.966
 1460SOL    HW2 5280   0.263   0.201   6.947
 1461SOL     OW 5281   5.072   4.758   2.491
 1461SOL    HW1 5282   5.031   4.680   2.445
 1461SOL    HW2 5283   5.163   4.775   2.454
 1462SOL     OW 5284   5.368   0.230   5.093
 1462SOL    HW1 5285   5.449   0.176   5.119
 1462SOL    HW2 5286   5.361   0.310   5.152
 1463SOL     OW 5287   0.895   2.486   5.385
 1463SOL    HW1 5288   0.929   2.436   5.305
 1463SOL    HW2 5289   0.795   2.489   5.382
 1464SOL     OW 5290   0.815   0.814   1.179
 1464SOL    HW1 5291   0.804   0.900   1.129
 1464SOL    HW2 5292   0.861   0.832   1.266
 1465SOL     OW 5293   1.700   0.762   3.514
 1465SOL    HW1 5294   1.682   0.789   3.608
 1465SOL    HW2 5295   1.670   0.834   3.452
 1466SOL     OW 5296   5.292   5.608   4.144
 1466SOL    HW1 5297   5.318   5.651   4.058
 1466SOL    HW2 5298   5.284   5.679   4.215
 1467SOL     OW 5299   6.907   3.824   4.379
 1467SOL    HW1 5300   6.995   3.779   4.361
 1467SOL    HW2 5301   6.923   3.921   4.394
 1468SOL     OW 5302   4.917   0.226   2.908
 1468SOL    HW1 5303   4.845   0.185   2.965
 1468SOL    HW2 5304   4.884   0.311   2.869
 1469SOL     OW 5305   0.646   0.727   2.103
 1469SOL    HW1 5306   0.739   0.757   2.081
 1469SOL    HW2 5307   0.622   0.758   2.195
 1470SOL     OW 5308   0.252   0.153   2.834
 1470SOL    HW1 5309   0.332   0.183   2.782
 1470SOL    HW2 5310   0.174   0.142   2.772
 1471SOL     OW 5311   6.272   0.870   0.866
 1471SOL    HW1 5312   6.188   0.823   0.893
 1471SOL    HW2 5313   6.263   0.967   0.888
 1472SOL     OW 5314   4.879   5.319   4.953
 1472SOL    HW1 5315   4.834   5.263   4.883
 1472SOL    HW2 5316   4.872   5.274   5.041
 1473SOL     OW 5317   6.629   3.626   3.917
 1473SOL    HW1 5318   6.691   3.668   3.982
 1473SOL    HW2 5319   6.566   3.695   3.882
 1474SOL     OW 5320   4.175   5.860   3.050
 1474SOL    HW1 5321   4.087   5.883   3.091
 1474SOL    HW2 5322   4.238   5.938   3.059
 1475SOL     OW 5323   6.416   6.969   2.790
 1475SOL    HW1 5324   6.512   6.962   2.763
 1475SOL    HW2 5325   6.388   6.884   2.836
 1476SOL     OW 5326   0.874   2.471   1.687
 1476SOL    HW1 5327   0.931   2.490   1.767
 1476SOL    HW2 5328   0.903   2.385   1.645
 1477SOL     OW 5329   2.695   6.658   4.679
 1477SOL    HW1 5330   2.646   6.737   4.715
 1477SOL    HW2 5331   2.683   6.653   4.580
 1478SOL     OW 5332   0.113   3.715   1.256
 1478SOL    HW1 5333   0.211   3.733   1.251
 1478SOL    HW2 5334   0.094   3.661   1.338
 1479SOL     OW 5335   1.446   5.612   0.164
 1479SOL    HW1 5336   1.492   5.672   0.098
 1479SOL    HW2 5337   1.406   5.666   0.237
 1480SOL     OW 5338   2.828   1.015   6.775
 1480SOL    HW1 5339   2.834   0.987   6.871
 1480SOL    HW2 5340   2.762   1.089   6.765
 1481SOL     OW 5341   6.956   3.179   0.024
 1481SOL    HW1 5342   6.997   3.255   6.990
 1481SOL    HW2 5343   6.999   3.093   7.015
 1482SOL     OW 5344   5.894   0.363   6.254
 1482SOL    HW1 5345   5.798   0.362   6.226
 1482SOL    HW2 5346   5.911   0.284   6.313
 1483SOL     OW 5347   6.273   2.270   6.733
 1483SOL    HW1 5348   6.270   2.190   6.794
 1483SOL    HW2 5349   6.260   2.240   6.639
 1484SOL     OW 5350   6.245   0.162   3.314
 1484SOL    HW1 5351   6.250   0.075   3.265
 1484SOL    HW2 5352   6.180   0.154   3.389
 1485SOL     OW 5353   5.591   3.516   4.055
 1485SOL    HW1 5354   5.652   3.546   3.982
 1485SOL    HW2 5355   5.643   3.505   4.139
 1486SOL     OW 5356   5.244   2.584   1.452
 1486SOL    HW1 5357   5.166   2.548   1.502
 1486SOL    HW2 5358   5.286   2.511   1.399
 1487SOL     OW 5359   0.353   6.992   5.521
 1487SOL    HW1 5360   0.433   0.035   5.529
 1487SOL    HW2 5361   0.301   7.017   5.439
 1488SOL     OW 5362   5.282   1.945   4.712
 1488SOL    HW1 5363   5.363   1.983   4.755
 1488SOL    HW2 5364   5.226   2.019   4.674
 1489SOL     OW 5365   3.440   4.892   4.958
 1489SOL    HW1 5366   3.471   4.936   4.874
 1489SOL    HW2 5367   3.397   4.805   4.936
 1490SOL     OW 5368   2.384   2.756   0.976
 1490SOL    HW1 5369   2.420   2.849   0.987
 1490SOL    HW2 5370   2.351   2.744   0.883
 1491SOL     OW 5371   0.575   2.291   4.633
 1491SOL    HW1 5372   0.499   2.356   4.627
 1491SOL    HW2 5373   0.628   2.310   4.716
 1492SOL     OW 5374   0.333   2.059   1.887
 1492SOL    HW1 5375   0.254   2.003   1.862
 1492SOL    HW2 5376   0.303   2.136   1.942
 1493SOL     OW 5377   6.107   2.735   4.941
 1493SOL    HW1 5378   6.028   2.675   4.928
 1493SOL    HW2 5379   6.110   2.766   5.036
 1494SOL     OW 5380   5.315   1.931   4.198
 1494SOL    HW1 5381   5.338   2.023   4.166
 1494SOL    HW2 5382   5.253   1.938   4.276
 1495SOL     OW 5383   1.370   3.776   2.149
 1495SOL    HW1 5384   1.433   3.837   2.197
 1495SOL    HW2 5385   1.417   3.733   2.072
 1496SOL     OW 5386   1.497   0.297   2.300
 1496SOL    HW1 5387   1.452   0.278   2.388
 1496SOL    HW2 5388   1.446   0.253   2.227
 1497SOL     OW 5389   5.798   5.417   5.811
 1497SOL    HW1 5390   5.732   5.363   5.759
 1497SOL    HW2 5391   5.801   5.510   5.775
 1498SOL     OW 5392   2.934   5.638   0.362
 1498SOL    HW1 5393   2.856   5.576   0.366
 1498SOL    HW2 5394   3.008   5.594   0.311
 1499SOL     OW 5395   0.844   4.175   4.163
 1499SOL    HW1 5396   0.781   4.233   4.111
 1499SOL    HW2 5397   0.890   4.112   4.101
 1500SOL     OW 5398   3.645   6.717   5.912
 1500SOL    HW1 5399   3.573   6.734   5.980
 1500SOL    HW2 5400   3.646   6.791   5.845
 1501SOL     OW 5401   3.348   0.268   0.882
 1501SOL    HW1 5402   3.323   0.349   0.829
 1501SOL    HW2 5403   3.338   0.288   0.979
 1502SOL     OW 5404   0.634   0.163   5.908
 1502SOL    HW1 5405   0.698   0.132   5.838
 1502SOL    HW2 5406   0.684   0.197   5.987
 1503SOL     OW 5407   3.441   4.223   5.123
 1503SOL    HW1 5408   3.351   4.204   5.086
 1503SOL    HW2 5409   3.504   4.244   5.048
 1504SOL     OW 5410   2.737   6.533   3.700
 1504SOL    HW1 5411   2.681   6.469   3.649
 1504SOL    HW2 5412   2.691   6.622   3.704
 1505SOL     OW 5413   5.479   6.793   3.090
 1505SOL    HW1 5414   5.382   6.794   3.111
 1505SOL    HW2 5415   5.510   6.886   3.069
 1506SOL     OW 5416   0.854   6.235   3.695
 1506SOL    HW1 5417   0.803   6.168   3.749
 1506SOL    HW2 5418   0.813   6.326   3.706
 1507SOL     OW 5419   2.149   1.419   6.913
 1507SOL    HW1 5420   2.119   1.402   7.007
 1507SOL    HW2 5421   2.079   1.471   6.865
 1508SOL     OW 5422   4.653   6.636   1.391
 1508SOL    HW1 5423   4.691   6.544   1.380
 1508SOL    HW2 5424   4.679   6.673   1.480
 1509SOL     OW 5425   5.684   1.645   6.589
 1509SOL    HW1 5426   5.658   1.554   6.558
 1509SOL    HW2 5427   5.773   1.670   6.551
 1510SOL     OW 5428   6.678   1.488   2.610
 1510SOL    HW1 5429   6.590   1.528   2.585
 1510SOL    HW2 5430   6.744   1.561   2.627
 1511SOL     OW 5431   0.886   2.783   0.131
 1511SOL    HW1 5432   0.965   2.765   0.191
 1511SOL    HW2 5433   0.916   2.780   0.036
 1512SOL     OW 5434   6.758   0.699   1.692
 1512SOL    HW1 5435   6.666   0.684   1.728
 1512SOL    HW2 5436   6.780   0.627   1.626
 1513SOL     OW 5437   2.501   0.736   2.981
 1513SOL    HW1 5438   2.465   0.647   2.951
 1513SOL    HW2 5439   2.595   0.746   2.948
 1514SOL     OW 5440   4.382   1.136   5.587
 1514SOL    HW1 5441   4.359   1.171   5.677
 1514SOL    HW2 5442   4.353   1.041   5.579
 1515SOL     OW 5443   5.292   5.123   5.318
 1515SOL    HW1 5444   5.253   5.192   5.257
 1515SOL    HW2 5445   5.334   5.169   5.397
 1516SOL     OW 5446   6.835   1.486   1.116
 1516SOL    HW1 5447   6.839   1.521   1.209
 1516SOL    HW2 5448   6.883   1.549   1.054
 1517SOL     OW 5449   3.355   5.160   2.174
 1517SOL    HW1 5450   3.282   5.227   2.178
 1517SOL    HW2 5451   3.324   5.079   2.125
 1518SOL     OW 5452   0.585   4.607   0.549
 1518SOL    HW1 5453   0.639   4.522   0.551
 1518SOL    HW2 5454   0.510   4.597   0.484
 1519SOL     OW 5455   0.280   4.115   1.044
 1519SOL    HW1 5456   0.238   4.131   0.955
 1519SOL    HW2 5457   0.310   4.202   1.083
 1520SOL     OW 5458   1.173   3.399   2.695
 1520SOL    HW1 5459   1.100   3.447   2.745
 1520SOL    HW2 5460   1.132   3.330   2.636
 1521SOL     OW 5461   2.647   4.800   5.497
 1521SOL    HW1 5462   2.706   4.864   5.546
 1521SOL    HW2 5463   2.701   4.749   5.430
 1522SOL     OW 5464   1.396   1.941   6.229
 1522SOL    HW1 5465   1.352   2.023   6.192
 1522SOL    HW2 5466   1.422   1.881   6.153
 1523SOL     OW 5467   5.808   1.571   1.317
 1523SOL    HW1 5468   5.737   1.620   1.266
 1523SOL    HW2 5469   5.861   1.513   1.254
 1524SOL     OW 5470   0.686   1.402   0.624
 1524SOL    HW1 5471   0.735   1.442   0.701
 1524SOL    HW2 5472   0.589   1.390   0.648
 1525SOL     OW 5473   4.914   1.679   5.581
 1525SOL    HW1 5474   4.838   1.616   5.595
 1525SOL    HW2 5475   4.890   1.769   5.618
 1526SOL     OW 5476   5.670   2.002   0.397
 1526SOL    HW1 5477   5.747   1.938   0.393
 1526SOL    HW2 5478   5.689   2.081   0.338
 1527SOL     OW 5479   2.940   1.026   5.736
 1527SOL    HW1 5480   2.844   1.010   5.712
 1527SOL    HW2 5481   2.971   0.954   5.798
 1528SOL     OW 5482   5.107   5.612   3.457
 1528SOL    HW1 5483   5.050   5.577   3.383
 1528SOL    HW2 5484   5.203   5.595   3.436
 1529SOL     OW 5485   1.781   6.949   5.310
 1529SOL    HW1 5486   1.766   6.872   5.247
 1529SOL    HW2 5487   1.809   6.914   5.399
 1530SOL     OW 5488   2.887   6.595   1.218
 1530SOL    HW1 5489   2.959   6.604   1.148
 1530SOL    HW2 5490   2.829   6.517   1.195
 1531SOL     OW 5491   5.350   1.171   6.587
 1531SOL    HW1 5492   5.319   1.224   6.508
 1531SOL    HW2 5493   5.388   1.084   6.556
 1532SOL     OW 5494   2.851   1.825   4.952
 1532SOL    HW1 5495   2.930   1.880   4.978
 1532SOL    HW2 5496   2.793   1.877   4.889
 1533SOL     OW 5497   4.523   2.927   0.164
 1533SOL    HW1 5498   4.498   3.012   0.117
 1533SOL    HW2 5499   4.509   2.938   0.262
 1534SOL     OW 5500   6.823   0.248   0.560
 1534SOL    HW1 5501   6.812   0.158   0.517
 1534SOL    HW2 5502   6.798   0.320   0.495
 1535SOL     OW 5503   5.307   4.633   4.601
 1535SOL    HW1 5504   5.290   4.534   4.606
 1535SOL    HW2 5505   5.400   4.653   4.631
 1536SOL     OW 5506   3.192   6.141   3.130
 1536SOL    HW1 5507   3.274   6.191   3.106
 1536SOL    HW2 5508   3.135   6.128   3.049
 1537SOL     OW 5509   2.745   6.025   4.713
 1537SOL    HW1 5510   2.813   5.952   4.708
 1537SOL    HW2 5511   2.655   5.984   4.733
 1538SOL     OW 5512   3.380   6.217   0.142
 1538SOL    HW1 5513   3.477   6.244   0.144
 1538SOL    HW2 5514   3.337   6.253   0.060
 1539SOL     OW 5515   2.383   6.516   2.094
 1539SOL    HW1 5516   2.289   6.496   2.066
 1539SOL    HW2 5517   2.410   6.453   2.167
 1540SOL     OW 5518   6.256   6.942   4.737
 1540SOL    HW1 5519   6.185   7.002   4.700
 1540SOL    HW2 5520   6.213   6.864   4.784
 1541SOL     OW 5521   5.657   1.730   2.185
 1541SOL    HW1 5522   5.591   1.669   2.229
 1541SOL    HW2 5523   5.667   1.704   2.089
 1542SOL     OW 5524   6.760   6.044   1.138
 1542SOL    HW1 5525   6.847   6.059   1.184
 1542SOL    HW2 5526   6.773   6.048   1.039
 1543SOL     OW 5527   3.225   3.294   3.292
 1543SOL    HW1 5528   3.175   3.213   3.323
 1543SOL    HW2 5529   3.314   3.298   3.338
 1544SOL     OW 5530   3.505   3.554   2.017
 1544SOL    HW1 5531   3.523   3.648   2.047
 1544SOL    HW2 5532   3.439   3.511   2.078
 1545SOL     OW 5533   0.492   6.449   5.024
 1545SOL    HW1 5534   0.434   6.429   5.103
 1545SOL    HW2 5535   0.587   6.424   5.044
 1546SOL     OW 5536   6.823   6.405   6.689
 1546SOL    HW1 5537   6.807   6.502   6.704
 1546SOL    HW2 5538   6.911   6.392   6.644
 1547SOL     OW 5539   3.263   5.970   0.049
 1547SOL    HW1 5540   3.287   6.057   0.093
 1547SOL    HW2 5541   3.234   5.904   0.119
 1548SOL     OW 5542   6.811   3.885   3.260
 1548SOL    HW1 5543   6.728   3.895   3.206
 1548SOL    HW2 5544   6.824   3.789   3.284
 1549SOL     OW 5545   6.581   2.097   0.998
 1549SOL    HW1 5546   6.497   2.108   1.050
 1549SOL    HW2 5547   6.598   2.180   0.944
 1550SOL     OW 5548   2.727   4.896   2.332
 1550SOL    HW1 5549   2.635   4.923   2.360
 1550SOL    HW2 5550   2.722   4.846   2.245
 1551SOL     OW 5551   0.604   2.520   1.701
 1551SOL    HW1 5552   0.702   2.500   1.702
 1551SOL    HW2 5553   0.563   2.480   1.619
 1552SOL     OW 5554   1.500   6.579   2.017
 1552SOL    HW1 5555   1.546   6.668   2.023
 1552SOL    HW2 5556   1.409   6.585   2.056
 1553SOL     OW 5557   5.728   1.536   5.927
 1553SOL    HW1 5558   5.680   1.555   5.841
 1553SOL    HW2 5559   5.683   1.585   6.001
 1554SOL     OW 5560   2.714   2.872   0.782
 1554SOL    HW1 5561   2.684   2.782   0.750
 1554SOL    HW2 5562   2.751   2.924   0.705
 1555SOL     OW 5563   4.010   1.556   0.847
 1555SOL    HW1 5564   3.912   1.548   0.826
 1555SOL    HW2 5565   4.044   1.643   0.811
 1556SOL     OW 5566   3.250   2.318   0.357
 1556SOL    HW1 5567   3.221   2.259   0.433
 1556SOL    HW2 5568   3.274   2.408   0.392
 1557SOL     OW 5569   1.202   2.801   0.971
 1557SOL    HW1 5570   1.281   2.847   1.013
 1557SOL    HW2 5571   1.229   2.709   0.941
 1558SOL     OW 5572   5.134   2.900   6.616
 1558SOL    HW1 5573   5.179   2.920   6.529
 1558SOL    HW2 5574   5.097   2.807   6.613
 1559SOL     OW 5575   2.902   6.064   3.435
 1559SOL    HW1 5576   2.955   6.147   3.415
 1559SOL    HW2 5577   2.884   6.059   3.533
 1560SOL     OW 5578   4.633   2.874   1.455
 1560SOL    HW1 5579   4.727   2.879   1.487
 1560SOL    HW2 5580   4.573   2.848   1.531
 1561SOL     OW 5581   5.678   6.186   0.414
 1561SOL    HW1 5582   5.759   6.190   0.473
 1561SOL    HW2 5583   5.646   6.091   0.408
 1562SOL     OW 5584   2.947   6.830   2.548
 1562SOL    HW1 5585   2.906   6.821   2.457
 1562SOL    HW2 5586   2.875   6.821   2.617
 1563SOL     OW 5587   2.122   3.823   3.772
 1563SOL    HW1 5588   2.068   3.822   3.856
 1563SOL    HW2 5589   2.187   3.748   3.772
 1564SOL     OW 5590   0.891   1.777   2.550
 1564SOL    HW1 5591   0.798   1.792   2.583
 1564SOL    HW2 5592   0.954   1.769   2.628
 1565SOL     OW 5593   4.819   1.794   5.228
 1565SOL    HW1 5594   4.916   1.788   5.250
 1565SOL    HW2 5595   4.788   1.709   5.187
 1566SOL     OW 5596   0.773   3.545   3.519
 1566SOL    HW1 5597   0.679   3.569   3.543
 1566SOL    HW2 5598   0.809   3.481   3.586
 1567SOL     OW 5599   5.515   0.634   4.685
 1567SOL    HW1 5600   5.546   0.725   4.711
 1567SOL    HW2 5601   5.447   0.601   4.750
 1568SOL     OW 5602   2.376   4.599   0.703
 1568SOL    HW1 5603   2.285   4.577   0.739
 1568SOL    HW2 5604   2.441   4.602   0.778
 1569SOL     OW 5605   2.132   0.801   2.305
 1569SOL    HW1 5606   2.065   0.765   2.241
 1569SOL    HW2 5607   2.092   0.806   2.397
 1570SOL     OW 5608   2.970   6.186   6.434
 1570SOL    HW1 5609   3.005   6.106   6.386
 1570SOL    HW2 5610   3.037   6.217   6.502
 1571SOL     OW 5611   0.136   1.692   4.132
 1571SOL    HW1 5612   0.147   1.788   4.156
 1571SOL    HW2 5613   0.171   1.676   4.039
 1572SOL     OW 5614   1.884   5.948   3.604
 1572SOL    HW1 5615   1.955   5.926   3.537
 1572SOL    HW2 5616   1.926   5.991   3.684
 1573SOL     OW 5617   5.749   6.030   0.844
 1573SOL    HW1 5618   5.746   6.129   0.831
 1573SOL    HW2 5619   5.838   5.996   0.815
 1574SOL     OW 5620   0.166   4.129   3.138
 1574SOL    HW1 5621   0.257   4.101   3.109
 1574SOL    HW2 5622   0.160   4.229   3.140
 1575SOL     OW 5623   0.021   2.067   0.704
 1575SOL    HW1 5624   6.989   2.139   0.655
 1575SOL    HW2 5625   0.098   2.036   0.649
 1576SOL     OW 5626   1.695   5.896   2.620
 1576SOL    HW1 5627   1.735   5.874   2.709
 1576SOL    HW2 5628   1.761   5.947   2.565
 1577SOL     OW 5629   4.299   5.762   4.218
 1577SOL    HW1 5630   4.301   5.754   4.318
 1577SOL    HW2 5631   4.382   5.721   4.180
 1578SOL     OW 5632   5.702   1.894   1.943
 1578SOL    HW1 5633   5.739   1.904   2.035
 1578SOL    HW2 5634   5.767   1.845   1.885
 1579SOL     OW 5635   1.469   3.072   2.066
 1579SOL    HW1 5636   1.484   3.002   2.136
 1579SOL    HW2 5637   1.491   3.162   2.104
 1580SOL     OW 5638   3.186   4.081   3.681
 1580SOL    HW1 5639   3.161   4.115   3.590
 1580SOL    HW2 5640   3.284   4.093   3.696
 1581SOL     OW 5641   4.752   4.548   5.344
 1581SOL    HW1 5642   4.813   4.568   5.267
 1581SOL    HW2 5643   4.676   4.491   5.312
 1582SOL     OW 5644   4.114   6.056   4.677
 1582SOL    HW1 5645   4.106   6.118   4.599
 1582SOL    HW2 5646   4.200   6.006   4.672
 1583SOL     OW 5647   0.976   5.035   5.209
 1583SOL    HW1 5648   1.008   4.947   5.242
 1583SOL    HW2 5649   0.925   5.022   5.123
 1584SOL     OW 5650   0.044   3.437   7.007
 1584SOL    HW1 5651   0.118   3.496   6.974
 1584SOL    HW2 5652   0.033   3.450   0.088
 1585SOL     OW 5653   5.146   6.438   4.463
 1585SOL    HW1 5654   5.210   6.369   4.431
 1585SOL    HW2 5655   5.053   6.402   4.459
 1586SOL     OW 5656   2.542   5.853   3.630
 1586SOL    HW1 5657   2.517   5.941   3.588
 1586SOL    HW2 5658   2.460   5.798   3.644
 1587SOL     OW 5659   3.806   6.455   0.321
 1587SOL    HW1 5660   3.798   6.399   0.404
 1587SOL    HW2 5661   3.896   6.442   0.280
 1588SOL     OW 5662   6.349   2.130   3.948
 1588SOL    HW1 5663   6.262   2.170   3.974
 1588SOL    HW2 5664   6.421   2.162   4.009
 1589SOL     OW 5665   6.752   1.990   4.381
 1589SOL    HW1 5666   6.851   1.997   4.397
 1589SOL    HW2 5667   6.715   1.915   4.436
 1590SOL     OW 5668   5.256   0.594   4.178
 1590SOL    HW1 5669   5.312   0.646   4.242
 1590SOL    HW2 5670   5.199   0.656   4.125
 1591SOL     OW 5671   0.253   5.980   0.522
 1591SOL    HW1 5672   0.345   6.021   0.524
 1591SOL    HW2 5673   0.258   5.889   0.481
 1592SOL     OW 5674   6.970   3.923   4.939
 1592SOL    HW1 5675   0.027   3.933   4.873
 1592SOL    HW2 5676   6.999   3.860   5.011
 1593SOL     OW 5677   3.806   5.746   1.192
 1593SOL    HW1 5678   3.864   5.689   1.134
 1593SOL    HW2 5679   3.715   5.706   1.197
 1594SOL     OW 5680   4.887   0.870   2.973
 1594SOL    HW1 5681   4.824   0.817   2.916
 1594SOL    HW2 5682   4.975   0.879   2.926
 1595SOL     OW 5683   0.226   3.530   6.785
 1595SOL    HW1 5684   0.317   3.489   6.780
 1595SOL    HW2 5685   0.233   3.623   6.821
 1596SOL     OW 5686   5.260   4.154   4.282
 1596SOL    HW1 5687   5.275   4.075   4.223
 1596SOL    HW2 5688   5.269   4.238   4.227
 1597SOL     OW 5689   4.182   6.316   0.910
 1597SOL    HW1 5690   4.138   6.372   0.839
 1597SOL    HW2 5691   4.114   6.293   0.980
 1598SOL     OW 5692   1.150   4.629   6.129
 1598SOL    HW1 5693   1.139   4.575   6.045
 1598SOL    HW2 5694   1.086   4.595   6.198
 1599SOL     OW 5695   4.454   5.748   3.772
 1599SOL    HW1 5696   4.398   5.676   3.811
 1599SOL    HW2 5697   4.536   5.762   3.828
 1600SOL     OW 5698   4.613   0.618   1.540
 1600SOL    HW1 5699   4.514   0.613   1.524
 1600SOL    HW2 5700   4.636   0.567   1.623
 1601SOL     OW 5701   6.537   0.826   4.902
 1601SOL    HW1 5702   6.602   0.788   4.968
 1601SOL    HW2 5703   6.520   0.758   4.831
 1602SOL     OW 5704   3.973   5.461   3.211
 1602SOL    HW1 5705   3.874   5.458   3.222
 1602SOL    HW2 5706   4.007   5.369   3.190
 1603SOL     OW 5707   3.118   4.958   1.903
 1603SOL    HW1 5708   3.200   4.972   1.959
 1603SOL    HW2 5709   3.132   4.880   1.843
 1604SOL     OW 5710   4.424   5.152   2.422
 1604SOL    HW1 5711   4.360   5.223   2.454
 1604SOL    HW2 5712   4.518   5.181   2.439
 1605SOL     OW 5713   4.882   4.919   0.464
 1605SOL    HW1 5714   4.808   4.893   0.527
 1605SOL    HW2 5715   4.892   5.019   0.466
 1606SOL     OW 5716   3.490   5.774   5.460
 1606SOL    HW1 5717   3.488   5.868   5.427
 1606SOL    HW2 5718   3.550   5.767   5.539
 1607SOL     OW 5719   4.860   3.724   3.800
 1607SOL    HW1 5720   4.884   3.697   3.893
 1607SOL    HW2 5721   4.861   3.643   3.741
 1608SOL     OW 5722   6.130   2.976   3.538
 1608SOL    HW1 5723   6.098   3.041   3.607
 1608SOL    HW2 5724   6.101   2.884   3.564
 1609SOL     OW 5725   2.024   6.923   1.052
 1609SOL    HW1 5726   2.048   0.002   1.062
 1609SOL    HW2 5727   1.931   6.915   1.016
 1610SOL     OW 5728   5.361   6.107   0.991
 1610SOL    HW1 5729   5.337   6.010   0.994
 1610SOL    HW2 5730   5.401   6.128   0.902
 1611SOL     OW 5731   0.425   4.057   6.850
 1611SOL    HW1 5732   0.393   4.151   6.834
 1611SOL    HW2 5733   0.385   4.021   6.934
 1612SOL     OW 5734   4.864   0.943   1.743
 1612SOL    HW1 5735   4.823   0.914   1.830
 1612SOL    HW2 5736   4.903   0.864   1.697
 1613SOL     OW 5737   0.220   6.139   2.280
 1613SOL    HW1 5738   0.142   6.094   2.322
 1613SOL    HW2 5739   0.204   6.149   2.181
 1614SOL     OW 5740   6.281   2.113   5.225
 1614SOL    HW1 5741   6.252   2.141   5.133
 1614SOL    HW2 5742   6.200   2.087   5.279
 1615SOL     OW 5743   0.061   3.449   4.930
 1615SOL    HW1 5744   6.991   3.477   4.971
 1615SOL    HW2 5745   0.044   3.388   4.854
 1616SOL     OW 5746   0.836   1.218   3.265
 1616SOL    HW1 5747   0.867   1.312   3.279
 1616SOL    HW2 5748   0.885   1.157   3.327
 1617SOL     OW 5749   6.478   5.436   4.122
 1617SOL    HW1 5750   6.389   5.408   4.088
 1617SOL    HW2 5751   6.520   5.501   4.058
 1618SOL     OW 5752   3.200   5.434   3.142
 1618SOL    HW1 5753   3.181   5.528   3.166
 1618SOL    HW2 5754   3.213   5.379   3.225
 1619SOL     OW 5755   0.691   3.588   6.654
 1619SOL    HW1 5756   0.760   3.587   6.725
 1619SOL    HW2 5757   0.655   3.681   6.642
 1620SOL     OW 5758   2.959   6.756   4.553
 1620SOL    HW1 5759   2.910   6.722   4.473
 1620SOL    HW2 5760   3.032   6.818   4.523
 1621SOL     OW 5761   5.367   4.546   1.135
 1621SOL    HW1 5762   5.413   4.635   1.143
 1621SOL    HW2 5763   5.268   4.559   1.138
 1622SOL     OW 5764   6.571   3.999   3.179
 1622SOL    HW1 5765   6.569   4.005   3.079
 1622SOL    HW2 5766   6.593   4.089   3.217
 1623SOL     OW 5767   0.850   2.395   3.875
 1623SOL    HW1 5768   0.806   2.378   3.963
 1623SOL    HW2 5769   0.885   2.309   3.838
 1624SOL     OW 5770   3.920   2.991   0.601
 1624SOL    HW1 5771   3.881   2.905   0.568
 1624SOL    HW2 5772   3.950   2.980   0.696
 1625SOL     OW 5773   0.576   6.542   0.375
 1625SOL    HW1 5774   0.608   6.615   0.436
 1625SOL    HW2 5775   0.650   6.477   0.359
 1626SOL     OW 5776   2.375   1.894   2.128
 1626SOL    HW1 5777   2.311   1.904   2.051
 1626SOL    HW2 5778   2.469   1.887   2.092
 1627SOL     OW 5779   4.412   1.501   5.961
 1627SOL    HW1 5780   4.352   1.526   6.037
 1627SOL    HW2 5781   4.508   1.509   5.990
 1628SOL     OW 5782   5.290   5.943   1.341
 1628SOL    HW1 5783   5.314   5.849   1.316
 1628SOL    HW2 5784   5.198   5.963   1.308
 1629SOL     OW 5785   1.735   6.761   3.586
 1629SOL    HW1 5786   1.798   6.832   3.619
 1629SOL    HW2 5787   1.674   6.735   3.661
 1630SOL     OW 5788   0.628   4.542   6.017
 1630SOL    HW1 5789   0.603   4.451   6.049
 1630SOL    HW2 5790   0.562   4.572   5.948
 1631SOL     OW 5791   4.982   3.870   0.162
 1631SOL    HW1 5792   5.026   3.935   0.223
 1631SOL    HW2 5793   4.889   3.852   0.194
 1632SOL     OW 5794   5.968   6.478   2.359
 1632SOL    HW1 5795   5.976   6.458   2.457
 1632SOL    HW2 5796   5.874   6.504   2.338
 1633SOL     OW 5797   5.938   3.706   4.633
 1633SOL    HW1 5798   6.003   3.632   4.616
 1633SOL    HW2 5799   5.944   3.735   4.728
 1634SOL     OW 5800   1.328   3.672   6.229
 1634SOL    HW1 5801   1.288   3.756   6.194
 1634SOL    HW2 5802   1.427   3.674   6.217
 1635SOL     OW 5803   2.201   0.278   3.626
 1635SOL    HW1 5804   2.190   0.375   3.604
 1635SOL    HW2 5805   2.118   0.244   3.671
 1636SOL     OW 5806   0.162   6.264   1.548
 1636SOL    HW1 5807   0.218   6.300   1.621
 1636SOL    HW2 5808   0.182   6.312   1.463
 1637SOL     OW 5809   1.365   1.432   2.566
 1637SOL    HW1 5810   1.406   1.341   2.567
 1637SOL    HW2 5811   1.308   1.444   2.647
 1638SOL     OW 5812   5.315   2.236   3.248
 1638SOL    HW1 5813   5.236   2.216   3.305
 1638SOL    HW2 5814   5.326   2.165   3.179
 1639SOL     OW 5815   5.051   2.419   1.551
 1639SOL    HW1 5816   5.025   2.432   1.456
 1639SOL    HW2 5817   4.969   2.408   1.607
 1640SOL     OW 5818   6.509   0.877   6.653
 1640SOL    HW1 5819   6.561   0.794   6.637
 1640SOL    HW2 5820   6.477   0.879   6.748
 1641SOL     OW 5821   5.653   1.082   3.254
 1641SOL    HW1 5822   5.726   1.032   3.207
 1641SOL    HW2 5823   5.571   1.024   3.258
 1642SOL     OW 5824   6.915   3.247   5.578
 1642SOL    HW1 5825   6.863   3.300   5.645
 1642SOL    HW2 5826   6.900   3.150   5.595
 1643SOL     OW 5827   2.448   5.177   3.681
 1643SOL    HW1 5828   2.395   5.095   3.662
 1643SOL    HW2 5829   2.390   5.258   3.672
 1644SOL     OW 5830   6.126   1.658   1.796
 1644SOL    HW1 5831   6.146   1.703   1.708
 1644SOL    HW2 5832   6.195   1.589   1.815
 1645SOL     OW 5833   2.885   0.513   4.722
 1645SOL    HW1 5834   2.970   0.466   4.698
 1645SOL    HW2 5835   2.836   0.460   4.791
 1646SOL     OW 5836   0.201   5.160   1.491
 1646SOL    HW1 5837   0.262   5.158   1.412
 1646SOL    HW2 5838   0.255   5.165   1.575
 1647SOL     OW 5839   6.391   3.428   5.012
 1647SOL    HW1 5840   6.469   3.386   4.967
 1647SOL    HW2 5841   6.307   3.385   4.979
 1648SOL     OW 5842   5.287   6.426   1.639
 1648SOL    HW1 5843   5.384   6.400   1.643
 1648SOL    HW2 5844   5.234   6.367   1.700
 1649SOL     OW 5845   3.451   1.187   2.689
 1649SOL    HW1 5846   3.465   1.175   2.591
 1649SOL    HW2 5847   3.523   1.245   2.727
 1650SOL     OW 5848   2.370   2.672   4.921
 1650SOL    HW1 5849   2.313   2.653   5.002
 1650SOL    HW2 5850   2.427   2.752   4.940
 1651SOL     OW 5851   1.145   1.956   3.888
 1651SOL    HW1 5852   1.231   1.983   3.931
 1651SOL    HW2 5853   1.135   1.856   3.893
 1652SOL     OW 5854   6.802   4.004   1.733
 1652SOL    HW1 5855   6.831   3.942   1.806
 1652SOL    HW2 5856   6.769   3.952   1.655
 1653SOL     OW 5857   6.745   4.637   1.717
 1653SOL    HW1 5858   6.702   4.642   1.627
 1653SOL    HW2 5859   6.685   4.680   1.785
 1654SOL     OW 5860   0.291   4.115   1.449
 1654SOL    HW1 5861   0.207   4.108   1.503
 1654SOL    HW2 5862   0.307   4.028   1.402
 1655SOL     OW 5863   0.347   0.501   5.938
 1655SOL    HW1 5864   0.397   0.553   6.007
 1655SOL    HW2 5865   0.344   0.553   5.853
 1656SOL     OW 5866   2.178   3.949   2.979
 1656SOL    HW1 5867   2.178   4.036   2.931
 1656SOL    HW2 5868   2.144   3.962   3.073
 1657SOL     OW 5869   1.039   0.723   6.244
 1657SOL    HW1 5870   1.011   0.795   6.180
 1657SOL    HW2 5871   0.993   0.737   6.332
 1658SOL     OW 5872   5.397   6.504   5.782
 1658SOL    HW1 5873   5.454   6.586   5.774
 1658SOL    HW2 5874   5.455   6.425   5.804
 1659SOL     OW 5875   3.701   0.085   5.932
 1659SOL    HW1 5876   3.608   0.111   5.956
 1659SOL    HW2 5877   3.757   0.167   5.920
 1660SOL     OW 5878   2.448   0.835   1.982
 1660SOL    HW1 5879   2.397   0.886   1.912
 1660SOL    HW2 5880   2.440   0.737   1.964
 1661SOL     OW 5881   5.082   4.048   3.138
 1661SOL    HW1 5882   5.078   4.082   3.044
 1661SOL    HW2 5883   5.049   3.954   3.142
 1662SOL     OW 5884   0.393   1.581   3.655
 1662SOL    HW1 5885   0.316   1.564   3.593
 1662SOL    HW2 5886   0.475   1.537   3.620
 1663SOL     OW 5887   5.256   3.950   1.003
 1663SOL    HW1 5888   5.240   3.997   1.090
 1663SOL    HW2 5889   5.340   3.896   1.010
 1664SOL     OW 5890   1.135   1.382   6.439
 1664SOL    HW1 5891   1.216   1.436   6.464
 1664SOL    HW2 5892   1.060   1.444   6.416
 1665SOL     OW 5893   2.354   3.689   6.559
 1665SOL    HW1 5894   2.284   3.731   6.616
 1665SOL    HW2 5895   2.319   3.673   6.467
 1666SOL     OW 5896   5.726   6.215   5.939
 1666SOL    HW1 5897   5.672   6.266   6.006
 1666SOL    HW2 5898   5.823   6.226   5.961
 1667SOL     OW 5899   0.019   5.463   1.178
 1667SOL    HW1 5900   6.991   5.543   1.139
 1667SOL    HW2 5901   0.056   5.407   1.104
 1668SOL     OW 5902   6.157   3.067   2.205
 1668SOL    HW1 5903   6.151   3.082   2.107
 1668SOL    HW2 5904   6.227   2.999   2.225
 1669SOL     OW 5905   6.450   2.987   5.503
 1669SOL    HW1 5906   6.462   3.086   5.507
 1669SOL    HW2 5907   6.476   2.954   5.412
 1670SOL     OW 5908   3.021   4.415   5.712
 1670SOL    HW1 5909   3.106   4.455   5.677
 1670SOL    HW2 5910   2.952   4.414   5.640
 1671SOL     OW 5911   5.593   1.966   0.974
 1671SOL    HW1 5912   5.579   2.034   0.901
 1671SOL    HW2 5913   5.522   1.978   1.043
 1672SOL     OW 5914   0.475   1.986   1.425
 1672SOL    HW1 5915   0.379   1.983   1.398
 1672SOL    HW2 5916   0.518   2.066   1.384
 1673SOL     OW 5917   1.803   0.373   5.064
 1673SOL    HW1 5918   1.738   0.321   5.008
 1673SOL    HW2 5919   1.794   0.470   5.044
 1674SOL     OW 5920   5.109   2.345   3.738
 1674SOL    HW1 5921   5.133   2.379   3.647
 1674SOL    HW2 5922   5.084   2.249   3.731
 1675SOL     OW 5923   5.519   0.470   1.906
 1675SOL    HW1 5924   5.466   0.433   1.983
 1675SOL    HW2 5925   5.591   0.530   1.942
 1676SOL     OW 5926   1.293   2.391   3.615
 1676SOL    HW1 5927   1.251   2.441   3.690
 1676SOL    HW2 5928   1.337   2.308   3.650
 1677SOL     OW 5929   2.929   3.540   2.707
 1677SOL    HW1 5930   2.952   3.614   2.643
 1677SOL    HW2 5931   2.956   3.452   2.667
 1678SOL     OW 5932   6.842   6.683   6.764
 1678SOL    HW1 5933   6.941   6.677   6.770
 1678SOL    HW2 5934   6.813   6.778   6.775
 1679SOL     OW 5935   6.112   1.901   0.462
 1679SOL    HW1 5936   6.070   1.924   0.374
 1679SOL    HW2 5937   6.096   1.804   0.482
 1680SOL     OW 5938   6.308   2.881   2.959
 1680SOL    HW1 5939   6.264   2.792   2.959
 1680SOL    HW2 5940   6.238   2.953   2.950
 1681SOL     OW 5941   3.419   5.889   4.998
 1681SOL    HW1 5942   3.466   5.809   4.960
 1681SOL    HW2 5943   3.487   5.955   5.029
 1682SOL     OW 5944   4.283   1.105   4.627
 1682SOL    HW1 5945   4.316   1.191   4.588
 1682SOL    HW2 5946   4.199   1.121   4.677
 1683SOL     OW 5947   1.034   2.566   3.094
 1683SOL    HW1 5948   1.090   2.543   3.174
 1683SOL    HW2 5949   0.942   2.528   3.104
 1684SOL     OW 5950   2.598   5.443   1.369
 1684SOL    HW1 5951   2.529   5.441   1.297
 1684SOL    HW2 5952   2.605   5.353   1.412
 1685SOL     OW 5953   0.202   1.309   5.651
 1685SOL    HW1 5954   0.142   1.385   5.676
 1685SOL    HW2 5955   0.169   1.267   5.567
 1686SOL     OW 5956   3.698   5.421   1.916
 1686SOL    HW1 5957   3.710   5.454   1.822
 1686SOL    HW2 5958   3.611   5.454   1.951
 1687SOL     OW 5959   4.946   4.023   0.655
 1687SOL    HW1 5960   4.936   4.085   0.577
 1687SOL    HW2 5961   5.043   4.013   0.676
 1688SOL     OW 5962   2.783   0.262   2.887
 1688SOL    HW1 5963   2.696   0.295   2.851
 1688SOL    HW2 5964   2.781   0.264   2.987
 1689SOL     OW 5965   3.818   0.609   2.037
 1689SOL    HW1 5966   3.774   0.679   2.094
 1689SOL    HW2 5967   3.833   0.526   2.091
 1690SOL     OW 5968   6.761   4.886   4.220
 1690SOL    HW1 5969   6.674   4.900   4.171
 1690SOL    HW2 5970   6.786   4.969   4.270
 1691SOL     OW 5971   3.909   2.625   5.368
 1691SOL    HW1 5972   3.887   2.723   5.367
 1691SOL    HW2 5973   3.989   2.609   5.310
 1692SOL     OW 5974   6.326   5.488   2.087
 1692SOL    HW1 5975   6.241   5.456   2.127
 1692SOL    HW2 5976   6.366   5.416   2.030
 1693SOL     OW 5977   5.551   6.746   5.636
 1693SOL    HW1 5978   5.637   6.796   5.629
 1693SOL    HW2 5979   5.523   6.715   5.545
 1694SOL     OW 5980   4.728   1.412   6.495
 1694SOL    HW1 5981   4.689   1.364   6.574
 1694SOL    HW2 5982   4.827   1.404   6.497
 1695SOL     OW 5983   4.408   0.182   5.031
 1695SOL    HW1 5984   4.441   0.126   5.107
 1695SOL    HW2 5985   4.314   0.211   5.049
 1696SOL     OW 5986   5.145   6.989   0.936
 1696SOL    HW1 5987   5.094   6.951   1.014
 1696SOL    HW2 5988   5.243   6.989   0.956
 1697SOL     OW 5989   4.548   2.841   1.706
 1697SOL    HW1 5990   4.577   2.935   1.725
 1697SOL    HW2 5991   4.578   2.781   1.780
 1698SOL     OW 5992   4.024   1.241   1.741
 1698SOL    HW1 5993   4.017   1.320   1.679
 1698SOL    HW2 5994   4.064   1.271   1.828
 1699SOL     OW 5995   1.888   0.835   1.115
 1699SOL    HW1 5996   1.842   0.882   1.189
 1699SOL    HW2 5997   1.913   0.742   1.144
 1700SOL     OW 5998   5.502   3.139   2.722
 1700SOL    HW1 5999   5.477   3.101   2.811
 1700SOL    HW2 6000   5.421   3.142   2.664
 1701SOL     OW 6001   0.989   5.702   5.064
 1701SOL    HW1 6002   0.896   5.697   5.100
 1701SOL    HW2 6003   0.997   5.642   4.985
 1702SOL     OW 6004   1.722   2.538   6.498
 1702SOL    HW1 6005   1.654   2.501   6.435
 1702SOL    HW2 6006   1.803   2.565   6.448
 1703SOL     OW 6007   1.264   1.902   2.100
 1703SOL    HW1 6008   1.334   1.849   2.150
 1703SOL    HW2 6009   1.194   1.839   2.066
 1704SOL     OW 6010   2.912   2.967   6.748
 1704SOL    HW1 6011   2.852   3.029   6.696
 1704SOL    HW2 6012   2.945   2.895   6.688
 1705SOL     OW 6013   5.167   3.233   0.472
 1705SOL    HW1 6014   5.157   3.180   0.388
 1705SOL    HW2 6015   5.259   3.219   0.509
 1706SOL     OW 6016   5.389   1.028   6.146
 1706SOL    HW1 6017   5.447   1.043   6.227
 1706SOL    HW2 6018   5.408   1.099   6.079
 1707SOL     OW 6019   3.819   0.976   1.898
 1707SOL    HW1 6020   3.857   1.059   1.857
 1707SOL    HW2 6021   3.775   0.999   1.985
 1708SOL     OW 6022   2.529   4.520   1.850
 1708SOL    HW1 6023   2.620   4.522   1.892
 1708SOL    HW2 6024   2.539   4.522   1.750
 1709SOL     OW 6025   5.017   4.442   1.398
 1709SOL    HW1 6026   4.943   4.425   1.462
 1709SOL    HW2 6027   5.081   4.365   1.399
 1710SOL     OW 6028   4.751   2.861   2.284
 1710SOL    HW1 6029   4.748   2.923   2.206
 1710SOL    HW2 6030   4.663   2.814   2.293
 1711SOL     OW 6031   4.146   5.456   0.024
 1711SOL    HW1 6032   4.063   5.477   6.988
 1711SOL    HW2 6033   4.126   5.384   0.089
 1712SOL     OW 6034   0.283   1.580   1.803
 1712SOL    HW1 6035   0.338   1.543   1.878
 1712SOL    HW2 6036   0.330   1.561   1.716
 1713SOL     OW 6037   3.205   1.255   2.271
 1713SOL    HW1 6038   3.176   1.187   2.338
 1713SOL    HW2 6039   3.160   1.342   2.290
 1714SOL     OW 6040   2.608   4.449   0.883
 1714SOL    HW1 6041   2.657   4.446   0.970
 1714SOL    HW2 6042   2.652   4.515   0.822
 1715SOL     OW 6043   0.991   6.150   1.148
 1715SOL    HW1 6044   1.017   6.080   1.215
 1715SOL    HW2 6045   1.009   6.115   1.055
 1716SOL     OW 6046   5.054   1.727   2.963
 1716SOL    HW1 6047   4.970   1.780   2.975
 1716SOL    HW2 6048   5.050   1.675   2.878
 1717SOL     OW 6049   3.674   6.403   3.559
 1717SOL    HW1 6050   3.715   6.351   3.633
 1717SOL    HW2 6051   3.697   6.360   3.471
 1718SOL     OW 6052   1.681   3.504   1.721
 1718SOL    HW1 6053   1.743   3.551   1.659
 1718SOL    HW2 6054   1.681   3.406   1.700
 1719SOL     OW 6055   0.964   5.134   3.141
 1719SOL    HW1 6056   0.958   5.231   3.166
 1719SOL    HW2 6057   0.903   5.115   3.065
 1720SOL     OW 6058   1.067   2.991   5.612
 1720SOL    HW1 6059   1.064   2.910   5.671
 1720SOL    HW2 6060   1.104   3.068   5.664
 1721SOL     OW 6061   2.353   2.622   0.475
 1721SOL    HW1 6062   2.375   2.571   0.557
 1721SOL    HW2 6063   2.254   2.619   0.459
 1722SOL     OW 6064   2.663   2.358   3.517
 1722SOL    HW1 6065   2.762   2.354   3.533
 1722SOL    HW2 6066   2.645   2.396   3.427
 1723SOL     OW 6067   6.397   4.365   1.213
 1723SOL    HW1 6068   6.345   4.407   1.138
 1723SOL    HW2 6069   6.494   4.369   1.192
 1724SOL     OW 6070   5.732   3.243   0.726
 1724SOL    HW1 6071   5.776   3.333   0.725
 1724SOL    HW2 6072   5.738   3.202   0.635
 1725SOL     OW 6073   1.888   6.678   6.168
 1725SOL    HW1 6074   1.977   6.699   6.128
 1725SOL    HW2 6075   1.821   6.746   6.138
 1726SOL     OW 6076   4.795   4.579   3.607
 1726SOL    HW1 6077   4.860   4.521   3.559
 1726SOL    HW2 6078   4.710   4.529   3.623
 1727SOL     OW 6079   3.220   2.923   3.133
 1727SOL    HW1 6080   3.255   3.008   3.093
 1727SOL    HW2 6081   3.191   2.862   3.060
 1728SOL     OW 6082   5.698   2.264   4.413
 1728SOL    HW1 6083   5.649   2.344   4.379
 1728SOL    HW2 6084   5.632   2.195   4.442
 1729SOL     OW 6085   1.312   2.996   2.943
 1729SOL    HW1 6086   1.236   3.022   2.884
 1729SOL    HW2 6087   1.387   3.061   2.931
 1730SOL     OW 6088   2.503   0.158   4.540
 1730SOL    HW1 6089   2.501   0.232   4.607
 1730SOL    HW2 6090   2.438   0.178   4.467
 1731SOL     OW 6091   5.230   4.154   3.631
 1731SOL    HW1 6092   5.147   4.184   3.678
 1731SOL    HW2 6093   5.261   4.226   3.569
 1732SOL     OW 6094   4.183   3.335   5.231
 1732SOL    HW1 6095   4.125   3.375   5.160
 1732SOL    HW2 6096   4.261   3.395   5.248
 1733SOL     OW 6097   1.593   2.107   6.346
 1733SOL    HW1 6098   1.600   2.112   6.446
 1733SOL    HW2 6099   1.519   2.044   6.321
 1734SOL     OW 6100   0.766   4.466   1.280
 1734SOL    HW1 6101   0.822   4.544   1.250
 1734SOL    HW2 6102   0.677   4.499   1.310
 1735SOL     OW 6103   2.879   5.327   5.803
 1735SOL    HW1 6104   2.948   5.283   5.860
 1735SOL    HW2 6105   2.868   5.422   5.830
 1736SOL     OW 6106   5.123   1.900   6.103
 1736SOL    HW1 6107   5.204   1.954   6.124
 1736SOL    HW2 6108   5.049   1.960   6.074
 1737SOL     OW 6109   2.680   1.147   6.132
 1737SOL    HW1 6110   2.755   1.081   6.141
 1737SOL    HW2 6111   2.715   1.239   6.148
 1738SOL     OW 6112   0.736   4.089   1.978
 1738SOL    HW1 6113   0.766   4.004   1.934
 1738SOL    HW2 6114   0.759   4.086   2.076
 1739SOL     OW 6115   4.822   5.147   2.664
 1739SOL    HW1 6116   4.888   5.101   2.605
 1739SOL    HW2 6117   4.863   5.160   2.755
 1740SOL     OW 6118   0.045   2.133   4.981
 1740SOL    HW1 6119   0.009   2.206   4.923
 1740SOL    HW2 6120   0.014   2.147   5.075
 1741SOL     OW 6121   1.187   2.983   4.633
 1741SOL    HW1 6122   1.177   2.948   4.540
 1741SOL    HW2 6123   1.194   2.907   4.697
 1742SOL     OW 6124   6.134   0.097   0.021
 1742SOL    HW1 6125   6.092   0.183   7.009
 1742SOL    HW2 6126   6.178   0.111   0.110
 1743SOL     OW 6127   1.339   2.035   1.882
 1743SOL    HW1 6128   1.347   2.133   1.899
 1743SOL    HW2 6129   1.309   1.989   1.965
 1744SOL     OW 6130   2.991   2.180   5.254
 1744SOL    HW1 6131   2.942   2.158   5.170
 1744SOL    HW2 6132   3.064   2.246   5.233
 1745SOL     OW 6133   6.405   6.289   0.564
 1745SOL    HW1 6134   6.423   6.351   0.487
 1745SOL    HW2 6135   6.396   6.196   0.530
 1746SOL     OW 6136   2.540   4.981   2.657
 1746SOL    HW1 6137   2.558   4.885   2.678
 1746SOL    HW2 6138   2.585   5.040   2.724
 1747SOL     OW 6139   3.114   0.177   2.413
 1747SOL    HW1 6140   3.032   0.205   2.463
 1747SOL    HW2 6141   3.192   0.230   2.446
 1748SOL     OW 6142   6.893   1.895   3.687
 1748SOL    HW1 6143   6.809   1.921   3.735
 1748SOL    HW2 6144   6.872   1.824   3.620
 1749SOL     OW 6145   6.316   5.528   2.548
 1749SOL    HW1 6146   6.393   5.564   2.601
 1749SOL    HW2 6147   6.328   5.554   2.452
 1750SOL     OW 6148   3.259   1.640   0.866
 1750SOL    HW1 6149   3.225   1.646   0.772
 1750SOL    HW2 6150   3.192   1.594   0.924
 1751SOL     OW 6151   6.114   4.281   4.703
 1751SOL    HW1 6152   6.060   4.356   4.664
 1751SOL    HW2 6153   6.190   4.319   4.756
 1752SOL     OW 6154   5.983   0.756   2.391
 1752SOL    HW1 6155   6.021   0.833   2.442
 1752SOL    HW2 6156   6.057   0.709   2.342
 1753SOL     OW 6157   6.467   1.332   1.537
 1753SOL    HW1 6158   6.524   1.327   1.456
 1753SOL    HW2 6159   6.386   1.387   1.518
 1754SOL     OW 6160   2.690   5.610   3.605
 1754SOL    HW1 6161   2.633   5.690   3.619
 1754SOL    HW2 6162   2.669   5.569   3.516
 1755SOL     OW 6163   6.224   6.763   4.950
 1755SOL    HW1 6164   6.129   6.775   4.977
 1755SOL    HW2 6165   6.279   6.742   5.031
 1756SOL     OW 6166   4.330   6.083   1.433
 1756SOL    HW1 6167   4.364   6.035   1.514
 1756SOL    HW2 6168   4.393   6.156   1.408
 1757SOL     OW 6169   2.688   5.180   4.977
 1757SOL    HW1 6170   2.736   5.108   4.926
 1757SOL    HW2 6171   2.724   5.184   5.070
 1758SOL     OW 6172   0.690   6.066   3.864
 1758SOL    HW1 6173   0.742   5.984   3.841
 1758SOL    HW2 6174   0.604   6.039   3.908
 1759SOL     OW 6175   1.596   5.150   6.176
 1759SOL    HW1 6176   1.645   5.186   6.096
 1759SOL    HW2 6177   1.626   5.057   6.194
 1760SOL     OW 6178   6.207   1.834   3.859
 1760SOL    HW1 6179   6.275   1.888   3.809
 1760SOL    HW2 6180   6.251   1.788   3.936
 1761SOL     OW 6181   5.393   2.574   3.611
 1761SOL    HW1 6182   5.438   2.487   3.631
 1761SOL    HW2 6183   5.301   2.556   3.577
 1762SOL     OW 6184   0.680   1.203   5.804
 1762SOL    HW1 6185   0.667   1.155   5.891
 1762SOL    HW2 6186   0.592   1.217   5.760
 1763SOL     OW 6187   1.682   4.885   3.891
 1763SOL    HW1 6188   1.747   4.856   3.821
 1763SOL    HW2 6189   1.731   4.910   3.974
 1764SOL     OW 6190   1.329   5.848   3.418
 1764SOL    HW1 6191   1.238   5.822   3.384
 1764SOL    HW2 6192   1.320   5.885   3.511
 1765SOL     OW 6193   5.333   3.629   2.029
 1765SOL    HW1 6194   5.297   3.580   2.108
 1765SOL    HW2 6195   5.321   3.574   1.947
 1766SOL     OW 6196   4.561   4.715   4.024
 1766SOL    HW1 6197   4.594   4.656   3.951
 1766SOL    HW2 6198   4.462   4.708   4.031
 1767SOL     OW 6199   1.310   4.263   1.347
 1767SOL    HW1 6200   1.255   4.290   1.269
 1767SOL    HW2 6201   1.276   4.307   1.430
 1768SOL     OW 6202   3.797   4.857   2.708
 1768SOL    HW1 6203   3.887   4.815   2.706
 1768SOL    HW2 6204   3.750   4.840   2.622
 1769SOL     OW 6205   5.367   0.374   0.885
 1769SOL    HW1 6206   5.271   0.346   0.887
 1769SOL    HW2 6207   5.389   0.412   0.795
 1770SOL     OW 6208   2.202   5.157   0.783
 1770SOL    HW1 6209   2.192   5.094   0.860
 1770SOL    HW2 6210   2.240   5.108   0.705
 1771SOL     OW 6211   0.935   2.843   6.057
 1771SOL    HW1 6212   0.967   2.861   6.150
 1771SOL    HW2 6213   0.855   2.900   6.038
 1772SOL     OW 6214   2.224   4.353   2.863
 1772SOL    HW1 6215   2.189   4.426   2.804
 1772SOL    HW2 6216   2.215   4.265   2.816
 1773SOL     OW 6217   2.358   6.519   4.954
 1773SOL    HW1 6218   2.372   6.478   4.864
 1773SOL    HW2 6219   2.268   6.493   4.990
 1774SOL     OW 6220   5.607   5.680   2.029
 1774SOL    HW1 6221   5.673   5.721   1.965
 1774SOL    HW2 6222   5.587   5.586   2.001
 1775SOL     OW 6223   1.182   6.376   1.132
 1775SOL    HW1 6224   1.174   6.400   1.035
 1775SOL    HW2 6225   1.095   6.340   1.164
 1776SOL     OW 6226   4.508   3.244   5.964
 1776SOL    HW1 6227   4.489   3.202   5.875
 1776SOL    HW2 6228   4.423   3.282   6.001
 1777SOL     OW 6229   4.533   5.915   0.325
 1777SOL    HW1 6230   4.468   5.857   0.278
 1777SOL    HW2 6231   4.495   5.943   0.414
 1778SOL     OW 6232   6.838   0.124   2.937
 1778SOL    HW1 6233   6.822   0.112   3.035
 1778SOL    HW2 6234   6.856   0.035   2.895
 1779SOL     OW 6235   6.423   0.158   4.701
 1779SOL    HW1 6236   6.401   0.130   4.607
 1779SOL    HW2 6237   6.465   0.081   4.750
 1780SOL     OW 6238   3.554   6.381   5.119
 1780SOL    HW1 6239   3.610   6.461   5.098
 1780SOL    HW2 6240   3.594   6.331   5.196
 1781SOL     OW 6241   4.705   1.522   6.010
 1781SOL    HW1 6242   4.728   1.616   5.984
 1781SOL    HW2 6243   4.786   1.465   6.004
 1782SOL     OW 6244   5.184   0.403   2.838
 1782SOL    HW1 6245   5.170   0.497   2.807
 1782SOL    HW2 6246   5.181   0.400   2.937
 1783SOL     OW 6247   1.419   3.310   6.894
 1783SOL    HW1 6248   1.328   3.286   6.930
 1783SOL    HW2 6249   1.445   3.245   6.823
 1784SOL     OW 6250   2.163   6.475   1.533
 1784SOL    HW1 6251   2.124   6.552   1.483
 1784SOL    HW2 6252   2.205   6.507   1.618
 1785SOL     OW 6253   1.682   5.974   4.443
 1785SOL    HW1 6254   1.660   5.907   4.372
 1785SOL    HW2 6255   1.646   5.941   4.531
 1786SOL     OW 6256   0.458   5.845   1.582
 1786SOL    HW1 6257   0.538   5.883   1.538
 1786SOL    HW2 6258   0.403   5.919   1.621
 1787SOL     OW 6259   2.055   2.413   5.935
 1787SOL    HW1 6260   2.055   2.509   5.905
 1787SOL    HW2 6261   2.000   2.358   5.873
 1788SOL     OW 6262   3.429   3.936   0.630
 1788SOL    HW1 6263   3.401   4.025   0.592
 1788SOL    HW2 6264   3.446   3.872   0.556
 1789SOL     OW 6265   5.901   2.554   2.133
 1789SOL    HW1 6266   5.892   2.609   2.216
 1789SOL    HW2 6267   5.818   2.561   2.078
 1790SOL     OW 6268   2.335   1.595   4.596
 1790SOL    HW1 6269   2.340   1.625   4.501
 1790SOL    HW2 6270   2.366   1.500   4.602
 1791SOL     OW 6271   6.358   0.457   3.692
 1791SOL    HW1 6272   6.439   0.486   3.640
 1791SOL    HW2 6273   6.278   0.458   3.631
 1792SOL     OW 6274   0.009   2.545   6.320
 1792SOL    HW1 6275   0.022   2.543   6.419
 1792SOL    HW2 6276   7.003   2.637   6.291
 1793SOL     OW 6277   0.383   1.417   4.567
 1793SOL    HW1 6278   0.442   1.336   4.562
 1793SOL    HW2 6279   0.391   1.469   4.483
 1794SOL     OW 6280   0.183   1.873   6.618
 1794SOL    HW1 6281   0.217   1.966   6.636
 1794SOL    HW2 6282   0.227   1.809   6.681
 1795SOL     OW 6283   5.323   4.685   0.440
 1795SOL    HW1 6284   5.242   4.736   0.469
 1795SOL    HW2 6285   5.372   4.736   0.369
 1796SOL     OW 6286   6.115   6.486   6.855
 1796SOL    HW1 6287   6.068   6.408   6.896
 1796SOL    HW2 6288   6.066   6.570   6.877
 1797SOL     OW 6289   2.622   6.265   5.230
 1797SOL    HW1 6290   2.719   6.272   5.254
 1797SOL    HW2 6291   2.606   6.181   5.178
 1798SOL     OW 6292   2.478   3.834   5.890
 1798SOL    HW1 6293   2.473   3.866   5.795
 1798SOL    HW2 6294   2.468   3.912   5.952
 1799SOL     OW 6295   3.513   1.430   2.124
 1799SOL    HW1 6296   3.562   1.500   2.175
 1799SOL    HW2 6297   3.455   1.474   2.055
 1800SOL     OW 6298   6.044   2.623   5.710
 1800SOL    HW1 6299   5.958   2.625   5.761
 1800SOL    HW2 6300   6.060   2.712   5.669
 1801SOL     OW 6301   0.334   1.410   2.259
 1801SOL    HW1 6302   0.272   1.332   2.267
 1801SOL    HW2 6303   0.399   1.408   2.335
 1802SOL     OW 6304   6.669   4.639   4.257
 1802SOL    HW1 6305   6.697   4.735   4.260
 1802SOL    HW2 6306   6.681   4.598   4.348
 1803SOL     OW 6307   6.968   6.346   3.891
 1803SOL    HW1 6308   6.934   6.389   3.807
 1803SOL    HW2 6309   0.032   6.394   3.922
 1804SOL     OW 6310   0.968   2.927   6.331
 1804SOL    HW1 6311   0.954   3.002   6.395
 1804SOL    HW2 6312   0.883   2.876   6.320
 1805SOL     OW 6313   6.275   4.737   6.262
 1805SOL    HW1 6314   6.277   4.713   6.359
 1805SOL    HW2 6315   6.183   4.722   6.226
 1806SOL     OW 6316   0.497   1.719   1.455
 1806SOL    HW1 6317   0.574   1.680   1.506
 1806SOL    HW2 6318   0.498   1.819   1.466
 1807SOL     OW 6319   6.570   2.475   1.748
 1807SOL    HW1 6320   6.529   2.386   1.726
 1807SOL    HW2 6321   6.662   2.461   1.785
 1808SOL     OW 6322   5.995   0.654   6.643
 1808SOL    HW1 6323   6.041   0.742   6.651
 1808SOL    HW2 6324   5.909   0.656   6.693
 1809SOL     OW 6325   5.353   0.435   5.268
 1809SOL    HW1 6326   5.366   0.534   5.274
 1809SOL    HW2 6327   5.270   0.410   5.318
 1810SOL     OW 6328   1.008   1.494   4.478
 1810SOL    HW1 6329   1.003   1.452   4.388
 1810SOL    HW2 6330   1.095   1.470   4.521
 1811SOL     OW 6331   3.447   5.960   1.899
 1811SOL    HW1 6332   3.462   5.903   1.818
 1811SOL    HW2 6333   3.536   5.987   1.937
 1812SOL     OW 6334   4.315   0.491   6.635
 1812SOL    HW1 6335   4.217   0.476   6.626
 1812SOL    HW2 6336   4.333   0.548   6.715
 1813SOL     OW 6337   5.400   3.209   2.284
 1813SOL    HW1 6338   5.433   3.235   2.194
 1813SOL    HW2 6339   5.406   3.110   2.295
 1814SOL     OW 6340   6.420   5.132   0.652
 1814SOL    HW1 6341   6.499   5.119   0.713
 1814SOL    HW2 6342   6.336   5.130   0.706
 1815SOL     OW 6343   6.202   4.981   1.285
 1815SOL    HW1 6344   6.160   5.072   1.283
 1815SOL    HW2 6345   6.224   4.952   1.192
 1816SOL     OW 6346   3.693   4.903   4.744
 1816SOL    HW1 6347   3.610   4.945   4.706
 1816SOL    HW2 6348   3.717   4.948   4.830
 1817SOL     OW 6349   6.737   3.079   3.684
 1817SOL    HW1 6350   6.800   3.013   3.642
 1817SOL    HW2 6351   6.734   3.065   3.783
 1818SOL     OW 6352   2.139   1.651   1.186
 1818SOL    HW1 6353   2.120   1.559   1.151
 1818SOL    HW2 6354   2.234   1.655   1.217
 1819SOL     OW 6355   1.038   4.042   1.126
 1819SOL    HW1 6356   1.078   4.088   1.046
 1819SOL    HW2 6357   1.108   4.030   1.196
 1820SOL     OW 6358   4.020   0.030   5.319
 1820SOL    HW1 6359   4.050   6.953   5.309
 1820SOL    HW2 6360   4.032   0.078   5.231
 1821SOL     OW 6361   3.964   1.643   2.749
 1821SOL    HW1 6362   3.970   1.640   2.848
 1821SOL    HW2 6363   3.983   1.552   2.711
 1822SOL     OW 6364   1.757   3.589   4.282
 1822SOL    HW1 6365   1.810   3.673   4.293
 1822SOL    HW2 6366   1.661   3.609   4.302
 1823SOL     OW 6367   3.617   0.104   3.761
 1823SOL    HW1 6368   3.593   0.164   3.837
 1823SOL    HW2 6369   3.534   0.068   3.718
 1824SOL     OW 6370   4.713   2.731   1.935
 1824SOL    HW1 6371   4.741   2.818   1.975
 1824SOL    HW2 6372   4.773   2.708   1.858
 1825SOL     OW 6373   1.059   3.541   0.362
 1825SOL    HW1 6374   1.055   3.613   0.431
 1825SOL    HW2 6375   1.144   3.549   0.310
 1826SOL     OW 6376   3.596   3.096   0.802
 1826SOL    HW1 6377   3.590   3.038   0.883
 1826SOL    HW2 6378   3.605   3.192   0.830
 1827SOL     OW 6379   5.091   4.701   0.752
 1827SOL    HW1 6380   5.076   4.605   0.726
 1827SOL    HW2 6381   5.107   4.756   0.670
 1828SOL     OW 6382   2.741   5.035   4.734
 1828SOL    HW1 6383   2.658   4.997   4.692
 1828SOL    HW2 6384   2.778   5.106   4.675
 1829SOL     OW 6385   1.864   6.292   2.267
 1829SOL    HW1 6386   1.812   6.338   2.195
 1829SOL    HW2 6387   1.961   6.295   2.246
 1830SOL     OW 6388   4.292   1.618   6.440
 1830SOL    HW1 6389   4.349   1.550   6.486
 1830SOL    HW2 6390   4.305   1.707   6.484
 1831SOL     OW 6391   3.607   4.791   0.768
 1831SOL    HW1 6392   3.616   4.697   0.737
 1831SOL    HW2 6393   3.641   4.853   0.698
 1832SOL     OW 6394   1.890   3.410   5.775
 1832SOL    HW1 6395   1.989   3.421   5.777
 1832SOL    HW2 6396   1.863   3.370   5.688
 1833SOL     OW 6397   6.098   1.043   0.214
 1833SOL    HW1 6398   6.031   0.976   0.181
 1833SOL    HW2 6399   6.175   1.047   0.151
 1834SOL     OW 6400   1.965   3.606   6.449
 1834SOL    HW1 6401   2.039   3.547   6.417
 1834SOL    HW2 6402   1.877   3.558   6.437
 1835SOL     OW 6403   6.370   6.837   0.605
 1835SOL    HW1 6404   6.344   6.799   0.694
 1835SOL    HW2 6405   6.469   6.849   0.602
 1836SOL     OW 6406   6.400   2.070   4.279
 1836SOL    HW1 6407   6.457   2.140   4.321
 1836SOL    HW2 6408   6.313   2.064   4.328
 1837SOL     OW 6409   1.252   2.089   0.331
 1837SOL    HW1 6410   1.322   2.117   0.398
 1837SOL    HW2 6411   1.168   2.063   0.379
 1838SOL     OW 6412   5.129   0.375   1.154
 1838SOL    HW1 6413   5.165   0.317   1.228
 1838SOL    HW2 6414   5.087   0.318   1.084
 1839SOL     OW 6415   6.716   1.607   6.377
 1839SOL    HW1 6416   6.624   1.571   6.392
 1839SOL    HW2 6417   6.710   1.697   6.333
 1840SOL     OW 6418   3.386   0.163   5.126
 1840SOL    HW1 6419   3.486   0.157   5.125
 1840SOL    HW2 6420   3.354   0.186   5.034
 1841SOL     OW 6421   2.220   0.377   1.864
 1841SOL    HW1 6422   2.236   0.283   1.895
 1841SOL    HW2 6423   2.299   0.434   1.885
 1842SOL     OW 6424   6.961   4.836   1.167
 1842SOL    HW1 6425   0.021   4.777   1.148
 1842SOL    HW2 6426   6.992   4.917   1.217
 1843SOL     OW 6427   3.365   1.279   0.000
 1843SOL    HW1 6428   3.304   1.218   6.967
 1843SOL    HW2 6429   3.367   1.250   0.096
 1844SOL     OW 6430   4.926   3.552   0.701
 1844SOL    HW1 6431   4.850   3.602   0.742
 1844SOL    HW2 6432   4.955   3.598   0.617
 1845SOL     OW 6433   1.248   2.832   4.385
 1845SOL    HW1 6434   1.185   2.755   4.373
 1845SOL    HW2 6435   1.212   2.912   4.339
 1846SOL     OW 6436   3.693   1.606   2.413
 1846SOL    HW1 6437   3.597   1.628   2.430
 1846SOL    HW2 6438   3.750   1.684   2.440
 1847SOL     OW 6439   2.836   5.806   6.939
 1847SOL    HW1 6440   2.850   5.818   0.020
 1847SOL    HW2 6441   2.865   5.890   6.892
 1848SOL     OW 6442   3.326   5.977   4.642
 1848SOL    HW1 6443   3.278   6.048   4.692
 1848SOL    HW2 6444   3.302   5.983   4.545
 1849SOL     OW 6445   4.713   2.816   2.924
 1849SOL    HW1 6446   4.768   2.887   2.969
 1849SOL    HW2 6447   4.676   2.755   2.994
 1850SOL     OW 6448   4.260   1.891   1.038
 1850SOL    HW1 6449   4.266   1.837   1.122
 1850SOL    HW2 6450   4.180   1.952   1.042
 1851SOL     OW 6451   0.867   5.076   4.316
 1851SOL    HW1 6452   0.936   5.025   4.264
 1851SOL    HW2 6453   0.813   5.012   4.370
 1852SOL     OW 6454   0.302   0.166   4.038
 1852SOL    HW1 6455   0.325   0.263   4.046
 1852SOL    HW2 6456   0.347   0.127   3.957
 1853SOL     OW 6457   0.728   1.897   5.539
 1853SOL    HW1 6458   0.821   1.877   5.508
 1853SOL    HW2 6459   0.709   1.847   5.624
 1854SOL     OW 6460   0.182   7.005   4.230
 1854SOL    HW1 6461   0.114   0.057   4.212
 1854SOL    HW2 6462   0.270   0.030   4.253
 1855SOL     OW 6463   6.667   1.130   4.993
 1855SOL    HW1 6464   6.637   1.089   5.080
 1855SOL    HW2 6465   6.594   1.124   4.926
 1856SOL     OW 6466   5.375   4.089   6.533
 1856SOL    HW1 6467   5.447   4.041   6.484
 1856SOL    HW2 6468   5.317   4.023   6.580
 1857SOL     OW 6469   4.313   0.992   6.320
 1857SOL    HW1 6470   4.328   1.001   6.418
 1857SOL    HW2 6471   4.400   0.973   6.274
 1858SOL     OW 6472   5.591   1.799   4.787
 1858SOL    HW1 6473   5.537   1.727   4.829
 1858SOL    HW2 6474   5.569   1.887   4.829
 1859SOL     OW 6475   6.974   6.640   2.384
 1859SOL    HW1 6476   6.921   6.713   2.340
 1859SOL    HW2 6477   6.991   6.664   2.479
 1860SOL     OW 6478   2.376   0.944   6.577
 1860SOL    HW1 6479   2.419   0.929   6.666
 1860SOL    HW2 6480   2.445   0.939   6.506
 1861SOL     OW 6481   6.710   6.362   5.295
 1861SOL    HW1 6482   6.751   6.446   5.260
 1861SOL    HW2 6483   6.717   6.359   5.395
 1862SOL     OW 6484   3.817   5.695   5.937
 1862SOL    HW1 6485   3.874   5.775   5.955
 1862SOL    HW2 6486   3.866   5.612   5.964
 1863SOL     OW 6487   6.916   1.157   1.432
 1863SOL    HW1 6488   6.956   1.181   1.344
 1863SOL    HW2 6489   6.873   1.237   1.473
 1864SOL     OW 6490   2.067   6.351   2.833
 1864SOL    HW1 6491   1.999   6.283   2.808
 1864SOL    HW2 6492   2.153   6.332   2.786
 1865SOL     OW 6493   6.575   2.286   5.828
 1865SOL    HW1 6494   6.561   2.380   5.797
 1865SOL    HW2 6495   6.672   2.264   5.826
 1866SOL     OW 6496   0.008   4.388   4.686
 1866SOL    HW1 6497   0.033   4.477   4.727
 1866SOL    HW2 6498   6.988   4.403   4.595
 1867SOL     OW 6499   1.132   1.157   1.234
 1867SOL    HW1 6500   1.108   1.133   1.140
 1867SOL    HW2 6501   1.051   1.191   1.282
 1868SOL     OW 6502   4.960   3.758   6.115
 1868SOL    HW1 6503   4.879   3.813   6.133
 1868SOL    HW2 6504   4.977   3.697   6.192
 1869SOL     OW 6505   4.984   0.715   5.555
 1869SOL    HW1 6506   4.936   0.635   5.518
 1869SOL    HW2 6507   4.963   0.795   5.498
 1870SOL     OW 6508   6.254   0.283   5.843
 1870SOL    HW1 6509   6.201   0.350   5.790
 1870SOL    HW2 6510   6.242   0.301   5.941
 1871SOL     OW 6511   2.173   5.292   6.978
 1871SOL    HW1 6512   2.082   5.252   6.990
 1871SOL    HW2 6513   2.214   5.260   6.893
 1872SOL     OW 6514   2.396   3.437   1.002
 1872SOL    HW1 6515   2.320   3.416   0.941
 1872SOL    HW2 6516   2.480   3.396   0.966
 1873SOL     OW 6517   6.091   1.653   2.615
 1873SOL    HW1 6518   6.058   1.559   2.619
 1873SOL    HW2 6519   6.013   1.716   2.618
 1874SOL     OW 6520   2.011   5.357   6.664
 1874SOL    HW1 6521   2.082   5.422   6.634
 1874SOL    HW2 6522   2.051   5.266   6.671
 1875SOL     OW 6523   1.093   6.560   2.582
 1875SOL    HW1 6524   1.049   6.567   2.672
 1875SOL    HW2 6525   1.189   6.586   2.590
 1876SOL     OW 6526   0.935   4.804   0.061
 1876SOL    HW1 6527   0.974   4.788   0.152
 1876SOL    HW2 6528   0.846   4.848   0.070
 1877SOL     OW 6529   1.005   0.846   3.181
 1877SOL    HW1 6530   1.081   0.854   3.245
 1877SOL    HW2 6531   1.037   0.808   3.094
 1878SOL     OW 6532   5.863   4.139   4.159
 1878SOL    HW1 6533   5.942   4.118   4.217
 1878SOL    HW2 6534   5.791   4.071   4.175
 1879SOL     OW 6535   4.127   6.515   5.272
 1879SOL    HW1 6536   4.056   6.490   5.337
 1879SOL    HW2 6537   4.214   6.474   5.301
 1880SOL     OW 6538   1.539   2.896   4.158
 1880SOL    HW1 6539   1.616   2.882   4.220
 1880SOL    HW2 6540   1.526   2.993   4.141
 1881SOL     OW 6541   1.953   1.535   3.358
 1881SOL    HW1 6542   1.978   1.457   3.415
 1881SOL    HW2 6543   1.965   1.619   3.410
 1882SOL     OW 6544   3.634   5.987   0.563
 1882SOL    HW1 6545   3.615   5.930   0.643
 1882SOL    HW2 6546   3.564   6.058   0.556
 1883SOL     OW 6547   2.038   3.058   2.512
 1883SOL    HW1 6548   2.042   2.970   2.558
 1883SOL    HW2 6549   2.051   3.045   2.413
 1884SOL     OW 6550   5.206   0.813   0.059
 1884SOL    HW1 6551   5.130   0.763   0.019
 1884SOL    HW2 6552   5.202   0.909   0.030
 1885SOL     OW 6553   0.446   1.407   0.765
 1885SOL    HW1 6554   0.364   1.446   0.722
 1885SOL    HW2 6555   0.464   1.455   0.851
 1886SOL     OW 6556   3.301   3.096   5.368
 1886SOL    HW1 6557   3.301   3.147   5.283
 1886SOL    HW2 6558   3.308   3.159   5.445
 1887SOL     OW 6559   0.842   6.056   4.845
 1887SOL    HW1 6560   0.807   6.045   4.938
 1887SOL    HW2 6561   0.916   5.991   4.830
 1888SOL     OW 6562   2.047   1.462   6.076
 1888SOL    HW1 6563   2.034   1.556   6.109
 1888SOL    HW2 6564   2.096   1.464   5.989
 1889SOL     OW 6565   3.657   3.253   0.116
 1889SOL    HW1 6566   3.598   3.313   0.062
 1889SOL    HW2 6567   3.721   3.309   0.169
 1890SOL     OW 6568   6.147   6.033   6.507
 1890SOL    HW1 6569   6.090   6.102   6.553
 1890SOL    HW2 6570   6.112   5.942   6.528
 1891SOL     OW 6571   4.873   3.391   6.452
 1891SOL    HW1 6572   4.874   3.293   6.473
 1891SOL    HW2 6573   4.778   3.422   6.442
 1892SOL     OW 6574   4.349   0.273   3.192
 1892SOL    HW1 6575   4.287   0.237   3.263
 1892SOL    HW2 6576   4.298   0.283   3.107
 1893SOL     OW 6577   2.965   1.544   6.695
 1893SOL    HW1 6578   2.916   1.607   6.634
 1893SOL    HW2 6579   2.898   1.490   6.746
 1894SOL     OW 6580   4.930   3.312   0.580
 1894SOL    HW1 6581   4.951   3.399   0.626
 1894SOL    HW2 6582   5.011   3.282   0.529
 1895SOL     OW 6583   4.358   5.580   3.110
 1895SOL    HW1 6584   4.322   5.606   3.020
 1895SOL    HW2 6585   4.368   5.661   3.167
 1896SOL     OW 6586   6.234   1.484   4.869
 1896SOL    HW1 6587   6.187   1.572   4.862
 1896SOL    HW2 6588   6.166   1.410   4.870
 1897SOL     OW 6589   4.912   5.425   3.043
 1897SOL    HW1 6590   4.877   5.331   3.037
 1897SOL    HW2 6591   4.885   5.476   2.962
 1898SOL     OW 6592   5.605   6.321   6.808
 1898SOL    HW1 6593   5.517   6.275   6.797
 1898SOL    HW2 6594   5.591   6.420   6.814
 1899SOL     OW 6595   2.246   2.412   3.635
 1899SOL    HW1 6596   2.255   2.443   3.540
 1899SOL    HW2 6597   2.206   2.485   3.690
 1900SOL     OW 6598   2.801   5.626   1.935
 1900SOL    HW1 6599   2.849   5.551   1.981
 1900SOL    HW2 6600   2.868   5.695   1.907
 1901SOL     OW 6601   1.416   1.004   5.707
 1901SOL    HW1 6602   1.390   0.908   5.692
 1901SOL    HW2 6603   1.483   1.008   5.781
 1902SOL     OW 6604   1.108   2.583   4.097
 1902SOL    HW1 6605   1.054   2.499   4.090
 1902SOL    HW2 6606   1.050   2.656   4.134
 1903SOL     OW 6607   6.577   4.998   4.057
 1903SOL    HW1 6608   6.558   5.023   3.962
 1903SOL    HW2 6609   6.587   5.080   4.112
 1904SOL     OW 6610   0.838   0.803   4.298
 1904SOL    HW1 6611   0.914   0.825   4.236
 1904SOL    HW2 6612   0.875   0.777   4.388
 1905SOL     OW 6613   5.975   3.116   5.418
 1905SOL    HW1 6614   5.957   3.038   5.358
 1905SOL    HW2 6615   6.063   3.103   5.465
 1906SOL     OW 6616   2.195   6.869   5.567
 1906SOL    HW1 6617   2.212   6.949   5.624
 1906SOL    HW2 6618   2.206   6.786   5.622
 1907SOL     OW 6619   4.237   0.013   2.894
 1907SOL    HW1 6620   4.202   6.939   2.908
 1907SOL    HW2 6621   4.174   0.080   2.933
 1908SOL     OW 6622   5.099   5.069   0.723
 1908SOL    HW1 6623   5.114   5.127   0.642
 1908SOL    HW2 6624   5.186   5.058   0.771
 1909SOL     OW 6625   5.369   5.418   3.580
 1909SOL    HW1 6626   5.329   5.385   3.665
 1909SOL    HW2 6627   5.320   5.378   3.502
 1910SOL     OW 6628   5.043   3.794   4.405
 1910SOL    HW1 6629   5.138   3.772   4.426
 1910SOL    HW2 6630   4.986   3.712   4.412
 1911SOL     OW 6631   1.062   2.462   5.637
 1911SOL    HW1 6632   1.133   2.469   5.566
 1911SOL    HW2 6633   1.098   2.407   5.713
 1912SOL     OW 6634   3.150   6.055   2.582
 1912SOL    HW1 6635   3.095   6.106   2.517
 1912SOL    HW2 6636   3.243   6.092   2.583
 1913SOL     OW 6637   2.793   3.986   6.685
 1913SOL    HW1 6638   2.875   3.972   6.629
 1913SOL    HW2 6639   2.748   4.071   6.658
 1914SOL     OW 6640   4.660   1.598   5.065
 1914SOL    HW1 6641   4.675   1.656   4.985
 1914SOL    HW2 6642   4.572   1.620   5.106
 1915SOL     OW 6643   2.851   6.882   5.593
 1915SOL    HW1 6644   2.897   6.965   5.563
 1915SOL    HW2 6645   2.917   6.808   5.603
 1916SOL     OW 6646   3.716   6.063   2.579
 1916SOL    HW1 6647   3.690   6.146   2.531
 1916SOL    HW2 6648   3.687   5.983   2.525
 1917SOL     OW 6649   3.451   4.131   3.715
 1917SOL    HW1 6650   3.492   4.145   3.806
 1917SOL    HW2 6651   3.523   4.125   3.646
 1918SOL     OW 6652   0.525   6.288   5.600
 1918SOL    HW1 6653   0.614   6.311   5.638
 1918SOL    HW2 6654   0.534   6.269   5.503
 1919SOL     OW 6655   5.726   0.765   2.285
 1919SOL    HW1 6656   5.727   0.848   2.229
 1919SOL    HW2 6657   5.817   0.751   2.324
 1920SOL     OW 6658   6.204   6.577   4.728
 1920SOL    HW1 6659   6.253   6.620   4.804
 1920SOL    HW2 6660   6.157   6.648   4.675
 1921SOL     OW 6661   2.563   6.614   0.300
 1921SOL    HW1 6662   2.492   6.673   0.263
 1921SOL    HW2 6663   2.649   6.664   0.305
 1922SOL     OW 6664   3.848   4.550   0.437
 1922SOL    HW1 6665   3.789   4.480   0.397
 1922SOL    HW2 6666   3.813   4.575   0.527
 1923SOL     OW 6667   2.163   3.099   1.199
 1923SOL    HW1 6668   2.213   3.015   1.177
 1923SOL    HW2 6669   2.126   3.092   1.291
 1924SOL     OW 6670   0.767   3.327   0.970
 1924SOL    HW1 6671   0.703   3.342   0.895
 1924SOL    HW2 6672   0.746   3.239   1.014
 1925SOL     OW 6673   3.141   4.363   0.187
 1925SOL    HW1 6674   3.221   4.328   0.235
 1925SOL    HW2 6675   3.107   4.294   0.124
 1926SOL     OW 6676   0.572   0.755   3.940
 1926SOL    HW1 6677   0.593   0.688   3.868
 1926SOL    HW2 6678   0.637   0.830   3.935
 1927SOL     OW 6679   5.341   3.202   1.269
 1927SOL    HW1 6680   5.278   3.131   1.302
 1927SOL    HW2 6681   5.340   3.279   1.332
 1928SOL     OW 6682   0.074   5.625   4.415
 1928SOL    HW1 6683   0.118   5.680   4.487
 1928SOL    HW2 6684   0.142   5.567   4.371
 1929SOL     OW 6685   0.545   5.418   3.176
 1929SOL    HW1 6686   0.475   5.469   3.227
 1929SOL    HW2 6687   0.606   5.483   3.130
 1930SOL     OW 6688   6.790   5.263   6.137
 1930SOL    HW1 6689   6.807   5.315   6.053
 1930SOL    HW2 6690   6.838   5.176   6.133
 1931SOL     OW 6691   1.176   2.113   4.194
 1931SOL    HW1 6692   1.100   2.053   4.173
 1931SOL    HW2 6693   1.161   2.203   4.152
 1932SOL     OW 6694   5.999   3.809   2.715
 1932SOL    HW1 6695   5.981   3.805   2.617
 1932SOL    HW2 6696   5.960   3.728   2.760
 1933SOL     OW 6697   2.996   5.087   0.203
 1933SOL    HW1 6698   2.997   4.987   0.205
 1933SOL    HW2 6699   2.940   5.122   0.279
 1934SOL     OW 6700   0.123   5.716   3.002
 1934SOL    HW1 6701   0.192   5.666   2.949
 1934SOL    HW2 6702   0.167   5.768   3.074
 1935SOL     OW 6703   1.155   1.336   3.416
 1935SOL    HW1 6704   1.157   1.278   3.497
 1935SOL    HW2 6705   1.184   1.283   3.336
 1936SOL     OW 6706   0.208   5.717   5.277
 1936SOL    HW1 6707   0.279   5.672   5.333
 1936SOL    HW2 6708   0.172   5.651   5.211
 1937SOL     OW 6709   4.266   1.605   2.989
 1937SOL    HW1 6710   4.296   1.607   2.894
 1937SOL    HW2 6711   4.340   1.635   3.049
 1938SOL     OW 6712   5.440   0.071   4.373
 1938SOL    HW1 6713   5.503   7.011   4.364
 1938SOL    HW2 6714   5.410   0.100   4.282
 1939SOL     OW 6715   3.091   0.147   4.372
 1939SOL    HW1 6716   3.091   0.104   4.463
 1939SOL    HW2 6717   3.041   0.089   4.308
 1940SOL     OW 6718   6.591   6.289   6.609
 1940SOL    HW1 6719   6.676   6.336   6.634
 1940SOL    HW2 6720   6.612   6.193   6.586
 1941SOL     OW 6721   4.762   5.088   2.291
 1941SOL    HW1 6722   4.829   5.066   2.361
 1941SOL    HW2 6723   4.714   5.172   2.316
 1942SOL     OW 6724   0.437   3.521   2.478
 1942SOL    HW1 6725   0.352   3.563   2.509
 1942SOL    HW2 6726   0.440   3.522   2.378
 1943SOL     OW 6727   2.614   5.462   3.405
 1943SOL    HW1 6728   2.624   5.365   3.429
 1943SOL    HW2 6729   2.626   5.473   3.306
 1944SOL     OW 6730   6.936   6.625   1.636
 1944SOL    HW1 6731   6.879   6.671   1.567
 1944SOL    HW2 6732   6.931   6.677   1.722
 1945SOL     OW 6733   3.004   4.944   2.758
 1945SOL    HW1 6734   2.931   4.932   2.825
 1945SOL    HW2 6735   2.968   4.926   2.666
 1946SOL     OW 6736   1.622   6.884   6.790
 1946SOL    HW1 6737   1.662   6.943   6.860
 1946SOL    HW2 6738   1.528   6.911   6.772
 1947SOL     OW 6739   4.732   0.131   3.080
 1947SOL    HW1 6740   4.642   0.087   3.074
 1947SOL    HW2 6741   4.732   0.196   3.157
 1948SOL     OW 6742   6.146   3.322   5.336
 1948SOL    HW1 6743   6.066   3.262   5.344
 1948SOL    HW2 6744   6.121   3.403   5.282
 1949SOL     OW 6745   4.502   4.350   6.422
 1949SOL    HW1 6746   4.478   4.406   6.501
 1949SOL    HW2 6747   4.424   4.293   6.396
 1950SOL     OW 6748   3.650   5.162   0.555
 1950SOL    HW1 6749   3.643   5.223   0.635
 1950SOL    HW2 6750   3.705   5.082   0.578
 1951SOL     OW 6751   6.367   2.438   0.205
 1951SOL    HW1 6752   6.449   2.475   0.247
 1951SOL    HW2 6753   6.371   2.338   0.206
 1952SOL     OW 6754   3.380   2.898   4.099
 1952SOL    HW1 6755   3.397   2.862   4.191
 1952SOL    HW2 6756   3.282   2.911   4.086
 1953SOL     OW 6757   0.885   2.871   4.564
 1953SOL    HW1 6758   0.938   2.953   4.584
 1953SOL    HW2 6759   0.788   2.894   4.562
 1954SOL     OW 6760   2.195   1.916   4.267
 1954SOL    HW1 6761   2.192   2.013   4.293
 1954SOL    HW2 6762   2.162   1.860   4.343
 1955SOL     OW 6763   5.970   5.504   1.997
 1955SOL    HW1 6764   6.065   5.531   1.976
 1955SOL    HW2 6765   5.908   5.551   1.934
 1956SOL     OW 6766   4.965   6.494   2.858
 1956SOL    HW1 6767   4.975   6.449   2.947
 1956SOL    HW2 6768   4.884   6.554   2.860
 1957SOL     OW 6769   1.879   6.056   4.602
 1957SOL    HW1 6770   1.844   6.004   4.524
 1957SOL    HW2 6771   1.947   6.122   4.571
 1958SOL     OW 6772   3.512   3.720   5.945
 1958SOL    HW1 6773   3.462   3.769   5.874
 1958SOL    HW2 6774   3.603   3.696   5.910
 1959SOL     OW 6775   2.636   0.635   0.786
 1959SOL    HW1 6776   2.552   0.686   0.802
 1959SOL    HW2 6777   2.618   0.562   0.720
 1960SOL     OW 6778   5.154   6.219   2.698
 1960SOL    HW1 6779   5.131   6.191   2.791
 1960SOL    HW2 6780   5.136   6.143   2.635
 1961SOL     OW 6781   5.527   5.468   5.277
 1961SOL    HW1 6782   5.580   5.524   5.340
 1961SOL    HW2 6783   5.490   5.525   5.204
 1962SOL     OW 6784   0.071   6.561   4.343
 1962SOL    HW1 6785   0.031   6.531   4.256
 1962SOL    HW2 6786   0.151   6.617   4.326
 1963SOL     OW 6787   2.291   0.797   3.610
 1963SOL    HW1 6788   2.300   0.890   3.575
 1963SOL    HW2 6789   2.377   0.770   3.654
 1964SOL     OW 6790   5.952   3.165   2.386
 1964SOL    HW1 6791   6.034   3.138   2.337
 1964SOL    HW2 6792   5.937   3.103   2.464
 1965SOL     OW 6793   2.127   6.392   3.458
 1965SOL    HW1 6794   2.095   6.465   3.518
 1965SOL    HW2 6795   2.048   6.342   3.421
 1966SOL     OW 6796   6.473   0.123   6.537
 1966SOL    HW1 6797   6.465   0.112   6.438
 1966SOL    HW2 6798   6.567   0.109   6.565
 1967SOL     OW 6799   5.455   3.372   4.978
 1967SOL    HW1 6800   5.500   3.448   5.025
 1967SOL    HW2 6801   5.412   3.405   4.894
 1968SOL     OW 6802   4.025   5.306   4.709
 1968SOL    HW1 6803   4.100   5.254   4.750
 1968SOL    HW2 6804   4.045   5.324   4.613
 1969SOL     OW 6805   0.009   1.328   1.842
 1969SOL    HW1 6806   6.961   1.253   1.830
 1969SOL    HW2 6807   0.005   1.362   1.936
 1970SOL     OW 6808   1.529   0.548   3.749
 1970SOL    HW1 6809   1.494   0.634   3.712
 1970SOL    HW2 6810   1.609   0.567   3.806
 1971SOL     OW 6811   0.270   1.320   6.224
 1971SOL    HW1 6812   0.209   1.395   6.251
 1971SOL    HW2 6813   0.242   1.285   6.135
 1972SOL     OW 6814   1.310   0.430   3.917
 1972SOL    HW1 6815   1.248   0.455   3.843
 1972SOL    HW2 6816   1.400   0.407   3.879
 1973SOL     OW 6817   2.195   3.400   0.467
 1973SOL    HW1 6818   2.109   3.396   0.416
 1973SOL    HW2 6819   2.228   3.307   0.483
 1974SOL     OW 6820   6.061   6.815   4.535
 1974SOL    HW1 6821   6.068   6.730   4.481
 1974SOL    HW2 6822   6.068   6.894   4.474
 1975SOL     OW 6823   2.442   0.212   3.030
 1975SOL    HW1 6824   2.536   0.199   3.062
 1975SOL    HW2 6825   2.378   0.180   3.099
 1976SOL     OW 6826   6.579   4.082   6.095
 1976SOL    HW1 6827   6.599   4.109   6.190
 1976SOL    HW2 6828   6.614   3.990   6.078
 1977SOL     OW 6829   3.356   2.171   5.198
 1977SOL    HW1 6830   3.275   2.207   5.152
 1977SOL    HW2 6831   3.384   2.233   5.271
 1978SOL     OW 6832   6.941   2.417   4.914
 1978SOL    HW1 6833   6.867   2.406   4.980
 1978SOL    HW2 6834   0.003   2.456   4.961
 1979SOL     OW 6835   6.698   3.903   2.302
 1979SOL    HW1 6836   6.633   3.967   2.260
 1979SOL    HW2 6837   6.687   3.813   2.259
 1980SOL     OW 6838   2.697   0.649   2.793
 1980SOL    HW1 6839   2.680   0.611   2.702
 1980SOL    HW2 6840   2.790   0.627   2.822
 1981SOL     OW 6841   5.165   3.047   2.115
 1981SOL    HW1 6842   5.233   3.109   2.154
 1981SOL    HW2 6843   5.175   2.956   2.155
 1982SOL     OW 6844   0.208   6.628   5.309
 1982SOL    HW1 6845   0.128   6.571   5.325
 1982SOL    HW2 6846   0.220   6.643   5.211
 1983SOL     OW 6847   0.802   4.782   1.865
 1983SOL    HW1 6848   0.764   4.699   1.825
 1983SOL    HW2 6849   0.893   4.764   1.902
 1984SOL     OW 6850   5.116   0.710   5.060
 1984SOL    HW1 6851   5.030   0.748   5.093
 1984SOL    HW2 6852   5.128   0.731   4.963
 1985SOL     OW 6853   1.594   5.840   1.338
 1985SOL    HW1 6854   1.607   5.938   1.350
 1985SOL    HW2 6855   1.680   5.798   1.310
 1986SOL     OW 6856   6.840   2.110   0.313
 1986SOL    HW1 6857   6.779   2.030   0.314
 1986SOL    HW2 6858   6.787   2.192   0.291
 1987SOL     OW 6859   2.459   3.871   6.731
 1987SOL    HW1 6860   2.434   3.808   6.657
 1987SOL    HW2 6861   2.534   3.831   6.784
 1988SOL     OW 6862   4.409   3.512   0.837
 1988SOL    HW1 6863   4.381   3.607   0.850
 1988SOL    HW2 6864   4.435   3.497   0.741
 1989SOL     OW 6865   1.937   2.268   3.994
 1989SOL    HW1 6866   1.935   2.365   3.971
 1989SOL    HW2 6867   2.018   2.226   3.953
 1990SOL     OW 6868   1.308   0.309   3.267
 1990SOL    HW1 6869   1.400   0.339   3.291
 1990SOL    HW2 6870   1.255   0.386   3.232
 1991SOL     OW 6871   4.556   6.311   3.043
 1991SOL    HW1 6872   4.578   6.281   3.136
 1991SOL    HW2 6873   4.511   6.401   3.048
 1992SOL     OW 6874   2.294   6.081   5.747
 1992SOL    HW1 6875   2.387   6.077   5.711
 1992SOL    HW2 6876   2.293   6.047   5.841
 1993SOL     OW 6877   3.225   3.156   3.640
 1993SOL    HW1 6878   3.131   3.187   3.631
 1993SOL    HW2 6879   3.251   3.103   3.560
 1994SOL     OW 6880   6.452   2.593   2.251
 1994SOL    HW1 6881   6.517   2.654   2.204
 1994SOL    HW2 6882   6.367   2.588   2.199
 1995SOL     OW 6883   3.898   2.100   1.560
 1995SOL    HW1 6884   3.863   2.008   1.540
 1995SOL    HW2 6885   3.894   2.117   1.658
 1996SOL     OW 6886   2.658   4.457   5.271
 1996SOL    HW1 6887   2.603   4.379   5.302
 1996SOL    HW2 6888   2.748   4.453   5.314
 1997SOL     OW 6889   5.793   6.416   3.418
 1997SOL    HW1 6890   5.724   6.417   3.489
 1997SOL    HW2 6891   5.845   6.501   3.420
 1998SOL     OW 6892   3.086   4.766   5.214
 1998SOL    HW1 6893   3.051   4.678   5.182
 1998SOL    HW2 6894   3.087   4.831   5.138
 1999SOL     OW 6895   2.292   1.775   1.866
 1999SOL    HW1 6896   2.305   1.689   1.914
 1999SOL    HW2 6897   2.380   1.819   1.852
 2000SOL     OW 6898   3.243   1.084   5.261
 2000SOL    HW1 6899   3.323   1.028   5.240
 2000SOL    HW2 6900   3.238   1.160   5.197
 2001SOL     OW 6901   2.462   2.994   6.987
 2001SOL    HW1 6902   2.430   3.051   6.911
 2001SOL    HW2 6903   2.513   2.916   6.951
 2002SOL     OW 6904   1.281   4.950   5.010
 2002SOL    HW1 6905   1.248   4.857   5.026
 2002SOL    HW2 6906   1.254   5.008   5.087
 2003SOL     OW 6907   6.615   4.258   3.265
 2003SOL    HW1 6908   6.711   4.243   3.244
 2003SOL    HW2 6909   6.585   4.345   3.225
 2004SOL     OW 6910   3.354   6.962   6.648
 2004SOL    HW1 6911   3.304   0.019   6.691
 2004SOL    HW2 6912   3.343   6.879   6.702
 2005SOL     OW 6913   2.612   6.466   5.004
 2005SOL    HW1 6914   2.629   6.424   5.093
 2005SOL    HW2 6915   2.514   6.480   4.991
 2006SOL     OW 6916   4.882   6.541   3.265
 2006SOL    HW1 6917   4.815   6.611   3.290
 2006SOL    HW2 6918   4.974   6.574   3.286
 2007SOL     OW 6919   6.440   5.484   6.791
 2007SOL    HW1 6920   6.344   5.495   6.765
 2007SOL    HW2 6921   6.458   5.389   6.815
 2008SOL     OW 6922   0.221   6.002   5.666
 2008SOL    HW1 6923   0.167   5.950   5.600
 2008SOL    HW2 6924   0.159   6.060   5.720
 2009SOL     OW 6925   1.248   0.338   6.954
 2009SOL    HW1 6926   1.286   0.402   0.003
 2009SOL    HW2 6927   1.150   0.354   6.944
 2010SOL     OW 6928   2.153   1.028   1.119
 2010SOL    HW1 6929   2.058   1.009   1.094
 2010SOL    HW2 6930   2.162   1.123   1.147
 2011SOL     OW 6931   0.394   1.946   5.020
 2011SOL    HW1 6932   0.480   1.912   4.983
 2011SOL    HW2 6933   0.330   1.870   5.031
 2012SOL     OW 6934   6.780   2.942   1.320
 2012SOL    HW1 6935   6.690   2.899   1.311
 2012SOL    HW2 6936   6.813   2.970   1.230
 2013SOL     OW 6937   4.367   2.210   2.025
 2013SOL    HW1 6938   4.308   2.195   2.104
 2013SOL    HW2 6939   4.457   2.242   2.057
 2014SOL     OW 6940   3.445   5.543   3.406
 2014SOL    HW1 6941   3.381   5.468   3.389
 2014SOL    HW2 6942   3.512   5.515   3.474
 2015SOL     OW 6943   3.320   6.326   0.384
 2015SOL    HW1 6944   3.373   6.406   0.411
 2015SOL    HW2 6945   3.336   6.306   0.288
 2016SOL     OW 6946   6.317   5.777   3.931
 2016SOL    HW1 6947   6.342   5.821   4.017
 2016SOL    HW2 6948   6.269   5.843   3.873
 2017SOL     OW 6949   2.268   5.116   2.289
 2017SOL    HW1 6950   2.179   5.146   2.322
 2017SOL    HW2 6951   2.260   5.026   2.246
 2018SOL     OW 6952   0.611   3.771   6.423
 2018SOL    HW1 6953   0.674   3.704   6.464
 2018SOL    HW2 6954   0.592   3.746   6.328
 2019SOL     OW 6955   5.377   1.022   2.973
 2019SOL    HW1 6956   5.313   1.028   2.897
 2019SOL    HW2 6957   5.357   1.096   3.038
 2020SOL     OW 6958   2.276   5.313   3.310
 2020SOL    HW1 6959   2.294   5.383   3.379
 2020SOL    HW2 6960   2.284   5.222   3.352
 2021SOL     OW 6961   2.407   6.479   1.701
 2021SOL    HW1 6962   2.500   6.467   1.668
 2021SOL    HW2 6963   2.374   6.395   1.743
 2022SOL     OW 6964   3.036   5.342   0.890
 2022SOL    HW1 6965   2.959   5.318   0.949
 2022SOL    HW2 6966   3.010   5.330   0.794
 2023SOL     OW 6967   6.525   2.106   6.091
 2023SOL    HW1 6968   6.426   2.093   6.102
 2023SOL    HW2 6969   6.544   2.202   6.069
 2024SOL     OW 6970   6.312   0.577   3.173
 2024SOL    HW1 6971   6.307   0.659   3.231
 2024SOL    HW2 6972   6.287   0.601   3.079
 2025SOL     OW 6973   6.044   0.735   0.784
 2025SOL    HW1 6974   5.970   0.763   0.723
 2025SOL    HW2 6975   6.111   0.681   0.733
 2026SOL     OW 6976   2.056   1.932   4.959
 2026SOL    HW1 6977   2.147   1.971   4.947
 2026SOL    HW2 6978   1.992   2.005   4.985
 2027SOL     OW 6979   0.090   0.623   2.294
 2027SOL    HW1 6980   0.135   0.542   2.333
 2027SOL    HW2 6981   0.125   0.705   2.339
 2028SOL     OW 6982   3.408   4.329   5.913
 2028SOL    HW1 6983   3.364   4.244   5.883
 2028SOL    HW2 6984   3.476   4.308   5.984
 2029SOL     OW 6985   2.052   0.558   0.759
 2029SOL    HW1 6986   1.989   0.634   0.747
 2029SOL    HW2 6987   2.083   0.525   0.670
 2030SOL     OW 6988   1.649   2.503   3.144
 2030SOL    HW1 6989   1.708   2.549   3.078
 2030SOL    HW2 6990   1.670   2.535   3.236
 2031SOL     OW 6991   6.132   0.262   3.073
 2031SOL    HW1 6992   6.189   0.244   3.153
 2031SOL    HW2 6993   6.184   0.243   2.990
 2032SOL     OW 6994   4.306   6.161   1.931
 2032SOL    HW1 6995   4.241   6.149   1.856
 2032SOL    HW2 6996   4.259   6.195   2.012
 2033SOL     OW 6997   6.796   5.059   6.456
 2033SOL    HW1 6998   6.795   5.157   6.475
 2033SOL    HW2 6999   6.866   5.015   6.512
 2034SOL     OW 7000   2.341   5.688   3.923
 2034SOL    HW1 7001   2.370   5.601   3.884
 2034SOL    HW2 7002   2.371   5.693   4.019
 2035SOL     OW 7003   0.452   2.110   2.371
 2035SOL    HW1 7004   0.398   2.070   2.297
 2035SOL    HW2 7005   0.409   2.089   2.459
 2036SOL     OW 7006   0.772   5.183   0.929
 2036SOL    HW1 7007   0.782   5.267   0.874
 2036SOL    HW2 7008   0.844   5.181   0.999
 2037SOL     OW 7009   0.262   1.771   6.892
 2037SOL    HW1 7010   0.171   1.803   6.917
 2037SOL    HW2 7011   0.279   1.682   6.935
 2038SOL     OW 7012   1.294   0.109   4.909
 2038SOL    HW1 7013   1.336   0.093   4.820
 2038SOL    HW2 7014   1.324   0.039   4.973
 2039SOL     OW 7015   1.166   5.571   1.787
 2039SOL    HW1 7016   1.148   5.545   1.692
 2039SOL    HW2 7017   1.118   5.507   1.848
 2040SOL     OW 7018   3.648   4.022   4.374
 2040SOL    HW1 7019   3.570   3.960   4.376
 2040SOL    HW2 7020   3.698   4.015   4.460
 2041SOL     OW 7021   5.280   2.749   6.370
 2041SOL    HW1 7022   5.357   2.812   6.371
 2041SOL    HW2 7023   5.313   2.655   6.359
 2042SOL     OW 7024   3.163   5.968   0.428
 2042SOL    HW1 7025   3.075   6.003   0.394
 2042SOL    HW2 7026   3.202   5.906   0.361
 2043SOL     OW 7027   4.664   5.282   2.485
 2043SOL    HW1 7028   4.722   5.249   2.558
 2043SOL    HW2 7029   4.707   5.361   2.441
 2044SOL     OW 7030   6.509   0.755   2.079
 2044SOL    HW1 7031   6.562   0.672   2.095
 2044SOL    HW2 7032   6.468   0.752   1.988
 2045SOL     OW 7033   3.163   6.239   6.599
 2045SOL    HW1 7034   3.129   6.262   6.690
 2045SOL    HW2 7035   3.233   6.306   6.573
 2046SOL     OW 7036   6.350   6.874   5.745
 2046SOL    HW1 7037   6.302   6.959   5.721
 2046SOL    HW2 7038   6.448   6.888   5.734
 2047SOL     OW 7039   5.039   2.879   6.996
 2047SOL    HW1 7040   4.964   2.895   6.933
 2047SOL    HW2 7041   5.004   2.873   0.072
 2048SOL     OW 7042   4.755   6.260   5.715
 2048SOL    HW1 7043   4.841   6.306   5.695
 2048SOL    HW2 7044   4.728   6.204   5.637
 2049SOL     OW 7045   4.753   5.890   6.986
 2049SOL    HW1 7046   4.799   5.816   0.017
 2049SOL    HW2 7047   4.802   5.909   6.901
 2050SOL     OW 7048   5.749   0.495   3.611
 2050SOL    HW1 7049   5.698   0.539   3.685
 2050SOL    HW2 7050   5.685   0.445   3.552
 2051SOL     OW 7051   2.631   5.275   1.057
 2051SOL    HW1 7052   2.634   5.185   1.013
 2051SOL    HW2 7053   2.648   5.265   1.155
 2052SOL     OW 7054   1.302   3.038   0.823
 2052SOL    HW1 7055   1.296   2.939   0.836
 2052SOL    HW2 7056   1.225   3.083   0.868
 2053SOL     OW 7057   4.959   1.311   0.750
 2053SOL    HW1 7058   4.951   1.405   0.717
 2053SOL    HW2 7059   5.043   1.302   0.804
 2054SOL     OW 7060   0.654   3.093   1.040
 2054SOL    HW1 7061   0.642   3.003   1.082
 2054SOL    HW2 7062   0.651   3.084   0.940
 2055SOL     OW 7063   6.356   1.690   4.040
 2055SOL    HW1 7064   6.400   1.600   4.040
 2055SOL    HW2 7065   6.422   1.760   4.065
 2056SOL     OW 7066   1.047   6.789   2.265
 2056SOL    HW1 7067   0.991   6.741   2.332
 2056SOL    HW2 7068   0.990   6.819   2.189
 2057SOL     OW 7069   5.627   2.813   4.407
 2057SOL    HW1 7070   5.701   2.876   4.429
 2057SOL    HW2 7071   5.665   2.727   4.373
 2058SOL     OW 7072   0.492   1.284   1.594
 2058SOL    HW1 7073   0.467   1.309   1.500
 2058SOL    HW2 7074   0.451   1.196   1.617
 2059SOL     OW 7075   1.412   0.537   6.503
 2059SOL    HW1 7076   1.389   0.466   6.570
 2059SOL    HW2 7077   1.473   0.498   6.433
 2060SOL     OW 7078   0.129   5.567   2.544
 2060SOL    HW1 7079   0.216   5.527   2.516
 2060SOL    HW2 7080   0.075   5.499   2.593
 2061SOL     OW 7081   1.320   1.060   0.870
 2061SOL    HW1 7082   1.339   0.966   0.842
 2061SOL    HW2 7083   1.402   1.098   0.914
 2062SOL     OW 7084   4.167   0.262   4.074
 2062SOL    HW1 7085   4.245   0.234   4.130
 2062SOL    HW2 7086   4.135   0.352   4.104
 2063SOL     OW 7087   2.314   1.930   0.678
 2063SOL    HW1 7088   2.401   1.891   0.648
 2063SOL    HW2 7089   2.291   2.009   0.622
 2064SOL     OW 7090   1.001   2.006   0.422
 2064SOL    HW1 7091   0.912   2.038   0.456
 2064SOL    HW2 7092   1.007   1.907   0.432
 2065SOL     OW 7093   6.899   3.665   2.653
 2065SOL    HW1 7094   6.891   3.582   2.598
 2065SOL    HW2 7095   6.889   3.642   2.750
 2066SOL     OW 7096   1.340   6.017   3.192
 2066SOL    HW1 7097   1.312   6.109   3.164
 2066SOL    HW2 7098   1.328   6.008   3.291
 2067SOL     OW 7099   0.419   6.879   0.250
 2067SOL    HW1 7100   0.425   6.957   0.188
 2067SOL    HW2 7101   0.386   6.910   0.339
 2068SOL     OW 7102   1.762   1.553   5.160
 2068SOL    HW1 7103   1.737   1.604   5.078
 2068SOL    HW2 7104   1.808   1.614   5.225
 2069SOL     OW 7105   1.047   2.179   1.876
 2069SOL    HW1 7106   1.142   2.150   1.886
 2069SOL    HW2 7107   1.020   2.174   1.780
 2070SOL     OW 7108   0.747   0.970   2.721
 2070SOL    HW1 7109   0.844   0.947   2.715
 2070SOL    HW2 7110   0.731   1.058   2.677
 2071SOL     OW 7111   2.398   6.186   5.385
 2071SOL    HW1 7112   2.365   6.268   5.433
 2071SOL    HW2 7113   2.471   6.212   5.322
 2072SOL     OW 7114   5.087   4.617   2.067
 2072SOL    HW1 7115   5.178   4.632   2.028
 2072SOL    HW2 7116   5.066   4.520   2.065
 2073SOL     OW 7117   3.241   6.307   5.353
 2073SOL    HW1 7118   3.247   6.221   5.303
 2073SOL    HW2 7119   3.283   6.380   5.299
 2074SOL     OW 7120   6.136   2.473   2.779
 2074SOL    HW1 7121   6.162   2.537   2.851
 2074SOL    HW2 7122   6.202   2.398   2.775
 2075SOL     OW 7123   3.399   3.438   6.060
 2075SOL    HW1 7124   3.405   3.522   6.005
 2075SOL    HW2 7125   3.465   3.371   6.025
 2076SOL     OW 7126   5.739   0.257   0.986
 2076SOL    HW1 7127   5.694   0.339   1.020
 2076SOL    HW2 7128   5.711   0.178   1.040
 2077SOL     OW 7129   4.756   1.404   3.856
 2077SOL    HW1 7130   4.806   1.454   3.927
 2077SOL    HW2 7131   4.658   1.422   3.865
 2078SOL     OW 7132   3.924   5.626   5.033
 2078SOL    HW1 7133   3.868   5.675   5.100
 2078SOL    HW2 7134   3.951   5.538   5.071
 2079SOL     OW 7135   6.001   0.384   3.667
 2079SOL    HW1 7136   5.904   0.409   3.661
 2079SOL    HW2 7137   6.032   0.399   3.761
 2080SOL     OW 7138   3.062   1.652   3.580
 2080SOL    HW1 7139   3.071   1.751   3.572
 2080SOL    HW2 7140   3.126   1.618   3.649
 2081SOL     OW 7141   1.190   6.416   4.194
 2081SOL    HW1 7142   1.244   6.336   4.220
 2081SOL    HW2 7143   1.237   6.466   4.121
 2082SOL     OW 7144   4.722   0.413   1.999
 2082SOL    HW1 7145   4.653   0.430   2.069
 2082SOL    HW2 7146   4.763   0.323   2.013
 2083SOL     OW 7147   4.077   4.328   5.870
 2083SOL    HW1 7148   4.072   4.266   5.792
 2083SOL    HW2 7149   3.984   4.355   5.897
 2084SOL     OW 7150   0.014   2.524   2.614
 2084SOL    HW1 7151   6.953   2.509   2.674
 2084SOL    HW2 7152   7.012   2.484   2.524
 2085SOL     OW 7153   5.633   6.480   6.530
 2085SOL    HW1 7154   5.548   6.494   6.480
 2085SOL    HW2 7155   5.615   6.426   6.612
 2086SOL     OW 7156   3.757   5.211   0.183
 2086SOL    HW1 7157   3.725   5.272   0.255
 2086SOL    HW2 7158   3.791   5.126   0.223
 2087SOL     OW 7159   6.020   6.256   3.527
 2087SOL    HW1 7160   5.983   6.274   3.618
 2087SOL    HW2 7161   5.952   6.205   3.473
 2088SOL     OW 7162   2.402   6.884   1.509
 2088SOL    HW1 7163   2.316   6.843   1.476
 2088SOL    HW2 7164   2.418   6.970   1.462
 2089SOL     OW 7165   2.504   0.828   0.247
 2089SOL    HW1 7166   2.599   0.803   0.228
 2089SOL    HW2 7167   2.481   0.911   0.196
 2090SOL     OW 7168   3.198   3.514   3.655
 2090SOL    HW1 7169   3.281   3.567   3.637
 2090SOL    HW2 7170   3.145   3.559   3.726
 2091SOL     OW 7171   2.376   4.684   1.122
 2091SOL    HW1 7172   2.381   4.780   1.091
 2091SOL    HW2 7173   2.462   4.658   1.163
 2092SOL     OW 7174   0.275   5.981   0.997
 2092SOL    HW1 7175   0.193   5.929   1.021
 2092SOL    HW2 7176   0.304   5.956   0.905
 2093SOL     OW 7177   1.143   2.746   1.471
 2093SOL    HW1 7178   1.203   2.699   1.407
 2093SOL    HW2 7179   1.146   2.844   1.454
 2094SOL     OW 7180   6.025   0.656   1.822
 2094SOL    HW1 7181   5.979   0.708   1.751
 2094SOL    HW2 7182   6.035   0.561   1.793
 2095SOL     OW 7183   6.584   5.114   4.880
 2095SOL    HW1 7184   6.492   5.116   4.843
 2095SOL    HW2 7185   6.585   5.057   4.963
 2096SOL     OW 7186   4.991   3.943   3.535
 2096SOL    HW1 7187   4.930   3.865   3.549
 2096SOL    HW2 7188   5.074   3.930   3.589
 2097SOL     OW 7189   6.515   3.694   6.244
 2097SOL    HW1 7190   6.543   3.722   6.336
 2097SOL    HW2 7191   6.415   3.699   6.237
 2098SOL     OW 7192   3.651   0.084   4.113
 2098SOL    HW1 7193   3.620   0.054   4.203
 2098SOL    HW2 7194   3.747   0.112   4.118
 2099SOL     OW 7195   2.724   1.795   3.088
 2099SOL    HW1 7196   2.800   1.860   3.083
 2099SOL    HW2 7197   2.654   1.820   3.020
 2100SOL     OW 7198   3.876   4.884   6.842
 2100SOL    HW1 7199   3.923   4.814   6.895
 2100SOL    HW2 7200   3.784   4.898   6.879
 2101SOL     OW 7201   6.667   0.518   2.076
 2101SOL    HW1 7202   6.738   0.482   2.016
 2101SOL    HW2 7203   6.639   0.448   2.142
 2102SOL     OW 7204   6.884   5.608   1.689
 2102SOL    HW1 7205   6.972   5.560   1.689
 2102SOL    HW2 7206   6.888   5.685   1.752
 2103SOL     OW 7207   3.540   3.336   6.315
 2103SOL    HW1 7208   3.500   3.335   6.224
 2103SOL    HW2 7209   3.472   3.308   6.382
 2104SOL     OW 7210   1.648   4.174   5.793
 2104SOL    HW1 7211   1.574   4.171   5.726
 2104SOL    HW2 7212   1.731   4.206   5.749
 2105SOL     OW 7213   5.587   6.255   1.905
 2105SOL    HW1 7214   5.507   6.289   1.954
 2105SOL    HW2 7215   5.564   6.244   1.808
 2106SOL     OW 7216   5.758   5.754   6.532
 2106SOL    HW1 7217   5.708   5.841   6.526
 2106SOL    HW2 7218   5.856   5.772   6.522
 2107SOL     OW 7219   2.708   5.092   0.605
 2107SOL    HW1 7220   2.614   5.091   0.571
 2107SOL    HW2 7221   2.717   5.162   0.677
 2108SOL     OW 7222   5.903   4.163   6.477
 2108SOL    HW1 7223   5.930   4.249   6.433
 2108SOL    HW2 7224   5.912   4.089   6.411
 2109SOL     OW 7225   5.585   5.599   2.603
 2109SOL    HW1 7226   5.647   5.605   2.681
 2109SOL    HW2 7227   5.516   5.672   2.609
 2110SOL     OW 7228   1.699   5.035   5.334
 2110SOL    HW1 7229   1.788   4.991   5.337
 2110SOL    HW2 7230   1.682   5.070   5.241
 2111SOL     OW 7231   1.887   2.477   0.021
 2111SOL    HW1 7232   1.789   2.488   0.034
 2111SOL    HW2 7233   1.905   2.434   6.950
 2112SOL     OW 7234   5.075   3.593   0.432
 2112SOL    HW1 7235   5.020   3.675   0.452
 2112SOL    HW2 7236   5.121   3.606   0.344
 2113SOL     OW 7237   6.416   1.767   2.730
 2113SOL    HW1 7238   6.503   1.807   2.702
 2113SOL    HW2 7239   6.404   1.679   2.684
 2114SOL     OW 7240   2.021   3.409   6.993
 2114SOL    HW1 7241   2.076   3.485   6.957
 2114SOL    HW2 7242   1.936   3.402   6.941
 2115SOL     OW 7243   3.474   5.774   1.699
 2115SOL    HW1 7244   3.406   5.816   1.639
 2115SOL    HW2 7245   3.564   5.776   1.654
 2116SOL     OW 7246   0.940   3.961   4.040
 2116SOL    HW1 7247   0.847   3.939   4.011
 2116SOL    HW2 7248   0.954   3.931   4.135
 2117SOL     OW 7249   6.944   5.816   6.072
 2117SOL    HW1 7250   6.926   5.906   6.032
 2117SOL    HW2 7251   6.859   5.764   6.076
 2118SOL     OW 7252   0.150   3.546   2.020
 2118SOL    HW1 7253   0.177   3.468   2.077
 2118SOL    HW2 7254   0.106   3.512   1.937
 2119SOL     OW 7255   4.023   6.412   0.703
 2119SOL    HW1 7256   3.928   6.436   0.720
 2119SOL    HW2 7257   4.033   6.312   0.704
 2120SOL     OW 7258   6.333   4.459   2.063
 2120SOL    HW1 7259   6.241   4.438   2.096
 2120SOL    HW2 7260   6.338   4.443   1.965
 2121SOL     OW 7261   0.717   4.183   4.851
 2121SOL    HW1 7262   0.751   4.089   4.844
 2121SOL    HW2 7263   0.638   4.194   4.790
 2122SOL     OW 7264   4.229   5.020   5.561
 2122SOL    HW1 7265   4.298   4.994   5.493
 2122SOL    HW2 7266   4.212   4.943   5.623
 2123SOL     OW 7267   4.576   4.416   3.591
 2123SOL    HW1 7268   4.586   4.351   3.516
 2123SOL    HW2 7269   4.605   4.372   3.677
 2124SOL     OW 7270   2.863   1.861   1.623
 2124SOL    HW1 7271   2.917   1.917   1.561
 2124SOL    HW2 7272   2.766   1.877   1.607
 2125SOL     OW 7273   5.134   6.185   0.718
 2125SOL    HW1 7274   5.158   6.117   0.648
 2125SOL    HW2 7275   5.093   6.265   0.674
 2126SOL     OW 7276   3.095   1.063   1.705
 2126SOL    HW1 7277   3.100   1.148   1.757
 2126SOL    HW2 7278   3.180   1.012   1.716
 2127SOL     OW 7279   5.574   3.108   4.970
 2127SOL    HW1 7280   5.537   3.201   4.962
 2127SOL    HW2 7281   5.506   3.042   4.938
 2128SOL     OW 7282   0.525   4.213   4.509
 2128SOL    HW1 7283   0.429   4.213   4.537
 2128SOL    HW2 7284   0.571   4.133   4.547
 2129SOL     OW 7285   4.437   2.338   5.385
 2129SOL    HW1 7286   4.500   2.314   5.310
 2129SOL    HW2 7287   4.486   2.393   5.453
 2130SOL     OW 7288   5.369   0.898   3.604
 2130SOL    HW1 7289   5.314   0.818   3.580
 2130SOL    HW2 7290   5.321   0.981   3.576
 2131SOL     OW 7291   5.069   1.830   6.672
 2131SOL    HW1 7292   5.097   1.790   6.760
 2131SOL    HW2 7293   4.978   1.869   6.681
 2132SOL     OW 7294   1.737   3.655   1.066
 2132SOL    HW1 7295   1.661   3.654   1.001
 2132SOL    HW2 7296   1.701   3.646   1.159
 2133SOL     OW 7297   2.275   4.334   6.374
 2133SOL    HW1 7298   2.189   4.328   6.322
 2133SOL    HW2 7299   2.283   4.425   6.414
 2134SOL     OW 7300   0.190   6.570   0.740
 2134SOL    HW1 7301   0.211   6.566   0.642
 2134SOL    HW2 7302   0.173   6.478   0.775
 2135SOL     OW 7303   6.579   4.457   5.199
 2135SOL    HW1 7304   6.595   4.428   5.294
 2135SOL    HW2 7305   6.583   4.556   5.193
 2136SOL     OW 7306   1.574   5.367   0.182
 2136SOL    HW1 7307   1.535   5.459   0.177
 2136SOL    HW2 7308   1.556   5.318   0.096
 2137SOL     OW 7309   1.377   6.225   3.678
 2137SOL    HW1 7310   1.405   6.206   3.584
 2137SOL    HW2 7311   1.454   6.213   3.739
 2138SOL     OW 7312   5.277   2.074   2.316
 2138SOL    HW1 7313   5.353   2.044   2.258
 2138SOL    HW2 7314   5.287   2.171   2.336
 2139SOL     OW 7315   2.637   6.729   5.576
 2139SOL    HW1 7316   2.620   6.688   5.486
 2139SOL    HW2 7317   2.720   6.784   5.572
 2140SOL     OW 7318   2.574   1.633   3.818
 2140SOL    HW1 7319   2.633   1.579   3.878
 2140SOL    HW2 7320   2.496   1.577   3.789
 2141SOL     OW 7321   6.622   3.642   3.391
 2141SOL    HW1 7322   6.559   3.568   3.367
 2141SOL    HW2 7323   6.577   3.730   3.372
 2142SOL     OW 7324   1.518   2.435   2.332
 2142SOL    HW1 7325   1.436   2.386   2.304
 2142SOL    HW2 7326   1.596   2.373   2.334
 2143SOL     OW 7327   0.066   5.437   5.917
 2143SOL    HW1 7328   0.115   5.517   5.952
 2143SOL    HW2 7329   0.087   5.424   5.820
 2144SOL     OW 7330   6.256   4.689   2.781
 2144SOL    HW1 7331   6.284   4.615   2.721
 2144SOL    HW2 7332   6.337   4.743   2.808
 2145SOL     OW 7333   4.219   1.356   3.106
 2145SOL    HW1 7334   4.242   1.451   3.087
 2145SOL    HW2 7335   4.263   1.328   3.191
 2146SOL     OW 7336   2.326   2.059   6.251
 2146SOL    HW1 7337   2.380   1.976   6.268
 2146SOL    HW2 7338   2.311   2.070   6.153
 2147SOL     OW 7339   5.914   6.504   4.456
 2147SOL    HW1 7340   5.917   6.475   4.361
 2147SOL    HW2 7341   5.937   6.427   4.516
 2148SOL     OW 7342   0.251   2.348   5.167
 2148SOL    HW1 7343   0.176   2.347   5.233
 2148SOL    HW2 7344   0.332   2.388   5.210
 2149SOL     OW 7345   0.787   6.618   0.089
 2149SOL    HW1 7346   0.871   6.589   0.134
 2149SOL    HW2 7347   0.737   6.680   0.149
 2150SOL     OW 7348   1.576   3.105   0.823
 2150SOL    HW1 7349   1.598   3.198   0.850
 2150SOL    HW2 7350   1.479   3.086   0.843
 2151SOL     OW 7351   0.740   4.617   6.783
 2151SOL    HW1 7352   0.738   4.575   6.692
 2151SOL    HW2 7353   0.832   4.613   6.820
 2152SOL     OW 7354   5.174   6.147   3.709
 2152SOL    HW1 7355   5.187   6.059   3.755
 2152SOL    HW2 7356   5.121   6.208   3.769
 2153SOL     OW 7357   5.242   0.089   3.871
 2153SOL    HW1 7358   5.167   0.114   3.932
 2153SOL    HW2 7359   5.278   7.017   3.898
 2154SOL     OW 7360   2.237   6.569   2.484
 2154SOL    HW1 7361   2.334   6.550   2.498
 2154SOL    HW2 7362   2.184   6.487   2.504
 2155SOL     OW 7363   4.208   1.161   0.850
 2155SOL    HW1 7364   4.154   1.216   0.914
 2155SOL    HW2 7365   4.305   1.181   0.863
 2156SOL     OW 7366   5.871   2.575   4.870
 2156SOL    HW1 7367   5.877   2.481   4.901
 2156SOL    HW2 7368   5.860   2.577   4.771
 2157SOL     OW 7369   3.819   6.204   4.818
 2157SOL    HW1 7370   3.720   6.194   4.806
 2157SOL    HW2 7371   3.861   6.114   4.830
 2158SOL     OW 7372   2.861   6.871   0.600
 2158SOL    HW1 7373   2.936   6.830   0.653
 2158SOL    HW2 7374   2.776   6.823   0.622
 2159SOL     OW 7375   0.587   0.603   5.589
 2159SOL    HW1 7376   0.639   0.682   5.555
 2159SOL    HW2 7377   0.514   0.635   5.649
 2160SOL     OW 7378   5.660   0.017   6.405
 2160SOL    HW1 7379   5.636   6.947   6.364
 2160SOL    HW2 7380   5.758   0.018   6.427
 2161SOL     OW 7381   1.711   3.964   0.658
 2161SOL    HW1 7382   1.750   3.982   0.568
 2161SOL    HW2 7383   1.768   3.897   0.706
 2162SOL     OW 7384   2.064   0.203   1.097
 2162SOL    HW1 7385   2.027   0.200   1.004
 2162SOL    HW2 7386   2.066   0.298   1.129
 2163SOL     OW 7387   1.656   2.955   3.386
 2163SOL    HW1 7388   1.630   3.051   3.374
 2163SOL    HW2 7389   1.585   2.907   3.437
 2164SOL     OW 7390   2.070   3.521   2.262
 2164SOL    HW1 7391   2.099   3.486   2.172
 2164SOL    HW2 7392   2.073   3.447   2.329
 2165SOL     OW 7393   6.334   1.074   4.656
 2165SOL    HW1 7394   6.360   1.078   4.752
 2165SOL    HW2 7395   6.235   1.080   4.648
 2166SOL     OW 7396   6.999   3.163   2.010
 2166SOL    HW1 7397   6.976   3.128   1.919
 2166SOL    HW2 7398   0.026   3.252   2.001
 2167SOL     OW 7399   1.460   2.183   3.022
 2167SOL    HW1 7400   1.509   2.223   3.100
 2167SOL    HW2 7401   1.437   2.088   3.042
 2168SOL     OW 7402   2.067   2.140   3.347
 2168SOL    HW1 7403   2.078   2.097   3.436
 2168SOL    HW2 7404   2.085   2.073   3.275
 2169SOL     OW 7405   6.488   0.207   1.151
 2169SOL    HW1 7406   6.519   0.149   1.075
 2169SOL    HW2 7407   6.401   0.174   1.186
 2170SOL     OW 7408   1.370   3.598   6.499
 2170SOL    HW1 7409   1.453   3.652   6.516
 2170SOL    HW2 7410   1.334   3.619   6.409
 2171SOL     OW 7411   6.891   6.060   0.876
 2171SOL    HW1 7412   6.891   6.143   0.820
 2171SOL    HW2 7413   6.985   6.032   0.894
 2172SOL     OW 7414   2.635   1.965   4.702
 2172SOL    HW1 7415   2.602   1.873   4.720
 2172SOL    HW2 7416   2.590   2.029   4.765
 2173SOL     OW 7417   4.742   0.625   4.848
 2173SOL    HW1 7418   4.820   0.566   4.825
 2173SOL    HW2 7419   4.663   0.568   4.870
 2174SOL     OW 7420   5.517   0.626   6.064
 2174SOL    HW1 7421   5.451   0.683   6.014
 2174SOL    HW2 7422   5.479   0.534   6.075
 2175SOL     OW 7423   3.323   3.792   5.758
 2175SOL    HW1 7424   3.330   3.789   5.658
 2175SOL    HW2 7425   3.234   3.757   5.786
 2176SOL     OW 7426   5.802   2.243   3.279
 2176SOL    HW1 7427   5.853   2.311   3.227
 2176SOL    HW2 7428   5.866   2.182   3.326
 2177SOL     OW 7429   1.125   1.193   4.931
 2177SOL    HW1 7430   1.038   1.239   4.950
 2177SOL    HW2 7431   1.183   1.197   5.012
 2178SOL     OW 7432   1.563   2.588   2.549
 2178SOL    HW1 7433   1.511   2.670   2.525
 2178SOL    HW2 7434   1.570   2.528   2.470
 2179SOL     OW 7435   1.422   3.754   6.902
 2179SOL    HW1 7436   1.482   3.814   6.849
 2179SOL    HW2 7437   1.364   3.701   6.841
 2180SOL     OW 7438   0.544   5.731   2.782
 2180SOL    HW1 7439   0.576   5.717   2.688
 2180SOL    HW2 7440   0.449   5.701   2.789
 2181SOL     OW 7441   4.237   4.835   4.364
 2181SOL    HW1 7442   4.318   4.892   4.360
 2181SOL    HW2 7443   4.262   4.740   4.343
 2182SOL     OW 7444   6.990   6.344   1.125
 2182SOL    HW1 7445   6.949   6.353   1.216
 2182SOL    HW2 7446   6.917   6.343   1.056
 2183SOL     OW 7447   3.502   3.074   6.875
 2183SOL    HW1 7448   3.405   3.096   6.882
 2183SOL    HW2 7449   3.513   2.975   6.881
 2184SOL     OW 7450   6.394   1.407   0.556
 2184SOL    HW1 7451   6.330   1.432   0.628
 2184SOL    HW2 7452   6.444   1.325   0.584
 2185SOL     OW 7453   0.834   1.351   6.033
 2185SOL    HW1 7454   0.819   1.443   6.071
 2185SOL    HW2 7455   0.761   1.290   6.065
 2186SOL     OW 7456   6.713   6.149   5.135
 2186SOL    HW1 7457   6.721   6.221   5.204
 2186SOL    HW2 7458   6.618   6.142   5.105
 2187SOL     OW 7459   5.479   4.617   1.751
 2187SOL    HW1 7460   5.565   4.593   1.795
 2187SOL    HW2 7461   5.497   4.669   1.667
 2188SOL     OW 7462   3.035   1.131   0.699
 2188SOL    HW1 7463   2.982   1.199   0.750
 2188SOL    HW2 7464   3.103   1.090   0.759
 2189SOL     OW 7465   1.902   0.459   2.334
 2189SOL    HW1 7466   1.917   0.524   2.260
 2189SOL    HW2 7467   1.830   0.394   2.307
 2190SOL     OW 7468   6.339   4.722   2.015
 2190SOL    HW1 7469   6.268   4.726   1.946
 2190SOL    HW2 7470   6.347   4.628   2.050
 2191SOL     OW 7471   3.419   0.333   6.944
 2191SOL    HW1 7472   3.431   0.401   6.871
 2191SOL    HW2 7473   3.502   0.277   6.951
 2192SOL     OW 7474   5.135   1.734   1.928
 2192SOL    HW1 7475   5.080   1.772   2.003
 2192SOL    HW2 7476   5.081   1.735   1.844
 2193SOL     OW 7477   2.317   0.381   4.917
 2193SOL    HW1 7478   2.365   0.461   4.953
 2193SOL    HW2 7479   2.219   0.389   4.937
 2194SOL     OW 7480   0.379   4.149   5.691
 2194SOL    HW1 7481   0.329   4.102   5.618
 2194SOL    HW2 7482   0.469   4.106   5.703
 2195SOL     OW 7483   0.132   3.965   4.731
 2195SOL    HW1 7484   0.158   3.899   4.660
 2195SOL    HW2 7485   0.065   4.028   4.693
 2196SOL     OW 7486   3.816   0.345   6.743
 2196SOL    HW1 7487   3.845   0.398   6.823
 2196SOL    HW2 7488   3.889   0.342   6.676
 2197SOL     OW 7489   3.358   5.655   6.565
 2197SOL    HW1 7490   3.422   5.731   6.552
 2197SOL    HW2 7491   3.325   5.656   6.660
 2198SOL     OW 7492   1.245   0.971   6.883
 2198SOL    HW1 7493   1.241   1.062   6.925
 2198SOL    HW2 7494   1.301   0.974   6.801
 2199SOL     OW 7495   4.070   6.698   3.744
 2199SOL    HW1 7496   3.999   6.652   3.689
 2199SOL    HW2 7497   4.030   6.778   3.789
 2200SOL     OW 7498   2.232   2.462   3.990
 2200SOL    HW1 7499   2.266   2.556   3.988
 2200SOL    HW2 7500   2.244   2.423   4.081
 2201SOL     OW 7501   5.537   3.898   5.062
 2201SOL    HW1 7502   5.634   3.882   5.046
 2201SOL    HW2 7503   5.525   3.976   5.123
 2202SOL     OW 7504   3.298   6.649   3.337
 2202SOL    HW1 7505   3.384   6.642   3.387
 2202SOL    HW2 7506   3.300   6.729   3.277
 2203SOL     OW 7507   2.336   5.678   1.287
 2203SOL    HW1 7508   2.266   5.742   1.318
 2203SOL    HW2 7509   2.310   5.585   1.313
 2204SOL     OW 7510   5.709   2.345   1.152
 2204SOL    HW1 7511   5.625   2.373   1.106
 2204SOL    HW2 7512   5.704   2.248   1.175
 2205SOL     OW 7513   5.968   5.928   1.335
 2205SOL    HW1 7514   5.959   5.828   1.331
 2205SOL    HW2 7515   5.907   5.970   1.267
 2206SOL     OW 7516   3.705   2.530   5.743
 2206SOL    HW1 7517   3.803   2.513   5.737
 2206SOL    HW2 7518   3.686   2.625   5.718
 2207SOL     OW 7519   4.596   5.737   2.056
 2207SOL    HW1 7520   4.528   5.684   2.006
 2207SOL    HW2 7521   4.577   5.835   2.046
 2208SOL     OW 7522   7.006   6.632   2.949
 2208SOL    HW1 7523   6.937   6.591   3.008
 2208SOL    HW2 7524   0.078   6.621   2.991
 2209SOL     OW 7525   3.102   5.642   3.295
 2209SOL    HW1 7526   3.117   5.633   3.394
 2209SOL    HW2 7527   3.034   5.713   3.278
 2210SOL     OW 7528   5.280   0.109   1.585
 2210SOL    HW1 7529   5.323   0.125   1.674
 2210SOL    HW2 7530   5.235   0.020   1.586
 2211SOL     OW 7531   1.476   2.120   0.998
 2211SOL    HW1 7532   1.535   2.118   1.079
 2211SOL    HW2 7533   1.381   2.133   1.027
 2212SOL     OW 7534   3.105   5.981   6.257
 2212SOL    HW1 7535   3.063   6.002   6.168
 2212SOL    HW2 7536   3.104   5.882   6.271
 2213SOL     OW 7537   3.641   1.834   4.886
 2213SOL    HW1 7538   3.590   1.795   4.809
 2213SOL    HW2 7539   3.579   1.886   4.944
 2214SOL     OW 7540   4.140   4.143   6.561
 2214SOL    HW1 7541   4.080   4.087   6.618
 2214SOL    HW2 7542   4.200   4.197   6.619
 2215SOL     OW 7543   4.919   6.032   0.610
 2215SOL    HW1 7544   4.843   6.096   0.601
 2215SOL    HW2 7545   4.953   6.007   0.520
 2216SOL     OW 7546   0.516   5.991   0.005
 2216SOL    HW1 7547   0.465   6.055   6.965
 2216SOL    HW2 7548   0.614   6.004   7.007
 2217SOL     OW 7549   4.251   1.392   3.611
 2217SOL    HW1 7550   4.213   1.310   3.653
 2217SOL    HW2 7551   4.343   1.373   3.576
 2218SOL     OW 7552   6.293   5.470   5.341
 2218SOL    HW1 7553   6.387   5.476   5.308
 2218SOL    HW2 7554   6.245   5.555   5.318
 2219SOL     OW 7555   5.220   1.697   0.417
 2219SOL    HW1 7556   5.209   1.690   0.318
 2219SOL    HW2 7557   5.292   1.635   0.448
 2220SOL     OW 7558   6.608   6.202   4.310
 2220SOL    HW1 7559   6.583   6.111   4.279
 2220SOL    HW2 7560   6.623   6.261   4.231
 2221SOL     OW 7561   6.002   0.822   4.418
 2221SOL    HW1 7562   5.961   0.883   4.350
 2221SOL    HW2 7563   6.035   0.739   4.372
 2222SOL     OW 7564   3.463   0.503   3.255
 2222SOL    HW1 7565   3.373   0.464   3.236
 2222SOL    HW2 7566   3.518   0.500   3.171
 2223SOL     OW 7567   0.927   0.114   5.172
 2223SOL    HW1 7568   0.832   0.143   5.163
 2223SOL    HW2 7569   0.963   0.089   5.083
 2224SOL     OW 7570   5.461   4.493   6.803
 2224SOL    HW1 7571   5.399   4.417   6.825
 2224SOL    HW2 7572   5.483   4.490   6.705
 2225SOL     OW 7573   6.559   6.634   1.108
 2225SOL    HW1 7574   6.550   6.733   1.120
 2225SOL    HW2 7575   6.609   6.595   1.184
 2226SOL     OW 7576   2.547   3.719   0.260
 2226SOL    HW1 7577   2.580   3.624   0.256
 2226SOL    HW2 7578   2.554   3.752   0.355
 2227SOL     OW 7579   3.914   2.105   2.122
 2227SOL    HW1 7580   3.818   2.120   2.099
 2227SOL    HW2 7581   3.921   2.026   2.183
 2228SOL     OW 7582   5.551   5.991   6.606
 2228SOL    HW1 7583   5.506   6.063   6.554
 2228SOL    HW2 7584   5.494   5.909   6.606
 2229SOL     OW 7585   3.017   3.362   3.934
 2229SOL    HW1 7586   3.002   3.317   3.846
 2229SOL    HW2 7587   3.032   3.293   4.004
 2230SOL     OW 7588   6.276   0.536   6.388
 2230SOL    HW1 7589   6.311   0.609   6.329
 2230SOL    HW2 7590   6.351   0.501   6.445
 2231SOL     OW 7591   1.623   0.332   6.060
 2231SOL    HW1 7592   1.664   0.405   6.005
 2231SOL    HW2 7593   1.608   0.365   6.153
 2232SOL     OW 7594   1.777   0.927   6.030
 2232SOL    HW1 7595   1.725   0.848   6.061
 2232SOL    HW2 7596   1.875   0.911   6.045
 2233SOL     OW 7597   3.009   4.809   1.134
 2233SOL    HW1 7598   2.942   4.812   1.059
 2233SOL    HW2 7599   3.079   4.879   1.119
 2234SOL     OW 7600   5.218   2.218   1.673
 2234SOL    HW1 7601   5.140   2.280   1.681
 2234SOL    HW2 7602   5.264   2.234   1.586
 2235SOL     OW 7603   0.708   1.982   2.659
 2235SOL    HW1 7604   0.703   2.029   2.571
 2235SOL    HW2 7605   0.753   2.042   2.726
 2236SOL     OW 7606   2.433   5.158   5.410
 2236SOL    HW1 7607   2.343   5.202   5.413
 2236SOL    HW2 7608   2.432   5.085   5.342
 2237SOL     OW 7609   6.641   6.476   6.100
 2237SOL    HW1 7610   6.631   6.534   6.020
 2237SOL    HW2 7611   6.561   6.486   6.159
 2238SOL     OW 7612   6.479   3.253   2.477
 2238SOL    HW1 7613   6.446   3.347   2.468
 2238SOL    HW2 7614   6.520   3.223   2.391
 2239SOL     OW 7615   4.477   0.079   2.756
 2239SOL    HW1 7616   4.534   0.149   2.799
 2239SOL    HW2 7617   4.408   0.047   2.820
 2240SOL     OW 7618   4.814   5.542   2.541
 2240SOL    HW1 7619   4.838   5.527   2.637
 2240SOL    HW2 7620   4.821   5.639   2.520
 2241SOL     OW 7621   0.596   1.706   2.709
 2241SOL    HW1 7622   0.588   1.806   2.710
 2241SOL    HW2 7623   0.617   1.673   2.801
 2242SOL     OW 7624   5.426   2.292   4.551
 2242SOL    HW1 7625   5.326   2.286   4.557
 2242SOL    HW2 7626   5.459   2.363   4.613
 2243SOL     OW 7627   2.398   6.875   0.471
 2243SOL    HW1 7628   2.347   6.865   0.386
 2243SOL    HW2 7629   2.336   6.860   0.549
 2244SOL     OW 7630   2.662   1.715   0.785
 2244SOL    HW1 7631   2.613   1.721   0.872
 2244SOL    HW2 7632   2.603   1.747   0.711
 2245SOL     OW 7633   0.409   0.534   0.163
 2245SOL    HW1 7634   0.408   0.489   0.074
 2245SOL    HW2 7635   0.495   0.514   0.210
 2246SOL     OW 7636   4.317   1.823   5.563
 2246SOL    HW1 7637   4.242   1.830   5.497
 2246SOL    HW2 7638   4.381   1.898   5.549
 2247SOL     OW 7639   2.841   3.325   2.110
 2247SOL    HW1 7640   2.752   3.305   2.152
 2247SOL    HW2 7641   2.827   3.355   2.016
 2248SOL     OW 7642   5.231   3.416   5.167
 2248SOL    HW1 7643   5.260   3.489   5.105
 2248SOL    HW2 7644   5.272   3.329   5.136
 2249SOL     OW 7645   2.266   6.268   3.842
 2249SOL    HW1 7646   2.364   6.275   3.856
 2249SOL    HW2 7647   2.233   6.183   3.884
 2250SOL     OW 7648   4.436   6.234   6.220
 2250SOL    HW1 7649   4.491   6.306   6.179
 2250SOL    HW2 7650   4.350   6.272   6.253
 2251SOL     OW 7651   4.485   6.248   4.884
 2251SOL    HW1 7652   4.404   6.193   4.904
 2251SOL    HW2 7653   4.567   6.198   4.914
 2252SOL     OW 7654   3.661   0.980   2.675
 2252SOL    HW1 7655   3.664   0.913   2.749
 2252SOL    HW2 7656   3.591   1.048   2.696
 2253SOL     OW 7657   0.712   3.611   1.894
 2253SOL    HW1 7658   0.758   3.619   1.806
 2253SOL    HW2 7659   0.620   3.574   1.881
 2254SOL     OW 7660   3.837   3.142   2.520
 2254SOL    HW1 7661   3.849   3.061   2.578
 2254SOL    HW2 7662   3.896   3.135   2.440
 2255SOL     OW 7663   1.402   2.513   6.500
 2255SOL    HW1 7664   1.451   2.444   6.445
 2255SOL    HW2 7665   1.447   2.602   6.489
 2256SOL     OW 7666   5.873   0.468   1.378
 2256SOL    HW1 7667   5.957   0.512   1.412
 2256SOL    HW2 7668   5.870   0.373   1.409
 2257SOL     OW 7669   0.090   0.414   5.536
 2257SOL    HW1 7670   0.089   0.320   5.568
 2257SOL    HW2 7671   0.185   0.447   5.531
 2258SOL     OW 7672   2.362   6.752   4.421
 2258SOL    HW1 7673   2.325   6.668   4.460
 2258SOL    HW2 7674   2.352   6.826   4.488
 2259SOL     OW 7675   5.921   1.421   4.502
 2259SOL    HW1 7676   5.923   1.520   4.488
 2259SOL    HW2 7677   5.892   1.376   4.417
 2260SOL     OW 7678   1.119   3.802   0.885
 2260SOL    HW1 7679   1.039   3.754   0.850
 2260SOL    HW2 7680   1.131   3.888   0.835
 2261SOL     OW 7681   4.951   4.469   6.585
 2261SOL    HW1 7682   4.988   4.445   6.496
 2261SOL    HW2 7683   4.992   4.409   6.655
 2262SOL     OW 7684   6.734   6.730   4.266
 2262SOL    HW1 7685   6.824   6.761   4.296
 2262SOL    HW2 7686   6.669   6.806   4.268
 2263SOL     OW 7687   1.960   4.247   6.512
 2263SOL    HW1 7688   1.935   4.329   6.564
 2263SOL    HW2 7689   1.967   4.169   6.573
 2264SOL     OW 7690   2.210   0.046   5.753
 2264SOL    HW1 7691   2.163   0.134   5.741
 2264SOL    HW2 7692   2.215   0.023   5.850
 2265SOL     OW 7693   6.959   6.209   4.140
 2265SOL    HW1 7694   6.987   6.252   4.054
 2265SOL    HW2 7695   6.906   6.126   4.121
 2266SOL     OW 7696   4.662   2.889   6.565
 2266SOL    HW1 7697   4.574   2.908   6.521
 2266SOL    HW2 7698   4.727   2.856   6.497
 2267SOL     OW 7699   5.818   3.014   4.482
 2267SOL    HW1 7700   5.904   3.059   4.458
 2267SOL    HW2 7701   5.802   3.024   4.580
 2268SOL     OW 7702   1.278   6.495   4.682
 2268SOL    HW1 7703   1.237   6.408   4.652
 2268SOL    HW2 7704   1.205   6.561   4.701
 2269SOL     OW 7705   1.720   2.405   5.322
 2269SOL    HW1 7706   1.719   2.473   5.249
 2269SOL    HW2 7707   1.813   2.373   5.337
 2270SOL     OW 7708   5.002   1.402   6.459
 2270SOL    HW1 7709   5.058   1.370   6.535
 2270SOL    HW2 7710   5.029   1.495   6.435
 2271SOL     OW 7711   4.285   5.719   5.254
 2271SOL    HW1 7712   4.278   5.813   5.288
 2271SOL    HW2 7713   4.233   5.658   5.314
 2272SOL     OW 7714   5.523   1.413   6.214
 2272SOL    HW1 7715   5.512   1.349   6.138
 2272SOL    HW2 7716   5.490   1.503   6.187
 2273SOL     OW 7717   0.981   3.139   3.475
 2273SOL    HW1 7718   1.054   3.104   3.534
 2273SOL    HW2 7719   0.908   3.072   3.469
 2274SOL     OW 7720   1.318   1.048   0.373
 2274SOL    HW1 7721   1.345   1.143   0.385
 2274SOL    HW2 7722   1.272   1.036   0.285
 2275SOL     OW 7723   5.591   3.896   2.874
 2275SOL    HW1 7724   5.610   3.932   2.783
 2275SOL    HW2 7725   5.654   3.937   2.940
 2276SOL     OW 7726   1.682   2.062   1.233
 2276SOL    HW1 7727   1.655   2.001   1.308
 2276SOL    HW2 7728   1.685   2.156   1.267
 2277SOL     OW 7729   4.007   3.062   3.359
 2277SOL    HW1 7730   3.998   2.992   3.288
 2277SOL    HW2 7731   4.033   3.149   3.317
 2278SOL     OW 7732   0.590   2.656   4.039
 2278SOL    HW1 7733   0.556   2.679   3.948
 2278SOL    HW2 7734   0.589   2.738   4.096
 2279SOL     OW 7735   1.288   4.848   6.135
 2279SOL    HW1 7736   1.224   4.771   6.135
 2279SOL    HW2 7737   1.267   4.908   6.213
 2280SOL     OW 7738   4.847   1.977   5.697
 2280SOL    HW1 7739   4.818   2.063   5.740
 2280SOL    HW2 7740   4.766   1.921   5.678
 2281SOL     OW 7741   5.613   6.986   2.416
 2281SOL    HW1 7742   5.542   0.023   2.371
 2281SOL    HW2 7743   5.572   6.933   2.490
 2282SOL     OW 7744   3.660   5.752   6.157
 2282SOL    HW1 7745   3.699   5.725   6.070
 2282SOL    HW2 7746   3.579   5.810   6.141
 2283SOL     OW 7747   0.203   0.804   4.546
 2283SOL    HW1 7748   0.123   0.829   4.493
 2283SOL    HW2 7749   0.272   0.877   4.540
 2284SOL     OW 7750   1.060   3.369   6.411
 2284SOL    HW1 7751   0.981   3.325   6.453
 2284SOL    HW2 7752   1.053   3.362   6.311
 2285SOL     OW 7753   1.904   4.033   6.934
 2285SOL    HW1 7754   1.949   3.954   6.976
 2285SOL    HW2 7755   1.939   4.117   6.976
 2286SOL     OW 7756   4.476   5.092   2.981
 2286SOL    HW1 7757   4.573   5.070   2.972
 2286SOL    HW2 7758   4.458   5.180   2.937
 2287SOL     OW 7759   0.844   1.670   4.334
 2287SOL    HW1 7760   0.900   1.632   4.407
 2287SOL    HW2 7761   0.858   1.617   4.250
 2288SOL     OW 7762   6.740   5.558   2.747
 2288SOL    HW1 7763   6.642   5.575   2.752
 2288SOL    HW2 7764   6.777   5.546   2.839
 2289SOL     OW 7765   0.527   5.466   0.470
 2289SOL    HW1 7766   0.486   5.426   0.388
 2289SOL    HW2 7767   0.480   5.431   0.551
 2290SOL     OW 7768   1.025   5.098   6.761
 2290SOL    HW1 7769   1.058   5.019   6.812
 2290SOL    HW2 7770   0.989   5.167   6.824
 2291SOL     OW 7771   2.340   1.627   6.963
 2291SOL    HW1 7772   2.252   1.581   6.976
 2291SOL    HW2 7773   2.331   1.696   6.891
 2292SOL     OW 7774   2.183   1.154   4.134
 2292SOL    HW1 7775   2.127   1.144   4.052
 2292SOL    HW2 7776   2.214   1.249   4.142
 2293SOL     OW 7777   5.718   3.663   2.580
 2293SOL    HW1 7778   5.763   3.629   2.663
 2293SOL    HW2 7779   5.628   3.697   2.603
 2294SOL     OW 7780   4.313   6.362   0.132
 2294SOL    HW1 7781   4.360   6.360   0.044
 2294SOL    HW2 7782   4.330   6.450   0.176
 2295SOL     OW 7783   0.569   1.773   1.883
 2295SOL    HW1 7784   0.568   1.873   1.890
 2295SOL    HW2 7785   0.603   1.733   1.967
 2296SOL     OW 7786   3.093   6.741   0.677
 2296SOL    HW1 7787   3.027   6.700   0.740
 2296SOL    HW2 7788   3.166   6.675   0.658
 2297SOL     OW 7789   4.365   6.476   6.552
 2297SOL    HW1 7790   4.282   6.422   6.560
 2297SOL    HW2 7791   4.366   6.548   6.620
 2298SOL     OW 7792   4.294   3.045   6.743
 2298SOL    HW1 7793   4.251   2.999   6.665
 2298SOL    HW2 7794   4.365   2.985   6.781
 2299SOL     OW 7795   4.592   6.965   0.027
 2299SOL    HW1 7796   4.679   6.938   0.068
 2299SOL    HW2 7797   4.609   7.016   6.960
 2300SOL     OW 7798   1.041   4.556   1.109
 2300SOL    HW1 7799   1.030   4.532   1.013
 2300SOL    HW2 7800   1.089   4.643   1.117
 2301SOL     OW 7801   4.116   3.605   1.707
 2301SOL    HW1 7802   4.090   3.700   1.725
 2301SOL    HW2 7803   4.053   3.543   1.755
 2302SOL     OW 7804   2.183   5.175   2.663
 2302SOL    HW1 7805   2.172   5.084   2.623
 2302SOL    HW2 7806   2.259   5.173   2.729
 2303SOL     OW 7807   7.017   3.064   5.197
 2303SOL    HW1 7808   6.958   3.144   5.207
 2303SOL    HW2 7809   6.963   2.986   5.165
 2304SOL     OW 7810   2.411   1.090   4.408
 2304SOL    HW1 7811   2.495   1.089   4.354
 2304SOL    HW2 7812   2.393   0.998   4.443
 2305SOL     OW 7813   4.001   4.702   1.812
 2305SOL    HW1 7814   4.074   4.755   1.768
 2305SOL    HW2 7815   4.014   4.605   1.794
 2306SOL     OW 7816   0.149   4.033   0.438
 2306SOL    HW1 7817   0.222   4.092   0.403
 2306SOL    HW2 7818   0.084   4.013   0.364
 2307SOL     OW 7819   0.261   1.806   2.540
 2307SOL    HW1 7820   0.192   1.762   2.597
 2307SOL    HW2 7821   0.338   1.744   2.526
 2308SOL     OW 7822   0.111   6.889   0.267
 2308SOL    HW1 7823   0.140   6.977   0.231
 2308SOL    HW2 7824   0.061   6.839   0.196
 2309SOL     OW 7825   3.388   5.102   5.715
 2309SOL    HW1 7826   3.349   5.183   5.758
 2309SOL    HW2 7827   3.413   5.035   5.786
 2310SOL     OW 7828   5.686   1.494   2.687
 2310SOL    HW1 7829   5.676   1.446   2.774
 2310SOL    HW2 7830   5.720   1.586   2.703
 2311SOL     OW 7831   2.429   0.408   2.625
 2311SOL    HW1 7832   2.525   0.437   2.618
 2311SOL    HW2 7833   2.399   0.372   2.537
 2312SOL     OW 7834   2.551   1.017   2.460
 2312SOL    HW1 7835   2.565   0.921   2.436
 2312SOL    HW2 7836   2.470   1.024   2.519
 2313SOL     OW 7837   5.319   3.454   1.815
 2313SOL    HW1 7838   5.407   3.464   1.770
 2313SOL    HW2 7839   5.280   3.365   1.791
 2314SOL     OW 7840   6.641   6.713   2.961
 2314SOL    HW1 7841   6.651   6.693   3.059
 2314SOL    HW2 7842   6.544   6.712   2.937
 2315SOL     OW 7843   4.389   5.940   4.701
 2315SOL    HW1 7844   4.455   5.988   4.643
 2315SOL    HW2 7845   4.435   5.865   4.748
 2316SOL     OW 7846   2.872   1.705   5.857
 2316SOL    HW1 7847   2.878   1.683   5.760
 2316SOL    HW2 7848   2.898   1.801   5.871
 2317SOL     OW 7849   0.044   5.438   2.978
 2317SOL    HW1 7850   0.076   5.530   3.000
 2317SOL    HW2 7851   6.967   5.427   3.009
 2318SOL     OW 7852   1.163   4.670   5.448
 2318SOL    HW1 7853   1.227   4.716   5.510
 2318SOL    HW2 7854   1.090   4.628   5.502
 2319SOL     OW 7855   1.820   4.794   3.656
 2319SOL    HW1 7856   1.774   4.711   3.625
 2319SOL    HW2 7857   1.848   4.848   3.577
 2320SOL     OW 7858   0.951   1.888   5.077
 2320SOL    HW1 7859   0.993   1.893   5.167
 2320SOL    HW2 7860   1.020   1.862   5.009
 2321SOL     OW 7861   2.151   4.646   5.590
 2321SOL    HW1 7862   2.125   4.677   5.498
 2321SOL    HW2 7863   2.116   4.554   5.605
 2322SOL     OW 7864   1.591   4.006   1.837
 2322SOL    HW1 7865   1.574   3.909   1.824
 2322SOL    HW2 7866   1.569   4.056   1.752
 2323SOL     OW 7867   2.424   5.356   0.807
 2323SOL    HW1 7868   2.348   5.291   0.795
 2323SOL    HW2 7869   2.501   5.326   0.751
 2324SOL     OW 7870   6.512   5.315   2.815
 2324SOL    HW1 7871   6.565   5.294   2.897
 2324SOL    HW2 7872   6.560   5.281   2.735
 2325SOL     OW 7873   6.650   5.579   1.880
 2325SOL    HW1 7874   6.589   5.609   1.807
 2325SOL    HW2 7875   6.596   5.541   1.956
 2326SOL     OW 7876   2.047   0.278   0.396
 2326SOL    HW1 7877   1.954   0.254   0.425
 2326SOL    HW2 7878   2.074   0.364   0.438
 2327SOL     OW 7879   0.222   6.853   2.410
 2327SOL    HW1 7880   0.282   6.814   2.341
 2327SOL    HW2 7881   0.267   6.847   2.500
 2328SOL     OW 7882   2.049   3.441   2.718
 2328SOL    HW1 7883   2.057   3.526   2.770
 2328SOL    HW2 7884   1.959   3.400   2.736
 2329SOL     OW 7885   0.370   5.358   2.809
 2329SOL    HW1 7886   0.347   5.306   2.727
 2329SOL    HW2 7887   0.465   5.341   2.834
 2330SOL     OW 7888   6.381   3.196   0.862
 2330SOL    HW1 7889   6.369   3.098   0.847
 2330SOL    HW2 7890   6.463   3.227   0.813
 2331SOL     OW 7891   4.665   5.929   1.222
 2331SOL    HW1 7892   4.583   5.888   1.182
 2331SOL    HW2 7893   4.662   5.918   1.322
 2332SOL     OW 7894   6.020   6.616   5.843
 2332SOL    HW1 7895   6.000   6.714   5.843
 2332SOL    HW2 7896   6.089   6.596   5.912
 2333SOL     OW 7897   0.445   4.648   2.407
 2333SOL    HW1 7898   0.349   4.622   2.411
 2333SOL    HW2 7899   0.498   4.589   2.468
 2334SOL     OW 7900   2.895   1.689   6.450
 2334SOL    HW1 7901   2.882   1.782   6.485
 2334SOL    HW2 7902   2.953   1.692   6.368
 2335SOL     OW 7903   6.596   1.108   3.303
 2335SOL    HW1 7904   6.671   1.114   3.238
 2335SOL    HW2 7905   6.620   1.159   3.386
 2336SOL     OW 7906   1.685   1.512   2.820
 2336SOL    HW1 7907   1.650   1.460   2.897
 2336SOL    HW2 7908   1.751   1.580   2.852
 2337SOL     OW 7909   4.615   1.776   1.781
 2337SOL    HW1 7910   4.686   1.832   1.823
 2337SOL    HW2 7911   4.525   1.813   1.803
 2338SOL     OW 7912   0.119   3.729   3.371
 2338SOL    HW1 7913   0.181   3.676   3.430
 2338SOL    HW2 7914   0.047   3.668   3.336
 2339SOL     OW 7915   3.294   2.919   2.570
 2339SOL    HW1 7916   3.363   2.944   2.638
 2339SOL    HW2 7917   3.337   2.912   2.480
 2340SOL     OW 7918   2.074   4.571   6.476
 2340SOL    HW1 7919   1.988   4.622   6.481
 2340SOL    HW2 7920   2.105   4.547   6.568
 2341SOL     OW 7921   2.199   4.238   3.974
 2341SOL    HW1 7922   2.208   4.221   3.876
 2341SOL    HW2 7923   2.157   4.327   3.989
 2342SOL     OW 7924   3.255   0.691   3.773
 2342SOL    HW1 7925   3.171   0.729   3.734
 2342SOL    HW2 7926   3.232   0.637   3.854
 2343SOL     OW 7927   1.087   0.286   1.774
 2343SOL    HW1 7928   1.026   0.250   1.845
 2343SOL    HW2 7929   1.127   0.210   1.723
 2344SOL     OW 7930   5.460   3.775   0.495
 2344SOL    HW1 7931   5.409   3.848   0.449
 2344SOL    HW2 7932   5.538   3.814   0.544
 2345SOL     OW 7933   2.960   5.869   4.640
 2345SOL    HW1 7934   2.928   5.864   4.545
 2345SOL    HW2 7935   3.050   5.827   4.646
 2346SOL     OW 7936   4.040   3.606   6.842
 2346SOL    HW1 7937   4.076   3.591   6.750
 2346SOL    HW2 7938   3.960   3.666   6.837
 2347SOL     OW 7939   1.165   1.892   1.437
 2347SOL    HW1 7940   1.242   1.835   1.469
 2347SOL    HW2 7941   1.083   1.867   1.488
 2348SOL     OW 7942   0.070   5.108   2.702
 2348SOL    HW1 7943   0.146   5.074   2.757
 2348SOL    HW2 7944   0.086   5.086   2.606
 2349SOL     OW 7945   0.370   4.358   5.258
 2349SOL    HW1 7946   0.440   4.389   5.322
 2349SOL    HW2 7947   0.367   4.258   5.258
 2350SOL     OW 7948   5.950   3.512   6.838
 2350SOL    HW1 7949   5.890   3.437   6.810
 2350SOL    HW2 7950   6.003   3.543   6.759
 2351SOL     OW 7951   2.721   5.170   2.426
 2351SOL    HW1 7952   2.644   5.125   2.381
 2351SOL    HW2 7953   2.780   5.101   2.468
 2352SOL     OW 7954   0.389   2.576   3.812
 2352SOL    HW1 7955   0.300   2.533   3.794
 2352SOL    HW2 7956   0.458   2.533   3.753
 2353SOL     OW 7957   3.646   5.141   4.912
 2353SOL    HW1 7958   3.618   5.169   5.004
 2353SOL    HW2 7959   3.687   5.218   4.865
 2354SOL     OW 7960   1.927   2.957   3.601
 2354SOL    HW1 7961   1.864   2.889   3.640
 2354SOL    HW2 7962   1.874   3.031   3.559
 2355SOL     OW 7963   2.208   6.136   4.895
 2355SOL    HW1 7964   2.142   6.144   4.820
 2355SOL    HW2 7965   2.229   6.039   4.910
 2356SOL     OW 7966   6.215   2.842   0.088
 2356SOL    HW1 7967   6.209   2.918   0.024
 2356SOL    HW2 7968   6.136   2.843   0.149
 2357SOL     OW 7969   2.534   6.467   2.529
 2357SOL    HW1 7970   2.619   6.414   2.532
 2357SOL    HW2 7971   2.545   6.551   2.583
 2358SOL     OW 7972   3.747   5.003   6.589
 2358SOL    HW1 7973   3.767   5.056   6.507
 2358SOL    HW2 7974   3.659   5.032   6.628
 2359SOL     OW 7975   1.680   0.209   4.645
 2359SOL    HW1 7976   1.676   0.113   4.617
 2359SOL    HW2 7977   1.609   0.261   4.596
 2360SOL     OW 7978   6.606   3.534   0.057
 2360SOL    HW1 7979   6.694   3.501   0.023
 2360SOL    HW2 7980   6.587   3.624   0.020
 2361SOL     OW 7981   3.481   1.058   6.709
 2361SOL    HW1 7982   3.394   1.078   6.754
 2361SOL    HW2 7983   3.475   1.084   6.613
 2362SOL     OW 7984   3.247   5.342   3.390
 2362SOL    HW1 7985   3.275   5.260   3.440
 2362SOL    HW2 7986   3.184   5.395   3.446
 2363SOL     OW 7987   3.906   0.346   4.298
 2363SOL    HW1 7988   3.928   0.399   4.216
 2363SOL    HW2 7989   3.813   0.310   4.289
 2364SOL     OW 7990   0.949   2.439   0.972
 2364SOL    HW1 7991   0.933   2.456   0.874
 2364SOL    HW2 7992   1.039   2.397   0.984
 2365SOL     OW 7993   5.456   2.152   6.362
 2365SOL    HW1 7994   5.406   2.073   6.400
 2365SOL    HW2 7995   5.394   2.206   6.306
 2366SOL     OW 7996   4.341   5.385   0.734
 2366SOL    HW1 7997   4.273   5.349   0.671
 2366SOL    HW2 7998   4.431   5.348   0.711
 2367SOL     OW 7999   2.280   3.365   6.100
 2367SOL    HW1 8000   2.356   3.422   6.069
 2367SOL    HW2 8001   2.312   3.273   6.120
 2368SOL     OW 8002   6.094   6.096   2.305
 2368SOL    HW1 8003   6.031   6.019   2.305
 2368SOL    HW2 8004   6.131   6.109   2.398
 2369SOL     OW 8005   2.356   0.880   3.191
 2369SOL    HW1 8006   2.423   0.902   3.262
 2369SOL    HW2 8007   2.390   0.805   3.135
 2370SOL     OW 8008   6.347   2.176   6.458
 2370SOL    HW1 8009   6.389   2.106   6.515
 2370SOL    HW2 8010   6.318   2.134   6.372
 2371SOL     OW 8011   2.673   6.420   1.628
 2371SOL    HW1 8012   2.708   6.508   1.595
 2371SOL    HW2 8013   2.718   6.396   1.714
 2372SOL     OW 8014   6.394   2.817   2.704
 2372SOL    HW1 8015   6.385   2.826   2.803
 2372SOL    HW2 8016   6.373   2.905   2.661
 2373SOL     OW 8017   2.568   3.518   6.479
 2373SOL    HW1 8018   2.622   3.571   6.414
 2373SOL    HW2 8019   2.494   3.574   6.514
 2374SOL     OW 8020   5.868   3.295   4.792
 2374SOL    HW1 8021   5.811   3.223   4.832
 2374SOL    HW2 8022   5.819   3.382   4.796
 2375SOL     OW 8023   2.777   6.624   5.183
 2375SOL    HW1 8024   2.876   6.610   5.179
 2375SOL    HW2 8025   2.735   6.591   5.099
 2376SOL     OW 8026   6.384   3.354   4.569
 2376SOL    HW1 8027   6.357   3.261   4.593
 2376SOL    HW2 8028   6.466   3.351   4.511
 2377SOL     OW 8029   3.978   3.222   3.890
 2377SOL    HW1 8030   3.887   3.191   3.917
 2377SOL    HW2 8031   3.990   3.207   3.792
 2378SOL     OW 8032   5.483   2.824   6.918
 2378SOL    HW1 8033   5.420   2.776   6.980
 2378SOL    HW2 8034   5.486   2.775   6.831
 2379SOL     OW 8035   6.744   6.607   0.170
 2379SOL    HW1 8036   6.790   6.529   0.128
 2379SOL    HW2 8037   6.646   6.599   0.156
 2380SOL     OW 8038   6.258   1.906   2.161
 2380SOL    HW1 8039   6.239   1.838   2.232
 2380SOL    HW2 8040   6.209   1.991   2.182
 2381SOL     OW 8041   1.692   6.709   3.311
 2381SOL    HW1 8042   1.726   6.621   3.278
 2381SOL    HW2 8043   1.706   6.716   3.410
 2382SOL     OW 8044   1.243   3.495   5.233
 2382SOL    HW1 8045   1.268   3.450   5.146
 2382SOL    HW2 8046   1.283   3.586   5.236
 2383SOL     OW 8047   6.141   6.340   1.630
 2383SOL    HW1 8048   6.092   6.262   1.668
 2383SOL    HW2 8049   6.239   6.321   1.629
 2384SOL     OW 8050   4.723   1.952   1.982
 2384SOL    HW1 8051   4.649   2.007   2.021
 2384SOL    HW2 8052   4.756   1.888   2.051
 2385SOL     OW 8053   0.715   2.282   6.904
 2385SOL    HW1 8054   0.699   2.235   6.818
 2385SOL    HW2 8055   0.738   2.377   6.887
 2386SOL     OW 8056   4.464   5.190   4.123
 2386SOL    HW1 8057   4.538   5.249   4.090
 2386SOL    HW2 8058   4.431   5.133   4.048
 2387SOL     OW 8059   1.934   1.111   3.009
 2387SOL    HW1 8060   1.964   1.167   3.086
 2387SOL    HW2 8061   1.935   1.166   2.926
 2388SOL     OW 8062   6.465   1.455   4.114
 2388SOL    HW1 8063   6.560   1.457   4.144
 2388SOL    HW2 8064   6.419   1.376   4.156
 2389SOL     OW 8065   4.059   6.056   2.419
 2389SOL    HW1 8066   4.028   6.071   2.513
 2389SOL    HW2 8067   4.131   5.987   2.419
 2390SOL     OW 8068   2.984   4.343   1.398
 2390SOL    HW1 8069   2.934   4.326   1.482
 2390SOL    HW2 8070   3.003   4.441   1.389
 2391SOL     OW 8071   3.970   5.029   5.462
 2391SOL    HW1 8072   4.070   5.033   5.468
 2391SOL    HW2 8073   3.943   5.010   5.368
 2392SOL     OW 8074   4.193   1.274   6.350
 2392SOL    HW1 8075   4.096   1.300   6.348
 2392SOL    HW2 8076   4.200   1.174   6.350
 2393SOL     OW 8077   3.920   5.359   5.502
 2393SOL    HW1 8078   3.932   5.336   5.598
 2393SOL    HW2 8079   3.963   5.289   5.445
 2394SOL     OW 8080   6.987   4.779   5.667
 2394SOL    HW1 8081   6.917   4.817   5.728
 2394SOL    HW2 8082   0.027   4.716   5.718
 2395SOL     OW 8083   4.463   0.007   6.181
 2395SOL    HW1 8084   4.454   0.024   6.280
 2395SOL    HW2 8085   4.543   0.056   6.146
 2396SOL     OW 8086   3.856   4.461   0.814
 2396SOL    HW1 8087   3.950   4.479   0.785
 2396SOL    HW2 8088   3.847   4.479   0.912
 2397SOL     OW 8089   0.177   3.980   3.714
 2397SOL    HW1 8090   0.173   4.054   3.648
 2397SOL    HW2 8091   0.085   3.959   3.747
 2398SOL     OW 8092   4.575   4.283   5.742
 2398SOL    HW1 8093   4.636   4.363   5.741
 2398SOL    HW2 8094   4.599   4.224   5.819
 2399SOL     OW 8095   4.258   2.134   1.795
 2399SOL    HW1 8096   4.285   2.176   1.882
 2399SOL    HW2 8097   4.264   2.035   1.803
 2400SOL     OW 8098   2.156   5.069   1.439
 2400SOL    HW1 8099   2.203   5.096   1.355
 2400SOL    HW2 8100   2.223   5.048   1.510
 2401SOL     OW 8101   0.020   6.132   6.322
 2401SOL    HW1 8102   6.955   6.092   6.360
 2401SOL    HW2 8103   0.003   6.165   6.229
 2402SOL     OW 8104   6.675   6.332   4.097
 2402SOL    HW1 8105   6.616   6.265   4.052
 2402SOL    HW2 8106   6.768   6.322   4.064
 2403SOL     OW 8107   0.316   1.065   5.328
 2403SOL    HW1 8108   0.311   1.164   5.315
 2403SOL    HW2 8109   0.237   1.021   5.285
 2404SOL     OW 8110   1.337   0.583   0.402
 2404SOL    HW1 8111   1.263   0.570   0.335
 2404SOL    HW2 8112   1.358   0.681   0.409
 2405SOL     OW 8113   2.964   4.084   1.519
 2405SOL    HW1 8114   2.870   4.049   1.515
 2405SOL    HW2 8115   2.982   4.139   1.438
 2406SOL     OW 8116   4.597   0.876   1.324
 2406SOL    HW1 8117   4.560   0.789   1.355
 2406SOL    HW2 8118   4.668   0.860   1.256
 2407SOL     OW 8119   4.876   0.740   4.044
 2407SOL    HW1 8120   4.891   0.668   3.975
 2407SOL    HW2 8121   4.964   0.769   4.081
 2408SOL     OW 8122   4.579   4.459   2.193
 2408SOL    HW1 8123   4.613   4.543   2.150
 2408SOL    HW2 8124   4.565   4.389   2.122
 2409SOL     OW 8125   0.969   4.219   0.405
 2409SOL    HW1 8126   1.002   4.261   0.321
 2409SOL    HW2 8127   0.902   4.280   0.448
 2410SOL     OW 8128   3.161   3.117   2.469
 2410SOL    HW1 8129   3.190   3.031   2.512
 2410SOL    HW2 8130   3.231   3.186   2.483
 2411SOL     OW 8131   4.042   6.856   4.250
 2411SOL    HW1 8132   4.031   6.783   4.317
 2411SOL    HW2 8133   4.077   6.817   4.164
 2412SOL     OW 8134   4.044   3.683   0.913
 2412SOL    HW1 8135   4.103   3.662   0.991
 2412SOL    HW2 8136   4.034   3.601   0.856
 2413SOL     OW 8137   4.651   6.862   2.733
 2413SOL    HW1 8138   4.612   6.954   2.725
 2413SOL    HW2 8139   4.614   6.817   2.814
 2414SOL     OW 8140   5.753   3.506   4.261
 2414SOL    HW1 8141   5.845   3.505   4.300
 2414SOL    HW2 8142   5.699   3.432   4.302
 2415SOL     OW 8143   4.394   1.309   3.328
 2415SOL    HW1 8144   4.448   1.268   3.402
 2415SOL    HW2 8145   4.436   1.286   3.240
 2416SOL     OW 8146   5.468   1.762   6.449
 2416SOL    HW1 8147   5.515   1.800   6.369
 2416SOL    HW2 8148   5.536   1.736   6.517
 2417SOL     OW 8149   3.432   4.134   4.771
 2417SOL    HW1 8150   3.516   4.161   4.819
 2417SOL    HW2 8151   3.359   4.122   4.838
 2418SOL     OW 8152   3.279   3.396   2.726
 2418SOL    HW1 8153   3.209   3.334   2.762
 2418SOL    HW2 8154   3.290   3.381   2.628
 2419SOL     OW 8155   0.168   0.327   3.031
 2419SOL    HW1 8156   0.217   0.252   2.988
 2419SOL    HW2 8157   0.101   0.292   3.096
 2420SOL     OW 8158   2.015   6.995   1.880
 2420SOL    HW1 8159   2.051   6.903   1.892
 2420SOL    HW2 8160   2.087   0.045   1.897
 2421SOL     OW 8161   3.696   1.552   3.688
 2421SOL    HW1 8162   3.611   1.596   3.660
 2421SOL    HW2 8163   3.764   1.621   3.712
 2422SOL     OW 8164   4.801   1.724   0.907
 2422SOL    HW1 8165   4.825   1.747   1.001
 2422SOL    HW2 8166   4.701   1.714   0.899
 2423SOL     OW 8167   1.812   4.955   2.230
 2423SOL    HW1 8168   1.829   4.891   2.305
 2423SOL    HW2 8169   1.716   4.983   2.230
 2424SOL     OW 8170   6.187   6.998   0.478
 2424SOL    HW1 8171   6.157   0.053   0.540
 2424SOL    HW2 8172   6.260   6.946   0.521
 2425SOL     OW 8173   6.979   6.812   4.357
 2425SOL    HW1 8174   7.017   6.854   4.275
 2425SOL    HW2 8175   7.001   6.714   4.358
 2426SOL     OW 8176   2.625   4.632   4.158
 2426SOL    HW1 8177   2.653   4.698   4.228
 2426SOL    HW2 8178   2.555   4.570   4.197
 2427SOL     OW 8179   6.214   0.078   5.687
 2427SOL    HW1 8180   6.208   0.152   5.754
 2427SOL    HW2 8181   6.228   0.116   5.596
 2428SOL     OW 8182   5.868   0.811   0.607
 2428SOL    HW1 8183   5.890   0.755   0.527
 2428SOL    HW2 8184   5.784   0.862   0.590
 2429SOL     OW 8185   5.184   5.026   2.064
 2429SOL    HW1 8186   5.122   4.948   2.051
 2429SOL    HW2 8187   5.255   5.023   1.994
 2430SOL     OW 8188   5.302   7.009   2.856
 2430SOL    HW1 8189   5.392   6.985   2.819
 2430SOL    HW2 8190   5.251   0.042   2.787
 2431SOL     OW 8191   4.410   0.004   2.206
 2431SOL    HW1 8192   4.480   0.023   2.274
 2431SOL    HW2 8193   4.328   6.987   2.251
 2432SOL     OW 8194   2.378   5.924   2.667
 2432SOL    HW1 8195   2.357   5.849   2.604
 2432SOL    HW2 8196   2.449   5.894   2.731
 2433SOL     OW 8197   4.741   0.335   0.940
 2433SOL    HW1 8198   4.770   0.402   1.008
 2433SOL    HW2 8199   4.759   0.243   0.973
 2434SOL     OW 8200   3.778   3.075   4.597
 2434SOL    HW1 8201   3.873   3.046   4.602
 2434SOL    HW2 8202   3.767   3.144   4.525
 2435SOL     OW 8203   6.258   6.046   6.110
 2435SOL    HW1 8204   6.179   6.065   6.168
 2435SOL    HW2 8205   6.257   6.108   6.031
 2436SOL     OW 8206   2.822   4.910   0.927
 2436SOL    HW1 8207   2.860   4.915   0.835
 2436SOL    HW2 8208   2.724   4.930   0.925
 2437SOL     OW 8209   6.496   0.855   5.781
 2437SOL    HW1 8210   6.550   0.929   5.739
 2437SOL    HW2 8211   6.450   0.803   5.709
 2438SOL     OW 8212   2.910   3.353   0.883
 2438SOL    HW1 8213   2.941   3.333   0.976
 2438SOL    HW2 8214   2.985   3.395   0.831
 2439SOL     OW 8215   5.913   4.461   6.004
 2439SOL    HW1 8216   5.886   4.553   5.975
 2439SOL    HW2 8217   6.012   4.456   6.010
 2440SOL     OW 8218   5.885   4.752   5.594
 2440SOL    HW1 8219   5.898   4.699   5.510
 2440SOL    HW2 8220   5.912   4.847   5.577
 2441SOL     OW 8221   6.280   2.351   0.928
 2441SOL    HW1 8222   6.314   2.336   0.835
 2441SOL    HW2 8223   6.356   2.347   0.993
 2442SOL     OW 8224   0.360   2.085   5.266
 2442SOL    HW1 8225   0.390   2.016   5.200
 2442SOL    HW2 8226   0.284   2.137   5.228
 2443SOL     OW 8227   2.772   4.830   5.203
 2443SOL    HW1 8228   2.821   4.761   5.150
 2443SOL    HW2 8229   2.831   4.909   5.218
 2444SOL     OW 8230   3.399   2.895   5.903
 2444SOL    HW1 8231   3.454   2.930   5.979
 2444SOL    HW2 8232   3.388   2.796   5.913
 2445SOL     OW 8233   1.007   0.174   0.704
 2445SOL    HW1 8234   1.062   0.095   0.731
 2445SOL    HW2 8235   0.964   0.215   0.784
 2446SOL     OW 8236   5.103   2.986   6.009
 2446SOL    HW1 8237   5.140   2.913   6.065
 2446SOL    HW2 8238   5.174   3.022   5.949
 2447SOL     OW 8239   0.671   3.125   6.510
 2447SOL    HW1 8240   0.715   3.125   6.421
 2447SOL    HW2 8241   0.675   3.217   6.550
 2448SOL     OW 8242   0.274   6.769   4.282
 2448SOL    HW1 8243   0.260   6.861   4.246
 2448SOL    HW2 8244   0.314   6.711   4.211
 2449SOL     OW 8245   0.836   3.249   4.914
 2449SOL    HW1 8246   0.885   3.167   4.887
 2449SOL    HW2 8247   0.886   3.296   4.987
 2450SOL     OW 8248   1.935   2.993   1.441
 2450SOL    HW1 8249   1.966   3.077   1.486
 2450SOL    HW2 8250   1.845   3.008   1.401
 2451SOL     OW 8251   2.139   6.138   4.302
 2451SOL    HW1 8252   2.226   6.101   4.268
 2451SOL    HW2 8253   2.089   6.180   4.227
 2452SOL     OW 8254   2.655   2.379   4.560
 2452SOL    HW1 8255   2.730   2.418   4.505
 2452SOL    HW2 8256   2.644   2.283   4.538
 2453SOL     OW 8257   0.861   3.677   0.835
 2453SOL    HW1 8258   0.789   3.746   0.836
 2453SOL    HW2 8259   0.859   3.626   0.921
 2454SOL     OW 8260   1.752   0.039   1.624
 2454SOL    HW1 8261   1.774   0.062   1.719
 2454SOL    HW2 8262   1.804   6.976   1.597
 2455SOL     OW 8263   5.564   3.408   1.181
 2455SOL    HW1 8264   5.660   3.428   1.202
 2455SOL    HW2 8265   5.552   3.310   1.167
 2456SOL     OW 8266   3.110   6.627   1.059
 2456SOL    HW1 8267   3.202   6.589   1.070
 2456SOL    HW2 8268   3.064   6.579   0.984
 2457SOL     OW 8269   5.702   6.051   1.346
 2457SOL    HW1 8270   5.777   6.110   1.316
 2457SOL    HW2 8271   5.687   5.979   1.278
 2458SOL     OW 8272   0.310   6.341   1.786
 2458SOL    HW1 8273   0.348   6.403   1.854
 2458SOL    HW2 8274   0.384   6.296   1.736
 2459SOL     OW 8275   1.388   1.312   0.357
 2459SOL    HW1 8276   1.412   1.352   0.269
 2459SOL    HW2 8277   1.367   1.385   0.422
 2460SOL     OW 8278   2.773   4.666   1.480
 2460SOL    HW1 8279   2.844   4.631   1.542
 2460SOL    HW2 8280   2.772   4.766   1.484
 2461SOL     OW 8281   4.773   0.863   2.568
 2461SOL    HW1 8282   4.861   0.816   2.561
 2461SOL    HW2 8283   4.777   0.948   2.516
 2462SOL     OW 8284   2.852   3.921   6.166
 2462SOL    HW1 8285   2.833   4.009   6.209
 2462SOL    HW2 8286   2.946   3.920   6.131
 2463SOL     OW 8287   0.770   2.671   5.187
 2463SOL    HW1 8288   0.759   2.604   5.114
 2463SOL    HW2 8289   0.867   2.696   5.195
 2464SOL     OW 8290   1.068   3.239   0.500
 2464SOL    HW1 8291   1.080   3.334   0.468
 2464SOL    HW2 8292   1.006   3.191   0.438
 2465SOL     OW 8293   6.161   5.064   2.431
 2465SOL    HW1 8294   6.203   5.047   2.342
 2465SOL    HW2 8295   6.218   5.126   2.484
 2466SOL     OW 8296   3.718   1.337   1.768
 2466SOL    HW1 8297   3.723   1.428   1.726
 2466SOL    HW2 8298   3.770   1.337   1.853
 2467SOL     OW 8299   0.858   0.972   4.594
 2467SOL    HW1 8300   0.804   0.971   4.678
 2467SOL    HW2 8301   0.807   1.018   4.522
 2468SOL     OW 8302   6.301   4.687   6.780
 2468SOL    HW1 8303   6.316   4.661   6.685
 2468SOL    HW2 8304   6.235   4.762   6.784
 2469SOL     OW 8305   2.863   2.395   5.638
 2469SOL    HW1 8306   2.941   2.381   5.577
 2469SOL    HW2 8307   2.783   2.349   5.600
 2470SOL     OW 8308   5.529   2.946   0.835
 2470SOL    HW1 8309   5.589   2.900   0.901
 2470SOL    HW2 8310   5.491   3.029   0.877
 2471SOL     OW 8311   0.260   1.262   2.592
 2471SOL    HW1 8312   0.184   1.222   2.642
 2471SOL    HW2 8313   0.280   1.206   2.511
 2472SOL     OW 8314   5.973   1.189   3.689
 2472SOL    HW1 8315   6.030   1.233   3.620
 2472SOL    HW2 8316   5.921   1.114   3.648
 2473SOL     OW 8317   0.750   6.014   5.549
 2473SOL    HW1 8318   0.790   5.926   5.576
 2473SOL    HW2 8319   0.650   6.009   5.557
 2474SOL     OW 8320   6.340   6.628   4.392
 2474SOL    HW1 8321   6.380   6.701   4.447
 2474SOL    HW2 8322   6.408   6.597   4.324
 2475SOL     OW 8323   4.152   1.955   6.260
 2475SOL    HW1 8324   4.134   1.933   6.164
 2475SOL    HW2 8325   4.186   2.049   6.266
 2476SOL     OW 8326   0.546   1.266   3.298
 2476SOL    HW1 8327   0.507   1.187   3.346
 2476SOL    HW2 8328   0.639   1.244   3.267
 2477SOL     OW 8329   4.653   4.779   2.454
 2477SOL    HW1 8330   4.715   4.701   2.463
 2477SOL    HW2 8331   4.647   4.826   2.542
 2478SOL     OW 8332   0.361   0.165   2.277
 2478SOL    HW1 8333   0.338   0.075   2.315
 2478SOL    HW2 8334   0.285   0.198   2.221
 2479SOL     OW 8335   0.941   2.787   6.879
 2479SOL    HW1 8336   0.930   2.688   6.871
 2479SOL    HW2 8337   0.968   2.824   6.790
 2480SOL     OW 8338   6.380   5.356   1.591
 2480SOL    HW1 8339   6.388   5.437   1.650
 2480SOL    HW2 8340   6.469   5.333   1.553
 2481SOL     OW 8341   3.894   5.279   2.514
 2481SOL    HW1 8342   3.907   5.230   2.428
 2481SOL    HW2 8343   3.829   5.354   2.500
 2482SOL     OW 8344   4.530   2.358   4.890
 2482SOL    HW1 8345   4.439   2.322   4.869
 2482SOL    HW2 8346   4.527   2.458   4.893
 2483SOL     OW 8347   0.718   2.968   6.977
 2483SOL    HW1 8348   0.664   2.924   6.906
 2483SOL    HW2 8349   0.741   2.900   0.030
 2484SOL     OW 8350   3.600   4.101   5.715
 2484SOL    HW1 8351   3.572   4.127   5.623
 2484SOL    HW2 8352   3.518   4.086   5.771
 2485SOL     OW 8353   0.843   6.073   6.984
 2485SOL    HW1 8354   0.908   6.019   0.020
 2485SOL    HW2 8355   0.859   6.171   7.001
 2486SOL     OW 8356   0.518   5.515   3.960
 2486SOL    HW1 8357   0.461   5.436   3.939
 2486SOL    HW2 8358   0.578   5.493   4.037
 2487SOL     OW 8359   3.260   1.534   1.493
 2487SOL    HW1 8360   3.319   1.470   1.444
 2487SOL    HW2 8361   3.207   1.588   1.428
 2488SOL     OW 8362   3.432   6.036   6.367
 2488SOL    HW1 8363   3.442   6.055   6.465
 2488SOL    HW2 8364   3.337   6.008   6.348
 2489SOL     OW 8365   0.000   6.082   4.647
 2489SOL    HW1 8366   7.013   5.997   4.595
 2489SOL    HW2 8367   6.940   6.140   4.625
 2490SOL     OW 8368   5.745   3.194   0.986
 2490SOL    HW1 8369   5.779   3.227   0.898
 2490SOL    HW2 8370   5.646   3.180   0.981
 2491SOL     OW 8371   6.888   4.172   3.232
 2491SOL    HW1 8372   6.956   4.212   3.171
 2491SOL    HW2 8373   6.905   4.074   3.240
 2492SOL     OW 8374   4.242   1.605   6.165
 2492SOL    HW1 8375   4.257   1.616   6.263
 2492SOL    HW2 8376   4.145   1.596   6.146
 2493SOL     OW 8377   6.538   0.506   4.993
 2493SOL    HW1 8378   6.575   0.432   4.937
 2493SOL    HW2 8379   6.455   0.475   5.040
 2494SOL     OW 8380   5.018   4.903   1.232
 2494SOL    HW1 8381   4.973   4.989   1.206
 2494SOL    HW2 8382   4.972   4.826   1.188
 2495SOL     OW 8383   0.069   1.001   2.445
 2495SOL    HW1 8384   7.010   0.943   2.418
 2495SOL    HW2 8385   0.049   1.046   2.532
 2496SOL     OW 8386   2.078   4.999   1.011
 2496SOL    HW1 8387   2.002   5.047   1.055
 2496SOL    HW2 8388   2.043   4.917   0.965
 2497SOL     OW 8389   5.401   0.563   6.378
 2497SOL    HW1 8390   5.486   0.612   6.359
 2497SOL    HW2 8391   5.324   0.626   6.369
 2498SOL     OW 8392   0.960   3.523   4.577
 2498SOL    HW1 8393   0.915   3.445   4.620
 2498SOL    HW2 8394   1.034   3.555   4.637
 2499SOL     OW 8395   5.559   1.544   0.261
 2499SOL    HW1 8396   5.573   1.445   0.257
 2499SOL    HW2 8397   5.535   1.571   0.354
 2500SOL     OW 8398   4.657   3.674   6.155
 2500SOL    HW1 8399   4.698   3.582   6.161
 2500SOL    HW2 8400   4.599   3.680   6.074
 2501SOL     OW 8401   6.882   4.891   0.809
 2501SOL    HW1 8402   6.936   4.829   0.866
 2501SOL    HW2 8403   6.912   4.884   0.714
 2502SOL     OW 8404   0.535   0.594   3.729
 2502SOL    HW1 8405   0.538   0.496   3.712
 2502SOL    HW2 8406   0.457   0.634   3.682
 2503SOL     OW 8407   5.659   6.362   4.396
 2503SOL    HW1 8408   5.702   6.342   4.483
 2503SOL    HW2 8409   5.567   6.399   4.412
 2504SOL     OW 8410   2.483   4.460   3.360
 2504SOL    HW1 8411   2.471   4.422   3.268
 2504SOL    HW2 8412   2.533   4.546   3.354
 2505SOL     OW 8413   4.792   4.078   4.728
 2505SOL    HW1 8414   4.871   4.050   4.674
 2505SOL    HW2 8415   4.799   4.038   4.820
 2506SOL     OW 8416   0.511   0.783   0.532
 2506SOL    HW1 8417   0.562   0.713   0.582
 2506SOL    HW2 8418   0.555   0.872   0.543
 2507SOL     OW 8419   6.305   6.182   6.735
 2507SOL    HW1 8420   6.353   6.137   6.659
 2507SOL    HW2 8421   6.352   6.162   6.820
 2508SOL     OW 8422   1.595   1.897   1.912
 2508SOL    HW1 8423   1.535   1.973   1.885
 2508SOL    HW2 8424   1.628   1.912   2.005
 2509SOL     OW 8425   5.930   0.784   3.641
 2509SOL    HW1 8426   5.897   0.699   3.598
 2509SOL    HW2 8427   5.990   0.832   3.577
 2510SOL     OW 8428   4.060   5.968   2.144
 2510SOL    HW1 8429   4.054   5.970   2.243
 2510SOL    HW2 8430   4.095   5.879   2.114
 2511SOL     OW 8431   0.447   6.250   3.518
 2511SOL    HW1 8432   0.535   6.203   3.514
 2511SOL    HW2 8433   0.421   6.263   3.614
 2512SOL     OW 8434   6.069   3.618   4.134
 2512SOL    HW1 8435   6.015   3.546   4.090
 2512SOL    HW2 8436   6.066   3.606   4.233
 2513SOL     OW 8437   0.104   4.804   0.691
 2513SOL    HW1 8438   0.195   4.804   0.648
 2513SOL    HW2 8439   0.105   4.743   0.770
 2514SOL     OW 8440   0.023   2.152   3.642
 2514SOL    HW1 8441   0.028   2.146   3.741
 2514SOL    HW2 8442   6.957   2.109   3.609
 2515SOL     OW 8443   1.020   4.674   6.856
 2515SOL    HW1 8444   0.985   4.721   6.937
 2515SOL    HW2 8445   1.070   4.739   6.798
 2516SOL     OW 8446   5.262   6.840   4.013
 2516SOL    HW1 8447   5.195   6.780   3.967
 2516SOL    HW2 8448   5.270   6.813   4.109
 2517SOL     OW 8449   2.130   5.464   1.024
 2517SOL    HW1 8450   2.085   5.553   1.013
 2517SOL    HW2 8451   2.101   5.422   1.109
 2518SOL     OW 8452   2.346   2.328   0.169
 2518SOL    HW1 8453   2.414   2.394   0.201
 2518SOL    HW2 8454   2.367   2.301   0.075
 2519SOL     OW 8455   5.789   4.178   4.931
 2519SOL    HW1 8456   5.738   4.218   4.855
 2519SOL    HW2 8457   5.733   4.182   5.014
 2520SOL     OW 8458   3.587   5.338   1.145
 2520SOL    HW1 8459   3.606   5.260   1.085
 2520SOL    HW2 8460   3.490   5.340   1.167
 2521SOL     OW 8461   5.989   6.290   6.002
 2521SOL    HW1 8462   5.960   6.357   5.933
 2521SOL    HW2 8463   6.057   6.331   6.062
 2522SOL     OW 8464   2.390   4.927   5.191
 2522SOL    HW1 8465   2.413   4.832   5.171
 2522SOL    HW2 8466   2.360   4.973   5.108
 2523SOL     OW 8467   0.730   1.759   5.764
 2523SOL    HW1 8468   0.778   1.787   5.846
 2523SOL    HW2 8469   0.734   1.660   5.755
 2524SOL     OW 8470   1.675   6.986   4.519
 2524SOL    HW1 8471   1.714   6.904   4.561
 2524SOL    HW2 8472   1.580   6.968   4.493
 2525SOL     OW 8473   2.651   4.660   2.157
 2525SOL    HW1 8474   2.692   4.623   2.074
 2525SOL    HW2 8475   2.554   4.634   2.159
 2526SOL     OW 8476   1.465   2.709   4.453
 2526SOL    HW1 8477   1.380   2.754   4.426
 2526SOL    HW2 8478   1.487   2.637   4.387
 2527SOL     OW 8479   6.966   6.619   4.095
 2527SOL    HW1 8480   6.867   6.607   4.090
 2527SOL    HW2 8481   6.990   6.713   4.071
 2528SOL     OW 8482   5.267   5.558   0.665
 2528SOL    HW1 8483   5.169   5.544   0.655
 2528SOL    HW2 8484   5.283   5.648   0.706
 2529SOL     OW 8485   5.151   4.589   5.441
 2529SOL    HW1 8486   5.186   4.497   5.458
 2529SOL    HW2 8487   5.161   4.610   5.343
 2530SOL     OW 8488   0.713   6.182   3.169
 2530SOL    HW1 8489   0.685   6.205   3.262
 2530SOL    HW2 8490   0.789   6.117   3.173
 2531SOL     OW 8491   5.443   2.028   6.788
 2531SOL    HW1 8492   5.381   2.025   6.710
 2531SOL    HW2 8493   5.510   2.102   6.776
 2532SOL     OW 8494   0.927   5.394   5.634
 2532SOL    HW1 8495   0.919   5.364   5.729
 2532SOL    HW2 8496   0.906   5.318   5.572
 2533SOL     OW 8497   6.005   0.559   5.214
 2533SOL    HW1 8498   6.087   0.502   5.221
 2533SOL    HW2 8499   5.924   0.502   5.226
 2534SOL     OW 8500   6.660   1.257   3.519
 2534SOL    HW1 8501   6.652   1.248   3.618
 2534SOL    HW2 8502   6.757   1.266   3.494
 2535SOL     OW 8503   3.032   1.036   2.013
 2535SOL    HW1 8504   3.127   1.067   2.023
 2535SOL    HW2 8505   2.991   1.078   1.932
 2536SOL     OW 8506   0.380   0.446   4.013
 2536SOL    HW1 8507   0.353   0.538   4.042
 2536SOL    HW2 8508   0.470   0.424   4.051
 2537SOL     OW 8509   2.967   6.180   2.385
 2537SOL    HW1 8510   3.003   6.254   2.328
 2537SOL    HW2 8511   2.943   6.102   2.326
 2538SOL     OW 8512   0.462   5.074   5.151
 2538SOL    HW1 8513   0.464   5.174   5.144
 2538SOL    HW2 8514   0.555   5.040   5.169
 2539SOL     OW 8515   2.060   0.273   5.655
 2539SOL    HW1 8516   2.089   0.355   5.606
 2539SOL    HW2 8517   1.975   0.239   5.615
 2540SOL     OW 8518   4.816   2.412   2.439
 2540SOL    HW1 8519   4.793   2.327   2.392
 2540SOL    HW2 8520   4.815   2.397   2.538
 2541SOL     OW 8521   1.470   1.791   6.912
 2541SOL    HW1 8522   1.410   1.783   6.991
 2541SOL    HW2 8523   1.544   1.723   6.919
 2542SOL     OW 8524   3.811   1.580   3.340
 2542SOL    HW1 8525   3.779   1.513   3.273
 2542SOL    HW2 8526   3.740   1.650   3.354
 2543SOL     OW 8527   6.049   0.370   5.635
 2543SOL    HW1 8528   5.960   0.328   5.650
 2543SOL    HW2 8529   6.096   0.324   5.560
 2544SOL     OW 8530   0.071   6.855   0.950
 2544SOL    HW1 8531   0.134   6.933   0.954
 2544SOL    HW2 8532   0.120   6.771   0.975
 2545SOL     OW 8533   6.940   1.517   6.942
 2545SOL    HW1 8534   6.960   1.611   6.969
 2545SOL    HW2 8535   6.927   1.461   0.006
 2546SOL     OW 8536   6.339   3.765   2.520
 2546SOL    HW1 8537   6.292   3.761   2.432
 2546SOL    HW2 8538   6.427   3.719   2.513
 2547SOL     OW 8539   5.579   3.513   0.807
 2547SOL    HW1 8540   5.594   3.483   0.712
 2547SOL    HW2 8541   5.620   3.447   0.870
 2548SOL     OW 8542   6.709   0.141   5.229
 2548SOL    HW1 8543   6.697   0.102   5.138
 2548SOL    HW2 8544   6.749   0.072   5.290
 2549SOL     OW 8545   3.093   5.349   0.556
 2549SOL    HW1 8546   3.186   5.318   0.537
 2549SOL    HW2 8547   3.028   5.280   0.523
 2550SOL     OW 8548   3.644   0.278   1.080
 2550SOL    HW1 8549   3.577   0.273   1.155
 2550SOL    HW2 8550   3.678   0.186   1.061
 2551SOL     OW 8551   3.673   4.456   1.350
 2551SOL    HW1 8552   3.766   4.491   1.362
 2551SOL    HW2 8553   3.618   4.524   1.302
 2552SOL     OW 8554   2.534   4.547   1.557
 2552SOL    HW1 8555   2.617   4.596   1.533
 2552SOL    HW2 8556   2.520   4.471   1.494
 2553SOL     OW 8557   4.693   1.339   0.138
 2553SOL    HW1 8558   4.734   1.374   0.222
 2553SOL    HW2 8559   4.611   1.392   0.117
 2554SOL     OW 8560   0.697   5.612   0.757
 2554SOL    HW1 8561   0.639   5.587   0.680
 2554SOL    HW2 8562   0.701   5.712   0.765
 2555SOL     OW 8563   0.903   6.381   5.385
 2555SOL    HW1 8564   0.883   6.458   5.324
 2555SOL    HW2 8565   0.950   6.414   5.467
 2556SOL     OW 8566   5.363   6.917   0.604
 2556SOL    HW1 8567   5.399   6.973   0.678
 2556SOL    HW2 8568   5.265   6.903   0.617
 2557SOL     OW 8569   2.900   1.475   0.191
 2557SOL    HW1 8570   2.949   1.394   0.157
 2557SOL    HW2 8571   2.945   1.557   0.157
 2558SOL     OW 8572   5.260   1.995   1.394
 2558SOL    HW1 8573   5.289   2.090   1.410
 2558SOL    HW2 8574   5.258   1.946   1.482
 2559SOL     OW 8575   6.087   5.134   3.514
 2559SOL    HW1 8576   6.001   5.088   3.539
 2559SOL    HW2 8577   6.067   5.222   3.471
 2560SOL     OW 8578   4.573   2.456   1.824
 2560SOL    HW1 8579   4.483   2.457   1.781
 2560SOL    HW2 8580   4.570   2.400   1.907
 2561SOL     OW 8581   3.363   0.026   4.807
 2561SOL    HW1 8582   3.299   0.095   4.840
 2561SOL    HW2 8583   3.320   6.987   4.738
 2562SOL     OW 8584   1.558   6.722   4.905
 2562SOL    HW1 8585   1.650   6.735   4.940
 2562SOL    HW2 8586   1.524   6.632   4.931
 2563SOL     OW 8587   4.234   2.237   6.311
 2563SOL    HW1 8588   4.135   2.240   6.299
 2563SOL    HW2 8589   4.256   2.211   6.405
 2564SOL     OW 8590   1.529   1.400   0.687
 2564SOL    HW1 8591   1.626   1.375   0.677
 2564SOL    HW2 8592   1.485   1.336   0.750
 2565SOL     OW 8593   0.330   0.677   1.219
 2565SOL    HW1 8594   0.270   0.647   1.145
 2565SOL    HW2 8595   0.423   0.645   1.201
 2566SOL     OW 8596   3.065   1.513   1.027
 2566SOL    HW1 8597   3.032   1.442   0.965
 2566SOL    HW2 8598   3.099   1.470   1.111
 2567SOL     OW 8599   1.863   0.907   6.419
 2567SOL    HW1 8600   1.864   0.909   6.519
 2567SOL    HW2 8601   1.944   0.954   6.385
 2568SOL     OW 8602   2.530   6.005   0.911
 2568SOL    HW1 8603   2.470   6.044   0.981
 2568SOL    HW2 8604   2.480   5.996   0.825
 2569SOL     OW 8605   2.235   6.423   6.614
 2569SOL    HW1 8606   2.151   6.462   6.651
 2569SOL    HW2 8607   2.229   6.323   6.619
 2570SOL     OW 8608   0.351   6.783   3.975
 2570SOL    HW1 8609   0.380   6.688   3.989
 2570SOL    HW2 8610   0.362   6.807   3.878
 2571SOL     OW 8611   3.748   3.422   2.926
 2571SOL    HW1 8612   3.773   3.496   2.988
 2571SOL    HW2 8613   3.694   3.354   2.976
 2572SOL     OW 8614   2.352   5.743   2.463
 2572SOL    HW1 8615   2.340   5.797   2.380
 2572SOL    HW2 8616   2.421   5.673   2.449
 2573SOL     OW 8617   0.078   1.265   3.149
 2573SOL    HW1 8618   0.142   1.188   3.144
 2573SOL    HW2 8619   0.129   1.351   3.139
 2574SOL     OW 8620   0.388   3.664   2.013
 2574SOL    HW1 8621   0.434   3.597   2.070
 2574SOL    HW2 8622   0.294   3.635   1.996
 2575SOL     OW 8623   4.586   3.907   5.288
 2575SOL    HW1 8624   4.493   3.886   5.258
 2575SOL    HW2 8625   4.651   3.850   5.237
 2576SOL     OW 8626   0.653   0.258   3.088
 2576SOL    HW1 8627   0.612   0.307   3.011
 2576SOL    HW2 8628   0.675   0.164   3.060
 2577SOL     OW 8629   1.718   4.741   0.889
 2577SOL    HW1 8630   1.665   4.691   0.820
 2577SOL    HW2 8631   1.706   4.697   0.978
 2578SOL     OW 8632   4.587   2.632   4.877
 2578SOL    HW1 8633   4.605   2.631   4.779
 2578SOL    HW2 8634   4.519   2.703   4.897
 2579SOL     OW 8635   0.250   0.992   6.603
 2579SOL    HW1 8636   0.349   0.980   6.595
 2579SOL    HW2 8637   0.218   0.948   6.687
 2580SOL     OW 8638   1.912   2.044   5.356
 2580SOL    HW1 8639   1.830   2.015   5.404
 2580SOL    HW2 8640   1.961   2.113   5.410
 2581SOL     OW 8641   5.587   6.877   4.326
 2581SOL    HW1 8642   5.655   6.828   4.380
 2581SOL    HW2 8643   5.587   6.842   4.233
 2582SOL     OW 8644   6.553   4.519   3.206
 2582SOL    HW1 8645   6.468   4.572   3.199
 2582SOL    HW2 8646   6.604   4.527   3.121
 2583SOL     OW 8647   3.191   0.980   0.131
 2583SOL    HW1 8648   3.231   0.985   0.222
 2583SOL    HW2 8649   3.242   0.914   0.076
 2584SOL     OW 8650   4.167   0.757   3.248
 2584SOL    HW1 8651   4.192   0.827   3.315
 2584SOL    HW2 8652   4.072   0.771   3.220
 2585SOL     OW 8653   3.487   0.521   2.210
 2585SOL    HW1 8654   3.426   0.601   2.204
 2585SOL    HW2 8655   3.487   0.473   2.122
 2586SOL     OW 8656   0.883   1.730   3.745
 2586SOL    HW1 8657   0.871   1.652   3.685
 2586SOL    HW2 8658   0.833   1.809   3.708
 2587SOL     OW 8659   6.499   4.859   2.352
 2587SOL    HW1 8660   6.427   4.903   2.297
 2587SOL    HW2 8661   6.462   4.777   2.395
 2588SOL     OW 8662   3.778   6.600   2.588
 2588SOL    HW1 8663   3.717   6.602   2.667
 2588SOL    HW2 8664   3.784   6.691   2.548
 2589SOL     OW 8665   4.307   6.462   1.498
 2589SOL    HW1 8666   4.400   6.444   1.529
 2589SOL    HW2 8667   4.292   6.561   1.492
 2590SOL     OW 8668   4.070   5.768   4.059
 2590SOL    HW1 8669   4.150   5.780   4.118
 2590SOL    HW2 8670   4.100   5.764   3.964
 2591SOL     OW 8671   6.040   0.423   0.239
 2591SOL    HW1 8672   5.948   0.394   0.266
 2591SOL    HW2 8673   6.077   0.485   0.308
 2592SOL     OW 8674   2.726   4.852   1.822
 2592SOL    HW1 8675   2.730   4.894   1.913
 2592SOL    HW2 8676   2.748   4.755   1.828
 2593SOL     OW 8677   3.100   6.976   3.766
 2593SOL    HW1 8678   3.170   6.954   3.697
 2593SOL    HW2 8679   3.103   0.056   3.786
 2594SOL     OW 8680   1.865   6.209   0.019
 2594SOL    HW1 8681   1.910   6.163   0.096
 2594SOL    HW2 8682   1.905   6.177   6.951
 2595SOL     OW 8683   6.979   3.022   4.125
 2595SOL    HW1 8684   0.044   2.967   4.136
 2595SOL    HW2 8685   6.996   3.095   4.059
 2596SOL     OW 8686   4.089   2.102   1.198
 2596SOL    HW1 8687   4.179   2.145   1.188
 2596SOL    HW2 8688   4.044   2.137   1.280
 2597SOL     OW 8689   2.718   2.282   6.049
 2597SOL    HW1 8690   2.746   2.369   6.089
 2597SOL    HW2 8691   2.654   2.235   6.110
 2598SOL     OW 8692   6.974   1.276   2.896
 2598SOL    HW1 8693   6.895   1.337   2.899
 2598SOL    HW2 8694   0.012   1.289   2.978
 2599SOL     OW 8695   4.848   6.080   6.371
 2599SOL    HW1 8696   4.896   6.167   6.357
 2599SOL    HW2 8697   4.750   6.096   6.365
 2600SOL     OW 8698   0.791   2.663   4.750
 2600SOL    HW1 8699   0.836   2.574   4.749
 2600SOL    HW2 8700   0.852   2.731   4.708
 2601SOL     OW 8701   4.063   3.787   5.103
 2601SOL    HW1 8702   4.056   3.713   5.036
 2601SOL    HW2 8703   4.002   3.767   5.180
 2602SOL     OW 8704   5.863   6.703   6.147
 2602SOL    HW1 8705   5.904   6.655   6.225
 2602SOL    HW2 8706   5.819   6.637   6.087
 2603SOL     OW 8707   1.611   1.783   6.535
 2603SOL    HW1 8708   1.539   1.734   6.583
 2603SOL    HW2 8709   1.583   1.877   6.520
 2604SOL     OW 8710   5.258   1.790   0.972
 2604SOL    HW1 8711   5.355   1.770   0.956
 2604SOL    HW2 8712   5.226   1.854   0.902
 2605SOL     OW 8713   5.757   3.744   4.390
 2605SOL    HW1 8714   5.832   3.755   4.456
 2605SOL    HW2 8715   5.765   3.655   4.346
 2606SOL     OW 8716   6.604   4.786   1.493
 2606SOL    HW1 8717   6.539   4.813   1.564
 2606SOL    HW2 8718   6.562   4.795   1.403
 2607SOL     OW 8719   0.507   1.149   4.184
 2607SOL    HW1 8720   0.420   1.188   4.214
 2607SOL    HW2 8721   0.541   1.202   4.106
 2608SOL     OW 8722   4.636   0.571   0.448
 2608SOL    HW1 8723   4.634   0.664   0.486
 2608SOL    HW2 8724   4.687   0.571   0.362
 2609SOL     OW 8725   1.140   3.358   3.289
 2609SOL    HW1 8726   1.102   3.340   3.198
 2609SOL    HW2 8727   1.097   3.297   3.356
 2610SOL     OW 8728   5.039   5.737   4.435
 2610SOL    HW1 8729   5.066   5.686   4.516
 2610SOL    HW2 8730   4.956   5.789   4.455
 2611SOL     OW 8731   2.884   5.668   2.304
 2611SOL    HW1 8732   2.801   5.641   2.257
 2611SOL    HW2 8733   2.903   5.604   2.379
 2612SOL     OW 8734   0.415   0.005   5.205
 2612SOL    HW1 8735   0.436   6.973   5.121
 2612SOL    HW2 8736   0.498   0.047   5.241
 2613SOL     OW 8737   4.235   1.251   0.500
 2613SOL    HW1 8738   4.250   1.182   0.429
 2613SOL    HW2 8739   4.137   1.258   0.519
 2614SOL     OW 8740   6.098   6.010   6.815
 2614SOL    HW1 8741   6.012   6.058   6.837
 2614SOL    HW2 8742   6.168   6.077   6.791
 2615SOL     OW 8743   6.137   3.748   1.260
 2615SOL    HW1 8744   6.120   3.716   1.353
 2615SOL    HW2 8745   6.129   3.848   1.257
 2616SOL     OW 8746   4.034   3.878   1.778
 2616SOL    HW1 8747   3.966   3.881   1.852
 2616SOL    HW2 8748   4.052   3.971   1.746
 2617SOL     OW 8749   2.381   6.179   1.094
 2617SOL    HW1 8750   2.314   6.169   1.167
 2617SOL    HW2 8751   2.473   6.162   1.129
 2618SOL     OW 8752   1.133   6.385   0.406
 2618SOL    HW1 8753   1.088   6.317   0.347
 2618SOL    HW2 8754   1.089   6.473   0.395
 2619SOL     OW 8755   6.303   1.468   1.884
 2619SOL    HW1 8756   6.384   1.523   1.904
 2619SOL    HW2 8757   6.279   1.413   1.964
 2620SOL     OW 8758   1.640   5.831   4.231
 2620SOL    HW1 8759   1.687   5.746   4.205
 2620SOL    HW2 8760   1.568   5.851   4.164
 2621SOL     OW 8761   0.782   5.885   4.599
 2621SOL    HW1 8762   0.843   5.947   4.649
 2621SOL    HW2 8763   0.750   5.813   4.660
 2622SOL     OW 8764   2.270   2.546   4.694
 2622SOL    HW1 8765   2.254   2.599   4.611
 2622SOL    HW2 8766   2.286   2.607   4.771
 2623SOL     OW 8767   3.244   0.607   6.139
 2623SOL    HW1 8768   3.241   0.597   6.040
 2623SOL    HW2 8769   3.325   0.661   6.165
 2624SOL     OW 8770   5.936   2.084   4.212
 2624SOL    HW1 8771   5.876   2.090   4.132
 2624SOL    HW2 8772   5.890   2.032   4.285
 2625SOL     OW 8773   3.015   0.239   5.999
 2625SOL    HW1 8774   3.053   0.293   6.075
 2625SOL    HW2 8775   3.012   0.295   5.917
 2626SOL     OW 8776   1.494   0.078   3.026
 2626SOL    HW1 8777   1.523   7.014   3.075
 2626SOL    HW2 8778   1.403   0.104   3.055
 2627SOL     OW 8779   0.510   6.702   4.916
 2627SOL    HW1 8780   0.521   6.617   4.968
 2627SOL    HW2 8781   0.417   6.708   4.880
 2628SOL     OW 8782   4.355   5.697   0.195
 2628SOL    HW1 8783   4.369   5.641   0.114
 2628SOL    HW2 8784   4.274   5.754   0.183
 2629SOL     OW 8785   2.854   3.709   1.834
 2629SOL    HW1 8786   2.890   3.799   1.811
 2629SOL    HW2 8787   2.838   3.703   1.933
 2630SOL     OW 8788   3.332   2.114   2.965
 2630SOL    HW1 8789   3.360   2.161   3.048
 2630SOL    HW2 8790   3.242   2.146   2.936
 2631SOL     OW 8791   4.062   6.216   4.462
 2631SOL    HW1 8792   3.969   6.250   4.480
 2631SOL    HW2 8793   4.067   6.183   4.368
 2632SOL     OW 8794   4.895   1.486   1.296
 2632SOL    HW1 8795   4.945   1.476   1.382
 2632SOL    HW2 8796   4.863   1.397   1.265
 2633SOL     OW 8797   0.111   2.408   6.690
 2633SOL    HW1 8798   0.157   2.452   6.612
 2633SOL    HW2 8799   0.048   2.339   6.656
 2634SOL     OW 8800   2.906   4.917   0.670
 2634SOL    HW1 8801   2.835   4.981   0.639
 2634SOL    HW2 8802   2.933   4.859   0.593
 2635SOL     OW 8803   5.824   4.770   3.496
 2635SOL    HW1 8804   5.847   4.712   3.574
 2635SOL    HW2 8805   5.818   4.866   3.525
 2636SOL     OW 8806   6.075   5.913   5.513
 2636SOL    HW1 8807   6.102   6.004   5.482
 2636SOL    HW2 8808   5.980   5.896   5.486
 2637SOL     OW 8809   4.619   6.441   2.737
 2637SOL    HW1 8810   4.659   6.476   2.821
 2637SOL    HW2 8811   4.615   6.341   2.740
 2638SOL     OW 8812   4.513   5.637   1.126
 2638SOL    HW1 8813   4.568   5.634   1.043
 2638SOL    HW2 8814   4.572   5.625   1.206
 2639SOL     OW 8815   6.494   6.428   6.939
 2639SOL    HW1 8816   6.527   6.436   6.844
 2639SOL    HW2 8817   6.444   6.342   6.949
 2640SOL     OW 8818   6.796   6.681   6.424
 2640SOL    HW1 8819   6.861   6.610   6.398
 2640SOL    HW2 8820   6.742   6.649   6.502
 2641SOL     OW 8821   0.044   5.432   0.513
 2641SOL    HW1 8822   0.062   5.481   0.598
 2641SOL    HW2 8823   6.986   5.368   0.527
 2642SOL     OW 8824   6.663   0.369   3.853
 2642SOL    HW1 8825   6.701   0.399   3.941
 2642SOL    HW2 8826   6.622   0.278   3.864
 2643SOL     OW 8827   2.045   0.182   2.159
 2643SOL    HW1 8828   2.030   0.241   2.238
 2643SOL    HW2 8829   2.027   0.087   2.185
 2644SOL     OW 8830   6.716   6.129   4.756
 2644SOL    HW1 8831   6.656   6.188   4.810
 2644SOL    HW2 8832   6.733   6.172   4.667
 2645SOL     OW 8833   5.835   6.288   6.320
 2645SOL    HW1 8834   5.858   6.268   6.416
 2645SOL    HW2 8835   5.913   6.267   6.262
 2646SOL     OW 8836   6.032   6.075   6.251
 2646SOL    HW1 8837   6.047   6.065   6.350
 2646SOL    HW2 8838   5.959   6.013   6.223
 2647SOL     OW 8839   3.328   3.725   6.827
 2647SOL    HW1 8840   3.237   3.718   6.786
 2647SOL    HW2 8841   3.319   3.743   6.924
 2648SOL     OW 8842   4.068   1.487   3.406
 2648SOL    HW1 8843   3.976   1.505   3.441
 2648SOL    HW2 8844   4.130   1.473   3.483
 2649SOL     OW 8845   3.045   3.537   5.213
 2649SOL    HW1 8846   2.986   3.459   5.192
 2649SOL    HW2 8847   3.119   3.542   5.145
 2650SOL     OW 8848   0.466   6.711   2.386
 2650SOL    HW1 8849   0.424   6.730   2.475
 2650SOL    HW2 8850   0.560   6.678   2.400
 2651SOL     OW 8851   1.098   0.201   3.465
 2651SOL    HW1 8852   1.148   0.252   3.395
 2651SOL    HW2 8853   1.161   0.178   3.539
 2652SOL     OW 8854   2.967   3.234   2.613
 2652SOL    HW1 8855   3.013   3.248   2.701
 2652SOL    HW2 8856   3.019   3.169   2.558
 2653SOL     OW 8857   0.115   6.044   0.758
 2653SOL    HW1 8858   0.119   6.013   0.662
 2653SOL    HW2 8859   0.203   6.084   0.784
 2654SOL     OW 8860   6.742   1.912   5.814
 2654SOL    HW1 8861   6.679   1.911   5.892
 2654SOL    HW2 8862   6.705   1.855   5.741
 2655SOL     OW 8863   5.435   5.230   4.633
 2655SOL    HW1 8864   5.494   5.304   4.600
 2655SOL    HW2 8865   5.469   5.142   4.598
 2656SOL     OW 8866   6.000   3.321   5.068
 2656SOL    HW1 8867   6.028   3.337   4.973
 2656SOL    HW2 8868   5.959   3.230   5.076
 2657SOL     OW 8869   3.749   2.242   5.940
 2657SOL    HW1 8870   3.835   2.255   5.890
 2657SOL    HW2 8871   3.753   2.155   5.990
 2658SOL     OW 8872   5.839   3.914   5.029
 2658SOL    HW1 8873   5.818   4.005   4.995
 2658SOL    HW2 8874   5.908   3.920   5.102
 2659SOL     OW 8875   6.822   1.721   3.495
 2659SOL    HW1 8876   6.841   1.643   3.436
 2659SOL    HW2 8877   6.724   1.741   3.494
 2660SOL     OW 8878   0.393   2.527   3.150
 2660SOL    HW1 8879   0.410   2.625   3.143
 2660SOL    HW2 8880   0.478   2.480   3.173
 2661SOL     OW 8881   3.317   6.894   3.221
 2661SOL    HW1 8882   3.393   6.850   3.174
 2661SOL    HW2 8883   3.339   6.991   3.238
 2662SOL     OW 8884   3.571   0.744   3.922
 2662SOL    HW1 8885   3.557   0.771   4.018
 2662SOL    HW2 8886   3.507   0.795   3.864
 2663SOL     OW 8887   0.802   4.271   3.041
 2663SOL    HW1 8888   0.811   4.226   3.129
 2663SOL    HW2 8889   0.747   4.215   2.979
 2664SOL     OW 8890   4.490   4.244   1.590
 2664SOL    HW1 8891   4.441   4.239   1.677
 2664SOL    HW2 8892   4.429   4.281   1.520
 2665SOL     OW 8893   4.673   6.695   4.754
 2665SOL    HW1 8894   4.625   6.772   4.796
 2665SOL    HW2 8895   4.626   6.610   4.777
 2666SOL     OW 8896   4.782   5.833   1.796
 2666SOL    HW1 8897   4.754   5.803   1.887
 2666SOL    HW2 8898   4.807   5.930   1.799
 2667SOL     OW 8899   1.916   5.392   3.049
 2667SOL    HW1 8900   2.002   5.395   2.997
 2667SOL    HW2 8901   1.934   5.413   3.145
 2668SOL     OW 8902   6.782   2.351   5.129
 2668SOL    HW1 8903   6.820   2.264   5.162
 2668SOL    HW2 8904   6.790   2.420   5.200
 2669SOL     OW 8905   3.923   5.947   4.851
 2669SOL    HW1 8906   3.956   5.926   4.943
 2669SOL    HW2 8907   3.994   5.997   4.801
 2670SOL     OW 8908   2.838   6.704   4.302
 2670SOL    HW1 8909   2.905   6.632   4.283
 2670SOL    HW2 8910   2.763   6.667   4.356
 2671SOL     OW 8911   3.293   4.165   6.490
 2671SOL    HW1 8912   3.249   4.128   6.408
 2671SOL    HW2 8913   3.307   4.264   6.478
 2672SOL     OW 8914   0.664   4.519   0.028
 2672SOL    HW1 8915   0.568   4.499   0.045
 2672SOL    HW2 8916   0.677   4.545   6.950
 2673SOL     OW 8917   3.356   2.132   3.349
 2673SOL    HW1 8918   3.372   2.066   3.276
 2673SOL    HW2 8919   3.437   2.139   3.407
 2674SOL     OW 8920   6.180   5.705   5.272
 2674SOL    HW1 8921   6.206   5.782   5.329
 2674SOL    HW2 8922   6.085   5.681   5.289
 2675SOL     OW 8923   0.155   4.895   5.897
 2675SOL    HW1 8924   0.161   4.909   5.798
 2675SOL    HW2 8925   0.197   4.972   5.944
 2676SOL     OW 8926   4.393   0.474   1.895
 2676SOL    HW1 8927   4.413   0.398   1.957
 2676SOL    HW2 8928   4.294   0.486   1.888
 2677SOL     OW 8929   2.411   4.392   2.220
 2677SOL    HW1 8930   2.409   4.375   2.318
 2677SOL    HW2 8931   2.388   4.308   2.171
 2678SOL     OW 8932   0.460   6.083   6.678
 2678SOL    HW1 8933   0.467   6.131   6.590
 2678SOL    HW2 8934   0.392   6.010   6.671
 2679SOL     OW 8935   2.650   5.301   1.905
 2679SOL    HW1 8936   2.686   5.248   1.982
 2679SOL    HW2 8937   2.551   5.308   1.912
 2680SOL     OW 8938   0.686   2.564   1.124
 2680SOL    HW1 8939   0.755   2.500   1.092
 2680SOL    HW2 8940   0.714   2.602   1.212
 2681SOL     OW 8941   2.131   1.986   1.836
 2681SOL    HW1 8942   2.197   2.057   1.855
 2681SOL    HW2 8943   2.176   1.897   1.834
 2682SOL     OW 8944   6.798   2.834   4.198
 2682SOL    HW1 8945   6.872   2.896   4.170
 2682SOL    HW2 8946   6.711   2.869   4.162
 2683SOL     OW 8947   1.566   6.994   0.232
 2683SOL    HW1 8948   1.517   6.913   0.266
 2683SOL    HW2 8949   1.623   6.968   0.154
 2684SOL     OW 8950   2.255   5.429   2.582
 2684SOL    HW1 8951   2.203   5.356   2.627
 2684SOL    HW2 8952   2.348   5.432   2.619
 2685SOL     OW 8953   5.147   5.410   5.478
 2685SOL    HW1 8954   5.078   5.435   5.411
 2685SOL    HW2 8955   5.216   5.482   5.484
 2686SOL     OW 8956   1.226   3.159   5.169
 2686SOL    HW1 8957   1.205   3.079   5.225
 2686SOL    HW2 8958   1.306   3.206   5.207
 2687SOL     OW 8959   4.602   4.861   3.300
 2687SOL    HW1 8960   4.578   4.957   3.307
 2687SOL    HW2 8961   4.617   4.823   3.391
 2688SOL     OW 8962   3.570   4.481   5.762
 2688SOL    HW1 8963   3.514   4.553   5.723
 2688SOL    HW2 8964   3.513   4.419   5.816
 2689SOL     OW 8965   6.647   2.677   4.686
 2689SOL    HW1 8966   6.574   2.743   4.669
 2689SOL    HW2 8967   6.701   2.707   4.765
 2690SOL     OW 8968   2.926   3.691   3.408
 2690SOL    HW1 8969   2.936   3.605   3.358
 2690SOL    HW2 8970   2.879   3.674   3.494
 2691SOL     OW 8971   1.623   6.159   2.052
 2691SOL    HW1 8972   1.622   6.180   2.150
 2691SOL    HW2 8973   1.542   6.197   2.008
 2692SOL     OW 8974   0.072   4.977   3.365
 2692SOL    HW1 8975   0.047   5.060   3.315
 2692SOL    HW2 8976   0.021   4.900   3.328
 2693SOL     OW 8977   1.617   3.612   3.056
 2693SOL    HW1 8978   1.641   3.622   2.959
 2693SOL    HW2 8979   1.517   3.609   3.065
 2694SOL     OW 8980   2.097   1.472   2.646
 2694SOL    HW1 8981   2.007   1.506   2.617
 2694SOL    HW2 8982   2.168   1.535   2.614
 2695SOL     OW 8983   4.097   2.207   2.691
 2695SOL    HW1 8984   4.007   2.250   2.686
 2695SOL    HW2 8985   4.088   2.116   2.731
 2696SOL     OW 8986   3.781   3.717   5.798
 2696SOL    HW1 8987   3.838   3.733   5.718
 2696SOL    HW2 8988   3.739   3.626   5.791
 2697SOL     OW 8989   2.638   1.012   4.778
 2697SOL    HW1 8990   2.623   0.983   4.683
 2697SOL    HW2 8991   2.733   1.040   4.789
 2698SOL     OW 8992   1.977   2.156   6.533
 2698SOL    HW1 8993   2.040   2.216   6.484
 2698SOL    HW2 8994   1.921   2.209   6.596
 2699SOL     OW 8995   1.470   5.325   3.105
 2699SOL    HW1 8996   1.431   5.371   3.184
 2699SOL    HW2 8997   1.544   5.263   3.134
 2700SOL     OW 8998   2.054   4.504   3.074
 2700SOL    HW1 8999   2.063   4.491   3.173
 2700SOL    HW2 9000   2.112   4.438   3.027
 2701SOL     OW 9001   3.068   0.493   5.563
 2701SOL    HW1 9002   3.077   0.586   5.527
 2701SOL    HW2 9003   2.997   0.445   5.512
 2702SOL     OW 9004   6.685   6.395   2.529
 2702SOL    HW1 9005   6.613   6.423   2.593
 2702SOL    HW2 9006   6.774   6.423   2.566
 2703SOL     OW 9007   1.884   1.924   3.085
 2703SOL    HW1 9008   1.903   2.020   3.065
 2703SOL    HW2 9009   1.963   1.883   3.130
 2704SOL     OW 9010   1.357   5.945   0.389
 2704SOL    HW1 9011   1.369   6.045   0.382
 2704SOL    HW2 9012   1.278   5.918   0.335
 2705SOL     OW 9013   6.958   3.415   2.488
 2705SOL    HW1 9014   0.019   3.367   2.448
 2705SOL    HW2 9015   6.923   3.362   2.566
 2706SOL     OW 9016   6.442   2.379   3.614
 2706SOL    HW1 9017   6.503   2.304   3.641
 2706SOL    HW2 9018   6.434   2.444   3.690
 2707SOL     OW 9019   2.638   1.498   6.537
 2707SOL    HW1 9020   2.659   1.537   6.627
 2707SOL    HW2 9021   2.685   1.549   6.466
 2708SOL     OW 9022   1.744   4.797   6.982
 2708SOL    HW1 9023   1.691   4.712   6.984
 2708SOL    HW2 9024   1.700   4.862   6.920
 2709SOL     OW 9025   4.729   6.707   1.689
 2709SOL    HW1 9026   4.772   6.699   1.780
 2709SOL    HW2 9027   4.652   6.770   1.694
 2710SOL     OW 9028   6.603   4.317   2.551
 2710SOL    HW1 9029   6.586   4.314   2.452
 2710SOL    HW2 9030   6.702   4.314   2.568
 2711SOL     OW 9031   1.387   6.987   2.413
 2711SOL    HW1 9032   1.372   6.921   2.487
 2711SOL    HW2 9033   1.310   0.032   2.408
 2712SOL     OW 9034   3.229   5.450   2.785
 2712SOL    HW1 9035   3.138   5.482   2.758
 2712SOL    HW2 9036   3.272   5.403   2.707
 2713SOL     OW 9037   2.089   2.545   5.521
 2713SOL    HW1 9038   2.031   2.605   5.576
 2713SOL    HW2 9039   2.163   2.599   5.481
 2714SOL     OW 9040   5.658   0.025   6.713
 2714SOL    HW1 9041   5.563   0.012   6.743
 2714SOL    HW2 9042   5.706   6.956   6.716
 2715SOL     OW 9043   6.281   0.599   6.916
 2715SOL    HW1 9044   6.381   0.606   6.915
 2715SOL    HW2 9045   6.251   0.543   6.839
 2716SOL     OW 9046   6.542   6.895   1.938
 2716SOL    HW1 9047   6.568   6.894   2.034
 2716SOL    HW2 9048   6.444   6.877   1.930
 2717SOL     OW 9049   0.422   6.964   3.385
 2717SOL    HW1 9050   0.327   6.996   3.381
 2717SOL    HW2 9051   0.479   0.015   3.429
 2718SOL     OW 9052   0.707   4.271   3.368
 2718SOL    HW1 9053   0.698   4.371   3.369
 2718SOL    HW2 9054   0.782   4.244   3.428
 2719SOL     OW 9055   4.228   4.930   2.936
 2719SOL    HW1 9056   4.233   4.831   2.945
 2719SOL    HW2 9057   4.319   4.970   2.950
 2720SOL     OW 9058   0.835   6.291   4.018
 2720SOL    HW1 9059   0.784   6.216   3.975
 2720SOL    HW2 9060   0.918   6.310   3.967
 2721SOL     OW 9061   5.285   6.357   3.518
 2721SOL    HW1 9062   5.265   6.278   3.576
 2721SOL    HW2 9063   5.224   6.432   3.541
 2722SOL     OW 9064   0.914   5.956   1.713
 2722SOL    HW1 9065   0.943   6.019   1.785
 2722SOL    HW2 9066   0.994   5.906   1.679
 2723SOL     OW 9067   2.135   1.791   4.528
 2723SOL    HW1 9068   2.179   1.722   4.586
 2723SOL    HW2 9069   2.139   1.880   4.572
 2724SOL     OW 9070   4.359   5.923   6.317
 2724SOL    HW1 9071   4.360   6.022   6.305
 2724SOL    HW2 9072   4.445   5.894   6.359
 2725SOL     OW 9073   2.778   4.799   3.811
 2725SOL    HW1 9074   2.793   4.850   3.896
 2725SOL    HW2 9075   2.727   4.716   3.830
 2726SOL     OW 9076   4.361   6.464   2.648
 2726SOL    HW1 9077   4.305   6.404   2.706
 2726SOL    HW2 9078   4.453   6.472   2.688
 2727SOL     OW 9079   1.860   6.040   4.191
 2727SOL    HW1 9080   1.789   6.049   4.261
 2727SOL    HW2 9081   1.893   6.131   4.165
 2728SOL     OW 9082   2.688   0.020   5.314
 2728SOL    HW1 9083   2.643   0.028   5.403
 2728SOL    HW2 9084   2.640   6.971   5.258
 2729SOL     OW 9085   0.017   4.811   2.884
 2729SOL    HW1 9086   0.000   4.861   2.799
 2729SOL    HW2 9087   6.947   4.795   2.930
 2730SOL     OW 9088   1.331   4.711   1.116
 2730SOL    HW1 9089   1.411   4.679   1.066
 2730SOL    HW2 9090   1.334   4.811   1.123
 2731SOL     OW 9091   2.902   4.038   1.030
 2731SOL    HW1 9092   2.973   4.018   1.098
 2731SOL    HW2 9093   2.934   4.013   0.939
 2732SOL     OW 9094   5.378   3.162   4.328
 2732SOL    HW1 9095   5.310   3.175   4.400
 2732SOL    HW2 9096   5.359   3.223   4.252
 2733SOL     OW 9097   2.053   0.649   6.331
 2733SOL    HW1 9098   2.000   0.712   6.274
 2733SOL    HW2 9099   2.109   0.701   6.395
 2734SOL     OW 9100   2.021   0.234   4.434
 2734SOL    HW1 9101   1.935   0.275   4.405
 2734SOL    HW2 9102   2.097   0.291   4.403
 2735SOL     OW 9103   1.371   5.483   1.499
 2735SOL    HW1 9104   1.464   5.503   1.529
 2735SOL    HW2 9105   1.336   5.404   1.549
 2736SOL     OW 9106   4.264   6.997   6.423
 2736SOL    HW1 9107   4.205   0.025   6.490
 2736SOL    HW2 9108   4.208   6.952   6.354
 2737SOL     OW 9109   3.979   3.906   5.495
 2737SOL    HW1 9110   4.057   3.907   5.433
 2737SOL    HW2 9111   3.948   3.999   5.512
 2738SOL     OW 9112   6.083   4.039   4.270
 2738SOL    HW1 9113   6.062   4.002   4.361
 2738SOL    HW2 9114   6.181   4.034   4.254
 2739SOL     OW 9115   4.428   4.492   7.013
 2739SOL    HW1 9116   4.483   4.561   0.043
 2739SOL    HW2 9117   4.487   4.419   6.979
 2740SOL     OW 9118   6.357   2.662   4.371
 2740SOL    HW1 9119   6.356   2.666   4.271
 2740SOL    HW2 9120   6.277   2.610   4.403
 2741SOL     OW 9121   2.212   3.270   5.121
 2741SOL    HW1 9122   2.238   3.311   5.034
 2741SOL    HW2 9123   2.197   3.172   5.108
 2742SOL     OW 9124   2.890   6.294   5.457
 2742SOL    HW1 9125   2.935   6.205   5.443
 2742SOL    HW2 9126   2.878   6.310   5.555
 2743SOL     OW 9127   5.667   4.632   6.916
 2743SOL    HW1 9128   5.722   4.549   6.915
 2743SOL    HW2 9129   5.584   4.619   6.863
 2744SOL     OW 9130   4.935   6.709   0.219
 2744SOL    HW1 9131   5.034   6.721   0.217
 2744SOL    HW2 9132   4.896   6.764   0.293
 2745SOL     OW 9133   3.264   5.971   2.091
 2745SOL    HW1 9134   3.221   6.061   2.104
 2745SOL    HW2 9135   3.318   5.972   2.007
 2746SOL     OW 9136   0.994   2.152   6.279
 2746SOL    HW1 9137   0.942   2.091   6.219
 2746SOL    HW2 9138   1.012   2.106   6.366
 2747SOL     OW 9139   5.220   5.896   3.421
 2747SOL    HW1 9140   5.141   5.900   3.483
 2747SOL    HW2 9141   5.268   5.809   3.435
 2748SOL     OW 9142   5.627   1.062   4.922
 2748SOL    HW1 9143   5.568   1.039   5.000
 2748SOL    HW2 9144   5.640   1.161   4.919
 2749SOL     OW 9145   4.738   4.839   3.570
 2749SOL    HW1 9146   4.770   4.747   3.593
 2749SOL    HW2 9147   4.800   4.907   3.609
 2750SOL     OW 9148   1.263   6.623   0.639
 2750SOL    HW1 9149   1.300   6.698   0.694
 2750SOL    HW2 9150   1.325   6.546   0.642
 2751SOL     OW 9151   1.955   0.105   6.725
 2751SOL    HW1 9152   1.886   0.034   6.742
 2751SOL    HW2 9153   1.931   0.155   6.641
 2752SOL     OW 9154   0.923   6.464   6.293
 2752SOL    HW1 9155   0.976   6.512   6.363
 2752SOL    HW2 9156   0.839   6.430   6.333
 2753SOL     OW 9157   3.559   5.179   5.280
 2753SOL    HW1 9158   3.551   5.170   5.379
 2753SOL    HW2 9159   3.579   5.274   5.256
 2754SOL     OW 9160   0.941   6.096   4.223
 2754SOL    HW1 9161   0.993   6.022   4.181
 2754SOL    HW2 9162   0.900   6.153   4.151
 2755SOL     OW 9163   4.730   6.054   2.590
 2755SOL    HW1 9164   4.782   6.127   2.546
 2755SOL    HW2 9165   4.695   6.085   2.678
 2756SOL     OW 9166   0.468   2.881   5.220
 2756SOL    HW1 9167   0.432   2.938   5.146
 2756SOL    HW2 9168   0.473   2.786   5.189
 2757SOL     OW 9169   5.497   4.026   6.189
 2757SOL    HW1 9170   5.552   4.080   6.253
 2757SOL    HW2 9171   5.412   4.076   6.168
 2758SOL     OW 9172   0.121   6.544   1.404
 2758SOL    HW1 9173   0.066   6.584   1.478
 2758SOL    HW2 9174   0.060   6.494   1.342
 2759SOL     OW 9175   3.402   3.673   5.084
 2759SOL    HW1 9176   3.349   3.750   5.049
 2759SOL    HW2 9177   3.433   3.617   5.007
 2760SOL     OW 9178   5.295   5.358   2.393
 2760SOL    HW1 9179   5.313   5.272   2.441
 2760SOL    HW2 9180   5.382   5.400   2.367
 2761SOL     OW 9181   1.336   3.391   4.130
 2761SOL    HW1 9182   1.330   3.428   4.037
 2761SOL    HW2 9183   1.298   3.456   4.195
 2762SOL     OW 9184   4.381   1.365   1.783
 2762SOL    HW1 9185   4.369   1.302   1.706
 2762SOL    HW2 9186   4.340   1.325   1.865
 2763SOL     OW 9187   5.945   1.005   4.221
 2763SOL    HW1 9188   6.012   0.977   4.153
 2763SOL    HW2 9189   5.981   1.081   4.275
 2764SOL     OW 9190   0.117   2.861   3.642
 2764SOL    HW1 9191   0.186   2.929   3.616
 2764SOL    HW2 9192   0.050   2.853   3.568
 2765SOL     OW 9193   0.308   6.401   6.635
 2765SOL    HW1 9194   0.392   6.372   6.681
 2765SOL    HW2 9195   0.330   6.439   6.546
 2766SOL     OW 9196   4.818   0.016   0.269
 2766SOL    HW1 9197   4.798   0.088   0.335
 2766SOL    HW2 9198   4.906   0.033   0.226
 2767SOL     OW 9199   0.401   5.600   5.820
 2767SOL    HW1 9200   0.382   5.686   5.868
 2767SOL    HW2 9201   0.375   5.523   5.879
 2768SOL     OW 9202   3.864   6.257   1.458
 2768SOL    HW1 9203   3.947   6.308   1.435
 2768SOL    HW2 9204   3.868   6.229   1.554
 2769SOL     OW 9205   0.615   4.951   5.517
 2769SOL    HW1 9206   0.665   5.031   5.551
 2769SOL    HW2 9207   0.616   4.951   5.417
 2770SOL     OW 9208   2.597   6.757   0.631
 2770SOL    HW1 9209   2.528   6.796   0.570
 2770SOL    HW2 9210   2.553   6.725   0.715
 2771SOL     OW 9211   4.125   6.806   5.271
 2771SOL    HW1 9212   4.124   6.707   5.267
 2771SOL    HW2 9213   4.217   6.840   5.248
 2772SOL     OW 9214   5.369   2.087   3.702
 2772SOL    HW1 9215   5.370   2.001   3.754
 2772SOL    HW2 9216   5.278   2.100   3.662
 2773SOL     OW 9217   5.658   2.297   6.191
 2773SOL    HW1 9218   5.592   2.273   6.262
 2773SOL    HW2 9219   5.663   2.397   6.184
 2774SOL     OW 9220   6.832   0.422   4.058
 2774SOL    HW1 9221   6.914   0.410   4.115
 2774SOL    HW2 9222   6.751   0.400   4.111
 2775SOL     OW 9223   0.048   1.882   4.897
 2775SOL    HW1 9224   0.050   1.972   4.941
 2775SOL    HW2 9225   0.090   1.814   4.957
 2776SOL     OW 9226   4.551   4.078   6.211
 2776SOL    HW1 9227   4.465   4.098   6.258
 2776SOL    HW2 9228   4.565   4.145   6.138
 2777SOL     OW 9229   2.019   2.186   0.032
 2777SOL    HW1 9230   2.006   2.227   6.959
 2777SOL    HW2 9231   1.930   2.176   0.077
 2778SOL     OW 9232   3.399   0.100   5.524
 2778SOL    HW1 9233   3.394   0.177   5.587
 2778SOL    HW2 9234   3.416   0.134   5.431
 2779SOL     OW 9235   5.191   0.865   2.815
 2779SOL    HW1 9236   5.185   0.831   2.909
 2779SOL    HW2 9237   5.158   0.795   2.752
 2780SOL     OW 9238   0.590   1.235   4.536
 2780SOL    HW1 9239   0.643   1.166   4.486
 2780SOL    HW2 9240   0.638   1.260   4.619
 2781SOL     OW 9241   0.595   0.315   2.846
 2781SOL    HW1 9242   0.589   0.268   2.758
 2781SOL    HW2 9243   0.549   0.404   2.840
 2782SOL     OW 9244   5.482   6.897   5.072
 2782SOL    HW1 9245   5.557   6.949   5.114
 2782SOL    HW2 9246   5.397   6.948   5.085
 2783SOL     OW 9247   5.801   2.649   1.728
 2783SOL    HW1 9248   5.879   2.655   1.789
 2783SOL    HW2 9249   5.833   2.633   1.634
 2784SOL     OW 9250   0.324   2.786   1.950
 2784SOL    HW1 9251   0.393   2.837   2.001
 2784SOL    HW2 9252   0.331   2.808   1.853
 2785SOL     OW 9253   5.491   3.924   3.343
 2785SOL    HW1 9254   5.477   4.018   3.311
 2785SOL    HW2 9255   5.574   3.887   3.302
 2786SOL     OW 9256   0.106   5.652   0.674
 2786SOL    HW1 9257   0.014   5.644   0.714
 2786SOL    HW2 9258   0.170   5.681   0.745
 2787SOL     OW 9259   0.752   6.387   5.691
 2787SOL    HW1 9260   0.851   6.392   5.679
 2787SOL    HW2 9261   0.709   6.465   5.646
 2788SOL     OW 9262   2.997   6.559   0.376
 2788SOL    HW1 9263   2.916   6.574   0.432
 2788SOL    HW2 9264   3.031   6.465   0.390
 2789SOL     OW 9265   1.929   1.679   3.795
 2789SOL    HW1 9266   1.846   1.649   3.749
 2789SOL    HW2 9267   2.000   1.696   3.727
 2790SOL     OW 9268   6.671   5.583   1.506
 2790SOL    HW1 9269   6.646   5.487   1.493
 2790SOL    HW2 9270   6.743   5.590   1.574
 2791SOL     OW 9271   0.652   3.246   5.117
 2791SOL    HW1 9272   0.558   3.270   5.092
 2791SOL    HW2 9273   0.708   3.240   5.034
 2792SOL     OW 9274   3.321   2.189   6.017
 2792SOL    HW1 9275   3.247   2.184   5.950
 2792SOL    HW2 9276   3.407   2.163   5.972
 2793SOL     OW 9277   3.784   3.533   6.600
 2793SOL    HW1 9278   3.753   3.521   6.506
 2793SOL    HW2 9279   3.730   3.604   6.645
 2794SOL     OW 9280   1.995   1.915   6.858
 2794SOL    HW1 9281   2.054   1.923   6.938
 2794SOL    HW2 9282   1.902   1.895   6.888
 2795SOL     OW 9283   1.754   6.933   0.935
 2795SOL    HW1 9284   1.709   6.968   0.853
 2795SOL    HW2 9285   1.689   6.936   1.012
 2796SOL     OW 9286   2.972   6.043   6.915
 2796SOL    HW1 9287   2.989   6.141   6.909
 2796SOL    HW2 9288   3.054   5.996   6.947
 2797SOL     OW 9289   4.853   3.927   4.195
 2797SOL    HW1 9290   4.775   3.981   4.227
 2797SOL    HW2 9291   4.913   3.907   4.273
 2798SOL     OW 9292   5.301   2.283   2.045
 2798SOL    HW1 9293   5.242   2.357   2.013
 2798SOL    HW2 9294   5.312   2.290   2.144
 2799SOL     OW 9295   3.473   6.037   5.419
 2799SOL    HW1 9296   3.400   6.058   5.355
 2799SOL    HW2 9297   3.544   6.107   5.412
 2800SOL     OW 9298   5.190   1.438   6.962
 2800SOL    HW1 9299   5.174   1.389   0.030
 2800SOL    HW2 9300   5.130   1.401   6.891
 2801SOL     OW 9301   0.215   4.625   3.493
 2801SOL    HW1 9302   0.294   4.565   3.482
 2801SOL    HW2 9303   0.178   4.615   3.585
 2802SOL     OW 9304   1.169   4.950   4.622
 2802SOL    HW1 9305   1.240   4.894   4.581
 2802SOL    HW2 9306   1.082   4.934   4.576
 2803SOL     OW 9307   3.226   2.157   6.706
 2803SOL    HW1 9308   3.257   2.133   6.614
 2803SOL    HW2 9309   3.292   2.220   6.747
 2804SOL     OW 9310   6.378   2.698   4.109
 2804SOL    HW1 9311   6.359   2.619   4.052
 2804SOL    HW2 9312   6.477   2.704   4.126
 2805SOL     OW 9313   4.424   4.446   0.636
 2805SOL    HW1 9314   4.519   4.478   0.642
 2805SOL    HW2 9315   4.402   4.391   0.716
 2806SOL     OW 9316   0.534   3.345   4.588
 2806SOL    HW1 9317   0.495   3.369   4.677
 2806SOL    HW2 9318   0.501   3.254   4.562
 2807SOL     OW 9319   4.451   1.632   4.230
 2807SOL    HW1 9320   4.467   1.647   4.327
 2807SOL    HW2 9321   4.512   1.691   4.177
 2808SOL     OW 9322   1.354   6.156   6.267
 2808SOL    HW1 9323   1.291   6.113   6.202
 2808SOL    HW2 9324   1.330   6.130   6.360
 2809SOL     OW 9325   0.575   5.965   0.931
 2809SOL    HW1 9326   0.591   5.980   1.029
 2809SOL    HW2 9327   0.566   6.054   0.886
 2810SOL     OW 9328   0.524   6.303   2.679
 2810SOL    HW1 9329   0.492   6.220   2.633
 2810SOL    HW2 9330   0.567   6.279   2.765
 2811SOL     OW 9331   0.609   1.040   0.480
 2811SOL    HW1 9332   0.563   1.125   0.504
 2811SOL    HW2 9333   0.691   1.029   0.537
 2812SOL     OW 9334   2.099   1.338   1.050
 2812SOL    HW1 9335   2.010   1.338   1.004
 2812SOL    HW2 9336   2.085   1.348   1.149
 2813SOL     OW 9337   6.651   1.834   0.983
 2813SOL    HW1 9338   6.597   1.787   0.913
 2813SOL    HW2 9339   6.633   1.933   0.978
 2814SOL     OW 9340   2.648   4.216   6.981
 2814SOL    HW1 9341   2.626   4.136   0.019
 2814SOL    HW2 9342   2.746   4.216   6.961
 2815SOL     OW 9343   6.632   5.480   4.671
 2815SOL    HW1 9344   6.549   5.525   4.639
 2815SOL    HW2 9345   6.709   5.508   4.615
 2816SOL     OW 9346   1.018   5.032   4.826
 2816SOL    HW1 9347   0.990   5.119   4.788
 2816SOL    HW2 9348   1.086   4.989   4.766
 2817SOL     OW 9349   2.753   0.813   1.997
 2817SOL    HW1 9350   2.796   0.753   1.929
 2817SOL    HW2 9351   2.671   0.854   1.957
 2818SOL     OW 9352   1.651   0.883   0.501
 2818SOL    HW1 9353   1.700   0.970   0.498
 2818SOL    HW2 9354   1.687   0.823   0.430
 2819SOL     OW 9355   6.761   0.556   6.437
 2819SOL    HW1 9356   6.725   0.463   6.428
 2819SOL    HW2 9357   6.739   0.608   6.355
 2820SOL     OW 9358   2.192   1.798   0.288
 2820SOL    HW1 9359   2.212   1.864   0.216
 2820SOL    HW2 9360   2.266   1.798   0.355
 2821SOL     OW 9361   3.179   2.095   6.213
 2821SOL    HW1 9362   3.225   2.153   6.145
 2821SOL    HW2 9363   3.088   2.071   6.180
 2822SOL     OW 9364   4.268   2.885   1.332
 2822SOL    HW1 9365   4.285   2.861   1.428
 2822SOL    HW2 9366   4.354   2.911   1.288
 2823SOL     OW 9367   5.989   3.633   2.393
 2823SOL    HW1 9368   5.893   3.653   2.375
 2823SOL    HW2 9369   5.996   3.552   2.452
 2824SOL     OW 9370   0.529   4.704   5.243
 2824SOL    HW1 9371   0.501   4.695   5.147
 2824SOL    HW2 9372   0.458   4.665   5.302
 2825SOL     OW 9373   5.303   1.914   5.816
 2825SOL    HW1 9374   5.345   1.935   5.728
 2825SOL    HW2 9375   5.232   1.845   5.804
 2826SOL     OW 9376   2.767   3.282   6.804
 2826SOL    HW1 9377   2.836   3.254   6.870
 2826SOL    HW2 9378   2.782   3.377   6.778
 2827SOL     OW 9379   6.535   1.732   6.853
 2827SOL    HW1 9380   6.523   1.783   6.938
 2827SOL    HW2 9381   6.455   1.675   6.836
 2828SOL     OW 9382   1.787   3.998   0.373
 2828SOL    HW1 9383   1.779   4.096   0.355
 2828SOL    HW2 9384   1.709   3.951   0.332
 2829SOL     OW 9385   3.297   4.108   1.742
 2829SOL    HW1 9386   3.213   4.162   1.741
 2829SOL    HW2 9387   3.343   4.119   1.830
 2830SOL     OW 9388   3.046   5.508   4.462
 2830SOL    HW1 9389   3.074   5.546   4.373
 2830SOL    HW2 9390   2.948   5.523   4.476
 2831SOL     OW 9391   6.646   1.360   1.754
 2831SOL    HW1 9392   6.579   1.287   1.766
 2831SOL    HW2 9393   6.693   1.349   1.666
 2832SOL     OW 9394   1.195   3.960   1.805
 2832SOL    HW1 9395   1.215   3.869   1.842
 2832SOL    HW2 9396   1.238   4.030   1.861
 2833SOL     OW 9397   6.606   3.274   3.547
 2833SOL    HW1 9398   6.636   3.350   3.605
 2833SOL    HW2 9399   6.622   3.188   3.594
 2834SOL     OW 9400   2.943   0.543   4.429
 2834SOL    HW1 9401   2.855   0.589   4.417
 2834SOL    HW2 9402   2.929   0.444   4.435
 2835SOL     OW 9403   6.901   1.171   0.052
 2835SOL    HW1 9404   6.954   1.112   0.112
 2835SOL    HW2 9405   6.824   1.211   0.103
 2836SOL     OW 9406   2.968   5.692   1.525
 2836SOL    HW1 9407   2.965   5.621   1.453
 2836SOL    HW2 9408   2.911   5.770   1.497
 2837SOL     OW 9409   5.743   3.749   2.332
 2837SOL    HW1 9410   5.726   3.721   2.427
 2837SOL    HW2 9411   5.665   3.721   2.276
 2838SOL     OW 9412   7.015   3.768   5.851
 2838SOL    HW1 9413   7.007   3.721   5.763
 2838SOL    HW2 9414   0.067   3.723   5.906
 2839SOL     OW 9415   5.920   2.921   5.751
 2839SOL    HW1 9416   5.945   3.018   5.756
 2839SOL    HW2 9417   5.838   2.906   5.807
 2840SOL     OW 9418   5.980   6.775   5.060
 2840SOL    HW1 9419   5.906   6.711   5.084
 2840SOL    HW2 9420   5.970   6.858   5.115
 2841SOL     OW 9421   5.821   3.563   2.809
 2841SOL    HW1 9422   5.768   3.479   2.796
 2841SOL    HW2 9423   5.815   3.591   2.905
 2842SOL     OW 9424   0.659   6.955   3.666
 2842SOL    HW1 9425   0.618   6.881   3.612
 2842SOL    HW2 9426   0.719   6.915   3.735
 2843SOL     OW 9427   1.349   3.233   4.672
 2843SOL    HW1 9428   1.421   3.222   4.740
 2843SOL    HW2 9429   1.291   3.152   4.671
 2844SOL     OW 9430   5.406   4.442   0.334
 2844SOL    HW1 9431   5.441   4.447   0.241
 2844SOL    HW2 9432   5.384   4.534   0.367
 2845SOL     OW 9433   3.885   1.837   1.463
 2845SOL    HW1 9434   3.785   1.830   1.465
 2845SOL    HW2 9435   3.922   1.762   1.408
 2846SOL     OW 9436   4.808   6.798   6.740
 2846SOL    HW1 9437   4.735   6.755   6.688
 2846SOL    HW2 9438   4.812   6.760   6.832
 2847SOL     OW 9439   5.409   4.671   2.144
 2847SOL    HW1 9440   5.366   4.697   2.230
 2847SOL    HW2 9441   5.389   4.740   2.075
 2848SOL     OW 9442   0.609   3.606   6.947
 2848SOL    HW1 9443   0.555   3.688   6.925
 2848SOL    HW2 9444   0.589   3.534   6.881
 2849SOL     OW 9445   5.573   0.697   1.604
 2849SOL    HW1 9446   5.627   0.733   1.528
 2849SOL    HW2 9447   5.590   0.599   1.615
 2850SOL     OW 9448   0.711   1.018   1.002
 2850SOL    HW1 9449   0.782   1.050   0.938
 2850SOL    HW2 9450   0.642   1.090   1.012
 2851SOL     OW 9451   3.349   3.420   1.774
 2851SOL    HW1 9452   3.331   3.494   1.709
 2851SOL    HW2 9453   3.387   3.458   1.858
 2852SOL     OW 9454   0.250   5.464   4.980
 2852SOL    HW1 9455   0.170   5.404   4.980
 2852SOL    HW2 9456   0.325   5.419   5.029
 2853SOL     OW 9457   0.179   4.771   5.475
 2853SOL    HW1 9458   0.225   4.683   5.460
 2853SOL    HW2 9459   0.084   4.755   5.501
 2854SOL     OW 9460   3.167   0.382   6.785
 2854SOL    HW1 9461   3.230   0.434   6.727
 2854SOL    HW2 9462   3.082   0.434   6.798
 2855SOL     OW 9463   2.064   2.193   4.238
 2855SOL    HW1 9464   2.022   2.222   4.153
 2855SOL    HW2 9465   2.155   2.235   4.247
 2856SOL     OW 9466   1.286   5.777   4.810
 2856SOL    HW1 9467   1.274   5.816   4.902
 2856SOL    HW2 9468   1.288   5.677   4.816
 2857SOL     OW 9469   0.310   4.323   0.619
 2857SOL    HW1 9470   0.289   4.227   0.601
 2857SOL    HW2 9471   0.305   4.375   0.534
 2858SOL     OW 9472   5.389   4.627   3.749
 2858SOL    HW1 9473   5.451   4.636   3.827
 2858SOL    HW2 9474   5.391   4.533   3.715
 2859SOL     OW 9475   6.295   4.936   2.179
 2859SOL    HW1 9476   6.258   5.009   2.122
 2859SOL    HW2 9477   6.303   4.852   2.125
 2860SOL     OW 9478   1.386   6.520   3.626
 2860SOL    HW1 9479   1.486   6.519   3.616
 2860SOL    HW2 9480   1.357   6.437   3.675
 2861SOL     OW 9481   5.419   3.778   5.279
 2861SOL    HW1 9482   5.326   3.751   5.258
 2861SOL    HW2 9483   5.465   3.808   5.196
 2862SOL     OW 9484   4.571   0.654   0.012
 2862SOL    HW1 9485   4.618   0.566   0.014
 2862SOL    HW2 9486   4.636   0.727   7.007
 2863SOL     OW 9487   5.573   1.567   5.707
 2863SOL    HW1 9488   5.489   1.512   5.695
 2863SOL    HW2 9489   5.548   1.663   5.721
 2864SOL     OW 9490   4.285   4.455   1.119
 2864SOL    HW1 9491   4.205   4.427   1.065
 2864SOL    HW2 9492   4.354   4.495   1.059
 2865SOL     OW 9493   5.239   5.135   5.954
 2865SOL    HW1 9494   5.252   5.058   6.016
 2865SOL    HW2 9495   5.296   5.123   5.873
 2866SOL     OW 9496   3.963   5.502   0.804
 2866SOL    HW1 9497   4.056   5.497   0.767
 2866SOL    HW2 9498   3.908   5.565   0.749
 2867SOL     OW 9499   0.161   6.280   2.855
 2867SOL    HW1 9500   0.175   6.376   2.832
 2867SOL    HW2 9501   0.140   6.229   2.772
 2868SOL     OW 9502   6.894   6.790   5.574
 2868SOL    HW1 9503   6.933   6.755   5.660
 2868SOL    HW2 9504   6.967   6.800   5.507
 2869SOL     OW 9505   5.128   4.940   5.213
 2869SOL    HW1 9506   5.207   4.986   5.252
 2869SOL    HW2 9507   5.122   4.960   5.115
 2870SOL     OW 9508   0.655   1.164   1.297
 2870SOL    HW1 9509   0.659   1.103   1.218
 2870SOL    HW2 9510   0.560   1.176   1.326
 2871SOL     OW 9511   4.804   1.357   3.589
 2871SOL    HW1 9512   4.798   1.391   3.683
 2871SOL    HW2 9513   4.887   1.302   3.579
 2872SOL     OW 9514   3.594   1.822   2.679
 2872SOL    HW1 9515   3.531   1.880   2.730
 2872SOL    HW2 9516   3.543   1.758   2.622
 2873SOL     OW 9517   0.862   0.136   2.758
 2873SOL    HW1 9518   0.862   0.096   2.666
 2873SOL    HW2 9519   0.833   0.231   2.752
 2874SOL     OW 9520   1.866   0.785   3.136
 2874SOL    HW1 9521   1.841   0.849   3.209
 2874SOL    HW2 9522   1.966   0.785   3.124
 2875SOL     OW 9523   2.205   0.350   2.845
 2875SOL    HW1 9524   2.248   0.298   2.919
 2875SOL    HW2 9525   2.274   0.378   2.779
 2876SOL     OW 9526   0.715   7.002   0.932
 2876SOL    HW1 9527   0.717   6.928   0.999
 2876SOL    HW2 9528   0.642   0.049   0.956
 2877SOL     OW 9529   1.285   3.407   6.073
 2877SOL    HW1 9530   1.351   3.482   6.079
 2877SOL    HW2 9531   1.277   3.361   6.161
 2878SOL     OW 9532   3.161   3.013   4.348
 2878SOL    HW1 9533   3.144   3.043   4.442
 2878SOL    HW2 9534   3.259   3.000   4.335
 2879SOL     OW 9535   5.689   5.506   0.405
 2879SOL    HW1 9536   5.655   5.567   0.477
 2879SOL    HW2 9537   5.788   5.517   0.396
 2880SOL     OW 9538   1.404   1.669   2.854
 2880SOL    HW1 9539   1.495   1.645   2.820
 2880SOL    HW2 9540   1.383   1.615   2.935
 2881SOL     OW 9541   5.086   5.324   0.124
 2881SOL    HW1 9542   5.093   5.366   0.034
 2881SOL    HW2 9543   5.021   5.248   0.120
 2882SOL     OW 9544   4.355   6.646   6.764
 2882SOL    HW1 9545   4.438   6.702   6.760
 2882SOL    HW2 9546   4.292   6.685   6.831
 2883SOL     OW 9547   5.378   6.151   3.082
 2883SOL    HW1 9548   5.453   6.119   3.023
 2883SOL    HW2 9549   5.292   6.145   3.032
 2884SOL     OW 9550   6.058   5.682   3.395
 2884SOL    HW1 9551   6.084   5.587   3.411
 2884SOL    HW2 9552   5.973   5.702   3.443
 2885SOL     OW 9553   0.369   3.559   3.421
 2885SOL    HW1 9554   0.345   3.488   3.487
 2885SOL    HW2 9555   0.407   3.516   3.339
 2886SOL     OW 9556   2.291   4.226   4.752
 2886SOL    HW1 9557   2.194   4.208   4.744
 2886SOL    HW2 9558   2.336   4.152   4.803
 2887SOL     OW 9559   7.008   5.370   2.700
 2887SOL    HW1 9560   0.020   5.275   2.693
 2887SOL    HW2 9561   0.009   5.404   2.792
 2888SOL     OW 9562   4.687   6.414   6.458
 2888SOL    HW1 9563   4.588   6.408   6.454
 2888SOL    HW2 9564   4.719   6.490   6.401
 2889SOL     OW 9565   3.845   5.943   4.527
 2889SOL    HW1 9566   3.913   5.883   4.484
 2889SOL    HW2 9567   3.886   5.988   4.607
 2890SOL     OW 9568   1.855   2.426   0.347
 2890SOL    HW1 9569   1.769   2.461   0.383
 2890SOL    HW2 9570   1.889   2.487   0.276
 2891SOL     OW 9571   0.881   1.364   5.342
 2891SOL    HW1 9572   0.867   1.459   5.317
 2891SOL    HW2 9573   0.916   1.313   5.262
 2892SOL     OW 9574   5.550   4.297   1.807
 2892SOL    HW1 9575   5.649   4.299   1.826
 2892SOL    HW2 9576   5.501   4.334   1.886
 2893SOL     OW 9577   6.586   5.554   5.307
 2893SOL    HW1 9578   6.587   5.481   5.239
 2893SOL    HW2 9579   6.554   5.639   5.265
 2894SOL     OW 9580   1.669   5.460   1.118
 2894SOL    HW1 9581   1.711   5.394   1.056
 2894SOL    HW2 9582   1.582   5.424   1.151
 2895SOL     OW 9583   4.888   6.974   6.234
 2895SOL    HW1 9584   4.859   6.977   6.329
 2895SOL    HW2 9585   4.818   0.001   6.177
 2896SOL     OW 9586   6.407   0.448   5.512
 2896SOL    HW1 9587   6.362   0.382   5.452
 2896SOL    HW2 9588   6.456   0.400   5.585
 2897SOL     OW 9589   3.660   5.897   3.569
 2897SOL    HW1 9590   3.704   5.810   3.592
 2897SOL    HW2 9591   3.565   5.881   3.544
 2898SOL     OW 9592   5.243   2.744   3.235
 2898SOL    HW1 9593   5.302   2.743   3.316
 2898SOL    HW2 9594   5.190   2.659   3.231
 2899SOL     OW 9595   6.302   2.722   1.246
 2899SOL    HW1 9596   6.216   2.770   1.258
 2899SOL    HW2 9597   6.303   2.677   1.156
 2900SOL     OW 9598   2.914   2.845   5.342
 2900SOL    HW1 9599   2.912   2.905   5.423
 2900SOL    HW2 9600   2.942   2.753   5.369
 2901SOL     OW 9601   1.556   3.727   1.817
 2901SOL    HW1 9602   1.608   3.643   1.803
 2901SOL    HW2 9603   1.459   3.705   1.824
 2902SOL     OW 9604   5.430   6.067   3.365
 2902SOL    HW1 9605   5.435   6.127   3.285
 2902SOL    HW2 9606   5.335   6.051   3.388
 2903SOL     OW 9607   0.420   5.446   1.095
 2903SOL    HW1 9608   0.374   5.437   1.184
 2903SOL    HW2 9609   0.505   5.498   1.107
 2904SOL     OW 9610   2.919   4.837   4.856
 2904SOL    HW1 9611   2.830   4.862   4.818
 2904SOL    HW2 9612   2.906   4.772   4.931
 2905SOL     OW 9613   1.017   5.167   1.566
 2905SOL    HW1 9614   0.984   5.075   1.588
 2905SOL    HW2 9615   0.957   5.207   1.497
 2906SOL     OW 9616   6.911   6.062   5.960
 2906SOL    HW1 9617   6.859   6.135   6.005
 2906SOL    HW2 9618   6.879   6.052   5.866
 2907SOL     OW 9619   6.768   1.208   5.797
 2907SOL    HW1 9620   6.735   1.164   5.880
 2907SOL    HW2 9621   6.756   1.147   5.719
 2908SOL     OW 9622   4.085   6.318   4.090
 2908SOL    HW1 9623   4.053   6.383   4.022
 2908SOL    HW2 9624   4.018   6.244   4.100
 2909SOL     OW 9625   6.936   6.924   1.673
 2909SOL    HW1 9626   6.949   6.855   1.744
 2909SOL    HW2 9627   0.003   6.976   1.662
 2910SOL     OW 9628   1.057   1.018   4.181
 2910SOL    HW1 9629   1.152   1.004   4.153
 2910SOL    HW2 9630   1.053   1.032   4.280
 2911SOL     OW 9631   6.566   3.846   4.405
 2911SOL    HW1 9632   6.636   3.902   4.449
 2911SOL    HW2 9633   6.608   3.764   4.367
 2912SOL     OW 9634   0.676   1.576   2.242
 2912SOL    HW1 9635   0.645   1.671   2.249
 2912SOL    HW2 9636   0.695   1.554   2.147
 2913SOL     OW 9637   0.974   6.606   3.964
 2913SOL    HW1 9638   1.074   6.603   3.969
 2913SOL    HW2 9639   0.937   6.625   4.055
 2914SOL     OW 9640   3.678   4.109   1.100
 2914SOL    HW1 9641   3.609   4.143   1.164
 2914SOL    HW2 9642   3.650   4.020   1.064
 2915SOL     OW 9643   1.900   1.014   4.297
 2915SOL    HW1 9644   1.900   1.113   4.285
 2915SOL    HW2 9645   1.994   0.980   4.294
 2916SOL     OW 9646   0.426   5.360   6.584
 2916SOL    HW1 9647   0.507   5.399   6.629
 2916SOL    HW2 9648   0.444   5.351   6.486
 2917SOL     OW 9649   2.424   0.396   3.462
 2917SOL    HW1 9650   2.501   0.460   3.465
 2917SOL    HW2 9651   2.340   0.445   3.486
 2918SOL     OW 9652   5.177   2.360   1.169
 2918SOL    HW1 9653   5.147   2.365   1.073
 2918SOL    HW2 9654   5.101   2.330   1.226
 2919SOL     OW 9655   1.186   6.483   5.018
 2919SOL    HW1 9656   1.114   6.549   5.038
 2919SOL    HW2 9657   1.145   6.399   4.982
 2920SOL     OW 9658   2.683   2.575   1.687
 2920SOL    HW1 9659   2.693   2.670   1.657
 2920SOL    HW2 9660   2.748   2.557   1.761
 2921SOL     OW 9661   0.518   5.415   3.552
 2921SOL    HW1 9662   0.548   5.354   3.626
 2921SOL    HW2 9663   0.581   5.408   3.475
 2922SOL     OW 9664   3.822   4.855   3.431
 2922SOL    HW1 9665   3.885   4.800   3.376
 2922SOL    HW2 9666   3.739   4.873   3.378
 2923SOL     OW 9667   1.586   5.615   4.405
 2923SOL    HW1 9668   1.671   5.585   4.364
 2923SOL    HW2 9669   1.601   5.699   4.457
 2924SOL     OW 9670   5.341   1.526   6.647
 2924SOL    HW1 9671   5.345   1.622   6.617
 2924SOL    HW2 9672   5.432   1.485   6.640
 2925SOL     OW 9673   5.543   0.086   4.643
 2925SOL    HW1 9674   5.508   0.004   4.690
 2925SOL    HW2 9675   5.518   0.082   4.546
 2926SOL     OW 9676   6.054   3.090   4.675
 2926SOL    HW1 9677   6.120   3.087   4.751
 2926SOL    HW2 9678   5.991   3.013   4.683
 2927SOL     OW 9679   1.126   2.523   2.295
 2927SOL    HW1 9680   1.109   2.461   2.218
 2927SOL    HW2 9681   1.168   2.607   2.261
 2928SOL     OW 9682   5.264   4.385   0.584
 2928SOL    HW1 9683   5.320   4.396   0.502
 2928SOL    HW2 9684   5.318   4.342   0.656
 2929SOL     OW 9685   2.125   1.874   3.197
 2929SOL    HW1 9686   2.224   1.871   3.180
 2929SOL    HW2 9687   2.102   1.811   3.272
 2930SOL     OW 9688   0.790   3.264   4.137
 2930SOL    HW1 9689   0.823   3.317   4.215
 2930SOL    HW2 9690   0.864   3.207   4.102
 2931SOL     OW 9691   6.444   4.323   6.175
 2931SOL    HW1 9692   6.353   4.314   6.217
 2931SOL    HW2 9693   6.478   4.233   6.149
 2932SOL     OW 9694   6.326   5.860   1.092
 2932SOL    HW1 9695   6.408   5.897   1.047
 2932SOL    HW2 9696   6.312   5.906   1.179
 2933SOL     OW 9697   1.018   6.978   0.126
 2933SOL    HW1 9698   1.073   0.020   0.184
 2933SOL    HW2 9699   0.956   0.015   0.070
 2934SOL     OW 9700   5.827   5.230   1.896
 2934SOL    HW1 9701   5.909   5.287   1.891
 2934SOL    HW2 9702   5.835   5.155   1.830
 2935SOL     OW 9703   0.815   3.874   5.716
 2935SOL    HW1 9704   0.849   3.820   5.793
 2935SOL    HW2 9705   0.770   3.956   5.750
 2936SOL     OW 9706   3.926   5.715   1.916
 2936SOL    HW1 9707   3.916   5.808   1.881
 2936SOL    HW2 9708   3.974   5.659   1.848
 2937SOL     OW 9709   6.103   3.757   3.226
 2937SOL    HW1 9710   6.085   3.846   3.269
 2937SOL    HW2 9711   6.150   3.771   3.139
 2938SOL     OW 9712   0.384   5.378   0.676
 2938SOL    HW1 9713   0.342   5.291   0.704
 2938SOL    HW2 9714   0.355   5.451   0.738
 2939SOL     OW 9715   6.298   6.742   1.390
 2939SOL    HW1 9716   6.277   6.688   1.308
 2939SOL    HW2 9717   6.347   6.685   1.456
 2940SOL     OW 9718   4.523   6.740   4.192
 2940SOL    HW1 9719   4.619   6.767   4.181
 2940SOL    HW2 9720   4.477   6.804   4.252
 2941SOL     OW 9721   2.737   5.106   2.805
 2941SOL    HW1 9722   2.803   5.179   2.788
 2941SOL    HW2 9723   2.765   5.051   2.884
 2942SOL     OW 9724   3.408   2.201   1.712
 2942SOL    HW1 9725   3.381   2.279   1.655
 2942SOL    HW2 9726   3.466   2.233   1.787
 2943SOL     OW 9727   0.394   3.844   3.774
 2943SOL    HW1 9728   0.445   3.930   3.763
 2943SOL    HW2 9729   0.297   3.861   3.757
 2944SOL     OW 9730   0.497   5.887   3.302
 2944SOL    HW1 9731   0.587   5.869   3.262
 2944SOL    HW2 9732   0.486   5.833   3.385
 2945SOL     OW 9733   5.973   3.778   0.731
 2945SOL    HW1 9734   5.931   3.869   0.731
 2945SOL    HW2 9735   5.901   3.708   0.730
 2946SOL     OW 9736   3.362   3.498   4.222
 2946SOL    HW1 9737   3.296   3.526   4.291
 2946SOL    HW2 9738   3.430   3.571   4.209
 2947SOL     OW 9739   6.187   5.507   6.777
 2947SOL    HW1 9740   6.166   5.601   6.748
 2947SOL    HW2 9741   6.151   5.493   6.870
 2948SOL     OW 9742   6.301   3.996   0.903
 2948SOL    HW1 9743   6.251   4.001   0.817
 2948SOL    HW2 9744   6.383   4.052   0.897
 2949SOL     OW 9745   1.474   6.367   1.031
 2949SOL    HW1 9746   1.419   6.337   0.953
 2949SOL    HW2 9747   1.449   6.461   1.054
 2950SOL     OW 9748   5.666   5.360   2.548
 2950SOL    HW1 9749   5.620   5.449   2.553
 2950SOL    HW2 9750   5.599   5.287   2.556
 2951SOL     OW 9751   0.855   2.155   1.249
 2951SOL    HW1 9752   0.907   2.233   1.285
 2951SOL    HW2 9753   0.888   2.132   1.157
 2952SOL     OW 9754   0.336   1.548   4.323
 2952SOL    HW1 9755   0.426   1.588   4.306
 2952SOL    HW2 9756   0.268   1.590   4.263
 2953SOL     OW 9757   1.419   5.840   3.003
 2953SOL    HW1 9758   1.374   5.909   3.059
 2953SOL    HW2 9759   1.381   5.750   3.023
 2954SOL     OW 9760   0.774   4.046   6.071
 2954SOL    HW1 9761   0.743   4.074   6.162
 2954SOL    HW2 9762   0.873   4.062   6.064
 2955SOL     OW 9763   1.691   4.645   6.668
 2955SOL    HW1 9764   1.779   4.691   6.656
 2955SOL    HW2 9765   1.618   4.709   6.644
 2956SOL     OW 9766   5.610   4.148   4.438
 2956SOL    HW1 9767   5.616   4.093   4.354
 2956SOL    HW2 9768   5.695   4.197   4.452
 2957SOL     OW 9769   1.352   5.328   2.655
 2957SOL    HW1 9770   1.399   5.241   2.667
 2957SOL    HW2 9771   1.276   5.335   2.720
 2958SOL     OW 9772   1.632   4.485   1.647
 2958SOL    HW1 9773   1.652   4.388   1.655
 2958SOL    HW2 9774   1.589   4.503   1.558
 2959SOL     OW 9775   0.103   4.622   3.743
 2959SOL    HW1 9776   0.063   4.703   3.787
 2959SOL    HW2 9777   0.037   4.548   3.743
 2960SOL     OW 9778   4.901   6.361   1.080
 2960SOL    HW1 9779   4.920   6.281   1.023
 2960SOL    HW2 9780   4.807   6.356   1.115
 2961SOL     OW 9781   5.931   2.304   1.927
 2961SOL    HW1 9782   5.948   2.304   2.026
 2961SOL    HW2 9783   6.011   2.264   1.881
 2962SOL     OW 9784   0.069   6.866   4.024
 2962SOL    HW1 9785   0.157   6.845   3.981
 2962SOL    HW2 9786   0.032   6.950   3.986
 2963SOL     OW 9787   1.899   1.307   5.485
 2963SOL    HW1 9788   1.884   1.400   5.452
 2963SOL    HW2 9789   1.843   1.291   5.566
 2964SOL     OW 9790   1.554   0.201   6.496
 2964SOL    HW1 9791   1.467   0.169   6.533
 2964SOL    HW2 9792   1.612   0.122   6.476
 2965SOL     OW 9793   5.891   0.590   6.399
 2965SOL    HW1 9794   5.893   0.500   6.355
 2965SOL    HW2 9795   5.952   0.589   6.479
 2966SOL     OW 9796   3.723   5.832   2.867
 2966SOL    HW1 9797   3.712   5.755   2.930
 2966SOL    HW2 9798   3.634   5.853   2.825
 2967SOL     OW 9799   5.525   6.858   4.795
 2967SOL    HW1 9800   5.495   6.869   4.890
 2967SOL    HW2 9801   5.618   6.821   4.794
 2968SOL     OW 9802   1.164   4.189   1.612
 2968SOL    HW1 9803   1.195   4.106   1.657
 2968SOL    HW2 9804   1.076   4.174   1.569
 2969SOL     OW 9805   4.656   2.619   4.627
 2969SOL    HW1 9806   4.665   2.653   4.534
 2969SOL    HW2 9807   4.652   2.519   4.626
 2970SOL     OW 9808   2.553   2.261   5.788
 2970SOL    HW1 9809   2.531   2.164   5.802
 2970SOL    HW2 9810   2.610   2.294   5.864
 2971SOL     OW 9811   4.345   3.632   6.293
 2971SOL    HW1 9812   4.408   3.646   6.369
 2971SOL    HW2 9813   4.381   3.677   6.211
 2972SOL     OW 9814   0.646   5.847   6.412
 2972SOL    HW1 9815   0.550   5.856   6.438
 2972SOL    HW2 9816   0.652   5.797   6.325
 2973SOL     OW 9817   5.414   0.778   4.318
 2973SOL    HW1 9818   5.441   0.698   4.372
 2973SOL    HW2 9819   5.496   0.831   4.295
 2974SOL     OW 9820   5.740   6.269   2.476
 2974SOL    HW1 9821   5.654   6.319   2.490
 2974SOL    HW2 9822   5.730   6.205   2.400
 2975SOL     OW 9823   6.846   3.416   4.500
 2975SOL    HW1 9824   6.864   3.508   4.535
 2975SOL    HW2 9825   6.931   3.377   4.464
 2976SOL     OW 9826   3.781   0.293   1.548
 2976SOL    HW1 9827   3.832   0.293   1.462
 2976SOL    HW2 9828   3.776   0.387   1.584
 2977SOL     OW 9829   1.847   1.102   2.220
 2977SOL    HW1 9830   1.931   1.136   2.261
 2977SOL    HW2 9831   1.774   1.169   2.232
 2978SOL     OW 9832   3.918   6.000   0.488
 2978SOL    HW1 9833   3.829   5.993   0.533
 2978SOL    HW2 9834   3.903   6.018   0.390
 2979SOL     OW 9835   2.326   1.246   5.698
 2979SOL    HW1 9836   2.293   1.215   5.609
 2979SOL    HW2 9837   2.411   1.198   5.721
 2980SOL     OW 9838   3.442   2.963   3.786
 2980SOL    HW1 9839   3.467   2.870   3.814
 2980SOL    HW2 9840   3.360   2.992   3.835
 2981SOL     OW 9841   3.106   2.174   1.832
 2981SOL    HW1 9842   3.013   2.204   1.853
 2981SOL    HW2 9843   3.158   2.251   1.795
 2982SOL     OW 9844   1.818   0.998   1.339
 2982SOL    HW1 9845   1.904   0.987   1.389
 2982SOL    HW2 9846   1.742   1.002   1.404
 2983SOL     OW 9847   6.472   2.828   6.616
 2983SOL    HW1 9848   6.408   2.801   6.688
 2983SOL    HW2 9849   6.524   2.748   6.587
 2984SOL     OW 9850   0.511   6.232   1.246
 2984SOL    HW1 9851   0.465   6.144   1.262
 2984SOL    HW2 9852   0.512   6.252   1.148
 2985SOL     OW 9853   6.582   0.286   5.651
 2985SOL    HW1 9854   6.672   0.302   5.690
 2985SOL    HW2 9855   6.535   0.215   5.704
 2986SOL     OW 9856   3.525   3.495   2.755
 2986SOL    HW1 9857   3.428   3.474   2.767
 2986SOL    HW2 9858   3.579   3.413   2.771
 2987SOL     OW 9859   2.188   5.591   5.006
 2987SOL    HW1 9860   2.114   5.647   5.044
 2987SOL    HW2 9861   2.257   5.574   5.076
 2988SOL     OW 9862   0.570   1.217   6.717
 2988SOL    HW1 9863   0.477   1.229   6.682
 2988SOL    HW2 9864   0.634   1.214   6.641
 2989SOL     OW 9865   5.658   3.814   5.816
 2989SOL    HW1 9866   5.753   3.806   5.788
 2989SOL    HW2 9867   5.653   3.827   5.915
 2990SOL     OW 9868   4.697   1.113   5.588
 2990SOL    HW1 9869   4.683   1.033   5.647
 2990SOL    HW2 9870   4.642   1.189   5.623
 2991SOL     OW 9871   6.499   2.804   0.151
 2991SOL    HW1 9872   6.405   2.787   0.123
 2991SOL    HW2 9873   6.544   2.862   0.084
 2992SOL     OW 9874   0.879   4.033   5.316
 2992SOL    HW1 9875   0.886   3.962   5.386
 2992SOL    HW2 9876   0.783   4.058   5.304
 2993SOL     OW 9877   3.352   4.968   0.215
 2993SOL    HW1 9878   3.393   5.057   0.193
 2993SOL    HW2 9879   3.319   4.925   0.132
 2994SOL     OW 9880   2.416   5.166   4.932
 2994SOL    HW1 9881   2.359   5.219   4.995
 2994SOL    HW2 9882   2.512   5.179   4.956
 2995SOL     OW 9883   4.957   0.092   1.782
 2995SOL    HW1 9884   5.009   0.170   1.816
 2995SOL    HW2 9885   5.019   0.024   1.744
 2996SOL     OW 9886   6.840   1.007   4.252
 2996SOL    HW1 9887   6.799   1.014   4.161
 2996SOL    HW2 9888   6.775   1.038   4.321
 2997SOL     OW 9889   4.806   5.849   4.131
 2997SOL    HW1 9890   4.841   5.758   4.154
 2997SOL    HW2 9891   4.730   5.872   4.193
 2998SOL     OW 9892   2.509   0.337   2.246
 2998SOL    HW1 9893   2.414   0.355   2.273
 2998SOL    HW2 9894   2.554   0.281   2.315
 2999SOL     OW 9895   1.791   4.912   0.227
 2999SOL    HW1 9896   1.746   4.852   0.294
 2999SOL    HW2 9897   1.771   4.879   0.135
 3000SOL     OW 9898   2.078   3.893   6.298
 3000SOL    HW1 9899   2.140   3.929   6.369
 3000SOL    HW2 9900   2.087   3.949   6.216
 3001SOL     OW 9901   3.706   1.087   6.494
 3001SOL    HW1 9902   3.690   1.023   6.568
 3001SOL    HW2 9903   3.627   1.147   6.484
 3002SOL     OW 9904   1.122   2.092   2.268
 3002SOL    HW1 9905   1.140   2.012   2.211
 3002SOL    HW2 9906   1.131   2.067   2.364
 3003SOL     OW 9907   0.887   5.959   0.555
 3003SOL    HW1 9908   0.867   5.967   0.457
 3003SOL    HW2 9909   0.958   5.890   0.569
 3004SOL     OW 9910   3.299   6.806   4.368
 3004SOL    HW1 9911   3.270   6.859   4.288
 3004SOL    HW2 9912   3.391   6.771   4.353
 3005SOL     OW 9913   2.443   2.274   0.939
 3005SOL    HW1 9914   2.348   2.275   0.970
 3005SOL    HW2 9915   2.467   2.181   0.909
 3006SOL     OW 9916   5.511   1.250   5.984
 3006SOL    HW1 9917   5.594   1.270   5.932
 3006SOL    HW2 9918   5.440   1.217   5.922
 3007SOL     OW 9919   6.172   5.795   6.140
 3007SOL    HW1 9920   6.217   5.884   6.132
 3007SOL    HW2 9921   6.073   5.808   6.138
 3008SOL     OW 9922   5.382   4.252   5.910
 3008SOL    HW1 9923   5.452   4.323   5.908
 3008SOL    HW2 9924   5.313   4.271   5.840
 3009SOL     OW 9925   5.486   3.248   2.019
 3009SOL    HW1 9926   5.440   3.184   1.957
 3009SOL    HW2 9927   5.572   3.279   1.979
 3010SOL     OW 9928   4.206   4.810   1.670
 3010SOL    HW1 9929   4.191   4.908   1.687
 3010SOL    HW2 9930   4.283   4.779   1.726
 3011SOL     OW 9931   5.961   6.760   0.081
 3011SOL    HW1 9932   5.972   6.836   0.146
 3011SOL    HW2 9933   5.930   6.679   0.130
 3012SOL     OW 9934   2.390   1.327   4.552
 3012SOL    HW1 9935   2.353   1.273   4.477
 3012SOL    HW2 9936   2.418   1.267   4.627
 3013SOL     OW 9937   0.741   5.698   5.183
 3013SOL    HW1 9938   0.659   5.652   5.149
 3013SOL    HW2 9939   0.758   5.672   5.278
 3014SOL     OW 9940   3.624   0.140   0.255
 3014SOL    HW1 9941   3.631   0.143   0.155
 3014SOL    HW2 9942   3.529   0.122   0.281
 3015SOL     OW 9943   2.167   6.946   6.015
 3015SOL    HW1 9944   2.116   6.971   6.097
 3015SOL    HW2 9945   2.256   6.909   6.041
 3016SOL     OW 9946   3.273   1.191   4.356
 3016SOL    HW1 9947   3.327   1.218   4.436
 3016SOL    HW2 9948   3.179   1.172   4.384
 3017SOL     OW 9949   1.198   6.186   0.164
 3017SOL    HW1 9950   1.248   6.221   0.243
 3017SOL    HW2 9951   1.126   6.251   0.138
 3018SOL     OW 9952   2.679   2.415   1.465
 3018SOL    HW1 9953   2.721   2.326   1.484
 3018SOL    HW2 9954   2.678   2.470   1.548
 3019SOL     OW 9955   1.546   0.416   5.201
 3019SOL    HW1 9956   1.579   0.488   5.139
 3019SOL    HW2 9957   1.614   0.400   5.272
 3020SOL     OW 9958   4.896   4.451   6.937
 3020SOL    HW1 9959   4.863   4.542   6.913
 3020SOL    HW2 9960   4.866   4.385   6.868
 3021SOL     OW 9961   4.477   6.343   4.419
 3021SOL    HW1 9962   4.394   6.395   4.398
 3021SOL    HW2 9963   4.556   6.389   4.378
 3022SOL     OW 9964   3.953   6.884   3.913
 3022SOL    HW1 9965   4.025   6.850   3.973
 3022SOL    HW2 9966   3.868   6.834   3.932
 3023SOL     OW 9967   5.209   4.643   5.171
 3023SOL    HW1 9968   5.296   4.691   5.183
 3023SOL    HW2 9969   5.216   4.580   5.093
 3024SOL     OW 9970   6.385   1.451   0.084
 3024SOL    HW1 9971   6.339   1.443   7.014
 3024SOL    HW2 9972   6.346   1.386   0.149
 3025SOL     OW 9973   4.547   5.193   1.100
 3025SOL    HW1 9974   4.554   5.260   1.173
 3025SOL    HW2 9975   4.451   5.176   1.078
 3026SOL     OW 9976   0.294   0.221   2.524
 3026SOL    HW1 9977   0.307   0.232   2.425
 3026SOL    HW2 9978   0.364   0.158   2.559
 3027SOL     OW 9979   4.230   0.121   0.765
 3027SOL    HW1 9980   4.156   0.055   0.752
 3027SOL    HW2 9981   4.286   0.094   0.844
 3028SOL     OW 9982   3.717   3.345   4.513
 3028SOL    HW1 9983   3.619   3.332   4.500
 3028SOL    HW2 9984   3.757   3.383   4.429
 3029SOL     OW 9985   0.348   2.225   4.948
 3029SOL    HW1 9986   0.333   2.126   4.938
 3029SOL    HW2 9987   0.293   2.260   5.024
 3030SOL     OW 9988   0.799   3.216   6.136
 3030SOL    HW1 9989   0.757   3.133   6.099
 3030SOL    HW2 9990   0.897   3.214   6.118
 3031SOL     OW 9991   0.488   4.710   6.755
 3031SOL    HW1 9992   0.483   4.727   6.656
 3031SOL    HW2 9993   0.580   4.679   6.779
 3032SOL     OW 9994   3.625   6.773   3.728
 3032SOL    HW1 9995   3.652   6.869   3.733
 3032SOL    HW2 9996   3.706   6.716   3.712
 3033SOL     OW 9997   1.872   0.913   6.703
 3033SOL    HW1 9998   1.904   1.003   6.733
 3033SOL    HW2 9999   1.825   0.868   6.779
 3034SOL     OW10000   5.689   3.374   3.371
 3034SOL    HW110001   5.651   3.421   3.291
 3034SOL    HW210002   5.624   3.378   3.447
 3035SOL     OW10003   6.869   3.287   6.675
 3035SOL    HW110004   6.838   3.381   6.655
 3035SOL    HW210005   6.867   3.233   6.591
 3036SOL     OW10006   3.388   1.872   6.057
 3036SOL    HW110007   3.480   1.836   6.044
 3036SOL    HW210008   3.377   1.957   6.005
 3037SOL     OW10009   0.408   4.958   6.355
 3037SOL    HW110010   0.386   4.910   6.270
 3037SOL    HW210011   0.478   5.027   6.337
 3038SOL     OW10012   6.076   4.768   5.171
 3038SOL    HW110013   6.041   4.700   5.235
 3038SOL    HW210014   6.088   4.726   5.081
 3039SOL     OW10015   5.809   3.269   6.277
 3039SOL    HW110016   5.766   3.357   6.297
 3039SOL    HW210017   5.781   3.238   6.186
 3040SOL     OW10018   3.830   6.648   6.499
 3040SOL    HW110019   3.776   6.650   6.415
 3040SOL    HW210020   3.921   6.609   6.479
 3041SOL     OW10021   2.192   5.586   6.998
 3041SOL    HW110022   2.243   5.598   0.065
 3041SOL    HW210023   2.161   5.491   6.990
 3042SOL     OW10024   0.034   5.120   3.992
 3042SOL    HW110025   0.075   5.123   4.082
 3042SOL    HW210026   0.007   5.026   3.971
 3043SOL     OW10027   2.566   4.024   1.236
 3043SOL    HW110028   2.606   4.067   1.155
 3043SOL    HW210029   2.632   3.959   1.275
 3044SOL     OW10030   4.001   3.521   4.620
 3044SOL    HW110031   4.044   3.491   4.535
 3044SOL    HW210032   3.991   3.443   4.682
 3045SOL     OW10033   5.368   0.424   3.177
 3045SOL    HW110034   5.333   0.352   3.117
 3045SOL    HW210035   5.358   0.513   3.132
 3046SOL     OW10036   6.379   5.662   1.338
 3046SOL    HW110037   6.478   5.667   1.338
 3046SOL    HW210038   6.340   5.752   1.318
 3047SOL     OW10039   5.509   1.797   3.525
 3047SOL    HW110040   5.555   1.710   3.506
 3047SOL    HW210041   5.568   1.873   3.497
 3048SOL     OW10042   4.471   4.804   1.319
 3048SOL    HW110043   4.374   4.818   1.340
 3048SOL    HW210044   4.509   4.890   1.284
 3049SOL     OW10045   0.418   0.727   1.899
 3049SOL    HW110046   0.378   0.817   1.885
 3049SOL    HW210047   0.488   0.733   1.971
 3050SOL     OW10048   3.946   2.300   6.273
 3050SOL    HW110049   3.949   2.350   6.186
 3050SOL    HW210050   3.857   2.255   6.281
 3051SOL     OW10051   2.216   5.140   6.685
 3051SOL    HW110052   2.309   5.173   6.700
 3051SOL    HW210053   2.202   5.122   6.588
 3052SOL     OW10054   5.889   6.355   3.749
 3052SOL    HW110055   5.894   6.443   3.702
 3052SOL    HW210056   5.926   6.365   3.841
 3053SOL     OW10057   0.582   5.154   6.287
 3053SOL    HW110058   0.634   5.178   6.205
 3053SOL    HW210059   0.629   5.189   6.367
 3054SOL     OW10060   6.164   6.709   3.090
 3054SOL    HW110061   6.076   6.752   3.074
 3054SOL    HW210062   6.153   6.610   3.092
 3055SOL     OW10063   5.027   6.380   0.574
 3055SOL    HW110064   4.980   6.460   0.612
 3055SOL    HW210065   5.038   6.392   0.476
 3056SOL     OW10066   4.343   2.257   1.173
 3056SOL    HW110067   4.360   2.318   1.251
 3056SOL    HW210068   4.415   2.187   1.170
 3057SOL     OW10069   6.852   3.740   3.496
 3057SOL    HW110070   6.770   3.697   3.458
 3057SOL    HW210071   6.870   3.826   3.447
 3058SOL     OW10072   6.713   4.515   5.745
 3058SOL    HW110073   6.805   4.516   5.785
 3058SOL    HW210074   6.645   4.508   5.819
 3059SOL     OW10075   1.456   2.469   3.374
 3059SOL    HW110076   1.398   2.441   3.450
 3059SOL    HW210077   1.513   2.392   3.345
 3060SOL     OW10078   5.724   3.780   3.277
 3060SOL    HW110079   5.747   3.747   3.369
 3060SOL    HW210080   5.755   3.713   3.209
 3061SOL     OW10081   5.945   6.436   2.704
 3061SOL    HW110082   5.862   6.458   2.653
 3061SOL    HW210083   5.925   6.367   2.773
 3062SOL     OW10084   3.904   5.040   1.240
 3062SOL    HW110085   3.925   5.016   1.146
 3062SOL    HW210086   3.806   5.036   1.255
 3063SOL     OW10087   6.464   4.803   0.186
 3063SOL    HW110088   6.459   4.763   0.094
 3063SOL    HW210089   6.393   4.872   0.196
 3064SOL     OW10090   4.761   1.873   6.113
 3064SOL    HW110091   4.674   1.826   6.100
 3064SOL    HW210092   4.756   1.930   6.195
 3065SOL     OW10093   5.449   0.877   6.613
 3065SOL    HW110094   5.371   0.821   6.644
 3065SOL    HW210095   5.517   0.882   6.686
 3066SOL     OW10096   5.695   0.168   6.152
 3066SOL    HW110097   5.734   0.124   6.233
 3066SOL    HW210098   5.597   0.181   6.165
 3067SOL     OW10099   2.074   2.050   4.661
 3067SOL    HW110100   2.012   2.070   4.585
 3067SOL    HW210101   2.123   2.133   4.687
 3068SOL     OW10102   5.638   0.040   0.569
 3068SOL    HW110103   5.652   6.959   0.562
 3068SOL    HW210104   5.724   0.088   0.548
 3069SOL     OW10105   5.610   6.490   3.590
 3069SOL    HW110106   5.596   6.398   3.626
 3069SOL    HW210107   5.529   6.546   3.607
 3070SOL     OW10108   3.145   1.051   1.408
 3070SOL    HW110109   3.081   1.124   1.434
 3070SOL    HW210110   3.110   1.004   1.327
 3071SOL     OW10111   5.684   4.648   5.035
 3071SOL    HW110112   5.770   4.597   5.044
 3071SOL    HW210113   5.623   4.599   4.972
 3072SOL     OW10114   1.447   6.733   5.327
 3072SOL    HW110115   1.420   6.827   5.348
 3072SOL    HW210116   1.380   6.670   5.366
 3073SOL     OW10117   6.445   5.931   2.570
 3073SOL    HW110118   6.368   5.928   2.506
 3073SOL    HW210119   6.425   5.873   2.649
 3074SOL     OW10120   3.171   2.860   1.709
 3074SOL    HW110121   3.267   2.885   1.694
 3074SOL    HW210122   3.144   2.888   1.802
 3075SOL     OW10123   3.921   4.983   0.969
 3075SOL    HW110124   3.841   4.934   0.936
 3075SOL    HW210125   3.940   5.060   0.908
 3076SOL     OW10126   2.186   1.550   3.888
 3076SOL    HW110127   2.168   1.603   3.805
 3076SOL    HW210128   2.170   1.607   3.969
 3077SOL     OW10129   6.993   3.754   2.096
 3077SOL    HW110130   0.034   3.674   2.088
 3077SOL    HW210131   7.010   3.799   2.184
 3078SOL     OW10132   6.647   4.358   0.616
 3078SOL    HW110133   6.609   4.403   0.697
 3078SOL    HW210134   6.734   4.401   0.591
 3079SOL     OW10135   0.775   3.808   3.658
 3079SOL    HW110136   0.776   3.718   3.614
 3079SOL    HW210137   0.765   3.879   3.588
 3080SOL     OW10138   3.775   4.780   1.698
 3080SOL    HW110139   3.860   4.755   1.745
 3080SOL    HW210140   3.699   4.726   1.734
 3081SOL     OW10141   1.912   2.825   6.273
 3081SOL    HW110142   1.933   2.771   6.191
 3081SOL    HW210143   1.828   2.877   6.258
 3082SOL     OW10144   5.585   4.244   4.702
 3082SOL    HW110145   5.506   4.205   4.749
 3082SOL    HW210146   5.582   4.219   4.605
 3083SOL     OW10147   3.977   5.550   1.073
 3083SOL    HW110148   4.055   5.500   1.111
 3083SOL    HW210149   3.963   5.523   0.978
 3084SOL     OW10150   6.843   5.435   4.272
 3084SOL    HW110151   6.772   5.472   4.331
 3084SOL    HW210152   6.920   5.498   4.268
 3085SOL     OW10153   6.431   5.726   6.918
 3085SOL    HW110154   6.338   5.763   6.926
 3085SOL    HW210155   6.427   5.636   6.874
 3086SOL     OW10156   6.157   6.432   6.486
 3086SOL    HW110157   6.077   6.418   6.544
 3086SOL    HW210158   6.237   6.445   6.544
 3087SOL     OW10159   2.903   0.458   2.070
 3087SOL    HW110160   2.916   0.556   2.090
 3087SOL    HW210161   2.978   0.406   2.111
 3088SOL     OW10162   2.465   3.434   5.441
 3088SOL    HW110163   2.496   3.510   5.498
 3088SOL    HW210164   2.390   3.465   5.382
 3089SOL     OW10165   3.956   6.664   0.083
 3089SOL    HW110166   3.898   6.718   0.023
 3089SOL    HW210167   3.980   6.578   0.039
 3090SOL     OW10168   1.529   2.090   2.370
 3090SOL    HW110169   1.531   2.131   2.461
 3090SOL    HW210170   1.435   2.082   2.338
 3091SOL     OW10171   1.217   2.653   6.817
 3091SOL    HW110172   1.227   2.559   6.785
 3091SOL    HW210173   1.161   2.705   6.753
 3092SOL     OW10174   5.009   1.169   3.412
 3092SOL    HW110175   5.029   1.266   3.424
 3092SOL    HW210176   4.980   1.152   3.318
 3093SOL     OW10177   6.494   4.928   6.713
 3093SOL    HW110178   6.526   5.022   6.702
 3093SOL    HW210179   6.414   4.926   6.774
 3094SOL     OW10180   2.388   1.368   6.003
 3094SOL    HW110181   2.343   1.436   5.945
 3094SOL    HW210182   2.426   1.412   6.084
 3095SOL     OW10183   1.675   3.629   5.378
 3095SOL    HW110184   1.672   3.633   5.278
 3095SOL    HW210185   1.582   3.628   5.414
 3096SOL     OW10186   1.722   2.795   3.718
 3096SOL    HW110187   1.685   2.707   3.749
 3096SOL    HW210188   1.677   2.869   3.767
 3097SOL     OW10189   5.518   2.798   5.711
 3097SOL    HW110190   5.424   2.826   5.696
 3097SOL    HW210191   5.575   2.831   5.636
 3098SOL     OW10192   1.489   3.262   2.278
 3098SOL    HW110193   1.400   3.304   2.264
 3098SOL    HW210194   1.494   3.222   2.370
 3099SOL     OW10195   0.753   6.761   5.781
 3099SOL    HW110196   0.760   6.718   5.691
 3099SOL    HW210197   0.837   6.746   5.832
 3100SOL     OW10198   6.065   4.453   2.174
 3100SOL    HW110199   6.082   4.548   2.200
 3100SOL    HW210200   5.977   4.446   2.127
 3101SOL     OW10201   5.229   0.788   4.792
 3101SOL    HW110202   5.268   0.698   4.775
 3101SOL    HW210203   5.287   0.858   4.750
 3102SOL     OW10204   5.914   4.182   2.588
 3102SOL    HW110205   5.947   4.124   2.514
 3102SOL    HW210206   5.823   4.217   2.565
 3103SOL     OW10207   1.522   1.205   2.206
 3103SOL    HW110208   1.439   1.250   2.237
 3103SOL    HW210209   1.595   1.272   2.195
 3104SOL     OW10210   6.015   1.990   6.110
 3104SOL    HW110211   6.019   1.964   6.013
 3104SOL    HW210212   5.919   1.989   6.140
 3105SOL     OW10213   5.813   4.273   0.412
 3105SOL    HW110214   5.740   4.296   0.476
 3105SOL    HW210215   5.871   4.202   0.452
 3106SOL     OW10216   5.338   1.704   6.105
 3106SOL    HW110217   5.304   1.612   6.128
 3106SOL    HW210218   5.260   1.763   6.083
 3107SOL     OW10219   4.283   2.334   4.792
 3107SOL    HW110220   4.231   2.391   4.856
 3107SOL    HW210221   4.222   2.268   4.748
 3108SOL     OW10222   1.807   4.495   3.625
 3108SOL    HW110223   1.892   4.497   3.678
 3108SOL    HW210224   1.732   4.462   3.683
 3109SOL     OW10225   6.905   5.652   3.282
 3109SOL    HW110226   6.947   5.567   3.313
 3109SOL    HW210227   6.846   5.633   3.203
 3110SOL     OW10228   1.363   5.999   4.455
 3110SOL    HW110229   1.384   5.926   4.390
 3110SOL    HW210230   1.404   5.979   4.544
 3111SOL     OW10231   6.802   3.933   4.125
 3111SOL    HW110232   6.716   3.971   4.161
 3111SOL    HW210233   6.825   3.850   4.176
 3112SOL     OW10234   4.475   0.865   0.836
 3112SOL    HW110235   4.450   0.956   0.870
 3112SOL    HW210236   4.472   0.800   0.911
 3113SOL     OW10237   1.120   0.281   4.040
 3113SOL    HW110238   1.109   0.213   4.112
 3113SOL    HW210239   1.214   0.314   4.039
 3114SOL     OW10240   4.658   6.149   5.266
 3114SOL    HW110241   4.628   6.243   5.281
 3114SOL    HW210242   4.598   6.105   5.200
 3115SOL     OW10243   4.610   5.915   4.303
 3115SOL    HW110244   4.635   5.928   4.399
 3115SOL    HW210245   4.524   5.963   4.284
 3116SOL     OW10246   0.890   2.098   6.636
 3116SOL    HW110247   0.868   2.016   6.689
 3116SOL    HW210248   0.807   2.152   6.623
 3117SOL     OW10249   4.162   6.689   0.831
 3117SOL    HW110250   4.137   6.781   0.800
 3117SOL    HW210251   4.244   6.659   0.783
 3118SOL     OW10252   1.042   1.964   3.177
 3118SOL    HW110253   1.136   1.934   3.162
 3118SOL    HW210254   0.987   1.943   3.096
 3119SOL     OW10255   4.404   6.613   3.978
 3119SOL    HW110256   4.389   6.514   3.974
 3119SOL    HW210257   4.471   6.634   4.049
 3120SOL     OW10258   3.046   6.299   6.840
 3120SOL    HW110259   2.969   6.356   6.867
 3120SOL    HW210260   3.132   6.347   6.860
 3121SOL     OW10261   3.564   2.101   3.500
 3121SOL    HW110262   3.651   2.123   3.455
 3121SOL    HW210263   3.579   2.028   3.567
 3122SOL     OW10264   5.536   3.785   6.093
 3122SOL    HW110265   5.451   3.734   6.085
 3122SOL    HW210266   5.516   3.881   6.111
 3123SOL     OW10267   1.902   2.820   2.883
 3123SOL    HW110268   1.999   2.846   2.891
 3123SOL    HW210269   1.858   2.828   2.973
 3124SOL     OW10270   4.837   6.578   5.821
 3124SOL    HW110271   4.810   6.641   5.893
 3124SOL    HW210272   4.934   6.555   5.832
 3125SOL     OW10273   1.657   1.950   5.108
 3125SOL    HW110274   1.691   1.877   5.048
 3125SOL    HW210275   1.620   1.909   5.191
 3126SOL     OW10276   4.775   4.465   5.708
 3126SOL    HW110277   4.759   4.406   5.629
 3126SOL    HW210278   4.866   4.505   5.703
 3127SOL     OW10279   6.467   2.138   5.617
 3127SOL    HW110280   6.429   2.048   5.641
 3127SOL    HW210281   6.495   2.185   5.700
 3128SOL     OW10282   3.800   0.907   0.817
 3128SOL    HW110283   3.897   0.904   0.842
 3128SOL    HW210284   3.747   0.941   0.895
 3129SOL     OW10285   4.304   4.625   0.399
 3129SOL    HW110286   4.268   4.539   0.363
 3129SOL    HW210287   4.371   4.605   0.471
 3130SOL     OW10288   6.612   6.255   2.101
 3130SOL    HW110289   6.630   6.344   2.141
 3130SOL    HW210290   6.546   6.206   2.157
 3131SOL     OW10291   6.645   3.012   3.370
 3131SOL    HW110292   6.598   2.998   3.283
 3131SOL    HW210293   6.734   2.966   3.367
 3132SOL     OW10294   4.661   4.165   6.536
 3132SOL    HW110295   4.601   4.091   6.565
 3132SOL    HW210296   4.608   4.234   6.488
 3133SOL     OW10297   5.352   6.534   3.326
 3133SOL    HW110298   5.349   6.501   3.231
 3133SOL    HW210299   5.336   6.457   3.388
 3134SOL     OW10300   5.131   4.559   2.813
 3134SOL    HW110301   5.100   4.654   2.818
 3134SOL    HW210302   5.054   4.499   2.794
 3135SOL     OW10303   3.493   0.448   6.241
 3135SOL    HW110304   3.579   0.426   6.287
 3135SOL    HW210305   3.475   0.546   6.251
 3136SOL     OW10306   6.838   6.853   2.306
 3136SOL    HW110307   6.888   6.939   2.299
 3136SOL    HW210308   6.742   6.869   2.284
 3137SOL     OW10309   4.709   5.036   6.986
 3137SOL    HW110310   4.676   4.942   6.977
 3137SOL    HW210311   4.713   5.078   6.896
 3138SOL     OW10312   6.856   6.598   4.788
 3138SOL    HW110313   6.872   6.692   4.821
 3138SOL    HW210314   6.799   6.601   4.706
 3139SOL     OW10315   1.502   5.048   1.687
 3139SOL    HW110316   1.432   4.979   1.665
 3139SOL    HW210317   1.593   5.008   1.677
 3140SOL     OW10318   5.079   6.079   6.996
 3140SOL    HW110319   5.154   6.080   0.044
 3140SOL    HW210320   5.107   6.031   6.913
 3141SOL     OW10321   5.676   1.685   0.054
 3141SOL    HW110322   5.677   1.607   7.009
 3141SOL    HW210323   5.631   1.659   0.139
 3142SOL     OW10324   4.565   1.197   4.027
 3142SOL    HW110325   4.546   1.295   4.018
 3142SOL    HW210326   4.516   1.161   4.106
 3143SOL     OW10327   6.864   1.457   0.554
 3143SOL    HW110328   6.916   1.542   0.541
 3143SOL    HW210329   6.774   1.466   0.513
 3144SOL     OW10330   4.162   4.971   0.132
 3144SOL    HW110331   4.196   4.941   0.044
 3144SOL    HW210332   4.221   4.936   0.205
 3145SOL     OW10333   1.347   5.502   5.769
 3145SOL    HW110334   1.409   5.426   5.791
 3145SOL    HW210335   1.284   5.473   5.697
 3146SOL     OW10336   6.178   2.155   4.406
 3146SOL    HW110337   6.078   2.164   4.413
 3146SOL    HW210338   6.214   2.231   4.352
 3147SOL     OW10339   4.838   6.696   1.163
 3147SOL    HW110340   4.770   6.676   1.234
 3147SOL    HW210341   4.800   6.672   1.073
 3148SOL     OW10342   6.191   4.792   0.055
 3148SOL    HW110343   6.122   4.727   0.024
 3148SOL    HW210344   6.265   4.743   0.102
 3149SOL     OW10345   4.086   3.161   6.892
 3149SOL    HW110346   4.146   3.129   6.820
 3149SOL    HW210347   4.021   3.227   6.855
 3150SOL     OW10348   0.057   0.090   5.266
 3150SOL    HW110349   0.051   0.119   5.361
 3150SOL    HW210350   0.041   0.169   5.206
 3151SOL     OW10351   6.596   1.324   6.095
 3151SOL    HW110352   6.642   1.243   6.060
 3151SOL    HW210353   6.570   1.309   6.191
 3152SOL     OW10354   2.504   1.810   5.396
 3152SOL    HW110355   2.468   1.776   5.483
 3152SOL    HW210356   2.463   1.757   5.321
 3153SOL     OW10357   5.800   5.876   1.873
 3153SOL    HW110358   5.780   5.933   1.793
 3153SOL    HW210359   5.818   5.935   1.952
 3154SOL     OW10360   3.395   1.859   0.968
 3154SOL    HW110361   3.384   1.930   0.898
 3154SOL    HW210362   3.345   1.777   0.940
 3155SOL     OW10363   0.240   5.485   6.751
 3155SOL    HW110364   0.223   5.583   6.739
 3155SOL    HW210365   0.326   5.460   6.705
 3156SOL     OW10366   3.203   4.198   1.259
 3156SOL    HW110367   3.152   4.249   1.328
 3156SOL    HW210368   3.301   4.211   1.273
 3157SOL     OW10369   1.674   1.328   3.843
 3157SOL    HW110370   1.748   1.376   3.795
 3157SOL    HW210371   1.601   1.393   3.863
 3158SOL     OW10372   2.734   0.723   6.298
 3158SOL    HW110373   2.825   0.703   6.260
 3158SOL    HW210374   2.664   0.702   6.230
 3159SOL     OW10375   5.066   6.956   1.426
 3159SOL    HW110376   5.030   0.032   1.431
 3159SOL    HW210377   4.996   6.891   1.455
 3160SOL     OW10378   2.426   0.892   4.611
 3160SOL    HW110379   2.331   0.915   4.589
 3160SOL    HW210380   2.433   0.863   4.706
 3161SOL     OW10381   1.744   2.842   1.927
 3161SOL    HW110382   1.797   2.821   1.845
 3161SOL    HW210383   1.727   2.941   1.931
 3162SOL     OW10384   1.182   5.804   1.944
 3162SOL    HW110385   1.278   5.827   1.962
 3162SOL    HW210386   1.178   5.727   1.880
 3163SOL     OW10387   4.679   4.619   1.262
 3163SOL    HW110388   4.608   4.678   1.300
 3163SOL    HW210389   4.641   4.527   1.245
 3164SOL     OW10390   2.498   6.812   4.174
 3164SOL    HW110391   2.426   6.806   4.243
 3164SOL    HW210392   2.571   6.871   4.208
 3165SOL     OW10393   0.838   5.623   6.806
 3165SOL    HW110394   0.833   5.700   6.742
 3165SOL    HW210395   0.864   5.656   6.896
 3166SOL     OW10396   4.287   1.980   4.769
 3166SOL    HW110397   4.281   1.881   4.756
 3166SOL    HW210398   4.340   1.999   4.852
 3167SOL     OW10399   6.296   2.994   1.707
 3167SOL    HW110400   6.204   2.983   1.671
 3167SOL    HW210401   6.355   2.920   1.672
 3168SOL     OW10402   5.455   1.286   1.286
 3168SOL    HW110403   5.466   1.203   1.342
 3168SOL    HW210404   5.385   1.270   1.217
 3169SOL     OW10405   0.652   3.691   1.624
 3169SOL    HW110406   0.634   3.781   1.663
 3169SOL    HW210407   0.654   3.698   1.524
 3170SOL     OW10408   2.158   4.239   3.726
 3170SOL    HW110409   2.226   4.243   3.653
 3170SOL    HW210410   2.081   4.182   3.697
 3171SOL     OW10411   5.373   1.337   5.082
 3171SOL    HW110412   5.467   1.343   5.048
 3171SOL    HW210413   5.319   1.280   5.019
 3172SOL     OW10414   5.995   4.021   1.322
 3172SOL    HW110415   5.901   3.991   1.336
 3172SOL    HW210416   5.995   4.100   1.259
 3173SOL     OW10417   5.545   3.331   6.941
 3173SOL    HW110418   5.508   3.239   6.946
 3173SOL    HW210419   5.514   3.384   0.002
 3174SOL     OW10420   3.343   2.369   6.512
 3174SOL    HW110421   3.411   2.385   6.584
 3174SOL    HW210422   3.332   2.452   6.457
 3175SOL     OW10423   5.882   6.431   5.327
 3175SOL    HW110424   5.783   6.421   5.319
 3175SOL    HW210425   5.917   6.366   5.394
 3176SOL     OW10426   0.653   5.118   4.059
 3176SOL    HW110427   0.722   5.045   4.063
 3176SOL    HW210428   0.688   5.199   4.105
 3177SOL     OW10429   4.824   3.034   3.041
 3177SOL    HW110430   4.838   3.008   3.136
 3177SOL    HW210431   4.824   3.133   3.032
 3178SOL     OW10432   0.957   0.393   2.660
 3178SOL    HW110433   1.032   0.370   2.722
 3178SOL    HW210434   0.939   0.492   2.665
 3179SOL     OW10435   0.871   3.177   2.071
 3179SOL    HW110436   0.867   3.266   2.118
 3179SOL    HW210437   0.967   3.153   2.055
 3180SOL     OW10438   6.474   6.610   0.116
 3180SOL    HW110439   6.499   6.539   0.050
 3180SOL    HW210440   6.422   6.682   0.070
 3181SOL     OW10441   0.566   6.032   4.810
 3181SOL    HW110442   0.664   6.022   4.828
 3181SOL    HW210443   0.544   6.129   4.796
 3182SOL     OW10444   1.274   6.863   1.247
 3182SOL    HW110445   1.297   6.904   1.335
 3182SOL    HW210446   1.217   6.925   1.195
 3183SOL     OW10447   4.335   3.981   0.704
 3183SOL    HW110448   4.262   3.919   0.674
 3183SOL    HW210449   4.295   4.058   0.754
 3184SOL     OW10450   6.151   1.251   4.098
 3184SOL    HW110451   6.236   1.224   4.145
 3184SOL    HW210452   6.164   1.242   3.999
 3185SOL     OW10453   0.963   6.709   5.928
 3185SOL    HW110454   1.062   6.715   5.930
 3185SOL    HW210455   0.934   6.619   5.961
 3186SOL     OW10456   0.554   2.371   5.759
 3186SOL    HW110457   0.518   2.280   5.782
 3186SOL    HW210458   0.559   2.381   5.660
 3187SOL     OW10459   5.426   0.135   3.425
 3187SOL    HW110460   5.475   0.220   3.406
 3187SOL    HW210461   5.474   0.059   3.382
 3188SOL     OW10462   1.678   6.176   1.119
 3188SOL    HW110463   1.607   6.244   1.097
 3188SOL    HW210464   1.657   6.090   1.074
 3189SOL     OW10465   2.495   1.470   6.227
 3189SOL    HW110466   2.422   1.494   6.290
 3189SOL    HW210467   2.561   1.410   6.272
 3190SOL     OW10468   5.981   6.476   4.166
 3190SOL    HW110469   6.031   6.401   4.123
 3190SOL    HW210470   5.889   6.483   4.126
 3191SOL     OW10471   3.620   4.812   1.476
 3191SOL    HW110472   3.696   4.796   1.539
 3191SOL    HW210473   3.546   4.859   1.525
 3192SOL     OW10474   5.310   0.646   3.030
 3192SOL    HW110475   5.397   0.689   3.006
 3192SOL    HW210476   5.249   0.714   3.071
 3193SOL     OW10477   3.253   5.156   4.869
 3193SOL    HW110478   3.285   5.216   4.943
 3193SOL    HW210479   3.330   5.136   4.807
 3194SOL     OW10480   2.055   6.821   4.992
 3194SOL    HW110481   2.038   6.887   4.918
 3194SOL    HW210482   2.068   6.870   5.078
 3195SOL     OW10483   0.409   6.584   0.154
 3195SOL    HW110484   0.408   6.680   0.183
 3195SOL    HW210485   0.456   6.530   0.224
 3196SOL     OW10486   6.452   0.031   2.451
 3196SOL    HW110487   6.530   0.039   2.512
 3196SOL    HW210488   6.394   6.973   2.481
 3197SOL     OW10489   2.750   0.749   0.113
 3197SOL    HW110490   2.811   0.826   0.094
 3197SOL    HW210491   2.682   0.741   0.040
 3198SOL     OW10492   5.385   3.369   4.120
 3198SOL    HW110493   5.315   3.436   4.143
 3198SOL    HW210494   5.474   3.414   4.114
 3199SOL     OW10495   4.853   3.916   3.304
 3199SOL    HW110496   4.842   3.823   3.339
 3199SOL    HW210497   4.904   3.971   3.370
 3200SOL     OW10498   5.949   3.709   4.906
 3200SOL    HW110499   6.045   3.698   4.878
 3200SOL    HW210500   5.937   3.800   4.947
 3201SOL     OW10501   6.462   4.024   1.981
 3201SOL    HW110502   6.489   4.057   2.072
 3201SOL    HW210503   6.497   4.085   1.911
 3202SOL     OW10504   2.982   2.738   6.138
 3202SOL    HW110505   3.029   2.805   6.194
 3202SOL    HW210506   3.031   2.725   6.052
 3203SOL     OW10507   3.442   6.644   1.966
 3203SOL    HW110508   3.511   6.710   1.995
 3203SOL    HW210509   3.390   6.681   1.889
 3204SOL     OW10510   4.579   0.558   4.007
 3204SOL    HW110511   4.541   0.650   4.002
 3204SOL    HW210512   4.546   0.513   4.090
 3205SOL     OW10513   4.509   2.639   6.320
 3205SOL    HW110514   4.409   2.648   6.322
 3205SOL    HW210515   4.541   2.604   6.408
 3206SOL     OW10516   3.054   4.667   0.813
 3206SOL    HW110517   3.081   4.763   0.814
 3206SOL    HW210518   3.097   4.621   0.735
 3207SOL     OW10519   2.339   6.304   3.579
 3207SOL    HW110520   2.302   6.274   3.667
 3207SOL    HW210521   2.264   6.328   3.518
 3208SOL     OW10522   6.796   3.907   5.700
 3208SOL    HW110523   6.861   3.948   5.764
 3208SOL    HW210524   6.781   3.811   5.725
 3209SOL     OW10525   4.963   6.843   5.979
 3209SOL    HW110526   5.062   6.842   5.965
 3209SOL    HW210527   4.942   6.865   6.074
 3210SOL     OW10528   5.219   5.385   1.890
 3210SOL    HW110529   5.143   5.335   1.848
 3210SOL    HW210530   5.184   5.438   1.968
 3211SOL     OW10531   1.989   6.337   6.375
 3211SOL    HW110532   1.993   6.437   6.377
 3211SOL    HW210533   1.939   6.304   6.454
 3212SOL     OW10534   3.563   6.695   4.382
 3212SOL    HW110535   3.557   6.597   4.366
 3212SOL    HW210536   3.574   6.712   4.480
 3213SOL     OW10537   1.361   0.693   5.693
 3213SOL    HW110538   1.380   0.671   5.789
 3213SOL    HW210539   1.276   0.647   5.665
 3214SOL     OW10540   3.727   0.850   2.911
 3214SOL    HW110541   3.656   0.784   2.935
 3214SOL    HW210542   3.817   0.810   2.929
 3215SOL     OW10543   2.080   3.038   2.235
 3215SOL    HW110544   1.988   3.075   2.244
 3215SOL    HW210545   2.122   3.072   2.151
 3216SOL     OW10546   6.203   5.075   0.817
 3216SOL    HW110547   6.106   5.094   0.801
 3216SOL    HW210548   6.212   5.009   0.892
 3217SOL     OW10549   6.645   5.929   4.217
 3217SOL    HW110550   6.695   5.894   4.137
 3217SOL    HW210551   6.695   5.905   4.300
 3218SOL     OW10552   5.805   1.310   3.364
 3218SOL    HW110553   5.785   1.214   3.342
 3218SOL    HW210554   5.903   1.320   3.379
 3219SOL     OW10555   5.720   1.944   4.330
 3219SOL    HW110556   5.630   1.987   4.337
 3219SOL    HW210557   5.755   1.924   4.421
 3220SOL     OW10558   0.222   3.684   5.615
 3220SOL    HW110559   0.284   3.658   5.542
 3220SOL    HW210560   0.134   3.637   5.603
 3221SOL     OW10561   4.251   1.715   2.063
 3221SOL    HW110562   4.171   1.772   2.082
 3221SOL    HW210563   4.234   1.622   2.095
 3222SOL     OW10564   3.394   1.031   3.510
 3222SOL    HW110565   3.300   1.051   3.483
 3222SOL    HW210566   3.440   0.980   3.437
 3223SOL     OW10567   1.705   6.050   0.607
 3223SOL    HW110568   1.738   5.959   0.631
 3223SOL    HW210569   1.739   6.076   0.517
 3224SOL     OW10570   4.782   2.953   4.682
 3224SOL    HW110571   4.700   2.900   4.659
 3224SOL    HW210572   4.773   2.989   4.775
 3225SOL     OW10573   4.583   1.304   4.748
 3225SOL    HW110574   4.497   1.354   4.740
 3225SOL    HW210575   4.565   1.208   4.770
 3226SOL     OW10576   6.401   0.769   0.535
 3226SOL    HW110577   6.362   0.704   0.601
 3226SOL    HW210578   6.498   0.749   0.523
 3227SOL     OW10579   6.017   4.453   5.546
 3227SOL    HW110580   6.073   4.530   5.579
 3227SOL    HW210581   5.938   4.442   5.606
 3228SOL     OW10582   2.430   4.247   0.339
 3228SOL    HW110583   2.368   4.179   0.378
 3228SOL    HW210584   2.502   4.268   0.405
 3229SOL     OW10585   1.441   1.429   1.062
 3229SOL    HW110586   1.486   1.514   1.033
 3229SOL    HW210587   1.342   1.441   1.058
 3230SOL     OW10588   2.902   6.307   5.114
 3230SOL    HW110589   2.949   6.346   5.193
 3230SOL    HW210590   2.918   6.208   5.111
 3231SOL     OW10591   2.471   2.624   2.435
 3231SOL    HW110592   2.530   2.612   2.515
 3231SOL    HW210593   2.404   2.696   2.454
 3232SOL     OW10594   2.587   4.714   3.278
 3232SOL    HW110595   2.671   4.768   3.272
 3232SOL    HW210596   2.523   4.745   3.207
 3233SOL     OW10597   2.646   0.173   6.660
 3233SOL    HW110598   2.626   0.235   6.736
 3233SOL    HW210599   2.567   0.113   6.644
 3234SOL     OW10600   3.358   3.384   1.036
 3234SOL    HW110601   3.298   3.336   1.100
 3234SOL    HW210602   3.445   3.336   1.029
 3235SOL     OW10603   6.610   1.353   2.842
 3235SOL    HW110604   6.633   1.403   2.758
 3235SOL    HW210605   6.512   1.336   2.845
 3236SOL     OW10606   5.385   0.169   0.468
 3236SOL    HW110607   5.423   0.099   0.529
 3236SOL    HW210608   5.449   0.245   0.461
 3237SOL     OW10609   5.789   1.055   5.540
 3237SOL    HW110610   5.751   1.090   5.626
 3237SOL    HW210611   5.809   1.132   5.479
 3238SOL     OW10612   6.408   5.095   1.421
 3238SOL    HW110613   6.416   5.054   1.512
 3238SOL    HW210614   6.325   5.062   1.377
 3239SOL     OW10615   6.018   0.242   5.325
 3239SOL    HW110616   6.088   0.309   5.300
 3239SOL    HW210617   5.928   0.276   5.301
 3240SOL     OW10618   0.921   1.503   0.783
 3240SOL    HW110619   0.998   1.555   0.749
 3240SOL    HW210620   0.912   1.518   0.882
 3241SOL     OW10621   0.269   3.083   5.337
 3241SOL    HW110622   0.176   3.087   5.300
 3241SOL    HW210623   0.329   3.035   5.274
 3242SOL     OW10624   6.946   4.152   4.683
 3242SOL    HW110625   6.898   4.122   4.765
 3242SOL    HW210626   6.980   4.245   4.696
 3243SOL     OW10627   5.578   5.512   4.004
 3243SOL    HW110628   5.483   5.537   3.984
 3243SOL    HW210629   5.634   5.595   4.011
 3244SOL     OW10630   4.941   0.014   6.769
 3244SOL    HW110631   5.002   0.024   6.848
 3244SOL    HW210632   4.880   6.953   6.785
 3245SOL     OW10633   3.315   6.436   4.493
 3245SOL    HW110634   3.408   6.425   4.459
 3245SOL    HW210635   3.314   6.424   4.593
 3246SOL     OW10636   6.601   5.835   3.006
 3246SOL    HW110637   6.664   5.912   2.996
 3246SOL    HW210638   6.514   5.857   2.962
 3247SOL     OW10639   1.944   3.843   3.983
 3247SOL    HW110640   1.857   3.804   4.012
 3247SOL    HW210641   1.981   3.902   4.056
 3248SOL     OW10642   5.988   2.510   3.766
 3248SOL    HW110643   5.945   2.540   3.851
 3248SOL    HW210644   5.954   2.566   3.690
 3249SOL     OW10645   3.584   4.153   3.989
 3249SOL    HW110646   3.661   4.098   3.954
 3249SOL    HW210647   3.616   4.214   4.061
 3250SOL     OW10648   4.556   6.220   3.720
 3250SOL    HW110649   4.607   6.160   3.782
 3250SOL    HW210650   4.566   6.315   3.750
 3251SOL     OW10651   2.471   2.214   2.339
 3251SOL    HW110652   2.445   2.172   2.426
 3251SOL    HW210653   2.395   2.207   2.275
 3252SOL     OW10654   1.841   1.716   2.896
 3252SOL    HW110655   1.827   1.776   2.975
 3252SOL    HW210656   1.826   1.767   2.812
 3253SOL     OW10657   6.769   3.898   0.202
 3253SOL    HW110658   6.818   3.836   0.141
 3253SOL    HW210659   6.692   3.850   0.244
 3254SOL     OW10660   6.127   6.476   0.418
 3254SOL    HW110661   6.212   6.461   0.470
 3254SOL    HW210662   6.145   6.464   0.321
 3255SOL     OW10663   3.536   5.620   2.164
 3255SOL    HW110664   3.635   5.627   2.179
 3255SOL    HW210665   3.517   5.586   2.072
 3256SOL     OW10666   5.880   2.619   1.450
 3256SOL    HW110667   5.966   2.577   1.478
 3256SOL    HW210668   5.824   2.552   1.402
 3257SOL     OW10669   2.872   0.976   3.476
 3257SOL    HW110670   2.786   0.964   3.427
 3257SOL    HW210671   2.888   1.073   3.492
 3258SOL     OW10672   1.412   5.795   4.056
 3258SOL    HW110673   1.450   5.850   3.981
 3258SOL    HW210674   1.384   5.706   4.021
 3259SOL     OW10675   5.694   4.370   4.200
 3259SOL    HW110676   5.750   4.453   4.195
 3259SOL    HW210677   5.751   4.294   4.233
 3260SOL     OW10678   1.487   4.720   2.870
 3260SOL    HW110679   1.404   4.666   2.883
 3260SOL    HW210680   1.490   4.793   2.937
 3261SOL     OW10681   6.091   0.034   4.377
 3261SOL    HW110682   6.074   0.017   4.280
 3261SOL    HW210683   6.023   0.098   4.412
 3262SOL     OW10684   3.126   1.727   3.172
 3262SOL    HW110685   3.070   1.719   3.089
 3262SOL    HW210686   3.102   1.654   3.236
 3263SOL     OW10687   6.082   0.607   1.445
 3263SOL    HW110688   6.039   0.695   1.464
 3263SOL    HW210689   6.171   0.604   1.490
 3264SOL     OW10690   1.598   4.452   0.135
 3264SOL    HW110691   1.564   4.527   0.193
 3264SOL    HW210692   1.583   4.476   0.039
 3265SOL     OW10693   0.176   5.687   6.517
 3265SOL    HW110694   0.166   5.588   6.525
 3265SOL    HW210695   0.087   5.727   6.496
 3266SOL     OW10696   3.762   5.143   6.319
 3266SOL    HW110697   3.798   5.082   6.248
 3266SOL    HW210698   3.665   5.124   6.333
 3267SOL     OW10699   3.447   6.790   1.230
 3267SOL    HW110700   3.502   6.804   1.147
 3267SOL    HW210701   3.368   6.850   1.228
 3268SOL     OW10702   5.723   3.858   1.629
 3268SOL    HW110703   5.682   3.886   1.542
 3268SOL    HW210704   5.708   3.760   1.643
 3269SOL     OW10705   2.086   4.658   1.577
 3269SOL    HW110706   2.111   4.578   1.524
 3269SOL    HW210707   2.166   4.717   1.589
 3270SOL     OW10708   1.481   2.903   5.949
 3270SOL    HW110709   1.505   2.999   5.933
 3270SOL    HW210710   1.405   2.878   5.889
 3271SOL     OW10711   1.126   3.198   1.001
 3271SOL    HW110712   1.219   3.234   1.011
 3271SOL    HW210713   1.093   3.217   0.909
 3272SOL     OW10714   4.076   6.593   1.086
 3272SOL    HW110715   4.116   6.619   0.998
 3272SOL    HW210716   4.030   6.505   1.076
 3273SOL     OW10717   3.927   3.779   6.558
 3273SOL    HW110718   3.906   3.824   6.471
 3273SOL    HW210719   3.863   3.703   6.572
 3274SOL     OW10720   4.713   7.010   1.857
 3274SOL    HW110721   4.797   0.037   1.826
 3274SOL    HW210722   4.634   0.047   1.831
 3275SOL     OW10723   4.978   0.679   1.921
 3275SOL    HW110724   4.986   0.588   1.961
 3275SOL    HW210725   4.891   0.720   1.949
 3276SOL     OW10726   6.301   5.438   0.174
 3276SOL    HW110727   6.336   5.377   0.103
 3276SOL    HW210728   6.377   5.486   0.218
 3277SOL     OW10729   3.847   1.836   2.566
 3277SOL    HW110730   3.910   1.780   2.618
 3277SOL    HW210731   3.759   1.841   2.613
 3278SOL     OW10732   4.906   1.220   6.257
 3278SOL    HW110733   4.811   1.212   6.289
 3278SOL    HW210734   4.960   1.267   6.326
 3279SOL     OW10735   3.864   0.516   2.429
 3279SOL    HW110736   3.958   0.545   2.409
 3279SOL    HW210737   3.850   0.423   2.396
 3280SOL     OW10738   0.495   2.850   4.257
 3280SOL    HW110739   0.535   2.925   4.205
 3280SOL    HW210740   0.539   2.844   4.347
 3281SOL     OW10741   5.876   2.298   2.199
 3281SOL    HW110742   5.859   2.395   2.181
 3281SOL    HW210743   5.800   2.260   2.251
 3282SOL     OW10744   6.228   4.452   5.360
 3282SOL    HW110745   6.150   4.438   5.422
 3282SOL    HW210746   6.250   4.549   5.355
 3283SOL     OW10747   3.179   1.715   0.610
 3283SOL    HW110748   3.102   1.657   0.633
 3283SOL    HW210749   3.148   1.810   0.602
 3284SOL     OW10750   1.960   0.234   5.305
 3284SOL    HW110751   1.890   0.284   5.253
 3284SOL    HW210752   1.920   0.201   5.391
 3285SOL     OW10753   4.011   2.229   3.903
 3285SOL    HW110754   3.955   2.221   3.985
 3285SOL    HW210755   3.959   2.198   3.824
 3286SOL     OW10756   1.528   3.164   2.924
 3286SOL    HW110757   1.594   3.092   2.900
 3286SOL    HW210758   1.504   3.216   2.842
 3287SOL     OW10759   2.333   1.163   0.669
 3287SOL    HW110760   2.330   1.095   0.743
 3287SOL    HW210761   2.385   1.125   0.592
 3288SOL     OW10762   2.772   6.084   2.086
 3288SOL    HW110763   2.816   6.038   2.164
 3288SOL    HW210764   2.830   6.075   2.005
 3289SOL     OW10765   4.991   0.710   6.975
 3289SOL    HW110766   4.985   0.624   0.007
 3289SOL    HW210767   4.985   0.692   6.877
 3290SOL     OW10768   0.830   5.433   0.152
 3290SOL    HW110769   0.731   5.426   0.138
 3290SOL    HW210770   0.853   5.406   0.245
 3291SOL     OW10771   4.968   6.041   5.060
 3291SOL    HW110772   4.963   5.988   4.976
 3291SOL    HW210773   4.921   6.128   5.048
 3292SOL     OW10774   0.137   2.326   0.162
 3292SOL    HW110775   0.126   2.229   0.140
 3292SOL    HW210776   0.122   2.380   0.079
 3293SOL     OW10777   6.377   4.643   2.425
 3293SOL    HW110778   6.441   4.568   2.408
 3293SOL    HW210779   6.289   4.606   2.453
 3294SOL     OW10780   3.588   3.016   5.731
 3294SOL    HW110781   3.627   2.987   5.644
 3294SOL    HW210782   3.507   2.961   5.752
 3295SOL     OW10783   1.488   2.721   3.475
 3295SOL    HW110784   1.523   2.686   3.562
 3295SOL    HW210785   1.466   2.644   3.415
 3296SOL     OW10786   2.515   0.925   6.822
 3296SOL    HW110787   2.562   0.993   6.878
 3296SOL    HW210788   2.579   0.853   6.796
 3297SOL     OW10789   3.692   0.507   5.722
 3297SOL    HW110790   3.648   0.522   5.634
 3297SOL    HW210791   3.791   0.525   5.714
 3298SOL     OW10792   3.401   4.693   5.675
 3298SOL    HW110793   3.478   4.755   5.693
 3298SOL    HW210794   3.320   4.725   5.725
 3299SOL     OW10795   3.262   6.711   4.025
 3299SOL    HW110796   3.295   6.678   3.937
 3299SOL    HW210797   3.260   6.811   4.026
 3300SOL     OW10798   1.899   0.608   3.415
 3300SOL    HW110799   1.934   0.667   3.342
 3300SOL    HW210800   1.828   0.657   3.466
 3301SOL     OW10801   1.069   1.751   2.757
 3301SOL    HW110802   1.146   1.813   2.773
 3301SOL    HW210803   1.103   1.659   2.736
 3302SOL     OW10804   1.384   5.141   5.203
 3302SOL    HW110805   1.469   5.093   5.184
 3302SOL    HW210806   1.353   5.120   5.295
 3303SOL     OW10807   3.779   3.957   0.426
 3303SOL    HW110808   3.784   3.865   0.387
 3303SOL    HW210809   3.750   3.951   0.521
 3304SOL     OW10810   2.276   4.068   0.469
 3304SOL    HW110811   2.200   4.004   0.479
 3304SOL    HW210812   2.348   4.046   0.535
 3305SOL     OW10813   2.753   2.834   0.276
 3305SOL    HW110814   2.755   2.847   0.177
 3305SOL    HW210815   2.831   2.879   0.318
 3306SOL     OW10816   2.741   0.230   0.930
 3306SOL    HW110817   2.822   0.288   0.943
 3306SOL    HW210818   2.659   0.282   0.953
 3307SOL     OW10819   1.888   5.401   4.812
 3307SOL    HW110820   1.979   5.361   4.818
 3307SOL    HW210821   1.821   5.339   4.853
 3308SOL     OW10822   4.679   5.084   1.559
 3308SOL    HW110823   4.703   5.031   1.639
 3308SOL    HW210824   4.626   5.027   1.496
 3309SOL     OW10825   5.890   3.997   3.620
 3309SOL    HW110826   5.845   4.086   3.624
 3309SOL    HW210827   5.984   4.006   3.653
 3310SOL     OW10828   6.201   4.490   6.045
 3310SOL    HW110829   6.205   4.433   6.127
 3310SOL    HW210830   6.250   4.445   5.970
 3311SOL     OW10831   2.265   3.003   0.150
 3311SOL    HW110832   2.199   3.075   0.128
 3311SOL    HW210833   2.352   3.024   0.106
 3312SOL     OW10834   4.793   3.151   0.188
 3312SOL    HW110835   4.695   3.164   0.175
 3312SOL    HW210836   4.828   3.225   0.245
 3313SOL     OW10837   0.233   0.277   4.386
 3313SOL    HW110838   0.182   0.229   4.458
 3313SOL    HW210839   0.243   0.373   4.411
 3314SOL     OW10840   3.411   6.253   3.021
 3314SOL    HW110841   3.504   6.238   3.053
 3314SOL    HW210842   3.414   6.291   2.928
 3315SOL     OW10843   1.270   6.600   4.010
 3315SOL    HW110844   1.277   6.683   4.066
 3315SOL    HW210845   1.250   6.625   3.916
 3316SOL     OW10846   3.600   1.957   0.129
 3316SOL    HW110847   3.617   2.012   0.047
 3316SOL    HW210848   3.548   1.875   0.104
 3317SOL     OW10849   5.812   1.714   1.756
 3317SOL    HW110850   5.867   1.641   1.797
 3317SOL    HW210851   5.868   1.765   1.691
 3318SOL     OW10852   3.601   3.062   0.286
 3318SOL    HW110853   3.643   3.108   0.208
 3318SOL    HW210854   3.585   2.966   0.263
 3319SOL     OW10855   6.559   6.547   4.219
 3319SOL    HW110856   6.625   6.619   4.239
 3319SOL    HW210857   6.604   6.472   4.171
 3320SOL     OW10858   6.270   0.618   2.306
 3320SOL    HW110859   6.225   0.541   2.261
 3320SOL    HW210860   6.280   0.694   2.241
 3321SOL     OW10861   4.833   1.988   0.119
 3321SOL    HW110862   4.905   2.014   0.184
 3321SOL    HW210863   4.755   2.049   0.130
 3322SOL     OW10864   6.038   2.825   1.283
 3322SOL    HW110865   5.960   2.882   1.256
 3322SOL    HW210866   6.004   2.738   1.319
 3323SOL     OW10867   1.729   1.498   1.639
 3323SOL    HW110868   1.736   1.545   1.726
 3323SOL    HW210869   1.652   1.434   1.641
 3324SOL     OW10870   5.730   5.049   5.930
 3324SOL    HW110871   5.774   5.116   5.990
 3324SOL    HW210872   5.669   5.096   5.867
 3325SOL     OW10873   2.771   5.204   5.596
 3325SOL    HW110874   2.803   5.260   5.672
 3325SOL    HW210875   2.813   5.114   5.600
 3326SOL     OW10876   3.633   1.950   2.217
 3326SOL    HW110877   3.561   1.959   2.286
 3326SOL    HW210878   3.655   2.040   2.181
 3327SOL     OW10879   1.572   5.618   6.013
 3327SOL    HW110880   1.523   5.704   6.005
 3327SOL    HW210881   1.556   5.579   6.104
 3328SOL     OW10882   5.144   3.137   5.219
 3328SOL    HW110883   5.091   3.205   5.271
 3328SOL    HW210884   5.226   3.114   5.270
 3329SOL     OW10885   0.110   6.152   5.864
 3329SOL    HW110886   0.031   6.137   5.922
 3329SOL    HW210887   0.190   6.171   5.921
 3330SOL     OW10888   6.729   3.393   3.157
 3330SOL    HW110889   6.806   3.329   3.160
 3330SOL    HW210890   6.644   3.342   3.172
 3331SOL     OW10891   2.005   3.111   0.656
 3331SOL    HW110892   2.009   3.035   0.720
 3331SOL    HW210893   2.098   3.139   0.632
 3332SOL     OW10894   6.595   4.055   1.005
 3332SOL    HW110895   6.586   3.982   1.074
 3332SOL    HW210896   6.586   4.015   0.914
 3333SOL     OW10897   2.764   5.579   5.899
 3333SOL    HW110898   2.721   5.524   5.970
 3333SOL    HW210899   2.849   5.618   5.934
 3334SOL     OW10900   1.506   3.146   1.195
 3334SOL    HW110901   1.456   3.213   1.140
 3334SOL    HW210902   1.599   3.179   1.211
 3335SOL     OW10903   5.582   4.489   4.847
 3335SOL    HW110904   5.582   4.411   4.784
 3335SOL    HW210905   5.574   4.574   4.794
 3336SOL     OW10906   3.169   6.296   5.626
 3336SOL    HW110907   3.080   6.335   5.651
 3336SOL    HW210908   3.193   6.323   5.533
 3337SOL     OW10909   3.503   1.508   0.817
 3337SOL    HW110910   3.485   1.464   0.728
 3337SOL    HW210911   3.428   1.570   0.839
 3338SOL     OW10912   6.903   4.678   7.015
 3338SOL    HW110913   6.980   4.741   7.003
 3338SOL    HW210914   6.860   4.696   0.086
 3339SOL     OW10915   1.041   4.669   5.751
 3339SOL    HW110916   1.035   4.674   5.850
 3339SOL    HW210917   1.055   4.574   5.723
 3340SOL     OW10918   4.218   0.244   2.056
 3340SOL    HW110919   4.196   0.191   1.974
 3340SOL    HW210920   4.179   0.199   2.137
 3341SOL     OW10921   0.751   0.126   0.642
 3341SOL    HW110922   0.838   0.165   0.670
 3341SOL    HW210923   0.722   0.057   0.709
 3342SOL     OW10924   2.496   0.205   5.542
 3342SOL    HW110925   2.530   0.117   5.577
 3342SOL    HW210926   2.397   0.198   5.529
 3343SOL     OW10927   0.314   2.839   1.696
 3343SOL    HW110928   0.294   2.743   1.682
 3343SOL    HW210929   0.384   2.869   1.631
 3344SOL     OW10930   0.775   2.419   6.281
 3344SOL    HW110931   0.794   2.332   6.236
 3344SOL    HW210932   0.747   2.486   6.212
 3345SOL     OW10933   2.250   3.508   5.266
 3345SOL    HW110934   2.263   3.423   5.215
 3345SOL    HW210935   2.170   3.500   5.325
 3346SOL     OW10936   2.016   5.785   2.461
 3346SOL    HW110937   1.946   5.793   2.390
 3346SOL    HW210938   2.104   5.817   2.425
 3347SOL     OW10939   5.899   3.748   3.519
 3347SOL    HW110940   5.904   3.846   3.537
 3347SOL    HW210941   5.901   3.698   3.606
 3348SOL     OW10942   3.871   3.645   3.034
 3348SOL    HW110943   3.965   3.621   3.009
 3348SOL    HW210944   3.865   3.743   3.051
 3349SOL     OW10945   5.273   3.217   6.376
 3349SOL    HW110946   5.232   3.272   6.449
 3349SOL    HW210947   5.240   3.249   6.287
 3350SOL     OW10948   1.543   2.679   1.142
 3350SOL    HW110949   1.610   2.670   1.216
 3350SOL    HW210950   1.564   2.613   1.070
 3351SOL     OW10951   5.671   2.519   0.539
 3351SOL    HW110952   5.610   2.553   0.610
 3351SOL    HW210953   5.619   2.461   0.476
 3352SOL     OW10954   0.179   3.120   0.393
 3352SOL    HW110955   0.231   3.095   0.311
 3352SOL    HW210956   0.096   3.064   0.398
 3353SOL     OW10957   1.572   6.627   5.835
 3353SOL    HW110958   1.532   6.714   5.804
 3353SOL    HW210959   1.518   6.551   5.799
 3354SOL     OW10960   0.896   0.508   1.791
 3354SOL    HW110961   0.971   0.442   1.795
 3354SOL    HW210962   0.835   0.495   1.869
 3355SOL     OW10963   6.132   0.948   2.565
 3355SOL    HW110964   6.163   0.987   2.652
 3355SOL    HW210965   6.070   1.012   2.520
 3356SOL     OW10966   1.538   3.553   6.028
 3356SOL    HW110967   1.638   3.554   6.024
 3356SOL    HW210968   1.503   3.645   6.014
 3357SOL     OW10969   2.742   5.371   2.243
 3357SOL    HW110970   2.647   5.394   2.223
 3357SOL    HW210971   2.745   5.291   2.303
 3358SOL     OW10972   6.843   4.719   3.503
 3358SOL    HW110973   6.836   4.677   3.593
 3358SOL    HW210974   6.925   4.776   3.499
 3359SOL     OW10975   2.375   1.510   1.930
 3359SOL    HW110976   2.366   1.438   1.861
 3359SOL    HW210977   2.467   1.509   1.967
 3360SOL     OW10978   2.602   0.771   6.552
 3360SOL    HW110979   2.619   0.676   6.580
 3360SOL    HW210980   2.623   0.781   6.455
 3361SOL     OW10981   3.588   0.899   3.351
 3361SOL    HW110982   3.637   0.984   3.331
 3361SOL    HW210983   3.635   0.849   3.423
 3362SOL     OW10984   3.295   1.898   4.218
 3362SOL    HW110985   3.282   1.975   4.280
 3362SOL    HW210986   3.269   1.926   4.125
 3363SOL     OW10987   0.024   0.867   6.158
 3363SOL    HW110988   6.961   0.877   6.099
 3363SOL    HW210989   0.083   0.795   6.122
 3364SOL     OW10990   2.515   4.858   5.826
 3364SOL    HW110991   2.477   4.777   5.780
 3364SOL    HW210992   2.484   4.941   5.780
 3365SOL     OW10993   6.419   2.526   5.461
 3365SOL    HW110994   6.418   2.438   5.413
 3365SOL    HW210995   6.357   2.589   5.416
 3366SOL     OW10996   5.453   1.455   6.898
 3366SOL    HW110997   5.386   1.446   6.971
 3366SOL    HW210998   5.421   1.522   6.831
 3367SOL     OW10999   1.680   6.995   2.860
 3367SOL    HW111000   1.669   0.009   2.765
 3367SOL    HW211001   1.620   0.031   2.919
 3368SOL     OW11002   6.498   1.561   4.802
 3368SOL    HW111003   6.413   1.525   4.841
 3368SOL    HW211004   6.486   1.576   4.704
 3369SOL     OW11005   3.748   6.264   6.555
 3369SOL    HW111006   3.778   6.250   6.461
 3369SOL    HW211007   3.804   6.209   6.617
 3370SOL     OW11008   5.803   6.886   5.566
 3370SOL    HW111009   5.856   6.884   5.650
 3370SOL    HW211010   5.853   6.837   5.494
 3371SOL     OW11011   6.692   4.726   1.106
 3371SOL    HW111012   6.783   4.766   1.119
 3371SOL    HW211013   6.677   4.708   1.009
 3372SOL     OW11014   0.204   2.293   2.529
 3372SOL    HW111015   0.178   2.343   2.612
 3372SOL    HW211016   0.258   2.214   2.554
 3373SOL     OW11017   0.721   2.678   6.648
 3373SOL    HW111018   0.782   2.642   6.720
 3373SOL    HW211019   0.697   2.772   6.669
 3374SOL     OW11020   3.701   5.726   5.147
 3374SOL    HW111021   3.713   5.711   5.245
 3374SOL    HW211022   3.694   5.825   5.130
 3375SOL     OW11023   3.489   3.766   4.463
 3375SOL    HW111024   3.501   3.733   4.370
 3375SOL    HW211025   3.408   3.825   4.468
 3376SOL     OW11026   2.803   3.101   1.826
 3376SOL    HW111027   2.836   3.196   1.833
 3376SOL    HW211028   2.712   3.101   1.784
 3377SOL     OW11029   2.563   5.398   5.537
 3377SOL    HW111030   2.624   5.322   5.555
 3377SOL    HW211031   2.503   5.375   5.460
 3378SOL     OW11032   0.433   1.219   0.579
 3378SOL    HW111033   0.363   1.244   0.512
 3378SOL    HW211034   0.435   1.287   0.652
 3379SOL     OW11035   6.214   4.942   5.484
 3379SOL    HW111036   6.268   5.003   5.427
 3379SOL    HW211037   6.268   4.913   5.563
 3380SOL     OW11038   0.657   3.886   4.982
 3380SOL    HW111039   0.559   3.907   4.984
 3380SOL    HW211040   0.690   3.873   5.075
 3381SOL     OW11041   3.374   2.460   1.550
 3381SOL    HW111042   3.351   2.555   1.531
 3381SOL    HW211043   3.462   2.456   1.597
 3382SOL     OW11044   6.968   6.770   0.066
 3382SOL    HW111045   6.868   6.761   0.066
 3382SOL    HW211046   7.008   6.679   0.056
 3383SOL     OW11047   0.588   4.269   1.845
 3383SOL    HW111048   0.648   4.223   1.910
 3383SOL    HW211049   0.567   4.207   1.769
 3384SOL     OW11050   3.103   3.189   4.160
 3384SOL    HW111051   3.133   3.119   4.224
 3384SOL    HW211052   3.030   3.243   4.201
 3385SOL     OW11053   6.760   4.503   4.025
 3385SOL    HW111054   6.834   4.452   4.069
 3385SOL    HW211055   6.710   4.556   4.094
 3386SOL     OW11056   6.243   4.067   4.890
 3386SOL    HW111057   6.239   4.163   4.862
 3386SOL    HW211058   6.154   4.024   4.877
 3387SOL     OW11059   3.366   1.766   2.967
 3387SOL    HW111060   3.323   1.677   2.980
 3387SOL    HW211061   3.304   1.827   2.917
 3388SOL     OW11062   5.667   2.180   1.656
 3388SOL    HW111063   5.631   2.128   1.579
 3388SOL    HW211064   5.592   2.222   1.708
 3389SOL     OW11065   4.187   5.229   2.847
 3389SOL    HW111066   4.205   5.174   2.766
 3389SOL    HW211067   4.274   5.260   2.887
 3390SOL     OW11068   4.520   2.135   5.765
 3390SOL    HW111069   4.515   2.058   5.829
 3390SOL    HW211070   4.430   2.176   5.755
 3391SOL     OW11071   3.526   2.114   3.908
 3391SOL    HW111072   3.568   2.035   3.864
 3391SOL    HW211073   3.433   2.126   3.872
 3392SOL     OW11074   4.707   5.752   3.177
 3392SOL    HW111075   4.637   5.815   3.209
 3392SOL    HW211076   4.697   5.664   3.224
 3393SOL     OW11077   0.191   0.501   0.327
 3393SOL    HW111078   0.136   0.575   0.367
 3393SOL    HW211079   0.263   0.540   0.270
 3394SOL     OW11080   5.690   1.090   2.642
 3394SOL    HW111081   5.645   1.078   2.554
 3394SOL    HW211082   5.641   1.160   2.695
 3395SOL     OW11083   1.168   3.933   5.475
 3395SOL    HW111084   1.217   3.928   5.388
 3395SOL    HW211085   1.108   3.853   5.484
 3396SOL     OW11086   6.011   3.471   4.414
 3396SOL    HW111087   6.092   3.511   4.457
 3396SOL    HW211088   6.007   3.373   4.434
 3397SOL     OW11089   3.414   5.911   6.129
 3397SOL    HW111090   3.446   5.977   6.197
 3397SOL    HW211091   3.371   5.959   6.053
 3398SOL     OW11092   0.700   0.832   3.063
 3398SOL    HW111093   0.723   0.785   2.978
 3398SOL    HW211094   0.780   0.835   3.123
 3399SOL     OW11095   4.202   5.727   4.993
 3399SOL    HW111096   4.117   5.675   5.000
 3399SOL    HW211097   4.242   5.740   5.084
 3400SOL     OW11098   5.183   2.613   0.039
 3400SOL    HW111099   5.243   2.625   0.118
 3400SOL    HW211100   5.154   2.703   0.005
 3401SOL     OW11101   6.876   4.519   6.484
 3401SOL    HW111102   6.866   4.614   6.456
 3401SOL    HW211103   6.787   4.473   6.483
 3402SOL     OW11104   5.402   5.028   2.262
 3402SOL    HW111105   5.440   5.121   2.265
 3402SOL    HW211106   5.333   5.022   2.190
 3403SOL     OW11107   3.089   1.976   5.026
 3403SOL    HW111108   3.116   2.072   5.021
 3403SOL    HW211109   3.117   1.929   4.942
 3404SOL     OW11110   4.584   0.130   1.440
 3404SOL    HW111111   4.512   0.062   1.451
 3404SOL    HW211112   4.637   0.137   1.525
 3405SOL     OW11113   6.009   3.722   6.968
 3405SOL    HW111114   5.978   3.642   6.917
 3405SOL    HW211115   5.935   3.789   6.974
 3406SOL     OW11116   0.926   4.394   1.468
 3406SOL    HW111117   0.860   4.406   1.394
 3406SOL    HW211118   0.967   4.482   1.491
 3407SOL     OW11119   1.414   5.047   2.706
 3407SOL    HW111120   1.409   4.984   2.628
 3407SOL    HW211121   1.392   4.997   2.790
 3408SOL     OW11122   5.338   3.784   2.910
 3408SOL    HW111123   5.421   3.840   2.904
 3408SOL    HW211124   5.293   3.800   2.997
 3409SOL     OW11125   2.718   0.957   5.613
 3409SOL    HW111126   2.623   0.988   5.599
 3409SOL    HW211127   2.745   0.900   5.536
 3410SOL     OW11128   0.018   1.042   0.279
 3410SOL    HW111129   0.117   1.051   0.265
 3410SOL    HW211130   7.005   1.113   0.342
 3411SOL     OW11131   4.320   2.359   2.388
 3411SOL    HW111132   4.285   2.450   2.366
 3411SOL    HW211133   4.244   2.296   2.400
 3412SOL     OW11134   4.175   5.534   6.763
 3412SOL    HW111135   4.195   5.617   6.816
 3412SOL    HW211136   4.078   5.532   6.740
 3413SOL     OW11137   4.766   1.335   2.489
 3413SOL    HW111138   4.691   1.401   2.479
 3413SOL    HW211139   4.728   1.246   2.514
 3414SOL     OW11140   3.505   0.944   5.319
 3414SOL    HW111141   3.594   0.974   5.353
 3414SOL    HW211142   3.451   0.907   5.395
 3415SOL     OW11143   1.253   5.253   4.372
 3415SOL    HW111144   1.247   5.352   4.361
 3415SOL    HW211145   1.167   5.218   4.408
 3416SOL     OW11146   2.587   4.666   6.225
 3416SOL    HW111147   2.490   4.691   6.221
 3416SOL    HW211148   2.608   4.631   6.317
 3417SOL     OW11149   5.883   1.096   1.221
 3417SOL    HW111150   5.949   1.038   1.174
 3417SOL    HW211151   5.791   1.058   1.210
 3418SOL     OW11152   3.103   3.047   6.196
 3418SOL    HW111153   3.133   3.076   6.105
 3418SOL    HW211154   3.183   3.026   6.253
 3419SOL     OW11155   4.785   3.982   6.932
 3419SOL    HW111156   4.735   3.992   7.017
 3419SOL    HW211157   4.731   3.928   6.867
 3420SOL     OW11158   4.298   1.621   3.787
 3420SOL    HW111159   4.384   1.673   3.780
 3420SOL    HW211160   4.267   1.597   3.695
 3421SOL     OW11161   0.358   6.737   2.642
 3421SOL    HW111162   0.407   6.792   2.709
 3421SOL    HW211163   0.343   6.645   2.677
 3422SOL     OW11164   3.086   2.161   2.841
 3422SOL    HW111165   3.029   2.079   2.847
 3422SOL    HW211166   3.096   2.188   2.745
 3423SOL     OW11167   2.891   0.431   1.672
 3423SOL    HW111168   2.964   0.406   1.608
 3423SOL    HW211169   2.907   0.387   1.761
 3424SOL     OW11170   4.393   1.016   1.882
 3424SOL    HW111171   4.451   0.940   1.854
 3424SOL    HW211172   4.429   1.055   1.967
 3425SOL     OW11173   4.727   4.138   1.533
 3425SOL    HW111174   4.651   4.190   1.571
 3425SOL    HW211175   4.735   4.051   1.581
 3426SOL     OW11176   4.551   3.840   0.842
 3426SOL    HW111177   4.527   3.807   0.933
 3426SOL    HW211178   4.473   3.888   0.802
 3427SOL     OW11179   1.391   1.554   0.521
 3427SOL    HW111180   1.444   1.502   0.587
 3427SOL    HW211181   1.294   1.538   0.536
 3428SOL     OW11182   3.995   4.757   3.212
 3428SOL    HW111183   4.082   4.710   3.226
 3428SOL    HW211184   4.010   4.841   3.159
 3429SOL     OW11185   6.979   2.603   0.272
 3429SOL    HW111186   6.888   2.603   0.313
 3429SOL    HW211187   0.007   2.516   0.291
 3430SOL     OW11188   1.386   5.257   6.612
 3430SOL    HW111189   1.436   5.287   6.693
 3430SOL    HW211190   1.294   5.297   6.613
 3431SOL     OW11191   1.804   6.401   6.805
 3431SOL    HW111192   1.766   6.484   6.847
 3431SOL    HW211193   1.869   6.427   6.733
 3432SOL     OW11194   2.699   2.032   0.025
 3432SOL    HW111195   2.623   1.978   0.060
 3432SOL    HW211196   2.715   2.110   0.085
 3433SOL     OW11197   5.079   1.223   4.768
 3433SOL    HW111198   4.982   1.204   4.787
 3433SOL    HW211199   5.137   1.167   4.826
 3434SOL     OW11200   4.278   1.820   3.511
 3434SOL    HW111201   4.322   1.738   3.474
 3434SOL    HW211202   4.304   1.899   3.456
 3435SOL     OW11203   0.521   0.938   7.006
 3435SOL    HW111204   0.586   0.982   0.051
 3435SOL    HW211205   0.555   0.944   6.913
 3436SOL     OW11206   4.684   6.752   3.320
 3436SOL    HW111207   4.766   6.794   3.283
 3436SOL    HW211208   4.626   6.822   3.362
 3437SOL     OW11209   4.853   0.786   6.725
 3437SOL    HW111210   4.828   0.690   6.711
 3437SOL    HW211211   4.804   0.822   6.804
 3438SOL     OW11212   1.203   4.842   6.766
 3438SOL    HW111213   1.240   4.907   6.699
 3438SOL    HW211214   1.267   4.833   6.842
 3439SOL     OW11215   2.416   0.112   3.620
 3439SOL    HW111216   2.330   0.164   3.627
 3439SOL    HW211217   2.432   0.088   3.524
 3440SOL     OW11218   3.024   2.249   0.628
 3440SOL    HW111219   2.965   2.321   0.666
 3440SOL    HW211220   3.101   2.234   0.690
 3441SOL     OW11221   4.516   0.408   4.227
 3441SOL    HW111222   4.434   0.431   4.279
 3441SOL    HW211223   4.597   0.418   4.285
 3442SOL     OW11224   0.888   4.845   2.985
 3442SOL    HW111225   0.857   4.940   2.974
 3442SOL    HW211226   0.916   4.809   2.896
 3443SOL     OW11227   5.697   6.447   4.086
 3443SOL    HW111228   5.705   6.434   4.185
 3443SOL    HW211229   5.601   6.439   4.059
 3444SOL     OW11230   4.632   4.703   0.356
 3444SOL    HW111231   4.641   4.655   0.269
 3444SOL    HW211232   4.631   4.802   0.339
 3445SOL     OW11233   5.574   5.012   4.521
 3445SOL    HW111234   5.534   4.933   4.474
 3445SOL    HW211235   5.653   4.983   4.574
 3446SOL     OW11236   3.084   6.587   2.596
 3446SOL    HW111237   3.174   6.595   2.554
 3446SOL    HW211238   3.039   6.676   2.597
 3447SOL     OW11239   6.158   4.634   5.655
 3447SOL    HW111240   6.249   4.617   5.692
 3447SOL    HW211241   6.116   4.711   5.702
 3448SOL     OW11242   3.335   2.906   0.800
 3448SOL    HW111243   3.396   2.934   0.726
 3448SOL    HW211244   3.359   2.814   0.830
 3449SOL     OW11245   6.669   6.087   2.796
 3449SOL    HW111246   6.743   6.102   2.860
 3449SOL    HW211247   6.703   6.037   2.716
 3450SOL     OW11248   0.950   2.049   1.014
 3450SOL    HW111249   0.957   2.051   0.914
 3450SOL    HW211250   1.021   1.989   1.051
 3451SOL     OW11251   1.530   4.717   4.220
 3451SOL    HW111252   1.562   4.661   4.143
 3451SOL    HW211253   1.440   4.754   4.198
 3452SOL     OW11254   6.757   2.019   0.719
 3452SOL    HW111255   6.854   2.006   0.700
 3452SOL    HW211256   6.711   1.930   0.721
 3453SOL     OW11257   6.102   6.554   5.587
 3453SOL    HW111258   6.173   6.618   5.558
 3453SOL    HW211259   6.078   6.571   5.683
 3454SOL     OW11260   1.654   1.201   0.448
 3454SOL    HW111261   1.556   1.185   0.453
 3454SOL    HW211262   1.682   1.211   0.352
 3455SOL     OW11263   2.349   2.741   4.006
 3455SOL    HW111264   2.360   2.754   4.104
 3455SOL    HW211265   2.315   2.826   3.965
 3456SOL     OW11266   6.753   0.027   0.780
 3456SOL    HW111267   6.816   0.002   0.853
 3456SOL    HW211268   6.765   0.124   0.758
 3457SOL     OW11269   1.986   6.565   3.680
 3457SOL    HW111270   1.893   6.598   3.668
 3457SOL    HW211271   2.051   6.634   3.649
 3458SOL     OW11272   5.129   4.875   0.510
 3458SOL    HW111273   5.034   4.902   0.495
 3458SOL    HW211274   5.186   4.957   0.519
 3459SOL     OW11275   6.766   6.345   3.257
 3459SOL    HW111276   6.764   6.246   3.243
 3459SOL    HW211277   6.693   6.371   3.321
 3460SOL     OW11278   3.528   2.990   6.132
 3460SOL    HW111279   3.577   3.071   6.099
 3460SOL    HW211280   3.589   2.934   6.187
 3461SOL     OW11281   2.386   5.383   3.063
 3461SOL    HW111282   2.469   5.426   3.099
 3461SOL    HW211283   2.323   5.364   3.138
 3462SOL     OW11284   5.169   2.828   2.573
 3462SOL    HW111285   5.084   2.796   2.530
 3462SOL    HW211286   5.168   2.804   2.670
 3463SOL     OW11287   1.727   2.617   1.302
 3463SOL    HW111288   1.705   2.534   1.352
 3463SOL    HW211289   1.824   2.639   1.316
 3464SOL     OW11290   5.253   2.308   6.178
 3464SOL    HW111291   5.266   2.231   6.116
 3464SOL    HW211292   5.248   2.393   6.126
 3465SOL     OW11293   1.896   4.324   1.580
 3465SOL    HW111294   1.798   4.309   1.565
 3465SOL    HW211295   1.921   4.296   1.672
 3466SOL     OW11296   6.413   4.546   3.874
 3466SOL    HW111297   6.447   4.459   3.838
 3466SOL    HW211298   6.410   4.542   3.974
 3467SOL     OW11299   3.148   2.951   1.257
 3467SOL    HW111300   3.057   2.985   1.237
 3467SOL    HW211301   3.142   2.875   1.323
 3468SOL     OW11302   3.771   1.554   0.744
 3468SOL    HW111303   3.676   1.578   0.764
 3468SOL    HW211304   3.774   1.460   0.710
 3469SOL     OW11305   3.996   5.856   5.581
 3469SOL    HW111306   4.056   5.840   5.660
 3469SOL    HW211307   3.918   5.793   5.585
 3470SOL     OW11308   0.899   2.511   2.025
 3470SOL    HW111309   0.951   2.428   2.045
 3470SOL    HW211310   0.803   2.486   2.009
 3471SOL     OW11311   4.793   3.030   4.935
 3471SOL    HW111312   4.871   3.092   4.925
 3471SOL    HW211313   4.781   3.006   5.032
 3472SOL     OW11314   4.449   1.751   3.155
 3472SOL    HW111315   4.381   1.824   3.150
 3472SOL    HW211316   4.535   1.787   3.190
 3473SOL     OW11317   5.955   4.783   2.020
 3473SOL    HW111318   5.993   4.756   2.109
 3473SOL    HW211319   6.022   4.764   1.948
 3474SOL     OW11320   4.914   4.618   3.831
 3474SOL    HW111321   4.973   4.696   3.853
 3474SOL    HW211322   4.870   4.633   3.743
 3475SOL     OW11323   0.003   4.325   4.000
 3475SOL    HW111324   0.019   4.323   3.902
 3475SOL    HW211325   0.034   4.239   4.041
 3476SOL     OW11326   1.547   1.396   3.043
 3476SOL    HW111327   1.615   1.418   3.113
 3476SOL    HW211328   1.468   1.456   3.053
 3477SOL     OW11329   0.403   4.326   2.046
 3477SOL    HW111330   0.427   4.420   2.072
 3477SOL    HW211331   0.465   4.295   1.975
 3478SOL     OW11332   2.319   0.373   1.361
 3478SOL    HW111333   2.314   0.444   1.291
 3478SOL    HW211334   2.251   0.392   1.432
 3479SOL     OW11335   1.363   4.591   4.886
 3479SOL    HW111336   1.426   4.647   4.940
 3479SOL    HW211337   1.300   4.543   4.947
 3480SOL     OW11338   1.468   4.731   6.506
 3480SOL    HW111339   1.442   4.664   6.436
 3480SOL    HW211340   1.403   4.807   6.505
 3481SOL     OW11341   6.229   0.582   4.875
 3481SOL    HW111342   6.205   0.487   4.894
 3481SOL    HW211343   6.175   0.615   4.797
 3482SOL     OW11344   5.769   2.906   6.511
 3482SOL    HW111345   5.706   2.898   6.588
 3482SOL    HW211346   5.806   2.999   6.508
 3483SOL     OW11347   5.508   2.689   5.204
 3483SOL    HW111348   5.461   2.758   5.260
 3483SOL    HW211349   5.559   2.627   5.263
 3484SOL     OW11350   0.998   3.856   5.123
 3484SOL    HW111351   0.982   3.780   5.186
 3484SOL    HW211352   0.932   3.928   5.140
 3485SOL     OW11353   6.895   2.688   6.751
 3485SOL    HW111354   6.875   2.786   6.750
 3485SOL    HW211355   6.822   2.639   6.798
 3486SOL     OW11356   1.817   6.639   5.721
 3486SOL    HW111357   1.726   6.645   5.761
 3486SOL    HW211358   1.872   6.573   5.773
 3487SOL     OW11359   4.368   1.224   0.060
 3487SOL    HW111360   4.448   1.283   0.048
 3487SOL    HW211361   4.311   1.228   6.995
 3488SOL     OW11362   5.893   0.201   4.434
 3488SOL    HW111363   5.842   0.162   4.357
 3488SOL    HW211364   5.896   0.301   4.424
 3489SOL     OW11365   3.141   6.207   1.228
 3489SOL    HW111366   3.218   6.209   1.292
 3489SOL    HW211367   3.065   6.261   1.266
 3490SOL     OW11368   3.294   6.560   0.699
 3490SOL    HW111369   3.343   6.544   0.785
 3490SOL    HW211370   3.351   6.532   0.622
 3491SOL     OW11371   3.942   4.626   6.003
 3491SOL    HW111372   3.995   4.570   6.066
 3491SOL    HW211373   3.997   4.704   5.974
 3492SOL     OW11374   5.912   4.481   3.099
 3492SOL    HW111375   5.887   4.396   3.054
 3492SOL    HW211376   6.012   4.488   3.105
 3493SOL     OW11377   6.916   2.839   5.484
 3493SOL    HW111378   6.879   2.768   5.543
 3493SOL    HW211379   6.877   2.928   5.510
 3494SOL     OW11380   4.219   1.853   2.339
 3494SOL    HW111381   4.268   1.878   2.255
 3494SOL    HW211382   4.120   1.864   2.324
 3495SOL     OW11383   1.604   3.262   3.165
 3495SOL    HW111384   1.584   3.226   3.074
 3495SOL    HW211385   1.689   3.316   3.161
 3496SOL     OW11386   5.939   4.944   1.420
 3496SOL    HW111387   6.022   4.954   1.364
 3496SOL    HW211388   5.907   5.034   1.448
 3497SOL     OW11389   3.104   6.937   2.279
 3497SOL    HW111390   3.067   7.010   2.337
 3497SOL    HW211391   3.032   6.871   2.258
 3498SOL     OW11392   1.932   2.729   1.754
 3498SOL    HW111393   1.967   2.657   1.814
 3498SOL    HW211394   2.008   2.779   1.714
 3499SOL     OW11395   6.208   6.401   4.506
 3499SOL    HW111396   6.248   6.461   4.437
 3499SOL    HW211397   6.224   6.440   4.597
 3500SOL     OW11398   2.329   2.311   4.200
 3500SOL    HW111399   2.383   2.239   4.157
 3500SOL    HW211400   2.388   2.390   4.219
 3501SOL     OW11401   1.293   0.064   5.808
 3501SOL    HW111402   1.266   0.156   5.781
 3501SOL    HW211403   1.232   0.032   5.881
 3502SOL     OW11404   4.446   2.445   2.617
 3502SOL    HW111405   4.520   2.512   2.608
 3502SOL    HW211406   4.410   2.424   2.526
 3503SOL     OW11407   6.950   5.774   6.430
 3503SOL    HW111408   6.911   5.866   6.431
 3503SOL    HW211409   6.876   5.706   6.434
 3504SOL     OW11410   1.766   0.259   0.412
 3504SOL    HW111411   1.753   0.170   0.456
 3504SOL    HW211412   1.680   0.309   0.411
 3505SOL     OW11413   4.801   3.984   6.175
 3505SOL    HW111414   4.707   4.016   6.176
 3505SOL    HW211415   4.852   4.029   6.248
 3506SOL     OW11416   4.336   5.094   4.956
 3506SOL    HW111417   4.248   5.069   4.997
 3506SOL    HW211418   4.351   5.192   4.967
 3507SOL     OW11419   3.193   1.178   0.474
 3507SOL    HW111420   3.120   1.161   0.540
 3507SOL    HW211421   3.281   1.168   0.519
 3508SOL     OW11422   3.277   1.338   5.154
 3508SOL    HW111423   3.179   1.347   5.173
 3508SOL    HW211424   3.308   1.417   5.101
 3509SOL     OW11425   3.880   5.836   6.301
 3509SOL    HW111426   3.920   5.755   6.343
 3509SOL    HW211427   3.795   5.812   6.254
 3510SOL     OW11428   2.602   1.412   1.142
 3510SOL    HW111429   2.504   1.394   1.153
 3510SOL    HW211430   2.620   1.446   1.050
 3511SOL     OW11431   2.773   4.294   1.615
 3511SOL    HW111432   2.793   4.383   1.657
 3511SOL    HW211433   2.744   4.230   1.686
 3512SOL     OW11434   0.080   5.524   5.655
 3512SOL    HW111435   0.142   5.555   5.583
 3512SOL    HW211436   0.056   5.601   5.714
 3513SOL     OW11437   6.153   1.692   0.902
 3513SOL    HW111438   6.087   1.687   0.977
 3513SOL    HW211439   6.106   1.678   0.815
 3514SOL     OW11440   3.452   1.759   1.810
 3514SOL    HW111441   3.422   1.705   1.889
 3514SOL    HW211442   3.379   1.824   1.785
 3515SOL     OW11443   0.170   5.253   4.441
 3515SOL    HW111444   0.245   5.304   4.483
 3515SOL    HW211445   0.083   5.282   4.482
 3516SOL     OW11446   4.893   0.750   1.545
 3516SOL    HW111447   4.800   0.718   1.528
 3516SOL    HW211448   4.958   0.678   1.523
 3517SOL     OW11449   5.760   0.764   1.377
 3517SOL    HW111450   5.786   0.671   1.352
 3517SOL    HW211451   5.750   0.819   1.294
 3518SOL     OW11452   5.404   0.719   5.244
 3518SOL    HW111453   5.448   0.750   5.160
 3518SOL    HW211454   5.339   0.788   5.275
 3519SOL     OW11455   3.415   0.525   1.071
 3519SOL    HW111456   3.456   0.471   1.144
 3519SOL    HW211457   3.464   0.508   0.985
 3520SOL     OW11458   2.857   5.899   4.328
 3520SOL    HW111459   2.790   5.870   4.396
 3520SOL    HW211460   2.926   5.828   4.315
 3521SOL     OW11461   2.705   2.923   6.293
 3521SOL    HW111462   2.616   2.885   6.320
 3521SOL    HW211463   2.771   2.910   6.367
 3522SOL     OW11464   1.029   6.212   6.366
 3522SOL    HW111465   0.953   6.188   6.426
 3522SOL    HW211466   1.016   6.305   6.331
 3523SOL     OW11467   2.687   6.092   0.021
 3523SOL    HW111468   2.760   6.043   6.992
 3523SOL    HW211469   2.653   6.165   6.980
 3524SOL     OW11470   4.806   1.267   4.189
 3524SOL    HW111471   4.847   1.200   4.128
 3524SOL    HW211472   4.848   1.259   4.280
 3525SOL     OW11473   0.576   3.030   3.102
 3525SOL    HW111474   0.663   3.075   3.080
 3525SOL    HW211475   0.564   3.027   3.201
 3526SOL     OW11476   0.119   6.529   2.187
 3526SOL    HW111477   0.066   6.585   2.251
 3526SOL    HW211478   0.201   6.579   2.159
 3527SOL     OW11479   0.681   2.803   6.379
 3527SOL    HW111480   0.586   2.814   6.349
 3527SOL    HW211481   0.684   2.786   6.477
 3528SOL     OW11482   2.322   5.828   4.488
 3528SOL    HW111483   2.328   5.740   4.536
 3528SOL    HW211484   2.226   5.850   4.471
 3529SOL     OW11485   4.527   4.523   0.985
 3529SOL    HW111486   4.594   4.504   0.913
 3529SOL    HW211487   4.550   4.470   1.066
 3530SOL     OW11488   6.340   6.712   0.849
 3530SOL    HW111489   6.241   6.703   0.842
 3530SOL    HW211490   6.381   6.622   0.858
 3531SOL     OW11491   4.382   2.516   0.693
 3531SOL    HW111492   4.370   2.453   0.617
 3531SOL    HW211493   4.402   2.608   0.657
 3532SOL     OW11494   1.921   0.829   1.661
 3532SOL    HW111495   1.929   0.928   1.671
 3532SOL    HW211496   1.984   0.797   1.591
 3533SOL     OW11497   0.979   1.669   3.177
 3533SOL    HW111498   0.946   1.751   3.132
 3533SOL    HW211499   1.057   1.693   3.236
 3534SOL     OW11500   0.097   1.186   1.195
 3534SOL    HW111501   0.022   1.177   1.130
 3534SOL    HW211502   0.178   1.139   1.159
 3535SOL     OW11503   3.062   5.715   4.275
 3535SOL    HW111504   3.141   5.700   4.335
 3535SOL    HW211505   3.094   5.749   4.187
 3536SOL     OW11506   3.695   1.441   3.133
 3536SOL    HW111507   3.658   1.521   3.085
 3536SOL    HW211508   3.788   1.423   3.100
 3537SOL     OW11509   1.654   0.079   3.668
 3537SOL    HW111510   1.574   0.020   3.682
 3537SOL    HW211511   1.683   0.117   3.756
 3538SOL     OW11512   2.729   5.814   2.564
 3538SOL    HW111513   2.674   5.759   2.502
 3538SOL    HW211514   2.826   5.801   2.543
 3539SOL     OW11515   3.508   3.616   3.862
 3539SOL    HW111516   3.429   3.556   3.878
 3539SOL    HW211517   3.476   3.707   3.837
 3540SOL     OW11518   1.675   2.243   3.208
 3540SOL    HW111519   1.689   2.342   3.201
 3540SOL    HW211520   1.754   2.195   3.171
 3541SOL     OW11521   3.833   4.027   4.150
 3541SOL    HW111522   3.764   3.997   4.217
 3541SOL    HW211523   3.915   4.057   4.198
 3542SOL     OW11524   6.627   5.387   1.195
 3542SOL    HW111525   6.590   5.315   1.136
 3542SOL    HW211526   6.626   5.355   1.290
 3543SOL     OW11527   5.850   3.084   5.085
 3543SOL    HW111528   5.751   3.083   5.072
 3543SOL    HW211529   5.875   3.018   5.156
 3544SOL     OW11530   2.024   6.587   7.010
 3544SOL    HW111531   2.109   6.535   6.998
 3544SOL    HW211532   2.044   6.685   7.009
 3545SOL     OW11533   3.171   4.934   0.447
 3545SOL    HW111534   3.091   4.901   0.397
 3545SOL    HW211535   3.251   4.935   0.386
 3546SOL     OW11536   0.070   5.043   2.414
 3546SOL    HW111537   0.045   5.120   2.355
 3546SOL    HW211538   0.025   4.960   2.383
 3547SOL     OW11539   5.000   4.699   4.629
 3547SOL    HW111540   5.096   4.719   4.611
 3547SOL    HW211541   4.990   4.659   4.720
 3548SOL     OW11542   4.707   3.544   5.437
 3548SOL    HW111543   4.708   3.626   5.494
 3548SOL    HW211544   4.680   3.568   5.344
 3549SOL     OW11545   5.931   3.410   2.559
 3549SOL    HW111546   5.929   3.325   2.507
 3549SOL    HW211547   5.978   3.396   2.646
 3550SOL     OW11548   5.617   1.589   3.078
 3550SOL    HW111549   5.643   1.672   3.029
 3550SOL    HW211550   5.534   1.551   3.036
 3551SOL     OW11551   2.062   6.503   3.080
 3551SOL    HW111552   2.133   6.545   3.137
 3551SOL    HW211553   2.105   6.439   3.016
 3552SOL     OW11554   6.871   4.550   3.299
 3552SOL    HW111555   6.902   4.469   3.349
 3552SOL    HW211556   6.849   4.622   3.363
 3553SOL     OW11557   5.553   2.265   3.399
 3553SOL    HW111558   5.468   2.278   3.348
 3553SOL    HW211559   5.630   2.263   3.335
 3554SOL     OW11560   3.928   5.685   0.028
 3554SOL    HW111561   3.834   5.687   7.011
 3554SOL    HW211562   3.990   5.716   6.975
 3555SOL     OW11563   6.964   2.330   3.307
 3555SOL    HW111564   0.008   2.408   3.298
 3555SOL    HW211565   6.911   2.320   3.223
 3556SOL     OW11566   4.476   1.104   6.567
 3556SOL    HW111567   4.537   1.161   6.623
 3556SOL    HW211568   4.389   1.093   6.614
 3557SOL     OW11569   0.776   0.352   4.378
 3557SOL    HW111570   0.824   0.270   4.347
 3557SOL    HW211571   0.731   0.333   4.465
 3558SOL     OW11572   6.848   6.088   2.099
 3558SOL    HW111573   6.810   6.023   2.165
 3558SOL    HW211574   6.786   6.165   2.088
 3559SOL     OW11575   1.144   0.600   5.542
 3559SOL    HW111576   1.062   0.657   5.534
 3559SOL    HW211577   1.121   0.506   5.516
 3560SOL     OW11578   6.548   6.592   1.774
 3560SOL    HW111579   6.612   6.515   1.766
 3560SOL    HW211580   6.520   6.601   1.870
 3561SOL     OW11581   5.078   4.287   3.814
 3561SOL    HW111582   5.070   4.217   3.885
 3561SOL    HW211583   5.129   4.365   3.850
 3562SOL     OW11584   3.797   2.123   3.371
 3562SOL    HW111585   3.858   2.044   3.381
 3562SOL    HW211586   3.787   2.146   3.275
 3563SOL     OW11587   4.968   0.185   1.372
 3563SOL    HW111588   5.044   0.245   1.346
 3563SOL    HW211589   4.895   0.240   1.412
 3564SOL     OW11590   6.842   4.359   2.855
 3564SOL    HW111591   6.801   4.446   2.827
 3564SOL    HW211592   6.939   4.357   2.830
 3565SOL     OW11593   1.526   0.658   5.487
 3565SOL    HW111594   1.471   0.671   5.570
 3565SOL    HW211595   1.504   0.570   5.445
 3566SOL     OW11596   0.969   4.639   6.354
 3566SOL    HW111597   0.950   4.737   6.347
 3566SOL    HW211598   0.954   4.608   6.448
 3567SOL     OW11599   0.077   2.974   1.435
 3567SOL    HW111600   7.009   2.963   1.484
 3567SOL    HW211601   0.100   3.071   1.430
 3568SOL     OW11602   4.983   4.164   3.366
 3568SOL    HW111603   4.989   4.090   3.433
 3568SOL    HW211604   5.027   4.136   3.281
 3569SOL     OW11605   4.059   3.479   3.625
 3569SOL    HW111606   4.100   3.532   3.700
 3569SOL    HW211607   4.038   3.387   3.658
 3570SOL     OW11608   0.399   1.591   5.264
 3570SOL    HW111609   0.382   1.648   5.183
 3570SOL    HW211610   0.423   1.650   5.341
 3571SOL     OW11611   2.237   6.996   4.645
 3571SOL    HW111612   2.238   0.014   4.552
 3571SOL    HW211613   2.239   0.054   4.710
 3572SOL     OW11614   5.383   3.722   1.595
 3572SOL    HW111615   5.463   3.676   1.635
 3572SOL    HW211616   5.371   3.811   1.640
 3573SOL     OW11617   6.819   4.632   3.800
 3573SOL    HW111618   6.758   4.709   3.819
 3573SOL    HW211619   6.796   4.555   3.860
 3574SOL     OW11620   1.700   1.962   5.512
 3574SOL    HW111621   1.719   1.863   5.512
 3574SOL    HW211622   1.610   1.978   5.472
 3575SOL     OW11623   5.281   0.208   6.803
 3575SOL    HW111624   5.320   0.132   6.751
 3575SOL    HW211625   5.272   0.289   6.744
 3576SOL     OW11626   1.231   2.955   0.369
 3576SOL    HW111627   1.315   2.985   0.324
 3576SOL    HW211628   1.162   3.027   0.361
 3577SOL     OW11629   1.703   2.693   4.826
 3577SOL    HW111630   1.761   2.735   4.756
 3577SOL    HW211631   1.613   2.675   4.788
 3578SOL     OW11632   3.738   2.643   6.470
 3578SOL    HW111633   3.765   2.739   6.473
 3578SOL    HW211634   3.696   2.623   6.381
 3579SOL     OW11635   0.769   4.025   1.087
 3579SOL    HW111636   0.711   4.102   1.113
 3579SOL    HW211637   0.865   4.049   1.101
 3580SOL     OW11638   6.958   4.234   1.715
 3580SOL    HW111639   6.900   4.154   1.704
 3580SOL    HW211640   0.013   4.215   1.781
 3581SOL     OW11641   1.037   0.929   2.724
 3581SOL    HW111642   1.076   0.901   2.811
 3581SOL    HW211643   1.104   0.981   2.672
 3582SOL     OW11644   4.474   5.861   6.896
 3582SOL    HW111645   4.561   5.906   6.911
 3582SOL    HW211646   4.481   5.765   6.925
 3583SOL     OW11647   1.412   5.397   1.243
 3583SOL    HW111648   1.368   5.420   1.330
 3583SOL    HW211649   1.343   5.393   1.171
 3584SOL     OW11650   5.776   4.904   4.675
 3584SOL    HW111651   5.824   4.845   4.740
 3584SOL    HW211652   5.813   4.996   4.680
 3585SOL     OW11653   3.675   1.923   3.776
 3585SOL    HW111654   3.753   1.974   3.739
 3585SOL    HW211655   3.704   1.831   3.801
 3586SOL     OW11656   6.694   1.709   5.634
 3586SOL    HW111657   6.733   1.636   5.689
 3586SOL    HW211658   6.611   1.676   5.589
 3587SOL     OW11659   2.985   0.741   5.791
 3587SOL    HW111660   2.917   0.695   5.733
 3587SOL    HW211661   3.073   0.694   5.782
 3588SOL     OW11662   5.964   4.558   4.648
 3588SOL    HW111663   5.972   4.627   4.576
 3588SOL    HW211664   5.918   4.597   4.728
 3589SOL     OW11665   0.939   6.985   6.207
 3589SOL    HW111666   0.930   0.066   6.215
 3589SOL    HW211667   0.858   6.940   6.245
 3590SOL     OW11668   6.420   5.827   5.585
 3590SOL    HW111669   6.338   5.801   5.637
 3590SOL    HW211670   6.499   5.777   5.620
 3591SOL     OW11671   5.043   2.117   0.666
 3591SOL    HW111672   4.987   2.192   0.631
 3591SOL    HW211673   4.987   2.060   0.727
 3592SOL     OW11674   1.380   6.231   1.299
 3592SOL    HW111675   1.322   6.232   1.381
 3592SOL    HW211676   1.336   6.282   1.226
 3593SOL     OW11677   3.798   3.281   5.612
 3593SOL    HW111678   3.867   3.320   5.551
 3593SOL    HW211679   3.835   3.200   5.657
 3594SOL     OW11680   4.670   4.904   5.230
 3594SOL    HW111681   4.708   4.878   5.319
 3594SOL    HW211682   4.658   5.003   5.226
 3595SOL     OW11683   5.285   6.175   4.389
 3595SOL    HW111684   5.214   6.120   4.432
 3595SOL    HW211685   5.374   6.132   4.405
 3596SOL     OW11686   4.171   1.917   2.628
 3596SOL    HW111687   4.188   1.958   2.538
 3596SOL    HW211688   4.160   1.818   2.617
 3597SOL     OW11689   3.206   4.173   5.546
 3597SOL    HW111690   3.213   4.244   5.476
 3597SOL    HW211691   3.260   4.199   5.625
 3598SOL     OW11692   6.881   5.578   5.221
 3598SOL    HW111693   6.802   5.551   5.166
 3598SOL    HW211694   6.892   5.677   5.218
 3599SOL     OW11695   2.476   1.406   4.949
 3599SOL    HW111696   2.469   1.343   4.872
 3599SOL    HW211697   2.533   1.484   4.924
 3600SOL     OW11698   2.698   3.808   6.858
 3600SOL    HW111699   2.763   3.780   6.928
 3600SOL    HW211700   2.736   3.884   6.806
 3601SOL     OW11701   4.776   0.789   5.069
 3601SOL    HW111702   4.785   0.886   5.046
 3601SOL    HW211703   4.780   0.734   4.986
 3602SOL     OW11704   1.336   2.093   1.607
 3602SOL    HW111705   1.326   2.037   1.525
 3602SOL    HW211706   1.323   2.036   1.688
 3603SOL     OW11707   2.384   0.977   5.477
 3603SOL    HW111708   2.422   0.903   5.533
 3603SOL    HW211709   2.459   1.026   5.432
 3604SOL     OW11710   0.049   1.126   3.460
 3604SOL    HW111711   6.991   1.076   3.502
 3604SOL    HW211712   0.119   1.062   3.430
 3605SOL     OW11713   1.383   0.375   4.967
 3605SOL    HW111714   1.423   0.379   5.059
 3605SOL    HW211715   1.343   0.285   4.952
 3606SOL     OW11716   2.028   6.915   2.234
 3606SOL    HW111717   2.103   6.849   2.233
 3606SOL    HW211718   1.988   6.919   2.325
 3607SOL     OW11719   6.506   1.429   3.113
 3607SOL    HW111720   6.555   1.354   3.068
 3607SOL    HW211721   6.410   1.428   3.085
 3608SOL     OW11722   3.372   1.962   5.393
 3608SOL    HW111723   3.351   2.038   5.331
 3608SOL    HW211724   3.361   1.876   5.344
 3609SOL     OW11725   3.696   0.245   5.537
 3609SOL    HW111726   3.681   0.249   5.438
 3609SOL    HW211727   3.794   0.250   5.556
 3610SOL     OW11728   1.969   1.223   5.900
 3610SOL    HW111729   1.892   1.212   5.837
 3610SOL    HW211730   1.957   1.306   5.954
 3611SOL     OW11731   5.562   4.027   2.652
 3611SOL    HW111732   5.501   3.961   2.608
 3611SOL    HW211733   5.606   4.083   2.582
 3612SOL     OW11734   4.324   1.865   0.376
 3612SOL    HW111735   4.413   1.892   0.339
 3612SOL    HW211736   4.331   1.774   0.417
 3613SOL     OW11737   3.553   6.845   3.060
 3613SOL    HW111738   3.569   6.935   3.019
 3613SOL    HW211739   3.514   6.784   2.991
 3614SOL     OW11740   3.466   5.949   6.874
 3614SOL    HW111741   3.443   5.977   6.781
 3614SOL    HW211742   3.388   5.964   6.934
 3615SOL     OW11743   4.968   3.238   5.412
 3615SOL    HW111744   4.881   3.261   5.369
 3615SOL    HW211745   4.977   3.287   5.499
 3616SOL     OW11746   1.572   2.483   0.357
 3616SOL    HW111747   1.543   2.562   0.303
 3616SOL    HW211748   1.511   2.471   0.435
 3617SOL     OW11749   4.283   5.265   5.167
 3617SOL    HW111750   4.325   5.265   5.258
 3617SOL    HW211751   4.346   5.308   5.102
 3618SOL     OW11752   1.589   5.304   4.515
 3618SOL    HW111753   1.572   5.400   4.493
 3618SOL    HW211754   1.612   5.254   4.432
 3619SOL     OW11755   6.494   2.086   2.366
 3619SOL    HW111756   6.544   2.055   2.286
 3619SOL    HW211757   6.482   2.185   2.362
 3620SOL     OW11758   5.424   5.772   5.260
 3620SOL    HW111759   5.418   5.732   5.169
 3620SOL    HW211760   5.499   5.839   5.261
 3621SOL     OW11761   3.824   2.960   3.704
 3621SOL    HW111762   3.768   3.019   3.762
 3621SOL    HW211763   3.768   2.924   3.630
 3622SOL     OW11764   1.900   5.084   6.393
 3622SOL    HW111765   1.821   5.043   6.347
 3622SOL    HW211766   1.904   5.182   6.370
 3623SOL     OW11767   1.645   5.803   6.244
 3623SOL    HW111768   1.588   5.832   6.321
 3623SOL    HW211769   1.731   5.766   6.279
 3624SOL     OW11770   2.286   1.951   2.442
 3624SOL    HW111771   2.284   2.006   2.359
 3624SOL    HW211772   2.267   1.855   2.419
 3625SOL     OW11773   6.240   2.516   1.459
 3625SOL    HW111774   6.206   2.545   1.370
 3625SOL    HW211775   6.163   2.498   1.520
 3626SOL     OW11776   1.780   2.774   5.888
 3626SOL    HW111777   1.692   2.764   5.842
 3626SOL    HW211778   1.804   2.871   5.892
 3627SOL     OW11779   3.640   1.367   2.797
 3627SOL    HW111780   3.735   1.365   2.766
 3627SOL    HW211781   3.618   1.459   2.831
 3628SOL     OW11782   6.806   1.381   1.538
 3628SOL    HW111783   6.891   1.421   1.572
 3628SOL    HW211784   6.750   1.453   1.496
 3629SOL     OW11785   1.389   1.095   4.110
 3629SOL    HW111786   1.341   1.007   4.108
 3629SOL    HW211787   1.452   1.096   4.188
 3630SOL     OW11788   6.330   2.404   3.055
 3630SOL    HW111789   6.414   2.390   3.108
 3630SOL    HW211790   6.340   2.360   2.965
 3631SOL     OW11791   2.097   5.830   2.737
 3631SOL    HW111792   2.067   5.790   2.650
 3631SOL    HW211793   2.152   5.912   2.719
 3632SOL     OW11794   5.038   3.212   2.515
 3632SOL    HW111795   5.019   3.117   2.540
 3632SOL    HW211796   4.972   3.242   2.446
 3633SOL     OW11797   3.746   4.506   6.974
 3633SOL    HW111798   3.742   4.464   0.047
 3633SOL    HW211799   3.822   4.571   6.971
 3634SOL     OW11800   3.121   5.419   6.734
 3634SOL    HW111801   3.100   5.505   6.780
 3634SOL    HW211802   3.046   5.396   6.672
 3635SOL     OW11803   1.346   6.658   2.627
 3635SOL    HW111804   1.333   6.742   2.680
 3635SOL    HW211805   1.407   6.597   2.677
 3636SOL     OW11806   0.122   5.695   4.912
 3636SOL    HW111807   0.177   5.612   4.924
 3636SOL    HW211808   0.155   5.766   4.974
 3637SOL     OW11809   5.931   2.637   6.742
 3637SOL    HW111810   5.858   2.647   6.810
 3637SOL    HW211811   6.013   2.600   6.786
 3638SOL     OW11812   0.272   3.127   3.399
 3638SOL    HW111813   0.352   3.068   3.408
 3638SOL    HW211814   0.285   3.209   3.455
 3639SOL     OW11815   4.142   3.698   4.229
 3639SOL    HW111816   4.110   3.736   4.316
 3639SOL    HW211817   4.203   3.620   4.246
 3640SOL     OW11818   4.492   1.645   2.182
 3640SOL    HW111819   4.560   1.611   2.117
 3640SOL    HW211820   4.407   1.663   2.133
 3641SOL     OW11821   6.401   3.656   1.908
 3641SOL    HW111822   6.403   3.715   1.988
 3641SOL    HW211823   6.370   3.709   1.829
 3642SOL     OW11824   5.074   4.177   6.694
 3642SOL    HW111825   4.976   4.167   6.712
 3642SOL    HW211826   5.115   4.086   6.685
 3643SOL     OW11827   4.547   6.001   5.027
 3643SOL    HW111828   4.527   5.907   5.001
 3643SOL    HW211829   4.470   6.039   5.078
 3644SOL     OW11830   2.880   0.680   1.763
 3644SOL    HW111831   2.863   0.749   1.693
 3644SOL    HW211832   2.881   0.589   1.722
 3645SOL     OW11833   2.055   4.042   3.258
 3645SOL    HW111834   1.968   3.997   3.276
 3645SOL    HW211835   2.112   4.036   3.340
 3646SOL     OW11836   2.172   5.268   5.503
 3646SOL    HW111837   2.153   5.190   5.562
 3646SOL    HW211838   2.153   5.353   5.552
 3647SOL     OW11839   3.715   0.121   0.711
 3647SOL    HW111840   3.789   0.149   0.772
 3647SOL    HW211841   3.663   0.202   0.683
 3648SOL     OW11842   5.160   4.390   3.206
 3648SOL    HW111843   5.172   4.337   3.122
 3648SOL    HW211844   5.063   4.410   3.219
 3649SOL     OW11845   5.063   2.627   0.438
 3649SOL    HW111846   5.153   2.598   0.406
 3649SOL    HW211847   5.069   2.717   0.480
 3650SOL     OW11848   5.647   5.956   6.022
 3650SOL    HW111849   5.607   5.993   6.105
 3650SOL    HW211850   5.680   6.031   5.964
 3651SOL     OW11851   1.057   2.292   6.069
 3651SOL    HW111852   1.025   2.385   6.085
 3651SOL    HW211853   1.051   2.239   6.153
 3652SOL     OW11854   4.930   2.551   2.876
 3652SOL    HW111855   4.893   2.459   2.870
 3652SOL    HW211856   4.885   2.600   2.950
 3653SOL     OW11857   2.234   1.376   0.827
 3653SOL    HW111858   2.284   1.296   0.795
 3653SOL    HW211859   2.195   1.359   0.917
 3654SOL     OW11860   4.053   6.426   1.407
 3654SOL    HW111861   4.046   6.526   1.406
 3654SOL    HW211862   4.147   6.399   1.431
 3655SOL     OW11863   1.111   1.028   3.891
 3655SOL    HW111864   1.189   0.978   3.928
 3655SOL    HW211865   1.040   1.035   3.962
 3656SOL     OW11866   0.148   0.090   0.809
 3656SOL    HW111867   0.136   0.094   0.710
 3656SOL    HW211868   0.088   0.158   0.852
 3657SOL     OW11869   5.665   5.109   6.301
 3657SOL    HW111870   5.683   5.152   6.213
 3657SOL    HW211871   5.749   5.064   6.334
 3658SOL     OW11872   1.607   4.216   5.307
 3658SOL    HW111873   1.669   4.168   5.245
 3658SOL    HW211874   1.531   4.253   5.255
 3659SOL     OW11875   1.040   2.339   6.661
 3659SOL    HW111876   1.002   2.247   6.655
 3659SOL    HW211877   1.012   2.392   6.581
 3660SOL     OW11878   3.859   5.149   5.194
 3660SOL    HW111879   3.842   5.134   5.097
 3660SOL    HW211880   3.904   5.238   5.207
 3661SOL     OW11881   0.772   1.459   4.636
 3661SOL    HW111882   0.774   1.559   4.645
 3661SOL    HW211883   0.848   1.429   4.579
 3662SOL     OW11884   3.532   1.655   5.234
 3662SOL    HW111885   3.548   1.556   5.232
 3662SOL    HW211886   3.577   1.694   5.313
 3663SOL     OW11887   2.092   2.354   6.403
 3663SOL    HW111888   2.015   2.385   6.348
 3663SOL    HW211889   2.169   2.330   6.344
 3664SOL     OW11890   2.705   2.010   1.245
 3664SOL    HW111891   2.791   1.969   1.215
 3664SOL    HW211892   2.694   2.100   1.203
 3665SOL     OW11893   6.900   5.854   5.167
 3665SOL    HW111894   6.810   5.830   5.131
 3665SOL    HW211895   6.948   5.911   5.100
 3666SOL     OW11896   2.144   3.560   4.522
 3666SOL    HW111897   2.140   3.485   4.457
 3666SOL    HW211898   2.153   3.523   4.615
 3667SOL     OW11899   2.115   6.656   0.997
 3667SOL    HW111900   2.110   6.756   0.995
 3667SOL    HW211901   2.033   6.620   1.043
 3668SOL     OW11902   5.716   1.247   0.921
 3668SOL    HW111903   5.786   1.312   0.892
 3668SOL    HW211904   5.747   1.154   0.903
 3669SOL     OW11905   6.380   1.083   1.589
 3669SOL    HW111906   6.470   1.040   1.586
 3669SOL    HW211907   6.390   1.183   1.590
 3670SOL     OW11908   1.881   6.729   2.048
 3670SOL    HW111909   1.916   6.777   2.129
 3670SOL    HW211910   1.954   6.723   1.979
 3671SOL     OW11911   0.195   0.730   5.111
 3671SOL    HW111912   0.262   0.659   5.090
 3671SOL    HW211913   0.104   0.700   5.081
 3672SOL     OW11914   4.184   0.258   3.394
 3672SOL    HW111915   4.206   0.264   3.492
 3672SOL    HW211916   4.107   0.195   3.382
 3673SOL     OW11917   3.496   1.230   1.634
 3673SOL    HW111918   3.512   1.132   1.623
 3673SOL    HW211919   3.573   1.271   1.683
 3674SOL     OW11920   0.434   4.600   5.793
 3674SOL    HW111921   0.489   4.644   5.722
 3674SOL    HW211922   0.394   4.516   5.758
 3675SOL     OW11923   6.665   0.746   4.445
 3675SOL    HW111924   6.582   0.795   4.469
 3675SOL    HW211925   6.744   0.791   4.487
 3676SOL     OW11926   2.472   0.882   5.922
 3676SOL    HW111927   2.480   0.853   5.827
 3676SOL    HW211928   2.475   0.982   5.926
 3677SOL     OW11929   1.429   0.913   4.450
 3677SOL    HW111930   1.344   0.864   4.470
 3677SOL    HW211931   1.461   0.960   4.532
 3678SOL     OW11932   2.660   1.068   3.014
 3678SOL    HW111933   2.644   1.166   3.025
 3678SOL    HW211934   2.660   1.045   2.917
 3679SOL     OW11935   3.063   1.013   2.389
 3679SOL    HW111936   3.147   0.962   2.373
 3679SOL    HW211937   2.992   0.983   2.324
 3680SOL     OW11938   3.915   2.195   4.270
 3680SOL    HW111939   3.895   2.183   4.368
 3680SOL    HW211940   3.830   2.191   4.219
 3681SOL     OW11941   1.097   6.109   3.629
 3681SOL    HW111942   1.176   6.139   3.683
 3681SOL    HW211943   1.015   6.157   3.659
 3682SOL     OW11944   5.584   2.058   1.433
 3682SOL    HW111945   5.630   2.064   1.344
 3682SOL    HW211946   5.554   1.964   1.448
 3683SOL     OW11947   6.576   1.520   0.763
 3683SOL    HW111948   6.515   1.576   0.819
 3683SOL    HW211949   6.655   1.575   0.736
 3684SOL     OW11950   2.681   6.254   5.801
 3684SOL    HW111951   2.651   6.349   5.790
 3684SOL    HW211952   2.632   6.197   5.735
 3685SOL     OW11953   2.618   6.756   3.906
 3685SOL    HW111954   2.585   6.774   3.999
 3685SOL    HW211955   2.690   6.822   3.883
 3686SOL     OW11956   6.947   4.200   0.409
 3686SOL    HW111957   0.006   4.139   0.428
 3686SOL    HW211958   6.925   4.196   0.312
 3687SOL     OW11959   6.683   4.588   4.525
 3687SOL    HW111960   6.664   4.490   4.523
 3687SOL    HW211961   6.775   4.604   4.561
 3688SOL     OW11962   6.849   3.022   1.566
 3688SOL    HW111963   6.800   2.987   1.645
 3688SOL    HW211964   6.803   2.993   1.482
 3689SOL     OW11965   1.507   1.506   5.609
 3689SOL    HW111966   1.485   1.455   5.692
 3689SOL    HW211967   1.468   1.459   5.530
 3690SOL     OW11968   6.340   4.466   1.473
 3690SOL    HW111969   6.358   4.431   1.381
 3690SOL    HW211970   6.266   4.413   1.515
 3691SOL     OW11971   1.766   2.360   1.100
 3691SOL    HW111972   1.847   2.418   1.107
 3691SOL    HW211973   1.730   2.342   1.192
 3692SOL     OW11974   1.174   2.953   5.366
 3692SOL    HW111975   1.109   2.880   5.347
 3692SOL    HW211976   1.182   2.966   5.465
 3693SOL     OW11977   0.003   1.632   2.877
 3693SOL    HW111978   0.065   1.578   2.821
 3693SOL    HW211979   6.945   1.574   2.908
 3694SOL     OW11980   6.803   6.907   2.031
 3694SOL    HW111981   6.720   6.919   1.977
 3694SOL    HW211982   6.792   6.830   2.094
 3695SOL     OW11983   6.171   3.891   3.499
 3695SOL    HW111984   6.109   3.948   3.445
 3695SOL    HW211985   6.143   3.892   3.595
 3696SOL     OW11986   4.407   6.961   3.939
 3696SOL    HW111987   4.481   6.909   3.896
 3696SOL    HW211988   4.446   0.011   4.001
 3697SOL     OW11989   6.093   5.487   3.135
 3697SOL    HW111990   6.071   5.466   3.039
 3697SOL    HW211991   6.143   5.574   3.139
 3698SOL     OW11992   1.063   6.888   4.280
 3698SOL    HW111993   1.121   6.838   4.343
 3698SOL    HW211994   1.091   6.867   4.186
 3699SOL     OW11995   3.000   1.921   2.719
 3699SOL    HW111996   2.997   1.863   2.800
 3699SOL    HW211997   3.010   1.863   2.637
 3700SOL     OW11998   1.392   5.128   4.155
 3700SOL    HW111999   1.347   5.172   4.233
 3700SOL    HW212000   1.469   5.184   4.124
 3701SOL     OW12001   6.866   0.461   1.892
 3701SOL    HW112002   6.866   0.508   1.804
 3701SOL    HW212003   6.903   0.369   1.881
 3702SOL     OW12004   6.604   4.611   3.460
 3702SOL    HW112005   6.582   4.585   3.366
 3702SOL    HW212006   6.698   4.645   3.464
 3703SOL     OW12007   1.035   2.310   2.904
 3703SOL    HW112008   1.036   2.301   3.003
 3703SOL    HW212009   1.040   2.407   2.880
 3704SOL     OW12010   5.971   6.870   0.617
 3704SOL    HW112011   6.049   6.896   0.559
 3704SOL    HW212012   5.971   6.771   0.630
 3705SOL     OW12013   6.438   4.179   3.441
 3705SOL    HW112014   6.517   4.201   3.386
 3705SOL    HW212015   6.460   4.103   3.502
 3706SOL     OW12016   1.009   5.252   6.327
 3706SOL    HW112017   0.930   5.191   6.328
 3706SOL    HW212018   0.980   5.343   6.295
 3707SOL     OW12019   0.647   4.950   3.679
 3707SOL    HW112020   0.645   4.945   3.579
 3707SOL    HW212021   0.642   4.858   3.717
 3708SOL     OW12022   1.797   6.038   0.342
 3708SOL    HW112023   1.837   5.952   0.311
 3708SOL    HW212024   1.736   6.075   0.272
 3709SOL     OW12025   0.443   1.600   2.503
 3709SOL    HW112026   0.490   1.632   2.585
 3709SOL    HW212027   0.489   1.519   2.468
 3710SOL     OW12028   2.220   4.046   5.526
 3710SOL    HW112029   2.192   4.115   5.459
 3710SOL    HW212030   2.188   3.956   5.496
 3711SOL     OW12031   2.023   5.206   5.266
 3711SOL    HW112032   2.065   5.257   5.341
 3711SOL    HW212033   2.016   5.109   5.291
 3712SOL     OW12034   3.070   5.277   4.282
 3712SOL    HW112035   3.096   5.322   4.367
 3712SOL    HW212036   3.059   5.344   4.210
 3713SOL     OW12037   6.255   0.186   5.449
 3713SOL    HW112038   6.332   0.176   5.385
 3713SOL    HW212039   6.169   0.176   5.399
 3714SOL     OW12040   0.260   5.057   7.005
 3714SOL    HW112041   0.213   5.131   6.958
 3714SOL    HW212042   0.351   5.043   6.964
 3715SOL     OW12043   6.357   4.702   3.142
 3715SOL    HW112044   6.395   4.737   3.057
 3715SOL    HW212045   6.299   4.772   3.184
 3716SOL     OW12046   5.539   5.741   5.771
 3716SOL    HW112047   5.490   5.827   5.754
 3716SOL    HW212048   5.555   5.730   5.869
 3717SOL     OW12049   4.713   0.371   1.364
 3717SOL    HW112050   4.662   0.289   1.389
 3717SOL    HW212051   4.719   0.433   1.442
 3718SOL     OW12052   5.609   6.772   6.349
 3718SOL    HW112053   5.650   6.683   6.333
 3718SOL    HW212054   5.511   6.762   6.363
 3719SOL     OW12055   2.479   4.400   0.119
 3719SOL    HW112056   2.527   4.349   0.047
 3719SOL    HW212057   2.473   4.343   0.201
 3720SOL     OW12058   0.348   2.146   1.185
 3720SOL    HW112059   0.423   2.188   1.236
 3720SOL    HW212060   0.330   2.199   1.102
 3721SOL     OW12061   6.416   0.097   6.263
 3721SOL    HW112062   6.423   0.022   6.198
 3721SOL    HW212063   6.415   0.184   6.214
 3722SOL     OW12064   5.896   6.673   1.119
 3722SOL    HW112065   5.853   6.636   1.201
 3722SOL    HW212066   5.951   6.753   1.142
 3723SOL     OW12067   4.656   4.357   6.212
 3723SOL    HW112068   4.685   4.452   6.198
 3723SOL    HW212069   4.592   4.353   6.289
 3724SOL     OW12070   6.779   4.761   4.847
 3724SOL    HW112071   6.834   4.839   4.877
 3724SOL    HW212072   6.722   4.788   4.770
 3725SOL     OW12073   0.325   6.281   0.287
 3725SOL    HW112074   0.261   6.224   0.338
 3725SOL    HW212075   0.275   6.342   0.226
 3726SOL     OW12076   5.982   3.569   5.134
 3726SOL    HW112077   5.999   3.474   5.109
 3726SOL    HW212078   5.959   3.621   5.051
 3727SOL     OW12079   6.749   1.677   4.054
 3727SOL    HW112080   6.812   1.664   4.131
 3727SOL    HW212081   6.662   1.712   4.089
 3728SOL     OW12082   1.906   4.513   0.461
 3728SOL    HW112083   1.889   4.424   0.505
 3728SOL    HW212084   2.004   4.524   0.446
 3729SOL     OW12085   0.276   0.013   6.274
 3729SOL    HW112086   0.313   6.979   6.197
 3729SOL    HW212087   0.204   6.977   6.318
 3730SOL     OW12088   5.117   4.965   4.448
 3730SOL    HW112089   5.108   4.898   4.375
 3730SOL    HW212090   5.213   4.989   4.461
 3731SOL     OW12091   0.142   1.879   1.295
 3731SOL    HW112092   0.179   1.907   1.206
 3731SOL    HW212093   0.077   1.804   1.282
 3732SOL     OW12094   3.839   2.763   0.180
 3732SOL    HW112095   3.742   2.769   0.200
 3732SOL    HW212096   3.856   2.690   0.114
 3733SOL     OW12097   1.728   0.979   3.340
 3733SOL    HW112098   1.811   1.031   3.359
 3733SOL    HW212099   1.652   1.042   3.325
 3734SOL     OW12100   3.535   0.485   1.940
 3734SOL    HW112101   3.633   0.469   1.931
 3734SOL    HW212102   3.515   0.581   1.918
 3735SOL     OW12103   4.497   0.924   2.623
 3735SOL    HW112104   4.442   0.912   2.540
 3735SOL    HW212105   4.594   0.916   2.600
 3736SOL     OW12106   1.025   1.810   0.034
 3736SOL    HW112107   0.951   1.832   0.098
 3736SOL    HW212108   1.108   1.860   0.061
 3737SOL     OW12109   5.761   2.239   4.009
 3737SOL    HW112110   5.708   2.157   3.986
 3737SOL    HW212111   5.720   2.319   3.965
 3738SOL     OW12112   0.393   1.100   1.254
 3738SOL    HW112113   0.354   1.083   1.164
 3738SOL    HW212114   0.339   1.051   1.323
 3739SOL     OW12115   2.968   4.496   6.910
 3739SOL    HW112116   2.937   4.405   6.883
 3739SOL    HW212117   3.065   4.506   6.891
 3740SOL     OW12118   5.318   6.231   6.810
 3740SOL    HW112119   5.248   6.166   6.783
 3740SOL    HW212120   5.276   6.320   6.827
 3741SOL     OW12121   5.820   4.018   0.037
 3741SOL    HW112122   5.872   3.987   6.975
 3741SOL    HW212123   5.842   3.960   0.116
 3742SOL     OW12124   5.032   5.651   1.263
 3742SOL    HW112125   4.958   5.598   1.303
 3742SOL    HW212126   5.072   5.600   1.187
 3743SOL     OW12127   2.490   4.039   0.661
 3743SOL    HW112128   2.589   4.053   0.660
 3743SOL    HW212129   2.447   4.106   0.721
 3744SOL     OW12130   6.394   6.233   2.383
 3744SOL    HW112131   6.314   6.184   2.419
 3744SOL    HW212132   6.468   6.168   2.367
 3745SOL     OW12133   5.532   2.196   2.980
 3745SOL    HW112134   5.450   2.148   3.010
 3745SOL    HW212135   5.511   2.250   2.898
 3746SOL     OW12136   4.971   6.963   4.998
 3746SOL    HW112137   4.889   6.976   5.053
 3746SOL    HW212138   4.963   6.879   4.945
 3747SOL     OW12139   2.118   5.968   5.578
 3747SOL    HW112140   2.175   6.017   5.645
 3747SOL    HW212141   2.128   5.870   5.591
 3748SOL     OW12142   4.840   2.494   3.331
 3748SOL    HW112143   4.772   2.481   3.403
 3748SOL    HW212144   4.847   2.410   3.277
 3749SOL     OW12145   6.330   0.150   1.800
 3749SOL    HW112146   6.428   0.169   1.806
 3749SOL    HW212147   6.313   0.083   1.728
 3750SOL     OW12148   5.654   4.367   1.205
 3750SOL    HW112149   5.735   4.308   1.206
 3750SOL    HW212150   5.574   4.313   1.179
 3751SOL     OW12151   1.489   4.635   0.319
 3751SOL    HW112152   1.423   4.709   0.332
 3751SOL    HW212153   1.575   4.658   0.364
 3752SOL     OW12154   0.908   6.439   6.015
 3752SOL    HW112155   0.973   6.374   5.977
 3752SOL    HW212156   0.922   6.446   6.114
 3753SOL     OW12157   0.733   0.388   5.527
 3753SOL    HW112158   0.678   0.469   5.549
 3753SOL    HW212159   0.673   0.308   5.519
 3754SOL     OW12160   6.600   5.990   1.792
 3754SOL    HW112161   6.658   5.926   1.843
 3754SOL    HW212162   6.527   6.024   1.851
 3755SOL     OW12163   4.513   2.361   3.054
 3755SOL    HW112164   4.539   2.267   3.073
 3755SOL    HW212165   4.443   2.362   2.983
 3756SOL     OW12166   3.466   6.905   0.489
 3756SOL    HW112167   3.563   6.928   0.478
 3756SOL    HW212168   3.450   6.872   0.583
 3757SOL     OW12169   3.486   4.720   6.326
 3757SOL    HW112170   3.533   4.808   6.316
 3757SOL    HW212171   3.548   4.645   6.301
 3758SOL     OW12172   6.626   0.829   2.477
 3758SOL    HW112173   6.642   0.917   2.523
 3758SOL    HW212174   6.534   0.797   2.498
 3759SOL     OW12175   4.989   4.323   0.928
 3759SOL    HW112176   4.974   4.243   0.871
 3759SOL    HW212177   4.927   4.320   1.007
 3760SOL     OW12178   1.635   1.579   5.858
 3760SOL    HW112179   1.561   1.626   5.905
 3760SOL    HW212180   1.661   1.498   5.909
 3761SOL     OW12181   6.490   6.124   3.985
 3761SOL    HW112182   6.390   6.129   3.991
 3761SOL    HW212183   6.516   6.036   3.943
 3762SOL     OW12184   0.251   2.766   0.440
 3762SOL    HW112185   0.269   2.726   0.350
 3762SOL    HW212186   0.334   2.813   0.473
 3763SOL     OW12187   0.286   3.497   4.482
 3763SOL    HW112188   0.385   3.486   4.475
 3763SOL    HW212189   0.259   3.505   4.578
 3764SOL     OW12190   2.230   0.220   4.080
 3764SOL    HW112191   2.212   0.291   4.011
 3764SOL    HW212192   2.206   0.130   4.042
 3765SOL     OW12193   6.148   1.297   3.519
 3765SOL    HW112194   6.215   1.225   3.534
 3765SOL    HW212195   6.146   1.321   3.422
 3766SOL     OW12196   1.677   1.301   5.187
 3766SOL    HW112197   1.749   1.231   5.190
 3766SOL    HW212198   1.720   1.392   5.181
 3767SOL     OW12199   0.409   4.453   0.062
 3767SOL    HW112200   0.369   4.520   7.017
 3767SOL    HW212201   0.368   4.363   0.045
 3768SOL     OW12202   4.583   6.230   1.387
 3768SOL    HW112203   4.615   6.135   1.384
 3768SOL    HW212204   4.602   6.274   1.300
 3769SOL     OW12205   4.353   6.816   5.116
 3769SOL    HW112206   4.438   6.867   5.106
 3769SOL    HW212207   4.367   6.722   5.083
 3770SOL     OW12208   1.914   2.893   0.419
 3770SOL    HW112209   1.973   2.887   0.499
 3770SOL    HW212210   1.966   2.870   0.337
 3771SOL     OW12211   4.122   1.393   5.626
 3771SOL    HW112212   4.074   1.412   5.540
 3771SOL    HW212213   4.138   1.479   5.675
 3772SOL     OW12214   4.807   0.447   2.782
 3772SOL    HW112215   4.740   0.468   2.712
 3772SOL    HW212216   4.779   0.486   2.870
 3773SOL     OW12217   6.320   2.679   0.938
 3773SOL    HW112218   6.366   2.630   0.864
 3773SOL    HW212219   6.222   2.658   0.935
 3774SOL     OW12220   0.817   1.558   1.972
 3774SOL    HW112221   0.804   1.498   1.892
 3774SOL    HW212222   0.886   1.627   1.951
 3775SOL     OW12223   5.227   3.026   3.717
 3775SOL    HW112224   5.300   3.063   3.660
 3775SOL    HW212225   5.204   3.092   3.789
 3776SOL     OW12226   2.852   1.826   6.909
 3776SOL    HW112227   2.926   1.891   6.891
 3776SOL    HW212228   2.789   1.864   6.977
 3777SOL     OW12229   1.086   4.505   2.810
 3777SOL    HW112230   1.026   4.449   2.866
 3777SOL    HW212231   1.148   4.446   2.757
 3778SOL     OW12232   2.242   0.135   1.998
 3778SOL    HW112233   2.183   0.165   2.073
 3778SOL    HW212234   2.320   0.084   2.035
 3779SOL     OW12235   2.055   4.838   7.003
 3779SOL    HW112236   2.063   4.920   0.041
 3779SOL    HW212237   1.965   4.835   6.960
 3780SOL     OW12238   2.404   0.331   4.268
 3780SOL    HW112239   2.335   0.386   4.314
 3780SOL    HW212240   2.360   0.269   4.203
 3781SOL     OW12241   2.877   5.446   4.854
 3781SOL    HW112242   2.924   5.358   4.847
 3781SOL    HW212243   2.780   5.433   4.831
 3782SOL     OW12244   2.640   0.772   2.300
 3782SOL    HW112245   2.571   0.726   2.245
 3782SOL    HW212246   2.731   0.743   2.271
 3783SOL     OW12247   4.746   5.369   4.439
 3783SOL    HW112248   4.690   5.291   4.465
 3783SOL    HW212249   4.690   5.437   4.392
 3784SOL     OW12250   5.488   2.040   4.438
 3784SOL    HW112251   5.418   1.968   4.443
 3784SOL    HW212252   5.454   2.122   4.483
 3785SOL     OW12253   1.152   0.663   1.969
 3785SOL    HW112254   1.195   0.577   1.942
 3785SOL    HW212255   1.122   0.712   1.887
 3786SOL     OW12256   3.045   6.411   2.252
 3786SOL    HW112257   2.953   6.434   2.220
 3786SOL    HW212258   3.105   6.490   2.242
 3787SOL     OW12259   4.663   1.032   4.362
 3787SOL    HW112260   4.731   1.027   4.289
 3787SOL    HW212261   4.571   1.034   4.321
 3788SOL     OW12262   6.882   3.953   2.651
 3788SOL    HW112263   6.800   3.978   2.600
 3788SOL    HW212264   6.902   3.856   2.637
 3789SOL     OW12265   1.384   5.091   1.928
 3789SOL    HW112266   1.446   5.119   2.001
 3789SOL    HW212267   1.435   5.085   1.842
 3790SOL     OW12268   2.176   3.171   3.398
 3790SOL    HW112269   2.079   3.194   3.391
 3790SOL    HW212270   2.224   3.201   3.316
 3791SOL     OW12271   6.254   0.660   2.916
 3791SOL    HW112272   6.313   0.626   2.844
 3791SOL    HW212273   6.269   0.758   2.929
 3792SOL     OW12274   0.784   6.104   6.485
 3792SOL    HW112275   0.735   6.023   6.452
 3792SOL    HW212276   0.763   6.118   6.582
 3793SOL     OW12277   0.594   5.641   2.452
 3793SOL    HW112278   0.678   5.633   2.399
 3793SOL    HW212279   0.537   5.714   2.414
 3794SOL     OW12280   4.587   0.157   3.850
 3794SOL    HW112281   4.560   0.223   3.919
 3794SOL    HW212282   4.509   0.136   3.791
 3795SOL     OW12283   5.376   0.448   0.150
 3795SOL    HW112284   5.446   0.460   0.220
 3795SOL    HW212285   5.317   0.529   0.146
 3796SOL     OW12286   0.278   2.730   1.064
 3796SOL    HW112287   0.320   2.779   0.987
 3796SOL    HW212288   0.202   2.785   1.100
 3797SOL     OW12289   6.908   5.766   2.732
 3797SOL    HW112290   6.857   5.682   2.713
 3797SOL    HW212291   6.924   5.775   2.830
 3798SOL     OW12292   0.811   4.426   0.995
 3798SOL    HW112293   0.804   4.437   1.094
 3798SOL    HW212294   0.766   4.341   0.967
 3799SOL     OW12295   1.678   0.404   5.482
 3799SOL    HW112296   1.587   0.401   5.523
 3799SOL    HW212297   1.730   0.323   5.510
 3800SOL     OW12298   5.403   2.577   4.954
 3800SOL    HW112299   5.344   2.652   4.923
 3800SOL    HW212300   5.454   2.606   5.035
 3801SOL     OW12301   6.717   0.094   6.147
 3801SOL    HW112302   6.717   0.011   6.203
 3801SOL    HW212303   6.795   0.093   6.085
 3802SOL     OW12304   1.693   2.579   5.095
 3802SOL    HW112305   1.616   2.548   5.040
 3802SOL    HW212306   1.779   2.547   5.054
 3803SOL     OW12307   4.029   1.368   1.345
 3803SOL    HW112308   4.043   1.389   1.442
 3803SOL    HW212309   3.948   1.310   1.335
 3804SOL     OW12310   5.169   3.679   5.284
 3804SOL    HW112311   5.111   3.747   5.239
 3804SOL    HW212312   5.122   3.591   5.287
 3805SOL     OW12313   1.853   3.668   1.560
 3805SOL    HW112314   1.948   3.675   1.528
 3805SOL    HW212315   1.823   3.757   1.594
 3806SOL     OW12316   3.863   0.963   7.000
 3806SOL    HW112317   3.947   0.991   0.028
 3806SOL    HW212318   3.874   0.869   6.965
 3807SOL     OW12319   1.107   7.008   2.798
 3807SOL    HW112320   1.038   0.062   2.809
 3807SOL    HW212321   1.112   6.954   2.882
 3808SOL     OW12322   3.523   0.860   0.482
 3808SOL    HW112323   3.494   0.885   0.390
 3808SOL    HW212324   3.621   0.876   0.491
 3809SOL     OW12325   4.376   0.397   0.318
 3809SOL    HW112326   4.345   0.348   0.399
 3809SOL    HW212327   4.440   0.339   0.267
 3810SOL     OW12328   1.885   3.366   6.572
 3810SOL    HW112329   1.963   3.415   6.610
 3810SOL    HW212330   1.800   3.404   6.609
 3811SOL     OW12331   0.469   0.613   6.732
 3811SOL    HW112332   0.378   0.597   6.770
 3811SOL    HW212333   0.538   0.602   6.804
 3812SOL     OW12334   4.879   0.975   5.401
 3812SOL    HW112335   4.829   1.037   5.462
 3812SOL    HW212336   4.948   1.027   5.350
 3813SOL     OW12337   3.795   4.865   2.171
 3813SOL    HW112338   3.756   4.848   2.081
 3813SOL    HW212339   3.764   4.955   2.204
 3814SOL     OW12340   2.282   0.878   1.608
 3814SOL    HW112341   2.381   0.867   1.604
 3814SOL    HW212342   2.241   0.800   1.656
 3815SOL     OW12343   5.501   2.025   2.173
 3815SOL    HW112344   5.528   2.117   2.144
 3815SOL    HW212345   5.534   1.958   2.107
 3816SOL     OW12346   7.003   6.617   0.450
 3816SOL    HW112347   6.991   6.669   0.365
 3816SOL    HW212348   0.078   6.629   0.484
 3817SOL     OW12349   5.258   1.966   5.245
 3817SOL    HW112350   5.289   1.902   5.315
 3817SOL    HW212351   5.159   1.978   5.251
 3818SOL     OW12352   3.857   5.459   2.895
 3818SOL    HW112353   3.876   5.361   2.898
 3818SOL    HW212354   3.941   5.509   2.878
 3819SOL     OW12355   6.202   4.040   6.140
 3819SOL    HW112356   6.204   4.108   6.067
 3819SOL    HW212357   6.222   3.950   6.102
 3820SOL     OW12358   4.829   6.293   3.426
 3820SOL    HW112359   4.872   6.371   3.380
 3820SOL    HW212360   4.844   6.299   3.524
 3821SOL     OW12361   0.119   4.593   1.181
 3821SOL    HW112362   0.073   4.532   1.245
 3821SOL    HW212363   0.171   4.662   1.232
 3822SOL     OW12364   0.711   4.753   1.537
 3822SOL    HW112365   0.617   4.727   1.512
 3822SOL    HW212366   0.750   4.683   1.597
 3823SOL     OW12367   2.775   3.704   5.663
 3823SOL    HW112368   2.795   3.678   5.757
 3823SOL    HW212369   2.842   3.661   5.602
 3824SOL     OW12370   0.411   2.073   5.807
 3824SOL    HW112371   0.366   2.101   5.722
 3824SOL    HW212372   0.353   2.007   5.855
 3825SOL     OW12373   0.326   6.358   6.242
 3825SOL    HW112374   0.346   6.301   6.322
 3825SOL    HW212375   0.406   6.413   6.219
 3826SOL     OW12376   6.762   1.628   1.348
 3826SOL    HW112377   6.690   1.607   1.414
 3826SOL    HW212378   6.747   1.720   1.310
 3827SOL     OW12379   5.643   1.820   2.443
 3827SOL    HW112380   5.619   1.829   2.346
 3827SOL    HW212381   5.559   1.805   2.496
 3828SOL     OW12382   4.388   1.147   1.616
 3828SOL    HW112383   4.408   1.111   1.707
 3828SOL    HW212384   4.323   1.086   1.570
 3829SOL     OW12385   0.789   5.150   3.432
 3829SOL    HW112386   0.713   5.085   3.428
 3829SOL    HW212387   0.862   5.114   3.489
 3830SOL     OW12388   3.334   0.545   5.300
 3830SOL    HW112389   3.276   0.625   5.287
 3830SOL    HW212390   3.282   0.475   5.349
 3831SOL     OW12391   4.813   1.710   2.476
 3831SOL    HW112392   4.764   1.624   2.460
 3831SOL    HW212393   4.891   1.694   2.537
 3832SOL     OW12394   5.780   6.681   2.706
 3832SOL    HW112395   5.864   6.733   2.692
 3832SOL    HW212396   5.782   6.637   2.796
 3833SOL     OW12397   1.579   6.190   2.338
 3833SOL    HW112398   1.497   6.149   2.298
 3833SOL    HW212399   1.587   6.163   2.434
 3834SOL     OW12400   2.370   2.831   0.675
 3834SOL    HW112401   2.385   2.928   0.656
 3834SOL    HW212402   2.424   2.775   0.611
 3835SOL     OW12403   3.490   5.302   3.091
 3835SOL    HW112404   3.542   5.236   3.037
 3835SOL    HW212405   3.468   5.262   3.180
 3836SOL     OW12406   1.504   3.100   5.445
 3836SOL    HW112407   1.477   3.036   5.373
 3836SOL    HW212408   1.583   3.064   5.494
 3837SOL     OW12409   2.963   4.079   0.366
 3837SOL    HW112410   3.042   4.047   0.417
 3837SOL    HW212411   2.959   4.179   0.368
 3838SOL     OW12412   5.746   3.563   4.820
 3838SOL    HW112413   5.835   3.608   4.834
 3838SOL    HW212414   5.680   3.601   4.885
 3839SOL     OW12415   0.681   6.270   6.281
 3839SOL    HW112416   0.670   6.218   6.196
 3839SOL    HW212417   0.730   6.214   6.349
 3840SOL     OW12418   2.547   1.675   3.493
 3840SOL    HW112419   2.518   1.764   3.458
 3840SOL    HW212420   2.646   1.675   3.507
 3841SOL     OW12421   0.610   3.572   3.934
 3841SOL    HW112422   0.626   3.659   3.981
 3841SOL    HW212423   0.654   3.498   3.985
 3842SOL     OW12424   2.053   5.465   0.329
 3842SOL    HW112425   2.115   5.515   0.268
 3842SOL    HW212426   1.984   5.417   0.275
 3843SOL     OW12427   5.936   3.976   6.794
 3843SOL    HW112428   5.849   3.959   6.748
 3843SOL    HW212429   5.981   4.055   6.752
 3844SOL     OW12430   2.414   4.695   5.632
 3844SOL    HW112431   2.444   4.738   5.547
 3844SOL    HW212432   2.321   4.661   5.621
 3845SOL     OW12433   3.176   3.627   4.367
 3845SOL    HW112434   3.208   3.703   4.423
 3845SOL    HW212435   3.103   3.578   4.416
 3846SOL     OW12436   7.017   4.849   4.370
 3846SOL    HW112437   0.093   4.864   4.339
 3846SOL    HW212438   6.954   4.866   4.295
 3847SOL     OW12439   1.109   0.031   1.122
 3847SOL    HW112440   1.161   0.109   1.160
 3847SOL    HW212441   1.015   0.035   1.155
 3848SOL     OW12442   3.121   6.317   1.767
 3848SOL    HW112443   3.118   6.221   1.796
 3848SOL    HW212444   3.054   6.331   1.694
 3849SOL     OW12445   2.644   1.396   5.408
 3849SOL    HW112446   2.551   1.424   5.383
 3849SOL    HW212447   2.680   1.456   5.479
 3850SOL     OW12448   1.669   3.813   1.341
 3850SOL    HW112449   1.658   3.870   1.259
 3850SOL    HW212450   1.757   3.832   1.384
 3851SOL     OW12451   2.377   2.754   1.447
 3851SOL    HW112452   2.470   2.787   1.437
 3851SOL    HW212453   2.374   2.655   1.431
 3852SOL     OW12454   4.524   0.969   5.411
 3852SOL    HW112455   4.445   0.993   5.467
 3852SOL    HW212456   4.606   1.014   5.447
 3853SOL     OW12457   0.449   4.070   1.663
 3853SOL    HW112458   0.411   4.032   1.579
 3853SOL    HW212459   0.424   4.013   1.741
 3854SOL     OW12460   1.761   3.314   4.210
 3854SOL    HW112461   1.768   3.402   4.257
 3854SOL    HW212462   1.695   3.321   4.136
 3855SOL     OW12463   6.817   1.272   5.208
 3855SOL    HW112464   6.776   1.182   5.221
 3855SOL    HW212465   6.849   1.282   5.114
 3856SOL     OW12466   1.591   5.979   6.037
 3856SOL    HW112467   1.676   5.996   5.986
 3856SOL    HW212468   1.612   5.923   6.118
 3857SOL     OW12469   0.684   0.034   6.733
 3857SOL    HW112470   0.779   0.041   6.704
 3857SOL    HW212471   0.648   6.962   6.707
 3858SOL     OW12472   3.226   4.440   6.877
 3858SOL    HW112473   3.253   4.345   6.889
 3858SOL    HW212474   3.283   4.483   6.807
 3859SOL     OW12475   5.988   2.627   2.429
 3859SOL    HW112476   6.085   2.639   2.408
 3859SOL    HW212477   5.973   2.534   2.463
 3860SOL     OW12478   2.489   5.932   4.792
 3860SOL    HW112479   2.429   5.912   4.869
 3860SOL    HW212480   2.435   5.972   4.717
 3861SOL     OW12481   3.554   4.305   6.674
 3861SOL    HW112482   3.603   4.249   6.606
 3861SOL    HW212483   3.550   4.255   6.761
 3862SOL     OW12484   0.851   5.695   5.933
 3862SOL    HW112485   0.925   5.762   5.945
 3862SOL    HW212486   0.788   5.700   6.010
 3863SOL     OW12487   2.667   3.203   0.101
 3863SOL    HW112488   2.761   3.176   0.079
 3863SOL    HW212489   2.604   3.146   0.049
 3864SOL     OW12490   3.186   2.191   1.154
 3864SOL    HW112491   3.269   2.177   1.208
 3864SOL    HW212492   3.147   2.102   1.130
 3865SOL     OW12493   4.057   0.764   2.398
 3865SOL    HW112494   4.101   0.678   2.423
 3865SOL    HW212495   4.016   0.805   2.480
 3866SOL     OW12496   3.575   6.483   6.882
 3866SOL    HW112497   3.580   6.577   6.916
 3866SOL    HW212498   3.644   6.469   6.811
 3867SOL     OW12499   1.957   4.922   3.428
 3867SOL    HW112500   1.911   4.955   3.345
 3867SOL    HW212501   1.992   5.000   3.480
 3868SOL     OW12502   2.165   5.459   2.929
 3868SOL    HW112503   2.179   5.513   2.846
 3868SOL    HW212504   2.253   5.445   2.974
 3869SOL     OW12505   0.486   1.904   3.935
 3869SOL    HW112506   0.440   1.992   3.924
 3869SOL    HW212507   0.418   1.831   3.932
 3870SOL     OW12508   3.625   3.569   0.500
 3870SOL    HW112509   3.597   3.482   0.458
 3870SOL    HW212510   3.710   3.600   0.458
 3871SOL     OW12511   2.918   0.986   4.784
 3871SOL    HW112512   2.941   0.909   4.724
 3871SOL    HW212513   2.962   0.972   4.873
 3872SOL     OW12514   4.430   4.139   1.172
 3872SOL    HW112515   4.473   4.088   1.246
 3872SOL    HW212516   4.344   4.096   1.147
 3873SOL     OW12517   5.824   4.411   1.861
 3873SOL    HW112518   5.773   4.480   1.911
 3873SOL    HW212519   5.861   4.344   1.926
 3874SOL     OW12520   4.859   6.168   5.974
 3874SOL    HW112521   4.933   6.102   5.959
 3874SOL    HW212522   4.794   6.164   5.897
 3875SOL     OW12523   2.426   3.489   0.593
 3875SOL    HW112524   2.357   3.464   0.526
 3875SOL    HW212525   2.468   3.575   0.567
 3876SOL     OW12526   5.983   3.933   2.444
 3876SOL    HW112527   6.027   3.846   2.419
 3876SOL    HW212528   5.936   3.970   2.364
 3877SOL     OW12529   4.430   1.756   2.482
 3877SOL    HW112530   4.348   1.792   2.437
 3877SOL    HW212531   4.510   1.810   2.454
 3878SOL     OW12532   4.880   5.997   4.474
 3878SOL    HW112533   4.895   6.034   4.383
 3878SOL    HW212534   4.890   6.070   4.542
 3879SOL     OW12535   2.838   6.110   0.249
 3879SOL    HW112536   2.793   6.126   0.161
 3879SOL    HW212537   2.891   6.190   0.275
 3880SOL     OW12538   6.268   1.741   4.425
 3880SOL    HW112539   6.330   1.778   4.356
 3880SOL    HW212540   6.293   1.776   4.515
 3881SOL     OW12541   0.434   5.638   6.164
 3881SOL    HW112542   0.348   5.680   6.134
 3881SOL    HW212543   0.414   5.564   6.228
 3882SOL     OW12544   0.040   6.359   6.560
 3882SOL    HW112545   0.032   6.279   6.501
 3882SOL    HW212546   0.132   6.361   6.601
 3883SOL     OW12547   3.687   1.807   6.853
 3883SOL    HW112548   3.702   1.739   6.925
 3883SOL    HW212549   3.639   1.765   6.777
 3884SOL     OW12550   2.539   5.207   5.950
 3884SOL    HW112551   2.558   5.176   5.857
 3884SOL    HW212552   2.590   5.291   5.968
 3885SOL     OW12553   6.875   0.695   4.274
 3885SOL    HW112554   6.816   0.671   4.351
 3885SOL    HW212555   6.870   0.793   4.258
 3886SOL     OW12556   0.169   6.024   4.914
 3886SOL    HW112557   0.126   6.044   4.826
 3886SOL    HW212558   0.154   6.101   4.977
 3887SOL     OW12559   5.724   3.021   4.747
 3887SOL    HW112560   5.806   2.970   4.770
 3887SOL    HW212561   5.661   3.021   4.825
 3888SOL     OW12562   5.531   0.834   3.046
 3888SOL    HW112563   5.518   0.826   3.145
 3888SOL    HW212564   5.470   0.905   3.011
 3889SOL     OW12565   6.309   5.429   6.309
 3889SOL    HW112566   6.212   5.412   6.293
 3889SOL    HW212567   6.350   5.349   6.353
 3890SOL     OW12568   6.170   3.226   3.345
 3890SOL    HW112569   6.188   3.129   3.357
 3890SOL    HW212570   6.183   3.251   3.248
 3891SOL     OW12571   4.216   4.553   5.863
 3891SOL    HW112572   4.248   4.558   5.769
 3891SOL    HW212573   4.163   4.469   5.875
 3892SOL     OW12574   5.367   5.640   3.878
 3892SOL    HW112575   5.379   5.722   3.823
 3892SOL    HW212576   5.322   5.569   3.823
 3893SOL     OW12577   3.016   6.166   4.756
 3893SOL    HW112578   2.939   6.105   4.739
 3893SOL    HW212579   2.981   6.257   4.782
 3894SOL     OW12580   5.843   5.286   6.613
 3894SOL    HW112581   5.786   5.318   6.537
 3894SOL    HW212582   5.939   5.284   6.584
 3895SOL     OW12583   1.809   2.108   6.181
 3895SOL    HW112584   1.811   2.205   6.157
 3895SOL    HW212585   1.721   2.085   6.223
 3896SOL     OW12586   6.577   2.818   0.826
 3896SOL    HW112587   6.529   2.743   0.781
 3896SOL    HW212588   6.625   2.783   0.907
 3897SOL     OW12589   3.110   7.001   3.412
 3897SOL    HW112590   3.136   0.079   3.427
 3897SOL    HW212591   3.184   6.953   3.365
 3898SOL     OW12592   3.373   3.852   3.841
 3898SOL    HW112593   3.279   3.885   3.825
 3898SOL    HW212594   3.431   3.880   3.765
 3899SOL     OW12595   4.998   2.220   6.868
 3899SOL    HW112596   5.005   2.123   6.892
 3899SOL    HW212597   4.998   2.274   6.952
 3900SOL     OW12598   0.830   2.475   3.324
 3900SOL    HW112599   0.853   2.480   3.422
 3900SOL    HW212600   0.798   2.565   3.293
 3901SOL     OW12601   3.938   5.968   5.170
 3901SOL    HW112602   3.967   5.977   5.266
 3901SOL    HW212603   4.017   5.985   5.110
 3902SOL     OW12604   3.467   5.635   3.142
 3902SOL    HW112605   3.476   5.590   3.231
 3902SOL    HW212606   3.476   5.734   3.154
 3903SOL     OW12607   3.556   3.795   6.478
 3903SOL    HW112608   3.597   3.713   6.437
 3903SOL    HW212609   3.465   3.773   6.512
 3904SOL     OW12610   2.293   6.568   0.042
 3904SOL    HW112611   2.300   6.484   0.095
 3904SOL    HW212612   2.333   6.644   0.094
 3905SOL     OW12613   4.378   0.638   5.527
 3905SOL    HW112614   4.458   0.644   5.467
 3905SOL    HW212615   4.297   0.615   5.473
 3906SOL     OW12616   6.390   5.893   4.177
 3906SOL    HW112617   6.489   5.899   4.185
 3906SOL    HW212618   6.350   5.984   4.185
 3907SOL     OW12619   0.592   1.659   4.323
 3907SOL    HW112620   0.559   1.746   4.360
 3907SOL    HW212621   0.692   1.658   4.324
 3908SOL     OW12622   2.053   1.162   4.697
 3908SOL    HW112623   2.097   1.077   4.669
 3908SOL    HW212624   1.973   1.141   4.753
 3909SOL     OW12625   5.717   3.369   1.932
 3909SOL    HW112626   5.747   3.341   2.023
 3909SOL    HW212627   5.795   3.406   1.881
 3910SOL     OW12628   2.011   2.729   1.276
 3910SOL    HW112629   2.097   2.764   1.238
 3910SOL    HW212630   1.976   2.794   1.344
 3911SOL     OW12631   6.406   1.155   0.955
 3911SOL    HW112632   6.480   1.223   0.961
 3911SOL    HW212633   6.405   1.101   1.039
 3912SOL     OW12634   5.100   4.070   0.305
 3912SOL    HW112635   5.159   4.129   0.250
 3912SOL    HW212636   5.009   4.111   0.312
 3913SOL     OW12637   3.953   4.488   1.409
 3913SOL    HW112638   4.014   4.552   1.362
 3913SOL    HW212639   3.937   4.520   1.502
 3914SOL     OW12640   0.377   1.044   0.786
 3914SOL    HW112641   0.418   1.108   0.721
 3914SOL    HW212642   0.443   0.973   0.809
 3915SOL     OW12643   5.663   0.436   5.077
 3915SOL    HW112644   5.619   0.372   5.014
 3915SOL    HW212645   5.620   0.526   5.068
 3916SOL     OW12646   1.740   2.245   2.269
 3916SOL    HW112647   1.672   2.178   2.300
 3916SOL    HW212648   1.832   2.214   2.295
 3917SOL     OW12649   4.619   5.721   2.833
 3917SOL    HW112650   4.592   5.710   2.929
 3917SOL    HW212651   4.690   5.791   2.827
 3918SOL     OW12652   3.914   6.910   1.011
 3918SOL    HW112653   3.989   6.856   1.048
 3918SOL    HW212654   3.874   6.967   1.083
 3919SOL     OW12655   5.180   5.301   3.119
 3919SOL    HW112656   5.177   5.235   3.194
 3919SOL    HW212657   5.091   5.347   3.111
 3920SOL     OW12658   4.520   1.216   5.993
 3920SOL    HW112659   4.522   1.280   6.070
 3920SOL    HW212660   4.437   1.231   5.940
 3921SOL     OW12661   1.254   3.121   6.178
 3921SOL    HW112662   1.278   3.047   6.241
 3921SOL    HW212663   1.310   3.114   6.095
 3922SOL     OW12664   5.596   2.649   4.020
 3922SOL    HW112665   5.504   2.684   4.000
 3922SOL    HW212666   5.621   2.581   3.951
 3923SOL     OW12667   5.546   0.911   0.985
 3923SOL    HW112668   5.496   0.836   0.941
 3923SOL    HW212669   5.631   0.929   0.934
 3924SOL     OW12670   5.239   5.062   3.569
 3924SOL    HW112671   5.193   5.127   3.629
 3924SOL    HW212672   5.232   4.970   3.609
 3925SOL     OW12673   3.670   4.443   1.655
 3925SOL    HW112674   3.638   4.524   1.704
 3925SOL    HW212675   3.685   4.467   1.559
 3926SOL     OW12676   1.377   5.990   5.293
 3926SOL    HW112677   1.311   5.941   5.236
 3926SOL    HW212678   1.434   6.049   5.236
 3927SOL     OW12679   6.154   6.934   5.288
 3927SOL    HW112680   6.199   6.997   5.225
 3927SOL    HW212681   6.212   6.917   5.368
 3928SOL     OW12682   4.533   5.478   2.688
 3928SOL    HW112683   4.478   5.443   2.612
 3928SOL    HW212684   4.520   5.576   2.697
 3929SOL     OW12685   1.279   1.423   5.449
 3929SOL    HW112686   1.351   1.357   5.425
 3929SOL    HW212687   1.194   1.373   5.468
 3930SOL     OW12688   2.456   5.502   3.729
 3930SOL    HW112689   2.540   5.488   3.676
 3930SOL    HW212690   2.381   5.450   3.687
 3931SOL     OW12691   0.612   2.341   0.274
 3931SOL    HW112692   0.618   2.418   0.337
 3931SOL    HW212693   0.558   2.366   0.195
 3932SOL     OW12694   2.195   4.103   2.736
 3932SOL    HW112695   2.105   4.089   2.697
 3932SOL    HW212696   2.265   4.079   2.668
 3933SOL     OW12697   1.353   6.484   1.567
 3933SOL    HW112698   1.326   6.498   1.472
 3933SOL    HW212699   1.275   6.450   1.620
 3934SOL     OW12700   1.740   6.493   2.077
 3934SOL    HW112701   1.651   6.503   2.033
 3934SOL    HW212702   1.795   6.576   2.061
 3935SOL     OW12703   0.521   0.937   5.186
 3935SOL    HW112704   0.439   0.976   5.228
 3935SOL    HW212705   0.597   1.001   5.198
 3936SOL     OW12706   6.616   4.353   3.551
 3936SOL    HW112707   6.533   4.305   3.523
 3936SOL    HW212708   6.612   4.448   3.519
 3937SOL     OW12709   1.311   6.508   0.012
 3937SOL    HW112710   1.361   6.436   0.059
 3937SOL    HW212711   1.336   6.597   0.050
 3938SOL     OW12712   0.364   3.945   6.454
 3938SOL    HW112713   0.402   3.866   6.406
 3938SOL    HW212714   0.291   3.915   6.515
 3939SOL     OW12715   2.734   6.512   4.032
 3939SOL    HW112716   2.681   6.533   4.114
 3939SOL    HW212717   2.727   6.588   3.967
 3940SOL     OW12718   2.572   6.322   6.519
 3940SOL    HW112719   2.549   6.278   6.432
 3940SOL    HW212720   2.503   6.392   6.540
 3941SOL     OW12721   5.883   5.475   2.473
 3941SOL    HW112722   5.810   5.415   2.506
 3941SOL    HW212723   5.941   5.502   2.550
 3942SOL     OW12724   0.013   5.951   6.794
 3942SOL    HW112725   0.008   5.858   6.830
 3942SOL    HW212726   6.939   5.986   6.779
 3943SOL     OW12727   1.011   4.513   0.271
 3943SOL    HW112728   1.074   4.568   0.216
 3943SOL    HW212729   0.917   4.532   0.243
 3944SOL     OW12730   4.499   3.200   0.486
 3944SOL    HW112731   4.473   3.283   0.535
 3944SOL    HW212732   4.589   3.169   0.518
 3945SOL     OW12733   0.151   0.793   3.151
 3945SOL    HW112734   0.222   0.858   3.177
 3945SOL    HW212735   0.066   0.815   3.199
 3946SOL     OW12736   6.127   1.455   1.326
 3946SOL    HW112737   6.049   1.414   1.279
 3946SOL    HW212738   6.114   1.446   1.425
 3947SOL     OW12739   5.536   6.849   1.897
 3947SOL    HW112740   5.605   6.835   1.827
 3947SOL    HW212741   5.460   6.785   1.883
 3948SOL     OW12742   1.995   1.334   4.498
 3948SOL    HW112743   1.998   1.262   4.567
 3948SOL    HW212744   2.062   1.405   4.521
 3949SOL     OW12745   6.433   0.304   2.233
 3949SOL    HW112746   6.442   0.258   2.322
 3949SOL    HW212747   6.337   0.324   2.215
 3950SOL     OW12748   2.719   4.955   1.566
 3950SOL    HW112749   2.762   5.042   1.587
 3950SOL    HW212750   2.709   4.901   1.649
 3951SOL     OW12751   6.871   2.438   3.837
 3951SOL    HW112752   6.860   2.530   3.876
 3951SOL    HW212753   6.843   2.439   3.741
 3952SOL     OW12754   5.971   5.133   6.804
 3952SOL    HW112755   5.990   5.203   6.872
 3952SOL    HW212756   5.914   5.171   6.732
 3953SOL     OW12757   3.984   3.388   5.420
 3953SOL    HW112758   4.074   3.349   5.402
 3953SOL    HW212759   3.934   3.398   5.334
 3954SOL     OW12760   1.023   4.148   5.636
 3954SOL    HW112761   1.080   4.124   5.557
 3954SOL    HW212762   1.012   4.067   5.694
 3955SOL     OW12763   5.729   3.624   0.099
 3955SOL    HW112764   5.648   3.568   0.115
 3955SOL    HW212765   5.811   3.571   0.123
 3956SOL     OW12766   6.614   2.643   5.270
 3956SOL    HW112767   6.602   2.742   5.261
 3956SOL    HW212768   6.535   2.604   5.318
 3957SOL     OW12769   1.520   2.686   1.961
 3957SOL    HW112770   1.599   2.746   1.960
 3957SOL    HW212771   1.474   2.690   1.872
 3958SOL     OW12772   5.782   5.005   1.112
 3958SOL    HW112773   5.713   4.940   1.080
 3958SOL    HW212774   5.872   4.961   1.108
 3959SOL     OW12775   3.040   5.071   1.541
 3959SOL    HW112776   3.052   4.983   1.587
 3959SOL    HW212777   3.046   5.057   1.442
 3960SOL     OW12778   6.066   2.585   0.968
 3960SOL    HW112779   6.109   2.501   0.934
 3960SOL    HW212780   5.969   2.585   0.944
 3961SOL     OW12781   6.881   1.182   1.053
 3961SOL    HW112782   6.903   1.176   0.955
 3961SOL    HW212783   6.833   1.267   1.072
 3962SOL     OW12784   0.134   6.906   6.657
 3962SOL    HW112785   0.128   6.806   6.663
 3962SOL    HW212786   0.151   6.944   6.748
 3963SOL     OW12787   5.476   3.947   4.598
 3963SOL    HW112788   5.527   4.009   4.538
 3963SOL    HW212789   5.528   3.863   4.611
 3964SOL     OW12790   5.722   4.342   6.619
 3964SOL    HW112791   5.652   4.280   6.655
 3964SOL    HW212792   5.805   4.290   6.597
 3965SOL     OW12793   2.338   4.171   1.070
 3965SOL    HW112794   2.415   4.121   1.110
 3965SOL    HW212795   2.348   4.175   0.971
 3966SOL     OW12796   0.380   3.139   5.052
 3966SOL    HW112797   0.330   3.080   4.990
 3966SOL    HW212798   0.315   3.190   5.109
 3967SOL     OW12799   2.447   0.159   0.497
 3967SOL    HW112800   2.447   0.059   0.504
 3967SOL    HW212801   2.538   0.190   0.470
 3968SOL     OW12802   4.427   2.840   0.676
 3968SOL    HW112803   4.335   2.831   0.713
 3968SOL    HW212804   4.485   2.890   0.741
 3969SOL     OW12805   6.161   6.296   0.688
 3969SOL    HW112806   6.254   6.304   0.650
 3969SOL    HW212807   6.167   6.282   0.787
 3970SOL     OW12808   6.142   4.400   3.926
 3970SOL    HW112809   6.196   4.332   3.877
 3970SOL    HW212810   6.178   4.492   3.906
 3971SOL     OW12811   0.455   5.765   4.311
 3971SOL    HW112812   0.361   5.795   4.293
 3971SOL    HW212813   0.515   5.845   4.317
 3972SOL     OW12814   0.870   0.470   6.707
 3972SOL    HW112815   0.827   0.471   6.617
 3972SOL    HW212816   0.942   0.540   6.710
 3973SOL     OW12817   4.209   3.211   1.912
 3973SOL    HW112818   4.218   3.264   1.996
 3973SOL    HW212819   4.288   3.228   1.854
 3974SOL     OW12820   5.188   1.086   6.917
 3974SOL    HW112821   5.273   1.113   6.873
 3974SOL    HW212822   5.125   1.049   6.849
 3975SOL     OW12823   7.017   6.389   4.547
 3975SOL    HW112824   0.052   6.308   4.523
 3975SOL    HW212825   0.033   6.468   4.496
 3976SOL     OW12826   1.448   2.909   5.257
 3976SOL    HW112827   1.493   2.879   5.172
 3976SOL    HW212828   1.350   2.896   5.248
 3977SOL     OW12829   2.894   4.767   5.855
 3977SOL    HW112830   2.837   4.686   5.839
 3977SOL    HW212831   2.841   4.837   5.903
 3978SOL     OW12832   4.921   2.832   5.864
 3978SOL    HW112833   4.985   2.876   5.928
 3978SOL    HW212834   4.833   2.880   5.867
 3979SOL     OW12835   1.333   5.575   3.078
 3979SOL    HW112836   1.346   5.490   3.027
 3979SOL    HW212837   1.240   5.580   3.113
 3980SOL     OW12838   5.068   4.059   4.460
 3980SOL    HW112839   5.051   3.961   4.455
 3980SOL    HW212840   5.133   4.086   4.389
 3981SOL     OW12841   0.254   1.039   6.338
 3981SOL    HW112842   0.212   1.118   6.291
 3981SOL    HW212843   0.247   1.052   6.437
 3982SOL     OW12844   1.869   3.157   4.415
 3982SOL    HW112845   1.791   3.112   4.460
 3982SOL    HW212846   1.836   3.224   4.350
 3983SOL     OW12847   2.957   0.248   3.978
 3983SOL    HW112848   3.031   0.217   3.919
 3983SOL    HW212849   2.898   0.170   4.002
 3984SOL     OW12850   1.420   5.751   2.257
 3984SOL    HW112851   1.436   5.765   2.355
 3984SOL    HW212852   1.356   5.675   2.245
 3985SOL     OW12853   1.603   2.911   1.554
 3985SOL    HW112854   1.649   2.979   1.612
 3985SOL    HW212855   1.515   2.948   1.523
 3986SOL     OW12856   6.824   2.355   3.069
 3986SOL    HW112857   6.745   2.402   3.030
 3986SOL    HW212858   6.869   2.301   2.999
 3987SOL     OW12859   0.448   4.093   5.256
 3987SOL    HW112860   0.411   4.009   5.217
 3987SOL    HW212861   0.495   4.072   5.342
 3988SOL     OW12862   5.104   6.882   1.786
 3988SOL    HW112863   5.147   6.892   1.875
 3988SOL    HW212864   5.098   6.785   1.763
 3989SOL     OW12865   4.414   0.570   5.797
 3989SOL    HW112866   4.420   0.620   5.710
 3989SOL    HW212867   4.505   0.555   5.834
 3990SOL     OW12868   6.125   0.581   4.298
 3990SOL    HW112869   6.057   0.517   4.335
 3990SOL    HW212870   6.179   0.536   4.228
 3991SOL     OW12871   6.409   1.994   3.708
 3991SOL    HW112872   6.423   2.040   3.621
 3991SOL    HW212873   6.383   2.061   3.778
 3992SOL     OW12874   5.962   3.739   5.817
 3992SOL    HW112875   5.993   3.827   5.781
 3992SOL    HW212876   6.018   3.714   5.896
 3993SOL     OW12877   1.817   0.744   4.237
 3993SOL    HW112878   1.850   0.838   4.229
 3993SOL    HW212879   1.774   0.731   4.326
 3994SOL     OW12880   2.560   2.119   3.908
 3994SOL    HW112881   2.606   2.050   3.852
 3994SOL    HW212882   2.535   2.197   3.850
 3995SOL     OW12883   1.346   3.497   2.053
 3995SOL    HW112884   1.302   3.422   2.101
 3995SOL    HW212885   1.443   3.476   2.038
 3996SOL     OW12886   0.110   6.235   5.073
 3996SOL    HW112887   0.104   6.291   4.990
 3996SOL    HW212888   0.157   6.286   5.145
 3997SOL     OW12889   6.010   3.925   4.510
 3997SOL    HW112890   5.975   3.834   4.533
 3997SOL    HW212891   5.991   3.989   4.585
 3998SOL     OW12892   4.553   2.046   3.708
 3998SOL    HW112893   4.642   2.087   3.731
 3998SOL    HW212894   4.496   2.114   3.662
 3999SOL     OW12895   5.085   2.767   0.941
 3999SOL    HW112896   5.115   2.797   1.031
 3999SOL    HW212897   5.160   2.718   0.896
 4000SOL     OW12898   1.972   4.766   3.037
 4000SOL    HW112899   2.016   4.678   3.050
 4000SOL    HW212900   2.011   4.811   2.956
 4001SOL     OW12901   0.453   6.158   4.451
 4001SOL    HW112902   0.520   6.099   4.407
 4001SOL    HW212903   0.377   6.103   4.486
 4002SOL     OW12904   3.988   3.785   4.441
 4002SOL    HW112905   3.916   3.850   4.465
 4002SOL    HW212906   3.986   3.709   4.506
 4003SOL     OW12907   2.977   0.762   4.613
 4003SOL    HW112908   2.998   0.732   4.520
 4003SOL    HW212909   2.928   0.690   4.662
 4004SOL     OW12910   1.716   3.642   5.071
 4004SOL    HW112911   1.789   3.574   5.080
 4004SOL    HW212912   1.680   3.639   4.978
 4005SOL     OW12913   5.864   2.772   0.780
 4005SOL    HW112914   5.937   2.839   0.795
 4005SOL    HW212915   5.798   2.779   0.856
 4006SOL     OW12916   0.080   6.028   2.049
 4006SOL    HW112917   7.004   6.055   2.072
 4006SOL    HW212918   0.103   5.944   2.098
 4007SOL     OW12919   0.416   1.026   1.623
 4007SOL    HW112920   0.386   0.990   1.711
 4007SOL    HW212921   0.384   0.966   1.549
 4008SOL     OW12922   4.252   0.918   1.443
 4008SOL    HW112923   4.308   0.935   1.362
 4008SOL    HW212924   4.195   0.838   1.429
 4009SOL     OW12925   3.644   2.641   1.392
 4009SOL    HW112926   3.612   2.675   1.481
 4009SOL    HW212927   3.685   2.550   1.404
 4010SOL     OW12928   1.785   4.288   0.774
 4010SOL    HW112929   1.745   4.282   0.683
 4010SOL    HW212930   1.738   4.226   0.836
 4011SOL     OW12931   6.512   6.798   6.150
 4011SOL    HW112932   6.475   6.722   6.203
 4011SOL    HW212933   6.549   6.867   6.212
 4012SOL     OW12934   5.533   5.478   1.687
 4012SOL    HW112935   5.484   5.410   1.633
 4012SOL    HW212936   5.574   5.435   1.767
 4013SOL     OW12937   0.175   1.620   0.377
 4013SOL    HW112938   0.157   1.612   0.279
 4013SOL    HW212939   0.258   1.675   0.391
 4014SOL     OW12940   2.991   5.768   2.587
 4014SOL    HW112941   3.064   5.717   2.540
 4014SOL    HW212942   3.023   5.859   2.610
 4015SOL     OW12943   3.871   6.287   5.076
 4015SOL    HW112944   3.852   6.267   4.980
 4015SOL    HW212945   3.964   6.323   5.084
 4016SOL     OW12946   4.840   5.453   4.670
 4016SOL    HW112947   4.903   5.530   4.684
 4016SOL    HW212948   4.828   5.437   4.572
 4017SOL     OW12949   1.900   5.422   6.119
 4017SOL    HW112950   1.816   5.427   6.173
 4017SOL    HW212951   1.935   5.514   6.104
 4018SOL     OW12952   4.908   5.160   1.217
 4018SOL    HW112953   4.810   5.145   1.200
 4018SOL    HW212954   4.921   5.252   1.254
 4019SOL     OW12955   0.182   2.435   2.963
 4019SOL    HW112956   0.221   2.500   3.028
 4019SOL    HW212957   0.256   2.383   2.920
 4020SOL     OW12958   6.767   5.850   4.448
 4020SOL    HW112959   6.863   5.866   4.472
 4020SOL    HW212960   6.710   5.877   4.526
 4021SOL     OW12961   4.391   5.340   5.904
 4021SOL    HW112962   4.370   5.375   5.812
 4021SOL    HW212963   4.476   5.288   5.901
 4022SOL     OW12964   3.125   6.831   1.474
 4022SOL    HW112965   3.135   6.865   1.567
 4022SOL    HW212966   3.073   6.746   1.475
 4023SOL     OW12967   0.452   2.216   4.292
 4023SOL    HW112968   0.499   2.285   4.236
 4023SOL    HW212969   0.354   2.222   4.276
 4024SOL     OW12970   0.451   6.208   6.429
 4024SOL    HW112971   0.401   6.134   6.385
 4024SOL    HW212972   0.525   6.239   6.370
 4025SOL     OW12973   6.985   4.797   4.061
 4025SOL    HW112974   6.893   4.827   4.085
 4025SOL    HW212975   6.992   4.786   3.961
 4026SOL     OW12976   0.630   6.508   4.029
 4026SOL    HW112977   0.686   6.581   4.066
 4026SOL    HW212978   0.682   6.423   4.028
 4027SOL     OW12979   2.758   5.138   5.250
 4027SOL    HW112980   2.694   5.081   5.301
 4027SOL    HW212981   2.761   5.230   5.290
 4028SOL     OW12982   5.162   1.849   4.401
 4028SOL    HW112983   5.152   1.819   4.496
 4028SOL    HW212984   5.087   1.811   4.347
 4029SOL     OW12985   1.351   6.847   0.813
 4029SOL    HW112986   1.406   6.864   0.895
 4029SOL    HW212987   1.268   6.903   0.817
 4030SOL     OW12988   0.684   1.361   1.778
 4030SOL    HW112989   0.772   1.316   1.767
 4030SOL    HW212990   0.622   1.332   1.705
 4031SOL     OW12991   5.765   5.702   0.569
 4031SOL    HW112992   5.722   5.682   0.657
 4031SOL    HW212993   5.851   5.652   0.562
 4032SOL     OW12994   5.038   2.062   2.483
 4032SOL    HW112995   5.106   2.083   2.412
 4032SOL    HW212996   5.047   1.966   2.510
 4033SOL     OW12997   1.677   2.846   3.067
 4033SOL    HW112998   1.644   2.929   3.113
 4033SOL    HW212999   1.710   2.781   3.135
 4034SOL     OW13000   1.759   2.348   4.438
 4034SOL    HW113001   1.795   2.261   4.470
 4034SOL    HW213002   1.730   2.339   4.342
 4035SOL     OW13003   3.906   2.626   1.647
 4035SOL    HW113004   3.911   2.565   1.726
 4035SOL    HW213005   3.931   2.575   1.565
 4036SOL     OW13006   3.901   5.990   3.841
 4036SOL    HW113007   3.931   5.944   3.758
 4036SOL    HW213008   3.855   6.076   3.817
 4037SOL     OW13009   1.931   1.918   6.365
 4037SOL    HW113010   1.979   1.975   6.432
 4037SOL    HW213011   1.876   1.976   6.305
 4038SOL     OW13012   3.615   4.803   5.793
 4038SOL    HW113013   3.664   4.888   5.774
 4038SOL    HW213014   3.666   4.749   5.859
 4039SOL     OW13015   6.129   4.397   1.662
 4039SOL    HW113016   6.123   4.301   1.635
 4039SOL    HW213017   6.039   4.440   1.654
 4040SOL     OW13018   2.992   0.390   5.157
 4040SOL    HW113019   3.059   0.328   5.199
 4040SOL    HW213020   3.034   0.438   5.080
 4041SOL     OW13021   1.352   6.098   1.723
 4041SOL    HW113022   1.440   6.140   1.700
 4041SOL    HW213023   1.355   6.065   1.817
 4042SOL     OW13024   0.448   1.589   3.321
 4042SOL    HW113025   0.528   1.552   3.367
 4042SOL    HW213026   0.394   1.643   3.385
 4043SOL     OW13027   4.206   1.854   5.798
 4043SOL    HW113028   4.257   1.842   5.713
 4043SOL    HW213029   4.270   1.860   5.875
 4044SOL     OW13030   4.373   4.681   3.241
 4044SOL    HW113031   4.438   4.756   3.252
 4044SOL    HW213032   4.312   4.678   3.319
 4045SOL     OW13033   4.424   1.400   5.033
 4045SOL    HW113034   4.482   1.324   5.061
 4045SOL    HW213035   4.481   1.482   5.019
 4046SOL     OW13036   4.827   1.542   4.185
 4046SOL    HW113037   4.809   1.444   4.191
 4046SOL    HW213038   4.890   1.560   4.108
 4047SOL     OW13039   3.115   2.288   6.397
 4047SOL    HW113040   3.195   2.316   6.451
 4047SOL    HW213041   3.142   2.219   6.330
 4048SOL     OW13042   5.022   2.068   3.708
 4048SOL    HW113043   5.064   2.027   3.627
 4048SOL    HW213044   4.999   1.996   3.774
 4049SOL     OW13045   4.265   3.852   1.353
 4049SOL    HW113046   4.218   3.764   1.363
 4049SOL    HW213047   4.274   3.896   1.443
 4050SOL     OW13048   6.637   5.219   2.590
 4050SOL    HW113049   6.671   5.128   2.565
 4050SOL    HW213050   6.695   5.288   2.548
 4051SOL     OW13051   5.521   1.242   4.433
 4051SOL    HW113052   5.478   1.327   4.463
 4051SOL    HW213053   5.504   1.227   4.336
 4052SOL     OW13054   4.954   1.866   4.192
 4052SOL    HW113055   5.002   1.800   4.134
 4052SOL    HW213056   4.990   1.957   4.175
 4053SOL     OW13057   0.898   4.978   3.878
 4053SOL    HW113058   0.930   5.067   3.912
 4053SOL    HW213059   0.916   4.972   3.779
 4054SOL     OW13060   4.684   3.759   1.260
 4054SOL    HW113061   4.737   3.749   1.176
 4054SOL    HW213062   4.743   3.739   1.339
 4055SOL     OW13063   6.756   4.327   6.935
 4055SOL    HW113064   6.822   4.357   7.004
 4055SOL    HW213065   6.727   4.406   6.881
 4056SOL     OW13066   5.061   3.385   0.093
 4056SOL    HW113067   5.001   3.391   0.172
 4056SOL    HW213068   5.144   3.334   0.117
 4057SOL     OW13069   6.907   4.003   6.263
 4057SOL    HW113070   6.856   3.984   6.347
 4057SOL    HW213071   6.877   4.091   6.226
 4058SOL     OW13072   3.624   0.523   4.590
 4058SOL    HW113073   3.569   0.468   4.528
 4058SOL    HW213074   3.578   0.610   4.609
 4059SOL     OW13075   0.625   1.311   3.979
 4059SOL    HW113076   0.645   1.307   3.882
 4059SOL    HW213077   0.700   1.270   4.031
 4060SOL     OW13078   0.304   6.377   4.635
 4060SOL    HW113079   0.277   6.455   4.578
 4060SOL    HW213080   0.316   6.296   4.577
 4061SOL     OW13081   0.667   5.019   1.784
 4061SOL    HW113082   0.727   4.939   1.791
 4061SOL    HW213083   0.572   4.988   1.774
 4062SOL     OW13084   2.081   4.010   0.148
 4062SOL    HW113085   2.057   4.106   0.141
 4062SOL    HW213086   2.067   3.979   0.243
 4063SOL     OW13087   3.913   0.651   0.908
 4063SOL    HW113088   3.966   0.734   0.890
 4063SOL    HW213089   3.824   0.658   0.864
 4064SOL     OW13090   2.493   0.779   5.639
 4064SOL    HW113091   2.579   0.729   5.633
 4064SOL    HW213092   2.419   0.715   5.658
 4065SOL     OW13093   2.492   1.624   1.578
 4065SOL    HW113094   2.393   1.615   1.574
 4065SOL    HW213095   2.517   1.716   1.607
 4066SOL     OW13096   0.324   4.650   4.612
 4066SOL    HW113097   0.415   4.635   4.651
 4066SOL    HW213098   0.328   4.638   4.513
 4067SOL     OW13099   6.721   4.681   0.559
 4067SOL    HW113100   6.772   4.597   0.541
 4067SOL    HW213101   6.625   4.667   0.534
 4068SOL     OW13102   2.345   2.693   5.398
 4068SOL    HW113103   2.428   2.637   5.399
 4068SOL    HW213104   2.370   2.789   5.410
 4069SOL     OW13105   4.824   6.519   5.544
 4069SOL    HW113106   4.817   6.525   5.643
 4069SOL    HW213107   4.906   6.567   5.513
 4070SOL     OW13108   1.526   2.939   3.878
 4070SOL    HW113109   1.528   3.035   3.905
 4070SOL    HW213110   1.532   2.881   3.959
 4071SOL     OW13111   1.954   0.716   4.877
 4071SOL    HW113112   1.948   0.623   4.840
 4071SOL    HW213113   1.977   0.780   4.803
 4072SOL     OW13114   3.303   6.607   2.445
 4072SOL    HW113115   3.390   6.561   2.459
 4072SOL    HW213116   3.279   6.606   2.348
 4073SOL     OW13117   4.142   5.222   0.226
 4073SOL    HW113118   4.064   5.242   0.287
 4073SOL    HW213119   4.146   5.124   0.209
 4074SOL     OW13120   1.242   5.477   2.174
 4074SOL    HW113121   1.161   5.474   2.115
 4074SOL    HW213122   1.325   5.474   2.118
 4075SOL     OW13123   6.028   1.467   0.186
 4075SOL    HW113124   6.100   1.430   0.244
 4075SOL    HW213125   5.957   1.398   0.171
 4076SOL     OW13126   1.843   5.670   4.080
 4076SOL    HW113127   1.926   5.635   4.038
 4076SOL    HW213128   1.853   5.767   4.102
 4077SOL     OW13129   2.988   1.819   1.858
 4077SOL    HW113130   3.087   1.831   1.849
 4077SOL    HW213131   2.945   1.829   1.768
 4078SOL     OW13132   4.006   4.860   2.431
 4078SOL    HW113133   4.045   4.859   2.523
 4078SOL    HW213134   3.907   4.846   2.435
 4079SOL     OW13135   0.419   2.171   3.826
 4079SOL    HW113136   0.421   2.176   3.726
 4079SOL    HW213137   0.325   2.186   3.858
 4080SOL     OW13138   6.597   1.952   4.828
 4080SOL    HW113139   6.498   1.938   4.830
 4080SOL    HW213140   6.619   2.043   4.864
 4081SOL     OW13141   0.662   3.944   3.363
 4081SOL    HW113142   0.651   4.040   3.336
 4081SOL    HW213143   0.571   3.902   3.373
 4082SOL     OW13144   0.715   3.242   6.933
 4082SOL    HW113145   0.735   3.147   6.955
 4082SOL    HW213146   0.671   3.286   7.011
 4083SOL     OW13147   6.750   2.787   4.929
 4083SOL    HW113148   6.850   2.784   4.926
 4083SOL    HW213149   6.719   2.770   5.022
 4084SOL     OW13150   6.063   1.173   4.507
 4084SOL    HW113151   6.001   1.131   4.573
 4084SOL    HW213152   6.033   1.267   4.488
 4085SOL     OW13153   2.848   5.320   0.001
 4085SOL    HW113154   2.774   5.307   0.068
 4085SOL    HW213155   2.809   5.323   6.927
 4086SOL     OW13156   1.400   3.797   1.157
 4086SOL    HW113157   1.347   3.850   1.223
 4086SOL    HW213158   1.339   3.734   1.109
 4087SOL     OW13159   2.423   1.318   2.667
 4087SOL    HW113160   2.361   1.383   2.623
 4087SOL    HW213161   2.380   1.228   2.673
 4088SOL     OW13162   6.937   1.477   0.215
 4088SOL    HW113163   6.926   1.533   0.296
 4088SOL    HW213164   0.007   1.429   0.219
 4089SOL     OW13165   0.575   0.897   5.537
 4089SOL    HW113166   0.509   0.867   5.468
 4089SOL    HW213167   0.641   0.960   5.496
 4090SOL     OW13168   3.117   5.037   6.400
 4090SOL    HW113169   3.098   5.059   6.496
 4090SOL    HW213170   3.172   4.953   6.396
 4091SOL     OW13171   4.568   0.088   1.177
 4091SOL    HW113172   4.568   0.066   1.275
 4091SOL    HW213173   4.661   0.111   1.148
 4092SOL     OW13174   6.760   1.517   3.822
 4092SOL    HW113175   6.763   1.573   3.905
 4092SOL    HW213176   6.744   1.576   3.743
 4093SOL     OW13177   5.449   0.173   4.126
 4093SOL    HW113178   5.363   0.205   4.086
 4093SOL    HW213179   5.513   0.151   4.053
 4094SOL     OW13180   3.146   4.201   5.834
 4094SOL    HW113181   3.077   4.130   5.817
 4094SOL    HW213182   3.117   4.286   5.791
 4095SOL     OW13183   1.802   3.513   6.014
 4095SOL    HW113184   1.854   3.585   6.059
 4095SOL    HW213185   1.864   3.451   5.966
 4096SOL     OW13186   4.335   4.757   1.913
 4096SOL    HW113187   4.404   4.826   1.933
 4096SOL    HW213188   4.378   4.667   1.905
 4097SOL     OW13189   3.746   3.561   3.370
 4097SOL    HW113190   3.825   3.515   3.329
 4097SOL    HW213191   3.672   3.567   3.303
 4098SOL     OW13192   0.950   3.470   1.995
 4098SOL    HW113193   0.873   3.524   1.960
 4098SOL    HW213194   0.949   3.471   2.095
 4099SOL     OW13195   2.455   6.090   2.307
 4099SOL    HW113196   2.530   6.079   2.372
 4099SOL    HW213197   2.397   6.009   2.309
 4100SOL     OW13198   3.718   6.683   3.250
 4100SOL    HW113199   3.682   6.673   3.343
 4100SOL    HW213200   3.674   6.761   3.206
 4101SOL     OW13201   4.529   1.979   6.863
 4101SOL    HW113202   4.587   1.899   6.853
 4101SOL    HW213203   4.582   2.055   6.900
 4102SOL     OW13204   4.852   1.924   0.457
 4102SOL    HW113205   4.905   1.930   0.541
 4102SOL    HW213206   4.908   1.951   0.379
 4103SOL     OW13207   0.563   6.903   2.230
 4103SOL    HW113208   0.590   6.994   2.262
 4103SOL    HW213209   0.563   6.840   2.308
 4104SOL     OW13210   2.170   4.567   2.652
 4104SOL    HW113211   2.195   4.648   2.706
 4104SOL    HW213212   2.204   4.577   2.559
 4105SOL     OW13213   6.223   5.015   6.875
 4105SOL    HW113214   6.130   5.039   6.847
 4105SOL    HW213215   6.218   4.949   6.951
 4106SOL     OW13216   0.089   3.656   4.651
 4106SOL    HW113217   0.014   3.598   4.619
 4106SOL    HW213218   0.102   3.643   4.749
 4107SOL     OW13219   0.055   0.520   0.739
 4107SOL    HW113220   0.064   0.460   0.660
 4107SOL    HW213221   6.995   0.581   0.727
 4108SOL     OW13222   6.329   2.720   5.286
 4108SOL    HW113223   6.250   2.666   5.257
 4108SOL    HW213224   6.349   2.789   5.217
 4109SOL     OW13225   2.986   6.154   4.049
 4109SOL    HW113226   3.080   6.177   4.024
 4109SOL    HW213227   2.968   6.183   4.143
 4110SOL     OW13228   4.553   3.201   5.324
 4110SOL    HW113229   4.633   3.230   5.271
 4110SOL    HW213230   4.527   3.273   5.388
 4111SOL     OW13231   3.533   3.359   6.882
 4111SOL    HW113232   3.631   3.339   6.877
 4111SOL    HW213233   3.481   3.274   6.871
 4112SOL     OW13234   3.996   0.445   5.241
 4112SOL    HW113235   4.072   0.426   5.303
 4112SOL    HW213236   3.937   0.514   5.282
 4113SOL     OW13237   3.650   4.945   5.149
 4113SOL    HW113238   3.569   4.938   5.090
 4113SOL    HW213239   3.647   5.031   5.198
 4114SOL     OW13240   3.651   2.090   2.853
 4114SOL    HW113241   3.665   1.992   2.854
 4114SOL    HW213242   3.576   2.112   2.790
 4115SOL     OW13243   5.379   4.270   2.257
 4115SOL    HW113244   5.404   4.315   2.171
 4115SOL    HW213245   5.417   4.323   2.334
 4116SOL     OW13246   3.245   0.948   2.726
 4116SOL    HW113247   3.217   1.044   2.722
 4116SOL    HW213248   3.291   0.923   2.641
 4117SOL     OW13249   0.592   5.677   1.292
 4117SOL    HW113250   0.528   5.755   1.286
 4117SOL    HW213251   0.621   5.651   1.200
 4118SOL     OW13252   2.344   6.882   6.849
 4118SOL    HW113253   2.370   6.786   6.836
 4118SOL    HW213254   2.405   6.925   6.915
 4119SOL     OW13255   4.920   1.109   3.128
 4119SOL    HW113256   4.919   1.189   3.069
 4119SOL    HW213257   4.903   1.027   3.074
 4120SOL     OW13258   4.821   1.039   2.117
 4120SOL    HW113259   4.768   1.107   2.066
 4120SOL    HW213260   4.905   1.018   2.066
 4121SOL     OW13261   6.586   2.216   4.469
 4121SOL    HW113262   6.652   2.291   4.479
 4121SOL    HW213263   6.634   2.134   4.438
 4122SOL     OW13264   1.937   5.704   0.202
 4122SOL    HW113265   2.037   5.713   0.205
 4122SOL    HW213266   1.904   5.675   0.292
 4123SOL     OW13267   4.315   3.756   5.779
 4123SOL    HW113268   4.234   3.785   5.829
 4123SOL    HW213269   4.332   3.818   5.703
 4124SOL     OW13270   3.950   6.255   3.613
 4124SOL    HW113271   4.030   6.308   3.641
 4124SOL    HW213272   3.899   6.226   3.695
 4125SOL     OW13273   4.931   0.924   1.354
 4125SOL    HW113274   4.893   0.877   1.433
 4125SOL    HW213275   4.940   1.022   1.374
 4126SOL     OW13276   1.969   4.500   4.619
 4126SOL    HW113277   1.956   4.514   4.521
 4126SOL    HW213278   1.954   4.586   4.667
 4127SOL     OW13279   6.344   4.658   4.677
 4127SOL    HW113280   6.415   4.703   4.623
 4127SOL    HW213281   6.385   4.622   4.761
 4128SOL     OW13282   0.849   1.945   1.893
 4128SOL    HW113283   0.891   2.035   1.886
 4128SOL    HW213284   0.751   1.952   1.874
 4129SOL     OW13285   6.590   2.699   6.058
 4129SOL    HW113286   6.686   2.699   6.030
 4129SOL    HW213287   6.532   2.700   5.977
 4130SOL     OW13288   6.577   2.999   1.040
 4130SOL    HW113289   6.669   3.002   1.078
 4130SOL    HW213290   6.581   2.965   0.946
 4131SOL     OW13291   0.042   3.765   3.037
 4131SOL    HW113292   6.996   3.838   3.010
 4131SOL    HW213293   0.019   3.733   3.129
 4132SOL     OW13294   4.885   2.214   4.857
 4132SOL    HW113295   4.878   2.130   4.911
 4132SOL    HW213296   4.859   2.292   4.914
 4133SOL     OW13297   2.386   2.492   1.208
 4133SOL    HW113298   2.326   2.452   1.139
 4133SOL    HW213299   2.428   2.419   1.262
 4134SOL     OW13300   1.942   1.480   0.508
 4134SOL    HW113301   1.880   1.558   0.516
 4134SOL    HW213302   1.990   1.486   0.420
 4135SOL     OW13303   1.999   0.628   1.316
 4135SOL    HW113304   2.060   0.586   1.384
 4135SOL    HW213305   1.956   0.557   1.260
 4136SOL     OW13306   0.800   1.913   3.304
 4136SOL    HW113307   0.896   1.887   3.294
 4136SOL    HW213308   0.748   1.879   3.225
 4137SOL     OW13309   3.840   3.388   6.088
 4137SOL    HW113310   3.890   3.360   6.006
 4137SOL    HW213311   3.889   3.463   6.133
 4138SOL     OW13312   4.157   5.722   2.088
 4138SOL    HW113313   4.078   5.714   2.027
 4138SOL    HW213314   4.239   5.691   2.040
 4139SOL     OW13315   2.721   1.054   0.569
 4139SOL    HW113316   2.783   0.999   0.624
 4139SOL    HW213317   2.716   1.146   0.608
 4140SOL     OW13318   4.293   1.574   5.385
 4140SOL    HW113319   4.228   1.506   5.353
 4140SOL    HW213320   4.252   1.628   5.458
 4141SOL     OW13321   5.113   5.663   0.136
 4141SOL    HW113322   5.072   5.739   0.087
 4141SOL    HW213323   5.042   5.607   0.178
 4142SOL     OW13324   6.008   3.352   1.311
 4142SOL    HW113325   6.093   3.400   1.289
 4142SOL    HW213326   6.004   3.335   1.409
 4143SOL     OW13327   0.657   3.059   2.220
 4143SOL    HW113328   0.634   2.974   2.172
 4143SOL    HW213329   0.741   3.098   2.181
 4144SOL     OW13330   4.106   0.644   2.037
 4144SOL    HW113331   4.013   0.647   2.076
 4144SOL    HW213332   4.131   0.736   2.005
 4145SOL     OW13333   2.749   6.969   2.882
 4145SOL    HW113334   2.749   6.886   2.826
 4145SOL    HW213335   2.664   6.973   2.935
 4146SOL     OW13336   4.984   5.168   0.344
 4146SOL    HW113337   4.936   5.118   0.273
 4146SOL    HW213338   5.071   5.202   0.308
 4147SOL     OW13339   2.797   2.009   5.942
 4147SOL    HW113340   2.838   2.100   5.931
 4147SOL    HW213341   2.698   2.016   5.936
 4148SOL     OW13342   6.998   0.131   2.698
 4148SOL    HW113343   6.933   0.138   2.773
 4148SOL    HW213344   6.983   0.045   2.649
 4149SOL     OW13345   4.766   4.275   2.146
 4149SOL    HW113346   4.716   4.249   2.063
 4149SOL    HW213347   4.724   4.356   2.186
 4150SOL     OW13348   4.754   0.377   5.693
 4150SOL    HW113349   4.714   0.454   5.744
 4150SOL    HW213350   4.794   0.410   5.607
 4151SOL     OW13351   0.261   5.716   0.415
 4151SOL    HW113352   0.212   5.674   0.492
 4151SOL    HW213353   0.225   5.679   0.329
 4152SOL     OW13354   3.308   3.896   1.456
 4152SOL    HW113355   3.322   3.973   1.518
 4152SOL    HW213356   3.311   3.928   1.362
 4153SOL     OW13357   6.123   5.519   6.051
 4153SOL    HW113358   6.191   5.461   6.007
 4153SOL    HW213359   6.158   5.613   6.058
 4154SOL     OW13360   4.561   2.492   5.587
 4154SOL    HW113361   4.513   2.545   5.657
 4154SOL    HW213362   4.639   2.445   5.628
 4155SOL     OW13363   1.622   3.087   0.521
 4155SOL    HW113364   1.715   3.061   0.546
 4155SOL    HW213365   1.558   3.052   0.590
 4156SOL     OW13366   5.779   0.409   5.308
 4156SOL    HW113367   5.735   0.404   5.219
 4156SOL    HW213368   5.719   0.369   5.377
 4157SOL     OW13369   3.114   0.803   3.337
 4157SOL    HW113370   3.091   0.854   3.421
 4157SOL    HW213371   3.175   0.858   3.281
 4158SOL     OW13372   0.846   0.581   3.530
 4158SOL    HW113373   0.844   0.665   3.584
 4158SOL    HW213374   0.939   0.563   3.499
 4159SOL     OW13375   0.368   3.832   5.363
 4159SOL    HW113376   0.439   3.813   5.431
 4159SOL    HW213377   0.303   3.899   5.400
 4160SOL     OW13378   0.599   0.518   1.452
 4160SOL    HW113379   0.591   0.418   1.444
 4160SOL    HW213380   0.520   0.554   1.501
 4161SOL     OW13381   6.421   1.650   0.949
 4161SOL    HW113382   6.322   1.645   0.934
 4161SOL    HW213383   6.441   1.631   1.046
 4162SOL     OW13384   0.729   6.744   5.293
 4162SOL    HW113385   0.813   6.724   5.343
 4162SOL    HW213386   0.746   6.740   5.195
 4163SOL     OW13387   6.456   1.351   5.401
 4163SOL    HW113388   6.477   1.338   5.305
 4163SOL    HW213389   6.357   1.356   5.413
 4164SOL     OW13390   2.825   6.626   5.899
 4164SOL    HW113391   2.746   6.567   5.882
 4164SOL    HW213392   2.855   6.616   5.994
 4165SOL     OW13393   2.668   6.071   2.465
 4165SOL    HW113394   2.720   6.155   2.485
 4165SOL    HW213395   2.703   5.997   2.522
 4166SOL     OW13396   6.456   1.782   1.755
 4166SOL    HW113397   6.377   1.831   1.717
 4166SOL    HW213398   6.441   1.766   1.852
 4167SOL     OW13399   1.893   3.025   1.078
 4167SOL    HW113400   1.838   3.085   1.019
 4167SOL    HW213401   1.844   3.008   1.163
 4168SOL     OW13402   1.745   5.264   1.402
 4168SOL    HW113403   1.704   5.269   1.493
 4168SOL    HW213404   1.690   5.205   1.343
 4169SOL     OW13405   6.220   3.337   6.066
 4169SOL    HW113406   6.285   3.309   6.137
 4169SOL    HW213407   6.267   3.395   5.999
 4170SOL     OW13408   3.681   1.093   4.933
 4170SOL    HW113409   3.663   1.094   4.835
 4170SOL    HW213410   3.755   1.157   4.955
 4171SOL     OW13411   6.278   3.525   1.166
 4171SOL    HW113412   6.235   3.602   1.213
 4171SOL    HW213413   6.349   3.486   1.225
 4172SOL     OW13414   2.714   0.662   0.452
 4172SOL    HW113415   2.784   0.592   0.464
 4172SOL    HW213416   2.635   0.642   0.510
 4173SOL     OW13417   4.921   3.440   5.684
 4173SOL    HW113418   4.967   3.500   5.619
 4173SOL    HW213419   4.837   3.483   5.716
 4174SOL     OW13420   5.534   0.503   4.076
 4174SOL    HW113421   5.538   0.595   4.037
 4174SOL    HW213422   5.440   0.483   4.102
 4175SOL     OW13423   2.530   1.526   2.839
 4175SOL    HW113424   2.511   1.463   2.764
 4175SOL    HW213425   2.614   1.576   2.820
 4176SOL     OW13426   5.657   4.399   2.877
 4176SOL    HW113427   5.719   4.336   2.924
 4176SOL    HW213428   5.634   4.475   2.939
 4177SOL     OW13429   6.401   5.427   3.333
 4177SOL    HW113430   6.386   5.444   3.430
 4177SOL    HW213431   6.316   5.444   3.283
 4178SOL     OW13432   4.212   2.497   5.540
 4178SOL    HW113433   4.113   2.498   5.558
 4178SOL    HW213434   4.254   2.577   5.582
 4179SOL     OW13435   6.708   2.344   6.926
 4179SOL    HW113436   6.718   2.366   0.005
 4179SOL    HW213437   6.798   2.329   6.886
 4180SOL     OW13438   4.788   3.457   1.810
 4180SOL    HW113439   4.852   3.464   1.886
 4180SOL    HW213440   4.781   3.361   1.782
 4181SOL     OW13441   6.631   0.498   0.665
 4181SOL    HW113442   6.595   0.590   0.680
 4181SOL    HW213443   6.618   0.472   0.570
 4182SOL     OW13444   5.530   0.752   3.998
 4182SOL    HW113445   5.579   0.797   4.073
 4182SOL    HW213446   5.463   0.816   3.959
 4183SOL     OW13447   1.916   1.088   1.736
 4183SOL    HW113448   1.989   1.149   1.706
 4183SOL    HW213449   1.866   1.130   1.812
 4184SOL     OW13450   4.570   4.827   6.801
 4184SOL    HW113451   4.548   4.924   6.800
 4184SOL    HW213452   4.508   4.778   6.740
 4185SOL     OW13453   6.966   0.044   3.857
 4185SOL    HW113454   0.006   0.009   3.783
 4185SOL    HW213455   6.887   7.001   3.868
 4186SOL     OW13456   3.809   4.242   1.803
 4186SOL    HW113457   3.744   4.303   1.757
 4186SOL    HW213458   3.776   4.148   1.798
 4187SOL     OW13459   3.955   5.188   6.734
 4187SOL    HW113460   3.909   5.209   6.820
 4187SOL    HW213461   3.931   5.257   6.666
 4188SOL     OW13462   5.033   6.283   3.901
 4188SOL    HW113463   4.938   6.280   3.933
 4188SOL    HW213464   5.095   6.282   3.979
 4189SOL     OW13465   1.499   3.685   3.390
 4189SOL    HW113466   1.571   3.718   3.330
 4189SOL    HW213467   1.441   3.620   3.341
 4190SOL     OW13468   2.428   0.121   1.387
 4190SOL    HW113469   2.383   0.210   1.382
 4190SOL    HW213470   2.507   0.126   1.447
 4191SOL     OW13471   0.403   2.019   2.895
 4191SOL    HW113472   0.418   1.958   2.972
 4191SOL    HW213473   0.483   2.077   2.882
 4192SOL     OW13474   5.953   0.498   3.388
 4192SOL    HW113475   5.894   0.470   3.464
 4192SOL    HW213476   6.047   0.473   3.408
 4193SOL     OW13477   1.861   6.289   3.460
 4193SOL    HW113478   1.876   6.193   3.438
 4193SOL    HW213479   1.764   6.304   3.481
 4194SOL     OW13480   5.823   0.300   3.233
 4194SOL    HW113481   5.884   0.378   3.253
 4194SOL    HW213482   5.821   0.284   3.135
 4195SOL     OW13483   5.098   0.986   3.621
 4195SOL    HW113484   5.088   1.058   3.551
 4195SOL    HW213485   5.119   1.028   3.709
 4196SOL     OW13486   4.752   2.785   3.726
 4196SOL    HW113487   4.846   2.752   3.717
 4196SOL    HW213488   4.751   2.885   3.730
 4197SOL     OW13489   5.278   4.078   4.734
 4197SOL    HW113490   5.346   4.008   4.716
 4197SOL    HW213491   5.195   4.058   4.681
 4198SOL     OW13492   6.601   3.680   6.006
 4198SOL    HW113493   6.695   3.687   6.041
 4198SOL    HW213494   6.538   3.669   6.083
 4199SOL     OW13495   3.115   4.137   6.274
 4199SOL    HW113496   3.115   4.074   6.197
 4199SOL    HW213497   3.061   4.218   6.250
 4200SOL     OW13498   2.673   0.681   6.856
 4200SOL    HW113499   2.645   0.588   6.834
 4200SOL    HW213500   2.755   0.705   6.803
 4201SOL     OW13501   5.960   6.978   4.735
 4201SOL    HW113502   5.876   0.000   4.697
 4201SOL    HW213503   5.997   6.911   4.671
 4202SOL     OW13504   5.217   3.999   5.695
 4202SOL    HW113505   5.274   3.918   5.704
 4202SOL    HW213506   5.138   3.992   5.756
 4203SOL     OW13507   4.257   5.749   4.487
 4203SOL    HW113508   4.262   5.651   4.503
 4203SOL    HW213509   4.303   5.798   4.561
 4204SOL     OW13510   1.507   3.856   0.309
 4204SOL    HW113511   1.447   3.875   0.387
 4204SOL    HW213512   1.452   3.835   0.229
 4205SOL     OW13513   2.450   5.943   2.972
 4205SOL    HW113514   2.545   5.954   2.944
 4205SOL    HW213515   2.417   6.028   3.014
 4206SOL     OW13516   5.085   6.507   4.128
 4206SOL    HW113517   5.038   6.570   4.190
 4206SOL    HW213518   5.093   6.548   4.038
 4207SOL     OW13519   0.678   6.806   0.216
 4207SOL    HW113520   0.581   6.827   0.225
 4207SOL    HW213521   0.731   6.891   0.214
 4208SOL     OW13522   0.493   2.933   1.512
 4208SOL    HW113523   0.592   2.947   1.510
 4208SOL    HW213524   0.458   2.932   1.419
 4209SOL     OW13525   3.197   0.235   5.301
 4209SOL    HW113526   3.254   0.217   5.221
 4209SOL    HW213527   3.210   0.163   5.369
 4210SOL     OW13528   3.841   2.720   0.467
 4210SOL    HW113529   3.914   2.674   0.517
 4210SOL    HW213530   3.872   2.741   0.374
 4211SOL     OW13531   5.324   3.746   4.380
 4211SOL    HW113532   5.350   3.837   4.346
 4211SOL    HW213533   5.380   3.723   4.459
 4212SOL     OW13534   6.157   0.071   2.278
 4212SOL    HW113535   6.119   0.163   2.285
 4212SOL    HW213536   6.218   0.065   2.199
 4213SOL     OW13537   0.517   0.123   1.069
 4213SOL    HW113538   0.478   0.215   1.077
 4213SOL    HW213539   0.527   0.084   1.161
 4214SOL     OW13540   2.760   5.520   4.537
 4214SOL    HW113541   2.744   5.437   4.483
 4214SOL    HW213542   2.761   5.496   4.634
 4215SOL     OW13543   1.375   6.042   6.838
 4215SOL    HW113544   1.416   6.031   6.747
 4215SOL    HW213545   1.386   6.137   6.868
 4216SOL     OW13546   2.752   3.119   5.284
 4216SOL    HW113547   2.657   3.105   5.257
 4216SOL    HW213548   2.796   3.030   5.300
 4217SOL     OW13549   6.644   1.068   4.444
 4217SOL    HW113550   6.572   1.130   4.474
 4217SOL    HW213551   6.695   1.035   4.524
 4218SOL     OW13552   3.139   5.573   2.460
 4218SOL    HW113553   3.168   5.477   2.465
 4218SOL    HW213554   3.130   5.600   2.365
 4219SOL     OW13555   5.631   0.328   2.981
 4219SOL    HW113556   5.658   0.338   2.886
 4219SOL    HW213557   5.660   0.409   3.033
 4220SOL     OW13558   0.333   4.442   3.306
 4220SOL    HW113559   0.341   4.344   3.288
 4220SOL    HW213560   0.315   4.490   3.220
 4221SOL     OW13561   5.572   6.283   5.743
 4221SOL    HW113562   5.612   6.342   5.673
 4221SOL    HW213563   5.630   6.283   5.824
 4222SOL     OW13564   2.588   3.120   0.365
 4222SOL    HW113565   2.621   3.143   0.273
 4222SOL    HW213566   2.527   3.041   0.359
 4223SOL     OW13567   3.229   4.132   2.683
 4223SOL    HW113568   3.244   4.231   2.687
 4223SOL    HW213569   3.219   4.097   2.777
 4224SOL     OW13570   3.536   2.055   5.886
 4224SOL    HW113571   3.570   2.089   5.798
 4224SOL    HW213572   3.613   2.017   5.938
 4225SOL     OW13573   4.824   0.129   4.614
 4225SOL    HW113574   4.852   0.131   4.518
 4225SOL    HW213575   4.892   0.080   4.668
 4226SOL     OW13576   1.905   1.606   2.398
 4226SOL    HW113577   1.868   1.659   2.322
 4226SOL    HW213578   1.832   1.588   2.464
 4227SOL     OW13579   5.432   3.823   6.396
 4227SOL    HW113580   5.351   3.840   6.452
 4227SOL    HW213581   5.411   3.844   6.300
 4228SOL     OW13582   4.735   4.906   2.991
 4228SOL    HW113583   4.723   4.817   2.947
 4228SOL    HW213584   4.695   4.904   3.083
 4229SOL     OW13585   4.348   4.914   5.305
 4229SOL    HW113586   4.396   4.829   5.282
 4229SOL    HW213587   4.285   4.938   5.232
 4230SOL     OW13588   2.825   1.375   6.155
 4230SOL    HW113589   2.788   1.467   6.142
 4230SOL    HW213590   2.867   1.367   6.245
 4231SOL     OW13591   3.871   6.244   6.281
 4231SOL    HW113592   3.964   6.209   6.272
 4231SOL    HW213593   3.853   6.310   6.209
 4232SOL     OW13594   1.846   4.134   1.090
 4232SOL    HW113595   1.769   4.073   1.074
 4232SOL    HW213596   1.852   4.156   1.188
 4233SOL     OW13597   5.571   5.450   1.082
 4233SOL    HW113598   5.494   5.398   1.121
 4233SOL    HW213599   5.549   5.476   0.988
 4234SOL     OW13600   3.631   3.482   5.692
 4234SOL    HW113601   3.625   3.517   5.599
 4234SOL    HW213602   3.694   3.405   5.695
 4235SOL     OW13603   0.222   4.297   4.873
 4235SOL    HW113604   0.156   4.338   4.810
 4235SOL    HW213605   0.262   4.369   4.929
 4236SOL     OW13606   0.825   3.693   4.930
 4236SOL    HW113607   0.743   3.750   4.925
 4236SOL    HW213608   0.878   3.717   5.011
 4237SOL     OW13609   6.541   3.947   5.175
 4237SOL    HW113610   6.451   3.935   5.217
 4237SOL    HW213611   6.568   4.043   5.178
 4238SOL     OW13612   5.037   5.069   4.742
 4238SOL    HW113613   5.063   5.022   4.658
 4238SOL    HW213614   5.116   5.072   4.805
 4239SOL     OW13615   4.939   5.910   5.347
 4239SOL    HW113616   5.010   5.903   5.416
 4239SOL    HW213617   4.973   5.961   5.268
 4240SOL     OW13618   2.607   4.846   6.696
 4240SOL    HW113619   2.627   4.904   6.617
 4240SOL    HW213620   2.657   4.760   6.687
 4241SOL     OW13621   3.323   1.888   1.499
 4241SOL    HW113622   3.411   1.931   1.521
 4241SOL    HW213623   3.334   1.830   1.419
 4242SOL     OW13624   2.287   0.448   2.352
 4242SOL    HW113625   2.300   0.542   2.319
 4242SOL    HW213626   2.194   0.418   2.332
 4243SOL     OW13627   1.585   2.913   2.787
 4243SOL    HW113628   1.550   2.850   2.717
 4243SOL    HW213629   1.586   2.867   2.876
 4244SOL     OW13630   3.228   0.679   0.944
 4244SOL    HW113631   3.278   0.743   0.886
 4244SOL    HW213632   3.294   0.628   1.000
 4245SOL     OW13633   6.954   1.826   1.025
 4245SOL    HW113634   6.996   1.916   1.036
 4245SOL    HW213635   6.856   1.836   1.011
 4246SOL     OW13636   4.738   2.877   4.210
 4246SOL    HW113637   4.732   2.973   4.183
 4246SOL    HW213638   4.735   2.819   4.128
 4247SOL     OW13639   2.496   5.568   0.131
 4247SOL    HW113640   2.512   5.570   0.032
 4247SOL    HW213641   2.539   5.647   0.174
 4248SOL     OW13642   2.427   0.154   3.346
 4248SOL    HW113643   2.336   0.150   3.306
 4248SOL    HW213644   2.435   0.234   3.406
 4249SOL     OW13645   5.728   1.165   5.848
 4249SOL    HW113646   5.653   1.099   5.854
 4249SOL    HW213647   5.790   1.151   5.925
 4250SOL     OW13648   0.493   5.432   4.801
 4250SOL    HW113649   0.470   5.399   4.710
 4250SOL    HW213650   0.409   5.440   4.855
 4251SOL     OW13651   4.787   2.226   5.808
 4251SOL    HW113652   4.820   2.306   5.758
 4251SOL    HW213653   4.693   2.206   5.780
 4252SOL     OW13654   0.347   0.203   6.432
 4252SOL    HW113655   0.309   0.140   6.364
 4252SOL    HW213656   0.296   0.193   6.518
 4253SOL     OW13657   3.891   6.930   2.862
 4253SOL    HW113658   3.837   6.845   2.857
 4253SOL    HW213659   3.859   6.985   2.940
 4254SOL     OW13660   0.971   2.150   5.395
 4254SOL    HW113661   0.992   2.172   5.300
 4254SOL    HW213662   0.905   2.216   5.431
 4255SOL     OW13663   1.135   2.770   3.431
 4255SOL    HW113664   1.167   2.857   3.466
 4255SOL    HW213665   1.211   2.719   3.390
 4256SOL     OW13666   6.219   5.685   0.715
 4256SOL    HW113667   6.275   5.747   0.769
 4256SOL    HW213668   6.277   5.635   0.650
 4257SOL     OW13669   6.920   0.956   2.951
 4257SOL    HW113670   7.000   0.994   2.904
 4257SOL    HW213671   6.932   0.857   2.960
 4258SOL     OW13672   2.800   5.982   0.937
 4258SOL    HW113673   2.838   6.024   0.855
 4258SOL    HW213674   2.705   5.957   0.921
 4259SOL     OW13675   0.669   6.838   6.950
 4259SOL    HW113676   0.742   6.895   6.913
 4259SOL    HW213677   0.708   6.770   7.012
 4260SOL     OW13678   6.741   6.817   5.213
 4260SOL    HW113679   6.775   6.880   5.283
 4260SOL    HW213680   6.706   6.870   5.135
 4261SOL     OW13681   2.594   6.394   3.525
 4261SOL    HW113682   2.503   6.397   3.566
 4261SOL    HW213683   2.621   6.298   3.511
 4262SOL     OW13684   1.396   4.348   5.137
 4262SOL    HW113685   1.313   4.335   5.083
 4262SOL    HW213686   1.380   4.417   5.207
 4263SOL     OW13687   3.051   1.252   2.601
 4263SOL    HW113688   2.954   1.259   2.626
 4263SOL    HW213689   3.063   1.174   2.539
 4264SOL     OW13690   4.790   2.172   6.636
 4264SOL    HW113691   4.702   2.208   6.665
 4264SOL    HW213692   4.863   2.210   6.693
 4265SOL     OW13693   3.321   6.397   6.953
 4265SOL    HW113694   3.277   6.473   7.000
 4265SOL    HW213695   3.415   6.422   6.929
 4266SOL     OW13696   1.189   4.971   1.472
 4266SOL    HW113697   1.138   5.055   1.494
 4266SOL    HW213698   1.244   4.944   1.550
 4267SOL     OW13699   1.227   3.613   4.286
 4267SOL    HW113700   1.211   3.598   4.383
 4267SOL    HW213701   1.141   3.639   4.242
 4268SOL     OW13702   1.417   4.264   6.188
 4268SOL    HW113703   1.467   4.231   6.108
 4268SOL    HW213704   1.325   4.226   6.188
 4269SOL     OW13705   2.874   1.668   3.906
 4269SOL    HW113706   2.833   1.601   3.968
 4269SOL    HW213707   2.973   1.655   3.903
 4270SOL     OW13708   4.229   3.933   1.093
 4270SOL    HW113709   4.163   3.869   1.054
 4270SOL    HW213710   4.253   3.905   1.186
 4271SOL     OW13711   6.182   0.623   0.347
 4271SOL    HW113712   6.264   0.569   0.366
 4271SOL    HW213713   6.202   0.691   0.276
 4272SOL     OW13714   6.591   1.614   5.279
 4272SOL    HW113715   6.543   1.549   5.338
 4272SOL    HW213716   6.545   1.702   5.282
 4273SOL     OW13717   3.308   5.585   3.770
 4273SOL    HW113718   3.404   5.560   3.783
 4273SOL    HW213719   3.271   5.619   3.856
 4274SOL     OW13720   0.038   0.906   0.987
 4274SOL    HW113721   6.991   0.880   0.916
 4274SOL    HW213722   7.007   0.944   1.066
 4275SOL     OW13723   6.655   1.978   3.911
 4275SOL    HW113724   6.676   2.030   3.993
 4275SOL    HW213725   6.631   2.040   3.837
 4276SOL     OW13726   1.343   6.913   2.717
 4276SOL    HW113727   1.412   6.983   2.737
 4276SOL    HW213728   1.256   6.941   2.757
 4277SOL     OW13729   6.196   5.849   2.686
 4277SOL    HW113730   6.097   5.841   2.677
 4277SOL    HW213731   6.239   5.816   2.602
 4278SOL     OW13732   0.299   7.005   1.012
 4278SOL    HW113733   0.383   0.026   1.051
 4278SOL    HW213734   0.267   0.045   0.937
 4279SOL     OW13735   0.812   3.143   3.009
 4279SOL    HW113736   0.844   3.136   2.914
 4279SOL    HW213737   0.891   3.148   3.070
 4280SOL     OW13738   2.778   6.627   6.649
 4280SOL    HW113739   2.868   6.669   6.658
 4280SOL    HW213740   2.787   6.537   6.605
 4281SOL     OW13741   6.974   6.275   2.627
 4281SOL    HW113742   0.027   6.283   2.556
 4281SOL    HW213743   6.960   6.179   2.649
 4282SOL     OW13744   5.104   4.768   1.754
 4282SOL    HW113745   5.122   4.846   1.813
 4282SOL    HW213746   5.117   4.794   1.658
 4283SOL     OW13747   6.081   1.018   4.802
 4283SOL    HW113748   6.000   0.999   4.746
 4283SOL    HW213749   6.134   0.934   4.813
 4284SOL     OW13750   4.639   6.147   6.726
 4284SOL    HW113751   4.542   6.147   6.701
 4284SOL    HW213752   4.648   6.139   6.825
 4285SOL     OW13753   2.978   1.383   6.397
 4285SOL    HW113754   2.976   1.445   6.476
 4285SOL    HW213755   3.060   1.326   6.402
 4286SOL     OW13756   4.907   6.318   6.964
 4286SOL    HW113757   4.930   6.224   6.993
 4286SOL    HW213758   4.989   6.362   6.928
 4287SOL     OW13759   3.863   0.936   1.257
 4287SOL    HW113760   3.856   0.985   1.344
 4287SOL    HW213761   3.959   0.927   1.231
 4288SOL     OW13762   0.174   6.351   2.450
 4288SOL    HW113763   0.200   6.273   2.394
 4288SOL    HW213764   0.130   6.420   2.392
 4289SOL     OW13765   0.289   4.413   5.655
 4289SOL    HW113766   0.320   4.326   5.695
 4289SOL    HW213767   0.189   4.417   5.658
 4290SOL     OW13768   6.801   1.506   3.304
 4290SOL    HW113769   6.709   1.468   3.292
 4290SOL    HW213770   6.862   1.435   3.339
 4291SOL     OW13771   4.197   4.951   6.757
 4291SOL    HW113772   4.272   5.017   6.762
 4291SOL    HW213773   4.232   4.859   6.772
 4292SOL     OW13774   6.713   0.329   0.892
 4292SOL    HW113775   6.633   0.270   0.898
 4292SOL    HW213776   6.711   0.378   0.805
 4293SOL     OW13777   3.936   3.169   6.483
 4293SOL    HW113778   3.883   3.170   6.399
 4293SOL    HW213779   3.906   3.242   6.544
 4294SOL     OW13780   2.833   1.947   0.356
 4294SOL    HW113781   2.836   1.850   0.381
 4294SOL    HW213782   2.912   1.969   0.298
 4295SOL     OW13783   4.690   6.665   2.565
 4295SOL    HW113784   4.668   6.585   2.620
 4295SOL    HW213785   4.686   6.747   2.622
 4296SOL     OW13786   1.891   5.410   2.470
 4296SOL    HW113787   1.898   5.429   2.568
 4296SOL    HW213788   1.965   5.455   2.421
 4297SOL     OW13789   5.031   4.863   6.914
 4297SOL    HW113790   5.087   4.912   6.847
 4297SOL    HW213791   5.090   4.805   6.970
 4298SOL     OW13792   1.727   0.014   0.503
 4298SOL    HW113793   1.650   6.987   0.549
 4298SOL    HW213794   1.751   6.978   0.421
 4299SOL     OW13795   0.182   3.099   5.953
 4299SOL    HW113796   0.162   3.127   5.859
 4299SOL    HW213797   0.176   3.179   6.013
 4300SOL     OW13798   3.249   0.656   1.772
 4300SOL    HW113799   3.343   0.660   1.807
 4300SOL    HW213800   3.185   0.663   1.848
 4301SOL     OW13801   2.129   6.186   4.571
 4301SOL    HW113802   2.117   6.206   4.474
 4301SOL    HW213803   2.142   6.272   4.621
 4302SOL     OW13804   3.896   4.964   0.231
 4302SOL    HW113805   3.844   4.887   0.195
 4302SOL    HW213806   3.984   4.970   0.185
 4303SOL     OW13807   4.145   5.496   3.449
 4303SOL    HW113808   4.124   5.458   3.359
 4303SOL    HW213809   4.119   5.431   3.520
 4304SOL     OW13810   3.059   4.234   1.738
 4304SOL    HW113811   3.009   4.307   1.785
 4304SOL    HW213812   3.012   4.212   1.652
 4305SOL     OW13813   0.653   6.570   5.972
 4305SOL    HW113814   0.641   6.664   5.940
 4305SOL    HW213815   0.714   6.521   5.910
 4306SOL     OW13816   5.753   3.380   5.201
 4306SOL    HW113817   5.790   3.322   5.128
 4306SOL    HW213818   5.796   3.470   5.196
 4307SOL     OW13819   7.005   1.600   5.547
 4307SOL    HW113820   6.912   1.621   5.517
 4307SOL    HW213821   0.053   1.636   5.481
 4308SOL     OW13822   4.314   5.978   5.845
 4308SOL    HW113823   4.237   5.916   5.845
 4308SOL    HW213824   4.370   5.963   5.927
 4309SOL     OW13825   3.007   2.001   1.060
 4309SOL    HW113826   2.998   1.905   1.036
 4309SOL    HW213827   2.926   2.051   1.029
 4310SOL     OW13828   6.694   2.196   3.718
 4310SOL    HW113829   6.781   2.244   3.732
 4310SOL    HW213830   6.679   2.185   3.619
 4311SOL     OW13831   0.455   6.644   1.154
 4311SOL    HW113832   0.429   6.637   1.250
 4311SOL    HW213833   0.533   6.584   1.136
 4312SOL     OW13834   0.106   4.059   2.560
 4312SOL    HW113835   0.093   4.033   2.464
 4312SOL    HW213836   0.025   4.034   2.613
 4313SOL     OW13837   0.539   3.455   0.763
 4313SOL    HW113838   0.466   3.467   0.695
 4313SOL    HW213839   0.541   3.534   0.824
 4314SOL     OW13840   1.863   1.734   5.828
 4314SOL    HW113841   1.875   1.818   5.880
 4314SOL    HW213842   1.786   1.682   5.866
 4315SOL     OW13843   2.795   2.286   4.978
 4315SOL    HW113844   2.739   2.346   4.921
 4315SOL    HW213845   2.738   2.215   5.018
 4316SOL     OW13846   4.486   5.043   1.807
 4316SOL    HW113847   4.536   4.959   1.787
 4316SOL    HW213848   4.434   5.071   1.725
 4317SOL     OW13849   5.165   0.401   4.392
 4317SOL    HW113850   5.191   0.463   4.318
 4317SOL    HW213851   5.111   0.451   4.460
 4318SOL     OW13852   1.479   5.736   3.723
 4318SOL    HW113853   1.533   5.653   3.709
 4318SOL    HW213854   1.382   5.714   3.717
 4319SOL     OW13855   1.837   4.677   1.689
 4319SOL    HW113856   1.777   4.610   1.646
 4319SOL    HW213857   1.933   4.651   1.672
 4320SOL     OW13858   3.567   0.872   1.623
 4320SOL    HW113859   3.520   0.866   1.535
 4320SOL    HW213860   3.663   0.893   1.608
 4321SOL     OW13861   6.473   5.612   2.790
 4321SOL    HW113862   6.475   5.669   2.872
 4321SOL    HW213863   6.453   5.517   2.815
 4322SOL     OW13864   2.804   2.354   4.313
 4322SOL    HW113865   2.901   2.351   4.334
 4322SOL    HW213866   2.791   2.378   4.217
 4323SOL     OW13867   5.464   4.141   1.408
 4323SOL    HW113868   5.426   4.185   1.489
 4323SOL    HW213869   5.432   4.189   1.326
 4324SOL     OW13870   6.769   3.797   5.312
 4324SOL    HW113871   6.765   3.799   5.411
 4324SOL    HW213872   6.679   3.819   5.274
 4325SOL     OW13873   1.555   0.783   1.188
 4325SOL    HW113874   1.645   0.745   1.212
 4325SOL    HW213875   1.501   0.796   1.271
 4326SOL     OW13876   4.823   2.785   3.375
 4326SOL    HW113877   4.905   2.739   3.409
 4326SOL    HW213878   4.846   2.877   3.344
 4327SOL     OW13879   3.349   6.637   3.770
 4327SOL    HW113880   3.429   6.680   3.813
 4327SOL    HW213881   3.373   6.546   3.739
 4328SOL     OW13882   6.650   0.010   2.662
 4328SOL    HW113883   6.653   0.108   2.639
 4328SOL    HW213884   6.739   6.987   2.643
 4329SOL     OW13885   6.049   4.160   0.169
 4329SOL    HW113886   5.963   4.171   0.120
 4329SOL    HW213887   6.071   4.245   0.217
 4330SOL     OW13888   2.391   5.519   5.205
 4330SOL    HW113889   2.485   5.518   5.170
 4330SOL    HW213890   2.358   5.426   5.215
 4331SOL     OW13891   6.002   1.935   2.840
 4331SOL    HW113892   5.939   2.008   2.865
 4331SOL    HW213893   5.961   1.847   2.861
 4332SOL     OW13894   6.629   5.890   1.329
 4332SOL    HW113895   6.712   5.837   1.346
 4332SOL    HW213896   6.646   5.956   1.255
 4333SOL     OW13897   3.331   2.611   6.361
 4333SOL    HW113898   3.260   2.670   6.400
 4333SOL    HW213899   3.300   2.576   6.272
 4334SOL     OW13900   0.670   2.359   3.558
 4334SOL    HW113901   0.740   2.299   3.520
 4334SOL    HW213902   0.583   2.311   3.563
 4335SOL     OW13903   2.056   3.858   1.704
 4335SOL    HW113904   2.020   3.773   1.743
 4335SOL    HW213905   2.156   3.855   1.704
 4336SOL     OW13906   2.512   5.143   5.683
 4336SOL    HW113907   2.611   5.153   5.670
 4336SOL    HW213908   2.466   5.149   5.594
 4337SOL     OW13909   0.050   4.503   4.188
 4337SOL    HW113910   0.011   4.583   4.142
 4337SOL    HW213911   0.077   4.435   4.119
 4338SOL     OW13912   3.258   2.821   5.568
 4338SOL    HW113913   3.170   2.783   5.595
 4338SOL    HW213914   3.244   2.895   5.503
 4339SOL     OW13915   4.406   4.219   5.526
 4339SOL    HW113916   4.475   4.241   5.595
 4339SOL    HW213917   4.333   4.286   5.530
 4340SOL     OW13918   6.996   4.031   0.185
 4340SOL    HW113919   7.006   4.039   0.086
 4340SOL    HW213920   6.918   3.972   0.207
 4341SOL     OW13921   6.299   5.596   1.026
 4341SOL    HW113922   6.322   5.693   1.040
 4341SOL    HW213923   6.350   5.561   0.947
 4342SOL     OW13924   5.618   3.444   2.417
 4342SOL    HW113925   5.682   3.504   2.465
 4342SOL    HW213926   5.564   3.392   2.483
 4343SOL     OW13927   4.543   0.411   6.527
 4343SOL    HW113928   4.456   0.436   6.570
 4343SOL    HW213929   4.526   0.352   6.449
 4344SOL     OW13930   1.329   4.127   1.975
 4344SOL    HW113931   1.335   4.226   1.987
 4344SOL    HW213932   1.356   4.081   2.060
 4345SOL     OW13933   3.907   3.323   2.698
 4345SOL    HW113934   3.849   3.347   2.776
 4345SOL    HW213935   3.853   3.269   2.632
 4346SOL     OW13936   0.853   3.998   2.566
 4346SOL    HW113937   0.770   3.988   2.511
 4346SOL    HW213938   0.931   4.019   2.506
 4347SOL     OW13939   6.194   5.328   0.399
 4347SOL    HW113940   6.217   5.350   0.304
 4347SOL    HW213941   6.276   5.301   0.448
 4348SOL     OW13942   6.503   3.876   5.827
 4348SOL    HW113943   6.597   3.894   5.797
 4348SOL    HW213944   6.504   3.807   5.900
 4349SOL     OW13945   1.217   3.985   4.107
 4349SOL    HW113946   1.133   3.995   4.054
 4349SOL    HW213947   1.198   4.004   4.203
 4350SOL     OW13948   5.027   0.304   3.930
 4350SOL    HW113949   4.959   0.374   3.957
 4350SOL    HW213950   5.062   0.326   3.839
 4351SOL     OW13951   0.445   5.794   0.766
 4351SOL    HW113952   0.417   5.703   0.795
 4351SOL    HW213953   0.510   5.832   0.833
 4352SOL     OW13954   3.458   4.267   1.586
 4352SOL    HW113955   3.402   4.211   1.647
 4352SOL    HW213956   3.537   4.303   1.635
 4353SOL     OW13957   2.543   4.033   0.131
 4353SOL    HW113958   2.635   4.000   0.153
 4353SOL    HW213959   2.513   4.097   0.202
 4354SOL     OW13960   5.073   5.207   2.243
 4354SOL    HW113961   5.138   5.279   2.265
 4354SOL    HW213962   5.114   5.144   2.177
 4355SOL     OW13963   1.795   4.940   3.188
 4355SOL    HW113964   1.867   4.896   3.134
 4355SOL    HW213965   1.767   5.025   3.144
 4356SOL     OW13966   6.081   2.325   5.564
 4356SOL    HW113967   6.115   2.260   5.633
 4356SOL    HW213968   6.110   2.417   5.588
 4357SOL     OW13969   5.050   5.639   2.821
 4357SOL    HW113970   5.026   5.543   2.806
 4357SOL    HW213971   5.146   5.646   2.847
 4358SOL     OW13972   2.687   0.554   1.043
 4358SOL    HW113973   2.659   0.583   0.951
 4358SOL    HW213974   2.624   0.485   1.077
 4359SOL     OW13975   2.466   2.232   1.326
 4359SOL    HW113976   2.551   2.213   1.278
 4359SOL    HW213977   2.485   2.250   1.423
 4360SOL     OW13978   3.022   5.917   3.816
 4360SOL    HW113979   3.109   5.944   3.774
 4360SOL    HW213980   2.983   5.994   3.866
 4361SOL     OW13981   1.621   1.539   6.904
 4361SOL    HW113982   1.713   1.567   6.877
 4361SOL    HW213983   1.605   1.445   6.875
 4362SOL     OW13984   0.292   5.612   2.773
 4362SOL    HW113985   0.238   5.616   2.689
 4362SOL    HW213986   0.327   5.519   2.786
 4363SOL     OW13987   3.681   0.660   2.326
 4363SOL    HW113988   3.615   0.596   2.287
 4363SOL    HW213989   3.755   0.609   2.370
 4364SOL     OW13990   2.977   3.817   3.152
 4364SOL    HW113991   3.045   3.887   3.177
 4364SOL    HW213992   2.941   3.775   3.235
 4365SOL     OW13993   2.624   1.296   0.605
 4365SOL    HW113994   2.526   1.279   0.612
 4365SOL    HW213995   2.642   1.360   0.530
 4366SOL     OW13996   5.250   5.837   4.666
 4366SOL    HW113997   5.243   5.738   4.656
 4366SOL    HW213998   5.162   5.874   4.694
 4367SOL     OW13999   2.404   6.862   2.016
 4367SOL    HW114000   2.413   6.823   1.925
 4367SOL    HW214001   2.409   6.789   2.084
 4368SOL     OW14002   4.760   4.188   4.340
 4368SOL    HW114003   4.788   4.159   4.431
 4368SOL    HW214004   4.720   4.280   4.346
 4369SOL     OW14005   6.061   4.257   3.547
 4369SOL    HW114006   6.124   4.261   3.470
 4369SOL    HW214007   5.981   4.316   3.528
 4370SOL     OW14008   4.715   4.867   0.701
 4370SOL    HW114009   4.787   4.891   0.766
 4370SOL    HW214010   4.632   4.843   0.751
 4371SOL     OW14011   3.386   1.402   3.106
 4371SOL    HW114012   3.482   1.430   3.108
 4371SOL    HW214013   3.361   1.361   3.194
 4372SOL     OW14014   1.603   4.386   4.946
 4372SOL    HW114015   1.524   4.371   5.004
 4372SOL    HW214016   1.578   4.370   4.850
 4373SOL     OW14017   4.539   0.312   0.546
 4373SOL    HW114018   4.451   0.334   0.588
 4373SOL    HW214019   4.582   0.397   0.514
 4374SOL     OW14020   2.467   6.359   0.417
 4374SOL    HW114021   2.485   6.456   0.402
 4374SOL    HW214022   2.440   6.344   0.513
 4375SOL     OW14023   4.355   1.306   5.791
 4375SOL    HW114024   4.386   1.388   5.837
 4375SOL    HW214025   4.284   1.330   5.724
 4376SOL     OW14026   3.099   5.286   0.073
 4376SOL    HW114027   3.018   5.308   0.018
 4376SOL    HW214028   3.077   5.214   0.138
 4377SOL     OW14029   5.268   5.694   6.401
 4377SOL    HW114030   5.205   5.771   6.390
 4377SOL    HW214031   5.218   5.615   6.435
 4378SOL     OW14032   3.517   5.162   1.813
 4378SOL    HW114033   3.504   5.260   1.823
 4378SOL    HW214034   3.600   5.135   1.861
 4379SOL     OW14035   6.886   6.247   0.688
 4379SOL    HW114036   6.829   6.316   0.734
 4379SOL    HW214037   6.842   6.220   0.603
 4380SOL     OW14038   1.923   5.388   4.538
 4380SOL    HW114039   1.889   5.454   4.471
 4380SOL    HW214040   1.921   5.429   4.630
 4381SOL     OW14041   3.571   5.850   4.649
 4381SOL    HW114042   3.481   5.890   4.634
 4381SOL    HW214043   3.641   5.920   4.640
 4382SOL     OW14044   5.483   4.430   2.485
 4382SOL    HW114045   5.515   4.515   2.444
 4382SOL    HW214046   5.458   4.446   2.580
 4383SOL     OW14047   1.374   0.669   0.749
 4383SOL    HW114048   1.382   0.725   0.667
 4383SOL    HW214049   1.302   0.601   0.736
 4384SOL     OW14050   3.920   0.355   2.100
 4384SOL    HW114051   3.878   0.322   2.016
 4384SOL    HW214052   3.903   0.290   2.174
 4385SOL     OW14053   6.637   2.694   3.702
 4385SOL    HW114054   6.576   2.763   3.665
 4385SOL    HW214055   6.598   2.603   3.688
 4386SOL     OW14056   1.573   4.566   6.890
 4386SOL    HW114057   1.477   4.564   6.862
 4386SOL    HW214058   1.630   4.591   6.811
 4387SOL     OW14059   6.167   1.790   1.358
 4387SOL    HW114060   6.236   1.853   1.323
 4387SOL    HW214061   6.171   1.704   1.308
 4388SOL     OW14062   3.905   1.215   5.919
 4388SOL    HW114063   3.981   1.237   5.980
 4388SOL    HW214064   3.822   1.200   5.973
 4389SOL     OW14065   6.747   2.756   2.976
 4389SOL    HW114066   6.831   2.721   3.017
 4389SOL    HW214067   6.759   2.764   2.877
 4390SOL     OW14068   4.037   3.427   0.820
 4390SOL    HW114069   4.066   3.362   0.890
 4390SOL    HW214070   4.078   3.403   0.732
 4391SOL     OW14071   0.943   6.145   0.295
 4391SOL    HW114072   1.009   6.070   0.294
 4391SOL    HW214073   0.850   6.107   0.295
 4392SOL     OW14074   5.482   5.148   5.016
 4392SOL    HW114075   5.431   5.222   5.060
 4392SOL    HW214076   5.569   5.135   5.064
 4393SOL     OW14077   5.443   6.626   2.873
 4393SOL    HW114078   5.455   6.688   2.796
 4393SOL    HW214079   5.456   6.676   2.959
 4394SOL     OW14080   4.508   0.139   2.002
 4394SOL    HW114081   4.426   0.162   1.950
 4394SOL    HW214082   4.483   0.090   2.085
 4395SOL     OW14083   4.604   2.150   0.872
 4395SOL    HW114084   4.682   2.211   0.886
 4395SOL    HW214085   4.582   2.103   0.958
 4396SOL     OW14086   1.284   1.533   3.100
 4396SOL    HW114087   1.251   1.445   3.132
 4396SOL    HW214088   1.239   1.606   3.151
 4397SOL     OW14089   4.743   0.529   6.648
 4397SOL    HW114090   4.660   0.484   6.614
 4397SOL    HW214091   4.807   0.460   6.681
 4398SOL     OW14092   0.233   5.456   4.671
 4398SOL    HW114093   0.195   5.542   4.638
 4398SOL    HW214094   0.159   5.400   4.709
 4399SOL     OW14095   3.175   0.550   2.369
 4399SOL    HW114096   3.110   0.626   2.369
 4399SOL    HW214097   3.198   0.526   2.275
 4400SOL     OW14098   3.597   5.121   2.902
 4400SOL    HW114099   3.693   5.103   2.880
 4400SOL    HW214100   3.549   5.035   2.917
 4401SOL     OW14101   5.749   6.065   4.553
 4401SOL    HW114102   5.823   6.132   4.561
 4401SOL    HW214103   5.783   5.975   4.578
 4402SOL     OW14104   6.607   6.465   1.343
 4402SOL    HW114105   6.626   6.367   1.350
 4402SOL    HW214106   6.528   6.487   1.400
 4403SOL     OW14107   6.476   1.395   2.229
 4403SOL    HW114108   6.441   1.303   2.213
 4403SOL    HW214109   6.409   1.447   2.283
 4404SOL     OW14110   2.243   4.013   2.479
 4404SOL    HW114111   2.183   4.072   2.425
 4404SOL    HW214112   2.240   3.920   2.442
 4405SOL     OW14113   2.746   3.789   5.950
 4405SOL    HW114114   2.648   3.799   5.934
 4405SOL    HW214115   2.772   3.840   6.032
 4406SOL     OW14116   6.425   2.966   2.205
 4406SOL    HW114117   6.516   2.931   2.227
 4406SOL    HW214118   6.426   3.006   2.114
 4407SOL     OW14119   1.118   0.975   0.143
 4407SOL    HW114120   1.141   0.907   0.074
 4407SOL    HW214121   1.070   0.932   0.219
 4408SOL     OW14122   3.985   6.297   1.115
 4408SOL    HW114123   3.996   6.321   1.212
 4408SOL    HW214124   3.972   6.199   1.106
 4409SOL     OW14125   3.367   2.107   2.691
 4409SOL    HW114126   3.357   2.112   2.791
 4409SOL    HW214127   3.280   2.134   2.648
 4410SOL     OW14128   1.836   5.514   1.428
 4410SOL    HW114129   1.800   5.423   1.405
 4410SOL    HW214130   1.772   5.560   1.489
 4411SOL     OW14131   4.034   3.134   2.325
 4411SOL    HW114132   3.993   3.212   2.278
 4411SOL    HW214133   4.121   3.110   2.281
 4412SOL     OW14134   4.131   1.314   6.067
 4412SOL    HW114135   4.168   1.302   6.159
 4412SOL    HW214136   4.164   1.399   6.028
 4413SOL     OW14137   4.350   5.449   4.127
 4413SOL    HW114138   4.375   5.355   4.151
 4413SOL    HW214139   4.433   5.505   4.123
 4414SOL     OW14140   3.404   4.960   1.972
 4414SOL    HW114141   3.417   5.028   1.899
 4414SOL    HW214142   3.474   4.890   1.964
 4415SOL     OW14143   4.767   1.614   1.616
 4415SOL    HW114144   4.718   1.677   1.677
 4415SOL    HW214145   4.701   1.554   1.570
 4416SOL     OW14146   2.760   1.852   4.388
 4416SOL    HW114147   2.764   1.947   4.419
 4416SOL    HW214148   2.735   1.850   4.291
 4417SOL     OW14149   6.287   6.551   1.182
 4417SOL    HW114150   6.386   6.556   1.169
 4417SOL    HW214151   6.241   6.568   1.094
 4418SOL     OW14152   5.014   0.826   3.355
 4418SOL    HW114153   4.955   0.895   3.312
 4418SOL    HW214154   4.978   0.804   3.446
 4419SOL     OW14155   6.014   5.446   6.320
 4419SOL    HW114156   5.924   5.411   6.347
 4419SOL    HW214157   6.008   5.482   6.226
 4420SOL     OW14158   5.026   0.957   0.837
 4420SOL    HW114159   5.116   0.940   0.877
 4420SOL    HW214160   5.018   0.908   0.750
 4421SOL     OW14161   0.611   1.466   3.507
 4421SOL    HW114162   0.558   1.393   3.465
 4421SOL    HW214163   0.708   1.451   3.491
 4422SOL     OW14164   1.668   3.942   5.915
 4422SOL    HW114165   1.727   3.963   5.993
 4422SOL    HW214166   1.668   4.019   5.851
 4423SOL     OW14167   6.995   1.842   5.856
 4423SOL    HW114168   6.898   1.854   5.833
 4423SOL    HW214169   7.002   1.814   5.952
 4424SOL     OW14170   1.805   5.335   3.871
 4424SOL    HW114171   1.783   5.426   3.837
 4424SOL    HW214172   1.737   5.269   3.838
 4425SOL     OW14173   4.897   3.642   1.644
 4425SOL    HW114174   4.989   3.641   1.684
 4425SOL    HW214175   4.837   3.583   1.698
 4426SOL     OW14176   0.413   0.388   6.960
 4426SOL    HW114177   0.466   0.469   6.934
 4426SOL    HW214178   0.446   0.309   6.908
 4427SOL     OW14179   0.884   5.593   3.901
 4427SOL    HW114180   0.943   5.516   3.877
 4427SOL    HW214181   0.818   5.563   3.970
 4428SOL     OW14182   1.149   6.342   2.890
 4428SOL    HW114183   1.166   6.319   2.986
 4428SOL    HW214184   1.233   6.331   2.838
 4429SOL     OW14185   2.853   0.790   3.238
 4429SOL    HW114186   2.774   0.849   3.257
 4429SOL    HW214187   2.921   0.802   3.310
 4430SOL     OW14188   2.092   0.931   1.927
 4430SOL    HW114189   2.033   0.896   2.000
 4430SOL    HW214190   2.037   0.951   1.846
 4431SOL     OW14191   2.313   2.222   3.376
 4431SOL    HW114192   2.344   2.188   3.465
 4431SOL    HW214193   2.215   2.207   3.366
 4432SOL     OW14194   2.911   3.374   4.228
 4432SOL    HW114195   2.811   3.376   4.222
 4432SOL    HW214196   2.947   3.460   4.191
 4433SOL     OW14197   6.430   0.554   2.708
 4433SOL    HW114198   6.529   0.538   2.707
 4433SOL    HW214199   6.407   0.624   2.642
 4434SOL     OW14200   5.632   2.133   5.154
 4434SOL    HW114201   5.724   2.135   5.116
 4434SOL    HW214202   5.569   2.180   5.092
 4435SOL     OW14203   3.682   3.355   2.013
 4435SOL    HW114204   3.667   3.290   2.089
 4435SOL    HW214205   3.607   3.420   2.009
 4436SOL     OW14206   5.802   0.325   0.312
 4436SOL    HW114207   5.716   0.293   0.352
 4436SOL    HW214208   5.793   0.329   0.212
 4437SOL     OW14209   3.347   6.904   5.766
 4437SOL    HW114210   3.265   6.852   5.788
 4437SOL    HW214211   3.333   7.000   5.793
 4438SOL     OW14212   4.064   2.739   6.746
 4438SOL    HW114213   4.086   2.783   6.833
 4438SOL    HW214214   4.064   2.808   6.674
 4439SOL     OW14215   1.505   4.257   2.809
 4439SOL    HW114216   1.518   4.332   2.744
 4439SOL    HW214217   1.538   4.284   2.899
 4440SOL     OW14218   6.634   1.515   0.424
 4440SOL    HW114219   6.553   1.488   0.476
 4440SOL    HW214220   6.612   1.514   0.326
 4441SOL     OW14221   6.723   0.315   3.595
 4441SOL    HW114222   6.702   0.331   3.691
 4441SOL    HW214223   6.817   0.345   3.576
 4442SOL     OW14224   1.669   5.640   2.305
 4442SOL    HW114225   1.580   5.686   2.298
 4442SOL    HW214226   1.670   5.582   2.386
 4443SOL     OW14227   2.684   1.469   0.859
 4443SOL    HW114228   2.695   1.565   0.834
 4443SOL    HW214229   2.650   1.418   0.781
 4444SOL     OW14230   5.041   1.450   3.127
 4444SOL    HW114231   5.046   1.534   3.073
 4444SOL    HW214232   4.947   1.417   3.130
 4445SOL     OW14233   0.931   0.952   6.139
 4445SOL    HW114234   0.983   1.034   6.115
 4445SOL    HW214235   0.870   0.973   6.215
 4446SOL     OW14236   5.954   4.652   3.985
 4446SOL    HW114237   6.046   4.678   3.957
 4446SOL    HW214238   5.939   4.555   3.965
 4447SOL     OW14239   4.896   3.750   5.288
 4447SOL    HW114240   4.866   3.695   5.210
 4447SOL    HW214241   4.896   3.694   5.371
 4448SOL     OW14242   2.771   3.547   6.738
 4448SOL    HW114243   2.854   3.560   6.684
 4448SOL    HW214244   2.735   3.637   6.766
 4449SOL     OW14245   0.426   1.053   5.704
 4449SOL    HW114246   0.427   1.151   5.683
 4449SOL    HW214247   0.479   1.004   5.634
 4450SOL     OW14248   3.661   3.701   2.882
 4450SOL    HW114249   3.724   3.672   2.954
 4450SOL    HW214250   3.630   3.621   2.830
 4451SOL     OW14251   0.425   4.426   0.849
 4451SOL    HW114252   0.423   4.526   0.843
 4451SOL    HW214253   0.379   4.387   0.769
 4452SOL     OW14254   6.933   3.030   6.092
 4452SOL    HW114255   6.855   3.021   6.031
 4452SOL    HW214256   6.964   3.125   6.095
 4453SOL     OW14257   5.268   0.856   0.598
 4453SOL    HW114258   5.276   0.955   0.606
 4453SOL    HW214259   5.191   0.824   0.654
 4454SOL     OW14260   5.618   2.725   1.467
 4454SOL    HW114261   5.717   2.709   1.464
 4454SOL    HW214262   5.598   2.816   1.430
 4455SOL     OW14263   4.321   2.347   2.848
 4455SOL    HW114264   4.265   2.273   2.810
 4455SOL    HW214265   4.368   2.395   2.774
 4456SOL     OW14266   0.413   5.869   2.408
 4456SOL    HW114267   0.326   5.820   2.408
 4456SOL    HW214268   0.447   5.876   2.314
 4457SOL     OW14269   4.381   2.315   0.106
 4457SOL    HW114270   4.306   2.373   0.137
 4457SOL    HW214271   4.421   2.354   0.023
 4458SOL     OW14272   4.316   1.744   1.278
 4458SOL    HW114273   4.351   1.794   1.357
 4458SOL    HW214274   4.382   1.673   1.252
 4459SOL     OW14275   5.838   6.117   5.651
 4459SOL    HW114276   5.871   6.090   5.741
 4459SOL    HW214277   5.898   6.186   5.612
 4460SOL     OW14278   1.283   1.229   6.972
 4460SOL    HW114279   1.381   1.247   6.963
 4460SOL    HW214280   1.247   1.278   0.034
 4461SOL     OW14281   1.855   6.639   2.993
 4461SOL    HW114282   1.940   6.592   3.015
 4461SOL    HW214283   1.856   6.730   3.034
 4462SOL     OW14284   6.812   3.755   0.537
 4462SOL    HW114285   6.749   3.745   0.460
 4462SOL    HW214286   6.863   3.840   0.527
 4463SOL     OW14287   1.207   4.471   6.762
 4463SOL    HW114288   1.132   4.523   6.802
 4463SOL    HW214289   1.210   4.488   6.663
 4464SOL     OW14290   6.351   2.708   6.873
 4464SOL    HW114291   6.291   2.753   6.939
 4464SOL    HW214292   6.296   2.652   6.810
 4465SOL     OW14293   6.629   5.097   0.803
 4465SOL    HW114294   6.672   5.007   0.808
 4465SOL    HW214295   6.683   5.163   0.855
 4466SOL     OW14296   0.168   2.867   3.303
 4466SOL    HW114297   0.156   2.896   3.208
 4466SOL    HW214298   0.173   2.947   3.363
 4467SOL     OW14299   1.092   0.634   3.749
 4467SOL    HW114300   1.064   0.572   3.675
 4467SOL    HW214301   1.185   0.666   3.732
 4468SOL     OW14302   1.496   2.129   0.494
 4468SOL    HW114303   1.539   2.078   0.419
 4468SOL    HW214304   1.557   2.128   0.573
 4469SOL     OW14305   4.890   6.846   0.817
 4469SOL    HW114306   4.821   6.918   0.830
 4469SOL    HW214307   4.981   6.884   0.832
 4470SOL     OW14308   4.819   4.782   1.601
 4470SOL    HW114309   4.904   4.817   1.561
 4470SOL    HW214310   4.807   4.687   1.575
 4471SOL     OW14311   6.010   2.966   1.772
 4471SOL    HW114312   5.947   2.974   1.849
 4471SOL    HW214313   6.098   2.930   1.804
 4472SOL     OW14314   2.601   5.186   1.432
 4472SOL    HW114315   2.561   5.095   1.439
 4472SOL    HW214316   2.635   5.215   1.521
 4473SOL     OW14317   6.581   0.624   6.925
 4473SOL    HW114318   6.642   0.703   6.934
 4473SOL    HW214319   6.617   0.561   6.857
 4474SOL     OW14320   6.334   0.760   4.266
 4474SOL    HW114321   6.256   0.700   4.285
 4474SOL    HW214322   6.357   0.811   4.349
 4475SOL     OW14323   1.315   3.231   0.615
 4475SOL    HW114324   1.333   3.159   0.682
 4475SOL    HW214325   1.228   3.213   0.569
 4476SOL     OW14326   4.320   6.687   3.160
 4476SOL    HW114327   4.313   6.605   3.102
 4476SOL    HW214328   4.228   6.723   3.177
 4477SOL     OW14329   1.589   2.499   0.955
 4477SOL    HW114330   1.616   2.516   0.861
 4477SOL    HW214331   1.646   2.426   0.993
 4478SOL     OW14332   1.284   5.098   0.945
 4478SOL    HW114333   1.235   5.026   0.895
 4478SOL    HW214334   1.286   5.075   1.043
 4479SOL     OW14335   1.391   0.584   5.943
 4479SOL    HW114336   1.411   0.486   5.935
 4479SOL    HW214337   1.357   0.603   6.035
 4480SOL     OW14338   0.078   3.994   3.372
 4480SOL    HW114339   0.094   3.896   3.386
 4480SOL    HW214340   0.106   4.019   3.280
 4481SOL     OW14341   0.567   0.774   4.211
 4481SOL    HW114342   0.661   0.782   4.244
 4481SOL    HW214343   0.566   0.723   4.125
 4482SOL     OW14344   1.261   3.924   2.710
 4482SOL    HW114345   1.327   3.947   2.783
 4482SOL    HW214346   1.173   3.901   2.751
 4483SOL     OW14347   5.633   3.420   0.504
 4483SOL    HW114348   5.555   3.467   0.461
 4483SOL    HW214349   5.637   3.325   0.471
 4484SOL     OW14350   3.430   3.453   6.554
 4484SOL    HW114351   3.395   3.544   6.576
 4484SOL    HW214352   3.382   3.385   6.609
 4485SOL     OW14353   5.237   6.893   6.261
 4485SOL    HW114354   5.254   6.873   6.165
 4485SOL    HW214355   5.141   6.918   6.274
 4486SOL     OW14356   6.247   3.639   3.922
 4486SOL    HW114357   6.208   3.642   4.013
 4486SOL    HW214358   6.216   3.556   3.874
 4487SOL     OW14359   2.825   2.975   5.570
 4487SOL    HW114360   2.725   2.977   5.581
 4487SOL    HW214361   2.863   3.061   5.604
 4488SOL     OW14362   6.886   2.009   6.286
 4488SOL    HW114363   6.893   1.953   6.369
 4488SOL    HW214364   6.790   2.017   6.260
 4489SOL     OW14365   1.116   0.999   2.300
 4489SOL    HW114366   1.063   1.033   2.222
 4489SOL    HW214367   1.151   0.908   2.279
 4490SOL     OW14368   6.718   2.128   4.142
 4490SOL    HW114369   6.798   2.177   4.107
 4490SOL    HW214370   6.743   2.081   4.227
 4491SOL     OW14371   2.078   4.237   2.398
 4491SOL    HW114372   1.982   4.242   2.423
 4491SOL    HW214373   2.098   4.308   2.330
 4492SOL     OW14374   4.914   4.083   6.425
 4492SOL    HW114375   4.975   4.160   6.405
 4492SOL    HW214376   4.826   4.118   6.455
 4493SOL     OW14377   6.198   4.247   3.314
 4493SOL    HW114378   6.202   4.328   3.255
 4493SOL    HW214379   6.289   4.228   3.351
 4494SOL     OW14380   5.973   2.091   2.590
 4494SOL    HW114381   5.951   2.026   2.662
 4494SOL    HW214382   6.068   2.078   2.561
 4495SOL     OW14383   5.005   5.950   1.971
 4495SOL    HW114384   4.995   5.958   2.071
 4495SOL    HW214385   4.937   6.007   1.926
 4496SOL     OW14386   6.347   3.533   5.875
 4496SOL    HW114387   6.441   3.569   5.868
 4496SOL    HW214388   6.325   3.483   5.792
 4497SOL     OW14389   6.892   5.812   0.721
 4497SOL    HW114390   6.922   5.885   0.782
 4497SOL    HW214391   6.952   5.809   0.641
 4498SOL     OW14392   0.699   4.482   6.545
 4498SOL    HW114393   0.769   4.412   6.559
 4498SOL    HW214394   0.641   4.456   6.468
 4499SOL     OW14395   4.947   3.482   6.883
 4499SOL    HW114396   4.965   3.449   6.975
 4499SOL    HW214397   4.907   3.409   6.828
 4500SOL     OW14398   3.839   3.869   2.760
 4500SOL    HW114399   3.767   3.816   2.805
 4500SOL    HW214400   3.908   3.806   2.723
 4501SOL     OW14401   1.085   4.717   5.118
 4501SOL    HW114402   1.014   4.693   5.183
 4501SOL    HW214403   1.129   4.633   5.085
 4502SOL     OW14404   5.598   2.775   0.272
 4502SOL    HW114405   5.583   2.825   0.357
 4502SOL    HW214406   5.617   2.840   0.198
 4503SOL     OW14407   1.423   3.313   2.737
 4503SOL    HW114408   1.486   3.376   2.692
 4503SOL    HW214409   1.329   3.337   2.713
 4504SOL     OW14410   4.628   2.643   4.330
 4504SOL    HW114411   4.629   2.734   4.289
 4504SOL    HW214412   4.573   2.581   4.274
 4505SOL     OW14413   1.983   5.300   0.843
 4505SOL    HW114414   1.989   5.379   0.904
 4505SOL    HW214415   2.075   5.265   0.825
 4506SOL     OW14416   3.839   0.313   5.862
 4506SOL    HW114417   3.894   0.380   5.912
 4506SOL    HW214418   3.769   0.360   5.808
 4507SOL     OW14419   6.582   3.632   2.559
 4507SOL    HW114420   6.635   3.564   2.508
 4507SOL    HW214421   6.643   3.704   2.593
 4508SOL     OW14422   1.728   3.738   0.127
 4508SOL    HW114423   1.796   3.688   0.181
 4508SOL    HW214424   1.666   3.786   0.189
 4509SOL     OW14425   0.606   2.212   2.943
 4509SOL    HW114426   0.637   2.263   3.024
 4509SOL    HW214427   0.682   2.201   2.880
 4510SOL     OW14428   2.972   6.247   6.095
 4510SOL    HW114429   2.971   6.147   6.093
 4510SOL    HW214430   3.040   6.279   6.161
 4511SOL     OW14431   6.994   1.810   6.942
 4511SOL    HW114432   6.994   1.872   6.864
 4511SOL    HW214433   6.914   1.828   6.999
 4512SOL     OW14434   2.416   4.097   6.846
 4512SOL    HW114435   2.494   4.139   6.893
 4512SOL    HW214436   2.442   4.008   6.810
 4513SOL     OW14437   6.028   1.378   2.602
 4513SOL    HW114438   5.932   1.392   2.578
 4513SOL    HW214439   6.035   1.346   2.697
 4514SOL     OW14440   2.755   0.612   5.652
 4514SOL    HW114441   2.772   0.545   5.579
 4514SOL    HW214442   2.715   0.566   5.731
 4515SOL     OW14443   6.774   4.884   6.814
 4515SOL    HW114444   6.676   4.901   6.823
 4515SOL    HW214445   6.799   4.803   6.866
 4516SOL     OW14446   0.681   0.363   3.615
 4516SOL    HW114447   0.725   0.438   3.567
 4516SOL    HW214448   0.680   0.382   3.714
 4517SOL     OW14449   3.220   0.567   0.002
 4517SOL    HW114450   3.170   0.564   0.089
 4517SOL    HW214451   3.205   0.481   6.970
 4518SOL     OW14452   1.423   6.958   4.142
 4518SOL    HW114453   1.409   0.010   4.212
 4518SOL    HW214454   1.500   6.899   4.169
 4519SOL     OW14455   6.136   2.507   5.161
 4519SOL    HW114456   6.096   2.550   5.242
 4519SOL    HW214457   6.068   2.506   5.087
 4520SOL     OW14458   6.915   3.569   2.914
 4520SOL    HW114459   6.901   3.501   2.985
 4520SOL    HW214460   6.957   3.651   2.954
 4521SOL     OW14461   5.175   1.332   6.702
 4521SOL    HW114462   5.233   1.255   6.675
 4521SOL    HW214463   5.226   1.418   6.691
 4522SOL     OW14464   5.759   6.726   3.244
 4522SOL    HW114465   5.680   6.777   3.278
 4522SOL    HW214466   5.726   6.651   3.185
 4523SOL     OW14467   4.832   2.455   5.668
 4523SOL    HW114468   4.921   2.449   5.712
 4523SOL    HW214469   4.841   2.499   5.578
 4524SOL     OW14470   6.229   0.373   5.170
 4524SOL    HW114471   6.283   0.455   5.187
 4524SOL    HW214472   6.263   0.327   5.087
 4525SOL     OW14473   6.401   1.210   4.223
 4525SOL    HW114474   6.434   1.117   4.208
 4525SOL    HW214475   6.409   1.234   4.320
 4526SOL     OW14476   3.279   1.428   1.742
 4526SOL    HW114477   3.356   1.364   1.748
 4526SOL    HW214478   3.283   1.477   1.654
 4527SOL     OW14479   4.243   6.456   4.302
 4527SOL    HW114480   4.186   6.528   4.341
 4527SOL    HW214481   4.189   6.400   4.239
 4528SOL     OW14482   5.291   0.397   6.062
 4528SOL    HW114483   5.226   0.422   5.990
 4528SOL    HW214484   5.246   0.405   6.151
 4529SOL     OW14485   3.422   0.199   3.989
 4529SOL    HW114486   3.396   0.295   3.994
 4529SOL    HW214487   3.483   0.177   4.065
 4530SOL     OW14488   0.190   2.711   4.537
 4530SOL    HW114489   0.240   2.702   4.451
 4530SOL    HW214490   0.116   2.777   4.526
 4531SOL     OW14491   0.717   3.911   3.896
 4531SOL    HW114492   0.724   3.888   3.799
 4531SOL    HW214493   0.622   3.934   3.918
 4532SOL     OW14494   0.560   2.254   0.534
 4532SOL    HW114495   0.507   2.248   0.450
 4532SOL    HW214496   0.622   2.332   0.529
 4533SOL     OW14497   3.495   6.061   2.211
 4533SOL    HW114498   3.550   5.990   2.168
 4533SOL    HW214499   3.400   6.053   2.179
 4534SOL     OW14500   6.874   4.288   5.835
 4534SOL    HW114501   6.901   4.321   5.744
 4534SOL    HW214502   6.897   4.190   5.842
 4535SOL     OW14503   5.114   2.505   3.232
 4535SOL    HW114504   5.114   2.449   3.149
 4535SOL    HW214505   5.021   2.515   3.266
 4536SOL     OW14506   7.001   0.349   3.872
 4536SOL    HW114507   6.929   0.398   3.922
 4536SOL    HW214508   7.003   0.254   3.902
 4537SOL     OW14509   4.688   3.756   6.438
 4537SOL    HW114510   4.729   3.788   6.353
 4537SOL    HW214511   4.668   3.658   6.430
 4538SOL     OW14512   3.740   2.323   1.494
 4538SOL    HW114513   3.691   2.368   1.568
 4538SOL    HW214514   3.788   2.243   1.529
 4539SOL     OW14515   2.364   2.415   1.937
 4539SOL    HW114516   2.340   2.511   1.950
 4539SOL    HW214517   2.453   2.397   1.978
 4540SOL     OW14518   3.877   3.096   4.982
 4540SOL    HW114519   3.893   3.036   5.061
 4540SOL    HW214520   3.962   3.106   4.931
 4541SOL     OW14521   5.990   1.046   1.735
 4541SOL    HW114522   5.979   1.101   1.653
 4541SOL    HW214523   6.087   1.031   1.754
 4542SOL     OW14524   5.117   6.671   3.334
 4542SOL    HW114525   5.209   6.633   3.340
 4542SOL    HW214526   5.121   6.768   3.314
 4543SOL     OW14527   5.848   2.815   2.232
 4543SOL    HW114528   5.790   2.894   2.207
 4543SOL    HW214529   5.922   2.846   2.292
 4544SOL     OW14530   5.056   5.284   6.098
 4544SOL    HW114531   5.110   5.222   6.041
 4544SOL    HW214532   5.018   5.234   6.176
 4545SOL     OW14533   3.548   4.088   6.189
 4545SOL    HW114534   3.502   4.176   6.199
 4545SOL    HW214535   3.615   4.093   6.116
 4546SOL     OW14536   0.444   6.219   6.919
 4546SOL    HW114537   0.465   6.316   6.933
 4546SOL    HW214538   0.440   6.200   6.820
 4547SOL     OW14539   4.598   1.532   2.442
 4547SOL    HW114540   4.546   1.523   2.527
 4547SOL    HW214541   4.557   1.603   2.385
 4548SOL     OW14542   1.012   3.668   4.119
 4548SOL    HW114543   0.989   3.764   4.132
 4548SOL    HW214544   1.054   3.655   4.029
 4549SOL     OW14545   5.822   1.764   2.641
 4549SOL    HW114546   5.774   1.836   2.691
 4549SOL    HW214547   5.782   1.755   2.549
 4550SOL     OW14548   2.288   5.617   4.711
 4550SOL    HW114549   2.204   5.645   4.665
 4550SOL    HW214550   2.275   5.622   4.810
 4551SOL     OW14551   6.601   3.263   0.704
 4551SOL    HW114552   6.687   3.212   0.716
 4551SOL    HW214553   6.621   3.357   0.679
 4552SOL     OW14554   0.137   3.007   4.499
 4552SOL    HW114555   0.186   2.984   4.415
 4552SOL    HW214556   0.049   2.960   4.501
 4553SOL     OW14557   4.869   4.834   6.566
 4553SOL    HW114558   4.787   4.870   6.520
 4553SOL    HW214559   4.884   4.739   6.538
 4554SOL     OW14560   6.703   6.957   3.908
 4554SOL    HW114561   6.685   0.026   3.955
 4554SOL    HW214562   6.660   6.882   3.958
 4555SOL     OW14563   3.727   3.164   6.795
 4555SOL    HW114564   3.765   3.085   6.747
 4555SOL    HW214565   3.633   3.143   6.822
 4556SOL     OW14566   4.672   0.151   5.369
 4556SOL    HW114567   4.702   0.213   5.295
 4556SOL    HW214568   4.722   0.172   5.452
 4557SOL     OW14569   5.451   0.941   4.650
 4557SOL    HW114570   5.396   0.998   4.588
 4557SOL    HW214571   5.538   0.986   4.669
 4558SOL     OW14572   6.417   2.784   5.833
 4558SOL    HW114573   6.416   2.881   5.858
 4558SOL    HW214574   6.339   2.738   5.877
 4559SOL     OW14575   0.929   6.247   1.554
 4559SOL    HW114576   0.892   6.192   1.629
 4559SOL    HW214577   0.871   6.237   1.474
 4560SOL     OW14578   5.582   2.731   2.713
 4560SOL    HW114579   5.640   2.720   2.632
 4560SOL    HW214580   5.598   2.656   2.776
 4561SOL     OW14581   3.452   6.953   6.393
 4561SOL    HW114582   3.369   6.899   6.383
 4561SOL    HW214583   3.459   6.987   6.487
 4562SOL     OW14584   2.543   4.464   5.660
 4562SOL    HW114585   2.509   4.554   5.635
 4562SOL    HW214586   2.514   4.397   5.592
 4563SOL     OW14587   5.925   2.320   6.608
 4563SOL    HW114588   5.937   2.418   6.619
 4563SOL    HW214589   5.908   2.299   6.512
 4564SOL     OW14590   0.967   5.114   0.221
 4564SOL    HW114591   0.871   5.129   0.244
 4564SOL    HW214592   0.990   5.017   0.232
 4565SOL     OW14593   2.672   1.282   3.794
 4565SOL    HW114594   2.749   1.241   3.844
 4565SOL    HW214595   2.589   1.275   3.849
 4566SOL     OW14596   1.537   0.919   0.943
 4566SOL    HW114597   1.544   0.871   1.030
 4566SOL    HW214598   1.607   0.885   0.880
 4567SOL     OW14599   5.516   1.675   0.915
 4567SOL    HW114600   5.613   1.699   0.928
 4567SOL    HW214601   5.493   1.596   0.972
 4568SOL     OW14602   4.296   4.665   4.028
 4568SOL    HW114603   4.211   4.716   4.043
 4568SOL    HW214604   4.298   4.632   3.933
 4569SOL     OW14605   0.644   1.824   3.089
 4569SOL    HW114606   0.620   1.740   3.042
 4569SOL    HW214607   0.561   1.874   3.115
 4570SOL     OW14608   5.562   5.765   4.530
 4570SOL    HW114609   5.660   5.788   4.524
 4570SOL    HW214610   5.508   5.839   4.490
 4571SOL     OW14611   3.694   2.902   4.108
 4571SOL    HW114612   3.597   2.878   4.108
 4571SOL    HW214613   3.741   2.853   4.182
 4572SOL     OW14614   2.060   5.302   1.591
 4572SOL    HW114615   2.059   5.345   1.501
 4572SOL    HW214616   2.074   5.203   1.580
 4573SOL     OW14617   5.565   0.436   1.097
 4573SOL    HW114618   5.486   0.414   1.040
 4573SOL    HW214619   5.535   0.448   1.192
 4574SOL     OW14620   7.000   4.459   1.376
 4574SOL    HW114621   7.010   4.359   1.378
 4574SOL    HW214622   6.905   4.482   1.395
 4575SOL     OW14623   6.444   6.471   2.252
 4575SOL    HW114624   6.446   6.376   2.284
 4575SOL    HW214625   6.355   6.511   2.275
 4576SOL     OW14626   3.284   6.380   4.193
 4576SOL    HW114627   3.263   6.393   4.290
 4576SOL    HW214628   3.215   6.426   4.138
 4577SOL     OW14629   1.980   2.811   3.910
 4577SOL    HW114630   1.986   2.909   3.893
 4577SOL    HW214631   1.886   2.787   3.935
 4578SOL     OW14632   6.871   5.793   4.068
 4578SOL    HW114633   6.881   5.880   4.020
 4578SOL    HW214634   6.960   5.760   4.098
 4579SOL     OW14635   5.115   2.305   4.028
 4579SOL    HW114636   5.090   2.309   3.931
 4579SOL    HW214637   5.151   2.393   4.057
 4580SOL     OW14638   0.565   5.337   0.164
 4580SOL    HW114639   0.502   5.268   0.199
 4580SOL    HW214640   0.513   5.410   0.119
 4581SOL     OW14641   3.254   6.194   4.907
 4581SOL    HW114642   3.275   6.134   4.985
 4581SOL    HW214643   3.165   6.170   4.869
 4582SOL     OW14644   4.908   6.916   3.261
 4582SOL    HW114645   4.947   6.989   3.318
 4582SOL    HW214646   4.907   6.945   3.165
 4583SOL     OW14647   3.737   0.818   5.475
 4583SOL    HW114648   3.831   0.794   5.453
 4583SOL    HW214649   3.678   0.739   5.457
 4584SOL     OW14650   0.769   4.818   5.875
 4584SOL    HW114651   0.807   4.857   5.792
 4584SOL    HW214652   0.669   4.823   5.872
 4585SOL     OW14653   3.485   6.342   2.239
 4585SOL    HW114654   3.397   6.376   2.205
 4585SOL    HW214655   3.482   6.242   2.241
 4586SOL     OW14656   2.922   6.092   1.583
 4586SOL    HW114657   2.886   6.031   1.512
 4586SOL    HW214658   2.904   6.187   1.557
 4587SOL     OW14659   3.354   4.834   0.881
 4587SOL    HW114660   3.450   4.809   0.867
 4587SOL    HW214661   3.322   4.891   0.805
 4588SOL     OW14662   3.510   3.939   5.178
 4588SOL    HW114663   3.443   4.011   5.163
 4588SOL    HW214664   3.463   3.855   5.206
 4589SOL     OW14665   1.318   1.925   3.146
 4589SOL    HW114666   1.320   2.009   3.201
 4589SOL    HW214667   1.412   1.896   3.127
 4590SOL     OW14668   4.098   6.375   3.254
 4590SOL    HW114669   4.003   6.374   3.284
 4590SOL    HW214670   4.155   6.326   3.320
 4591SOL     OW14671   5.776   6.558   5.072
 4591SOL    HW114672   5.756   6.470   5.030
 4591SOL    HW214673   5.825   6.544   5.158
 4592SOL     OW14674   3.518   1.449   5.573
 4592SOL    HW114675   3.454   1.475   5.646
 4592SOL    HW214676   3.489   1.363   5.532
 4593SOL     OW14677   5.068   6.622   1.788
 4593SOL    HW114678   4.992   6.617   1.853
 4593SOL    HW214679   5.125   6.540   1.796
 4594SOL     OW14680   3.944   1.904   2.286
 4594SOL    HW114681   3.915   1.881   2.379
 4594SOL    HW214682   3.916   1.830   2.224
 4595SOL     OW14683   4.479   3.138   5.685
 4595SOL    HW114684   4.518   3.216   5.636
 4595SOL    HW214685   4.381   3.153   5.698
 4596SOL     OW14686   5.148   0.234   2.421
 4596SOL    HW114687   5.160   0.190   2.511
 4596SOL    HW214688   5.052   0.259   2.409
 4597SOL     OW14689   6.552   4.228   5.606
 4597SOL    HW114690   6.578   4.233   5.702
 4597SOL    HW214691   6.569   4.317   5.563
 4598SOL     OW14692   2.816   4.019   0.123
 4598SOL    HW114693   2.847   4.050   0.213
 4598SOL    HW214694   2.885   3.957   0.084
 4599SOL     OW14695   3.145   5.508   0.230
 4599SOL    HW114696   3.219   5.488   0.294
 4599SOL    HW214697   3.113   5.423   0.188
 4600SOL     OW14698   3.206   3.931   1.126
 4600SOL    HW114699   3.203   3.934   1.026
 4600SOL    HW214700   3.209   4.024   1.162
 4601SOL     OW14701   1.906   5.258   4.097
 4601SOL    HW114702   1.860   5.273   4.009
 4601SOL    HW214703   2.000   5.294   4.092
 4602SOL     OW14704   1.716   0.367   1.443
 4602SOL    HW114705   1.646   0.305   1.407
 4602SOL    HW214706   1.673   0.447   1.483
 4603SOL     OW14707   2.956   1.300   1.882
 4603SOL    HW114708   2.920   1.392   1.864
 4603SOL    HW214709   2.966   1.286   1.980
 4604SOL     OW14710   1.155   0.820   2.948
 4604SOL    HW114711   1.192   0.728   2.961
 4604SOL    HW214712   1.230   0.884   2.932
 4605SOL     OW14713   5.082   5.787   5.562
 4605SOL    HW114714   5.012   5.721   5.589
 4605SOL    HW214715   5.161   5.739   5.526
 4606SOL     OW14716   6.502   6.323   4.529
 4606SOL    HW114717   6.538   6.271   4.452
 4606SOL    HW214718   6.405   6.344   4.513
 4607SOL     OW14719   2.552   3.013   0.941
 4607SOL    HW114720   2.621   2.956   0.898
 4607SOL    HW214721   2.579   3.033   1.035
 4608SOL     OW14722   1.327   3.227   5.617
 4608SOL    HW114723   1.390   3.181   5.554
 4608SOL    HW214724   1.256   3.274   5.564
 4609SOL     OW14725   3.018   0.357   0.958
 4609SOL    HW114726   3.004   0.340   0.860
 4609SOL    HW214727   3.114   0.376   0.975
 4610SOL     OW14728   6.617   3.237   6.462
 4610SOL    HW114729   6.557   3.250   6.383
 4610SOL    HW214730   6.712   3.237   6.432
 4611SOL     OW14731   1.628   4.227   6.858
 4611SOL    HW114732   1.531   4.240   6.837
 4611SOL    HW214733   1.639   4.218   6.957
 4612SOL     OW14734   2.070   0.415   6.173
 4612SOL    HW114735   2.052   0.494   6.232
 4612SOL    HW214736   2.157   0.374   6.198
 4613SOL     OW14737   3.390   4.761   1.656
 4613SOL    HW114738   3.459   4.723   1.717
 4613SOL    HW214739   3.406   4.858   1.642
 4614SOL     OW14740   2.466   5.174   6.774
 4614SOL    HW114741   2.427   5.135   6.857
 4614SOL    HW214742   2.562   5.149   6.767
 4615SOL     OW14743   6.334   3.269   6.368
 4615SOL    HW114744   6.327   3.264   6.468
 4615SOL    HW214745   6.247   3.243   6.327
 4616SOL     OW14746   5.637   0.688   0.095
 4616SOL    HW114747   5.713   0.638   0.053
 4616SOL    HW214748   5.559   0.689   0.032
 4617SOL     OW14749   6.720   3.890   1.490
 4617SOL    HW114750   6.660   3.816   1.520
 4617SOL    HW214751   6.792   3.853   1.432
 4618SOL     OW14752   0.584   2.928   6.711
 4618SOL    HW114753   0.564   3.016   6.668
 4618SOL    HW214754   0.500   2.874   6.718
 4619SOL     OW14755   3.927   0.099   3.706
 4619SOL    HW114756   3.828   0.115   3.702
 4619SOL    HW214757   3.946   0.014   3.754
 4620SOL     OW14758   2.372   6.121   6.987
 4620SOL    HW114759   2.420   6.037   7.013
 4620SOL    HW214760   2.436   6.198   6.988
 4621SOL     OW14761   0.077   0.499   5.892
 4621SOL    HW114762   0.070   0.598   5.882
 4621SOL    HW214763   0.173   0.472   5.901
 4622SOL     OW14764   1.837   3.760   0.807
 4622SOL    HW114765   1.870   3.671   0.775
 4622SOL    HW214766   1.826   3.757   0.907
 4623SOL     OW14767   5.758   4.006   2.255
 4623SOL    HW114768   5.661   4.010   2.231
 4623SOL    HW214769   5.781   3.914   2.287
 4624SOL     OW14770   4.700   0.087   6.108
 4624SOL    HW114771   4.728   0.074   6.013
 4624SOL    HW214772   4.699   0.185   6.129
 4625SOL     OW14773   1.308   3.916   6.119
 4625SOL    HW114774   1.373   3.942   6.190
 4625SOL    HW214775   1.358   3.879   6.041
 4626SOL     OW14776   5.605   5.050   1.692
 4626SOL    HW114777   5.534   5.071   1.759
 4626SOL    HW214778   5.578   4.969   1.639
 4627SOL     OW14779   1.389   6.985   5.370
 4627SOL    HW114780   1.462   0.016   5.322
 4627SOL    HW214781   1.305   0.021   5.367
 4628SOL     OW14782   6.384   2.679   1.624
 4628SOL    HW114783   6.483   2.684   1.610
 4628SOL    HW214784   6.343   2.622   1.553
 4629SOL     OW14785   4.494   4.980   4.317
 4629SOL    HW114786   4.500   5.064   4.263
 4629SOL    HW214787   4.576   4.925   4.303
 4630SOL     OW14788   1.838   6.176   2.726
 4630SOL    HW114789   1.833   6.142   2.632
 4630SOL    HW214790   1.817   6.101   2.790
 4631SOL     OW14791   1.559   0.445   2.983
 4631SOL    HW114792   1.538   0.354   3.019
 4631SOL    HW214793   1.649   0.473   3.015
 4632SOL     OW14794   5.724   5.725   3.772
 4632SOL    HW114795   5.640   5.721   3.718
 4632SOL    HW214796   5.700   5.731   3.869
 4633SOL     OW14797   5.588   2.474   5.850
 4633SOL    HW114798   5.527   2.451   5.775
 4633SOL    HW214799   5.535   2.511   5.927
 4634SOL     OW14800   2.701   4.585   0.149
 4634SOL    HW114801   2.611   4.540   0.146
 4634SOL    HW214802   2.760   4.536   0.214
 4635SOL     OW14803   5.169   3.056   1.399
 4635SOL    HW114804   5.175   3.069   1.498
 4635SOL    HW214805   5.125   2.969   1.379
 4636SOL     OW14806   0.707   6.018   1.555
 4636SOL    HW114807   0.763   6.047   1.478
 4636SOL    HW214808   0.762   5.962   1.617
 4637SOL     OW14809   1.206   0.777   4.565
 4637SOL    HW114810   1.250   0.697   4.525
 4637SOL    HW214811   1.107   0.768   4.558
 4638SOL     OW14812   4.320   4.569   5.584
 4638SOL    HW114813   4.305   4.489   5.525
 4638SOL    HW214814   4.410   4.607   5.566
 4639SOL     OW14815   6.772   1.844   5.044
 4639SOL    HW114816   6.762   1.871   4.948
 4639SOL    HW214817   6.704   1.773   5.065
 4640SOL     OW14818   5.981   5.128   2.900
 4640SOL    HW114819   5.988   5.058   2.828
 4640SOL    HW214820   6.007   5.088   2.988
 4641SOL     OW14821   2.761   3.325   5.447
 4641SOL    HW114822   2.671   3.368   5.447
 4641SOL    HW214823   2.757   3.239   5.396
 4642SOL     OW14824   6.143   5.898   3.758
 4642SOL    HW114825   6.043   5.906   3.753
 4642SOL    HW214826   6.179   5.886   3.666
 4643SOL     OW14827   4.450   3.119   1.485
 4643SOL    HW114828   4.447   3.161   1.395
 4643SOL    HW214829   4.532   3.062   1.492
 4644SOL     OW14830   3.704   4.468   5.513
 4644SOL    HW114831   3.640   4.474   5.437
 4644SOL    HW214832   3.653   4.473   5.599
 4645SOL     OW14833   1.827   6.085   4.881
 4645SOL    HW114834   1.886   6.069   4.802
 4645SOL    HW214835   1.732   6.088   4.851
 4646SOL     OW14836   3.219   0.180   1.139
 4646SOL    HW114837   3.132   0.160   1.184
 4646SOL    HW214838   3.270   0.094   1.127
 4647SOL     OW14839   6.728   0.744   5.356
 4647SOL    HW114840   6.654   0.790   5.406
 4647SOL    HW214841   6.786   0.696   5.422
 4648SOL     OW14842   2.284   5.761   3.622
 4648SOL    HW114843   2.223   5.801   3.554
 4648SOL    HW214844   2.269   5.807   3.710
 4649SOL     OW14845   5.773   6.531   5.933
 4649SOL    HW114846   5.864   6.564   5.907
 4649SOL    HW214847   5.717   6.519   5.851
 4650SOL     OW14848   6.643   4.368   1.131
 4650SOL    HW114849   6.651   4.270   1.147
 4650SOL    HW214850   6.634   4.386   1.033
 4651SOL     OW14851   6.056   2.034   1.815
 4651SOL    HW114852   5.995   2.027   1.894
 4651SOL    HW214853   6.150   2.048   1.847
 4652SOL     OW14854   0.302   6.468   5.608
 4652SOL    HW114855   0.371   6.397   5.623
 4652SOL    HW214856   0.346   6.549   5.570
 4653SOL     OW14857   0.217   4.904   6.685
 4653SOL    HW114858   0.235   4.983   6.625
 4653SOL    HW214859   0.282   4.832   6.664
 4654SOL     OW14860   1.230   1.830   6.429
 4654SOL    HW114861   1.176   1.908   6.462
 4654SOL    HW214862   1.294   1.862   6.359
 4655SOL     OW14863   6.978   5.382   3.292
 4655SOL    HW114864   6.915   5.341   3.359
 4655SOL    HW214865   0.054   5.367   3.322
 4656SOL     OW14866   2.244   6.580   3.248
 4656SOL    HW114867   2.211   6.542   3.335
 4656SOL    HW214868   2.344   6.582   3.249
 4657SOL     OW14869   6.034   0.824   6.229
 4657SOL    HW114870   6.010   0.801   6.134
 4657SOL    HW214871   5.967   0.783   6.291
 4658SOL     OW14872   4.794   0.995   4.038
 4658SOL    HW114873   4.835   0.904   4.035
 4658SOL    HW214874   4.695   0.988   4.038
 4659SOL     OW14875   1.602   2.547   4.231
 4659SOL    HW114876   1.657   2.472   4.195
 4659SOL    HW214877   1.656   2.600   4.296
 4660SOL     OW14878   6.370   1.429   5.125
 4660SOL    HW114879   6.326   1.427   5.035
 4660SOL    HW214880   6.418   1.516   5.136
 4661SOL     OW14881   3.860   2.948   2.763
 4661SOL    HW114882   3.924   2.873   2.780
 4661SOL    HW214883   3.788   2.947   2.832
 4662SOL     OW14884   6.087   0.014   3.764
 4662SOL    HW114885   6.186   0.001   3.756
 4662SOL    HW214886   6.062   0.020   3.861
 4663SOL     OW14887   0.552   2.825   2.104
 4663SOL    HW114888   0.572   2.809   2.007
 4663SOL    HW214889   0.560   2.739   2.154
 4664SOL     OW14890   3.231   4.157   0.460
 4664SOL    HW114891   3.222   4.085   0.392
 4664SOL    HW214892   3.278   4.236   0.420
 4665SOL     OW14893   5.667   0.721   6.306
 4665SOL    HW114894   5.655   0.700   6.209
 4665SOL    HW214895   5.738   0.663   6.345
 4666SOL     OW14896   1.879   1.942   0.630
 4666SOL    HW114897   1.949   1.956   0.700
 4666SOL    HW214898   1.915   1.967   0.540
 4667SOL     OW14899   0.623   5.308   4.486
 4667SOL    HW114900   0.648   5.386   4.429
 4667SOL    HW214901   0.560   5.248   4.436
 4668SOL     OW14902   5.290   0.556   5.589
 4668SOL    HW114903   5.356   0.630   5.587
 4668SOL    HW214904   5.199   0.592   5.564
 4669SOL     OW14905   2.139   1.513   2.283
 4669SOL    HW114906   2.056   1.532   2.336
 4669SOL    HW214907   2.116   1.514   2.185
 4670SOL     OW14908   2.763   1.479   4.045
 4670SOL    HW114909   2.719   1.475   4.135
 4670SOL    HW214910   2.750   1.392   3.997
 4671SOL     OW14911   6.212   2.219   2.205
 4671SOL    HW114912   6.282   2.233   2.275
 4671SOL    HW214913   6.122   2.231   2.246
 4672SOL     OW14914   2.599   2.810   5.313
 4672SOL    HW114915   2.568   2.881   5.250
 4672SOL    HW214916   2.697   2.821   5.330
 4673SOL     OW14917   4.705   0.621   2.387
 4673SOL    HW114918   4.664   0.549   2.330
 4673SOL    HW214919   4.686   0.710   2.346
 4674SOL     OW14920   4.853   6.487   5.061
 4674SOL    HW114921   4.806   6.407   5.024
 4674SOL    HW214922   4.913   6.459   5.136
 4675SOL     OW14923   1.182   4.712   0.142
 4675SOL    HW114924   1.193   4.811   0.151
 4675SOL    HW214925   1.246   4.678   0.073
 4676SOL     OW14926   0.662   4.678   3.806
 4676SOL    HW114927   0.716   4.595   3.790
 4676SOL    HW214928   0.710   4.738   3.870
 4677SOL     OW14929   1.459   3.311   0.314
 4677SOL    HW114930   1.427   3.248   0.385
 4677SOL    HW214931   1.492   3.259   0.236
 4678SOL     OW14932   0.748   4.023   1.615
 4678SOL    HW114933   0.797   4.013   1.529
 4678SOL    HW214934   0.651   4.007   1.600
 4679SOL     OW14935   4.143   0.084   2.338
 4679SOL    HW114936   4.201   0.105   2.416
 4679SOL    HW214937   4.100   7.013   2.351
 4680SOL     OW14938   1.927   0.460   6.530
 4680SOL    HW114939   1.970   0.508   6.453
 4680SOL    HW214940   1.906   0.366   6.502
 4681SOL     OW14941   5.182   5.845   2.339
 4681SOL    HW114942   5.269   5.833   2.291
 4681SOL    HW214943   5.135   5.757   2.344
 4682SOL     OW14944   3.366   3.840   6.140
 4682SOL    HW114945   3.423   3.797   6.070
 4682SOL    HW214946   3.387   3.937   6.146
 4683SOL     OW14947   6.658   4.947   3.511
 4683SOL    HW114948   6.746   4.960   3.557
 4683SOL    HW214949   6.604   4.878   3.560
 4684SOL     OW14950   5.487   6.981   6.055
 4684SOL    HW114951   5.575   6.961   6.012
 4684SOL    HW214952   5.463   0.059   6.039
 4685SOL     OW14953   2.982   3.414   4.505
 4685SOL    HW114954   2.936   3.500   4.530
 4685SOL    HW214955   2.951   3.385   4.414
 4686SOL     OW14956   1.761   0.037   6.984
 4686SOL    HW114957   1.834   0.089   0.011
 4686SOL    HW214958   1.681   0.096   6.973
 4687SOL     OW14959   1.760   0.782   2.688
 4687SOL    HW114960   1.791   0.783   2.593
 4687SOL    HW214961   1.668   0.744   2.693
 4688SOL     OW14962   5.123   2.743   5.293
 4688SOL    HW114963   5.196   2.785   5.240
 4688SOL    HW214964   5.061   2.814   5.328
 4689SOL     OW14965   6.906   1.206   0.794
 4689SOL    HW114966   6.840   1.175   0.727
 4689SOL    HW214967   6.916   1.305   0.788
 4690SOL     OW14968   2.929   2.905   0.937
 4690SOL    HW114969   2.867   2.880   0.863
 4690SOL    HW214970   2.923   2.836   1.009
 4691SOL     OW14971   6.399   3.454   1.588
 4691SOL    HW114972   6.351   3.377   1.630
 4691SOL    HW214973   6.333   3.525   1.565
 4692SOL     OW14974   4.956   2.732   2.426
 4692SOL    HW114975   4.885   2.783   2.378
 4692SOL    HW214976   4.955   2.636   2.396
 4693SOL     OW14977   0.686   0.090   2.386
 4693SOL    HW114978   0.724   0.178   2.356
 4693SOL    HW214979   0.747   0.050   2.455
 4694SOL     OW14980   2.029   0.015   6.229
 4694SOL    HW114981   2.086   0.080   6.280
 4694SOL    HW214982   1.957   0.064   6.180
 4695SOL     OW14983   2.115   4.480   2.231
 4695SOL    HW114984   2.062   4.484   2.147
 4695SOL    HW214985   2.108   4.567   2.280
 4696SOL     OW14986   1.480   6.374   6.167
 4696SOL    HW114987   1.437   6.307   6.228
 4696SOL    HW214988   1.576   6.349   6.152
 4697SOL     OW14989   4.494   5.537   1.665
 4697SOL    HW114990   4.576   5.570   1.712
 4697SOL    HW214991   4.477   5.442   1.691
 4698SOL     OW14992   5.712   0.828   4.811
 4698SOL    HW114993   5.779   0.846   4.739
 4698SOL    HW214994   5.685   0.915   4.853
 4699SOL     OW14995   0.796   0.773   2.380
 4699SOL    HW114996   0.857   0.785   2.302
 4699SOL    HW214997   0.726   0.845   2.379
 4700SOL     OW14998   6.289   1.660   2.956
 4700SOL    HW114999   6.348   1.684   2.879
 4700SOL    HW215000   6.321   1.708   3.038
 4701SOL     OW15001   3.089   2.424   1.690
 4701SOL    HW115002   3.017   2.417   1.759
 4701SOL    HW215003   3.150   2.499   1.714
 4702SOL     OW15004   5.978   5.140   0.471
 4702SOL    HW115005   6.051   5.208   0.466
 4702SOL    HW215006   5.991   5.084   0.553
 4703SOL     OW15007   0.364   5.283   4.175
 4703SOL    HW115008   0.280   5.228   4.167
 4703SOL    HW215009   0.432   5.231   4.226
 4704SOL     OW15010   1.842   4.751   4.426
 4704SOL    HW115011   1.881   4.687   4.360
 4704SOL    HW215012   1.912   4.817   4.454
 4705SOL     OW15013   3.437   2.050   1.962
 4705SOL    HW115014   3.533   2.076   1.974
 4705SOL    HW215015   3.412   2.057   1.866
 4706SOL     OW15016   2.300   1.016   0.903
 4706SOL    HW115017   2.393   1.020   0.940
 4706SOL    HW215018   2.234   1.022   0.979
 4707SOL     OW15019   1.446   5.512   1.958
 4707SOL    HW115020   1.545   5.503   1.975
 4707SOL    HW215021   1.432   5.575   1.881
 4708SOL     OW15022   2.121   3.232   5.906
 4708SOL    HW115023   2.144   3.248   5.809
 4708SOL    HW215024   2.193   3.271   5.963
 4709SOL     OW15025   5.694   4.096   5.705
 4709SOL    HW115026   5.640   4.016   5.678
 4709SOL    HW215027   5.647   4.144   5.779
 4710SOL     OW15028   6.183   5.823   4.980
 4710SOL    HW115029   6.256   5.861   4.924
 4710SOL    HW215030   6.219   5.803   5.072
 4711SOL     OW15031   5.152   4.112   2.195
 4711SOL    HW115032   5.114   4.113   2.102
 4711SOL    HW215033   5.213   4.190   2.206
 4712SOL     OW15034   3.721   4.166   5.968
 4712SOL    HW115035   3.766   4.255   5.968
 4712SOL    HW215036   3.659   4.159   5.890
 4713SOL     OW15037   5.679   4.285   0.659
 4713SOL    HW115038   5.679   4.385   0.662
 4713SOL    HW215039   5.593   4.251   0.696
 4714SOL     OW15040   4.343   2.404   6.707
 4714SOL    HW115041   4.301   2.347   6.637
 4714SOL    HW215042   4.272   2.451   6.760
 4715SOL     OW15043   6.562   1.542   2.006
 4715SOL    HW115044   6.540   1.627   2.053
 4715SOL    HW215045   6.578   1.470   2.074
 4716SOL     OW15046   3.247   4.479   5.589
 4716SOL    HW115047   3.219   4.495   5.494
 4716SOL    HW215048   3.292   4.561   5.624
 4717SOL     OW15049   2.054   5.059   5.670
 4717SOL    HW115050   1.998   4.977   5.662
 4717SOL    HW215051   2.131   5.042   5.732
 4718SOL     OW15052   4.770   4.038   1.876
 4718SOL    HW115053   4.752   4.130   1.841
 4718SOL    HW215054   4.766   3.973   1.801
 4719SOL     OW15055   6.486   4.735   3.688
 4719SOL    HW115056   6.505   4.677   3.609
 4719SOL    HW215057   6.495   4.681   3.772
 4720SOL     OW15058   2.123   2.527   6.625
 4720SOL    HW115059   2.113   2.625   6.605
 4720SOL    HW215060   2.111   2.475   6.540
 4721SOL     OW15061   0.746   2.759   2.963
 4721SOL    HW115062   0.838   2.798   2.972
 4721SOL    HW215063   0.748   2.686   2.894
 4722SOL     OW15064   1.100   5.299   6.585
 4722SOL    HW115065   1.060   5.224   6.638
 4722SOL    HW215066   1.081   5.286   6.488
 4723SOL     OW15067   3.017   4.796   6.683
 4723SOL    HW115068   2.991   4.852   6.762
 4723SOL    HW215069   2.996   4.700   6.701
 4724SOL     OW15070   0.504   6.977   4.112
 4724SOL    HW115071   0.497   0.056   4.085
 4724SOL    HW215072   0.449   6.921   4.050
 4725SOL     OW15073   6.215   4.671   1.242
 4725SOL    HW115074   6.255   4.744   1.298
 4725SOL    HW215075   6.269   4.587   1.252
 4726SOL     OW15076   2.133   2.905   5.659
 4726SOL    HW115077   2.135   2.950   5.570
 4726SOL    HW215078   2.227   2.891   5.690
 4727SOL     OW15079   6.472   4.797   1.272
 4727SOL    HW115080   6.437   4.885   1.238
 4727SOL    HW215081   6.545   4.766   1.212
 4728SOL     OW15082   5.293   1.566   3.515
 4728SOL    HW115083   5.289   1.666   3.515
 4728SOL    HW215084   5.224   1.530   3.453
 4729SOL     OW15085   5.833   1.181   2.242
 4729SOL    HW115086   5.818   1.096   2.192
 4729SOL    HW215087   5.871   1.160   2.332
 4730SOL     OW15088   3.723   0.601   3.261
 4730SOL    HW115089   3.781   0.550   3.324
 4730SOL    HW215090   3.627   0.594   3.289
 4731SOL     OW15091   3.104   0.100   1.407
 4731SOL    HW115092   3.128   0.005   1.423
 4731SOL    HW215093   3.009   0.106   1.378
 4732SOL     OW15094   0.023   5.300   4.912
 4732SOL    HW115095   0.012   5.325   5.008
 4732SOL    HW215096   6.955   5.262   4.878
 4733SOL     OW15097   1.328   4.111   2.329
 4733SOL    HW115098   1.347   4.208   2.344
 4733SOL    HW215099   1.412   4.064   2.304
 4734SOL     OW15100   4.796   4.215   6.800
 4734SOL    HW115101   4.761   4.218   6.706
 4734SOL    HW215102   4.796   4.121   6.833
 4735SOL     OW15103   0.229   0.674   4.810
 4735SOL    HW115104   0.218   0.733   4.730
 4735SOL    HW215105   0.143   0.668   4.859
 4736SOL     OW15106   6.390   0.948   3.889
 4736SOL    HW115107   6.355   1.035   3.855
 4736SOL    HW215108   6.487   0.958   3.913
 4737SOL     OW15109   2.182   5.279   0.479
 4737SOL    HW115110   2.123   5.351   0.442
 4737SOL    HW215111   2.126   5.203   0.511
 4738SOL     OW15112   0.669   5.554   4.348
 4738SOL    HW115113   0.597   5.622   4.336
 4738SOL    HW215114   0.750   5.598   4.388
 4739SOL     OW15115   5.816   3.579   3.098
 4739SOL    HW115116   5.801   3.480   3.102
 4739SOL    HW215117   5.900   3.602   3.147
 4740SOL     OW15118   1.729   6.713   0.716
 4740SOL    HW115119   1.782   6.747   0.794
 4740SOL    HW215120   1.662   6.782   0.688
 4741SOL     OW15121   5.604   4.501   0.899
 4741SOL    HW115122   5.550   4.477   0.980
 4741SOL    HW215123   5.544   4.522   0.823
 4742SOL     OW15124   2.128   5.534   2.371
 4742SOL    HW115125   2.085   5.614   2.413
 4742SOL    HW215126   2.186   5.488   2.438
 4743SOL     OW15127   2.623   3.861   0.914
 4743SOL    HW115128   2.566   3.930   0.870
 4743SOL    HW215129   2.714   3.861   0.872
 4744SOL     OW15130   2.615   2.078   5.109
 4744SOL    HW115131   2.636   2.053   5.204
 4744SOL    HW215132   2.575   1.999   5.062
 4745SOL     OW15133   4.304   5.472   4.798
 4745SOL    HW115134   4.271   5.507   4.710
 4745SOL    HW215135   4.274   5.533   4.871
 4746SOL     OW15136   5.437   1.390   1.522
 4746SOL    HW115137   5.475   1.474   1.561
 4746SOL    HW215138   5.456   1.388   1.424
 4747SOL     OW15139   0.859   3.078   2.441
 4747SOL    HW115140   0.781   3.101   2.382
 4747SOL    HW215141   0.894   2.988   2.416
 4748SOL     OW15142   2.240   6.851   0.739
 4748SOL    HW115143   2.155   6.798   0.751
 4748SOL    HW215144   2.217   6.946   0.719
 4749SOL     OW15145   3.680   0.448   0.413
 4749SOL    HW115146   3.734   0.524   0.451
 4749SOL    HW215147   3.629   0.403   0.486
 4750SOL     OW15148   0.802   1.743   4.650
 4750SOL    HW115149   0.730   1.793   4.698
 4750SOL    HW215150   0.819   1.786   4.561
 4751SOL     OW15151   1.056   3.670   6.229
 4751SOL    HW115152   1.148   3.632   6.219
 4751SOL    HW215153   0.989   3.598   6.211
 4752SOL     OW15154   2.607   6.088   1.215
 4752SOL    HW115155   2.588   6.096   1.313
 4752SOL    HW215156   2.706   6.082   1.201
 4753SOL     OW15157   0.623   0.106   6.351
 4753SOL    HW115158   0.527   0.126   6.368
 4753SOL    HW215159   0.633   0.013   6.318
 4754SOL     OW15160   1.232   0.991   6.013
 4754SOL    HW115161   1.180   1.059   5.962
 4754SOL    HW215162   1.221   0.901   5.969
 4755SOL     OW15163   2.617   0.140   2.397
 4755SOL    HW115164   2.658   0.055   2.364
 4755SOL    HW215165   2.526   0.122   2.434
 4756SOL     OW15166   5.521   1.775   1.474
 4756SOL    HW115167   5.441   1.793   1.532
 4756SOL    HW215168   5.570   1.696   1.509
 4757SOL     OW15169   2.474   2.020   0.889
 4757SOL    HW115170   2.407   1.978   0.829
 4757SOL    HW215171   2.515   1.950   0.947
 4758SOL     OW15172   5.955   3.317   6.026
 4758SOL    HW115173   6.052   3.292   6.023
 4758SOL    HW215174   5.946   3.416   6.020
 4759SOL     OW15175   6.232   4.065   6.416
 4759SOL    HW115176   6.246   4.055   6.318
 4759SOL    HW215177   6.150   4.014   6.443
 4760SOL     OW15178   2.076   2.809   0.204
 4760SOL    HW115179   2.121   2.721   0.190
 4760SOL    HW215180   2.137   2.883   0.177
 4761SOL     OW15181   1.844   5.709   6.423
 4761SOL    HW115182   1.806   5.683   6.512
 4761SOL    HW215183   1.943   5.713   6.428
 4762SOL     OW15184   3.691   7.012   2.302
 4762SOL    HW115185   3.636   0.076   2.315
 4762SOL    HW215186   3.653   6.957   2.227
 4763SOL     OW15187   5.817   5.914   5.400
 4763SOL    HW115188   5.785   5.985   5.463
 4763SOL    HW215189   5.751   5.904   5.325
 4764SOL     OW15190   3.814   3.591   4.131
 4764SOL    HW115191   3.852   3.679   4.100
 4764SOL    HW215192   3.802   3.531   4.053
 4765SOL     OW15193   6.158   5.047   6.473
 4765SOL    HW115194   6.141   5.139   6.508
 4765SOL    HW215195   6.229   5.051   6.402
 4766SOL     OW15196   3.166   0.603   3.117
 4766SOL    HW115197   3.188   0.647   3.030
 4766SOL    HW215198   3.129   0.671   3.180
 4767SOL     OW15199   4.212   0.148   0.052
 4767SOL    HW115200   4.228   0.113   6.977
 4767SOL    HW215201   4.203   0.247   0.049
 4768SOL     OW15202   1.729   0.917   5.394
 4768SOL    HW115203   1.718   0.839   5.457
 4768SOL    HW215204   1.817   0.909   5.348
 4769SOL     OW15205   4.971   1.220   1.751
 4769SOL    HW115206   5.070   1.205   1.746
 4769SOL    HW215207   4.924   1.146   1.702
 4770SOL     OW15208   2.013   0.581   4.235
 4770SOL    HW115209   2.081   0.607   4.166
 4770SOL    HW215210   1.935   0.643   4.230
 4771SOL     OW15211   4.181   4.119   5.354
 4771SOL    HW115212   4.222   4.210   5.351
 4771SOL    HW215213   4.253   4.050   5.342
 4772SOL     OW15214   2.598   2.452   7.014
 4772SOL    HW115215   2.551   2.483   0.079
 4772SOL    HW215216   2.532   2.443   6.939
 4773SOL     OW15217   0.252   5.082   4.688
 4773SOL    HW115218   0.158   5.091   4.656
 4773SOL    HW215219   0.253   5.087   4.788
 4774SOL     OW15220   1.360   4.118   6.976
 4774SOL    HW115221   1.288   4.048   6.973
 4774SOL    HW215222   1.384   4.144   6.882
 4775SOL     OW15223   1.999   2.102   2.298
 4775SOL    HW115224   2.092   2.118   2.267
 4775SOL    HW215225   2.001   2.064   2.391
 4776SOL     OW15226   4.401   4.877   2.367
 4776SOL    HW115227   4.413   4.973   2.392
 4776SOL    HW215228   4.479   4.824   2.398
 4777SOL     OW15229   2.525   3.792   1.558
 4777SOL    HW115230   2.614   3.747   1.572
 4777SOL    HW215231   2.489   3.765   1.469
 4778SOL     OW15232   4.923   3.283   2.949
 4778SOL    HW115233   4.944   3.329   2.863
 4778SOL    HW215234   4.912   3.351   3.021
 4779SOL     OW15235   4.809   1.471   2.807
 4779SOL    HW115236   4.817   1.413   2.888
 4779SOL    HW215237   4.719   1.459   2.765
 4780SOL     OW15238   1.907   1.155   5.252
 4780SOL    HW115239   1.908   1.191   5.345
 4780SOL    HW215240   1.956   1.068   5.249
 4781SOL     OW15241   1.820   5.531   2.749
 4781SOL    HW115242   1.868   5.613   2.780
 4781SOL    HW215243   1.754   5.502   2.818
 4782SOL     OW15244   5.956   5.864   0.192
 4782SOL    HW115245   5.864   5.825   0.201
 4782SOL    HW215246   5.985   5.902   0.280
 4783SOL     OW15247   6.135   4.280   2.710
 4783SOL    HW115248   6.131   4.238   2.801
 4783SOL    HW215249   6.052   4.259   2.660
 4784SOL     OW15250   4.950   4.832   5.385
 4784SOL    HW115251   4.988   4.742   5.405
 4784SOL    HW215252   5.008   4.878   5.318
 4785SOL     OW15253   5.713   6.600   0.592
 4785SOL    HW115254   5.802   6.597   0.638
 4785SOL    HW215255   5.726   6.583   0.494
 4786SOL     OW15256   1.232   3.317   2.214
 4786SOL    HW115257   1.207   3.239   2.157
 4786SOL    HW215258   1.160   3.334   2.280
 4787SOL     OW15259   4.673   2.230   3.385
 4787SOL    HW115260   4.613   2.310   3.374
 4787SOL    HW215261   4.700   2.222   3.481
 4788SOL     OW15262   2.339   0.129   5.250
 4788SOL    HW115263   2.396   0.130   5.168
 4788SOL    HW215264   2.267   0.061   5.240
 4789SOL     OW15265   5.373   5.961   0.377
 4789SOL    HW115266   5.292   5.910   0.408
 4789SOL    HW215267   5.454   5.923   0.421
 4790SOL     OW15268   5.387   6.998   6.707
 4790SOL    HW115269   5.414   6.966   6.616
 4790SOL    HW215270   5.334   6.927   6.753
 4791SOL     OW15271   4.823   1.860   3.603
 4791SOL    HW115272   4.736   1.816   3.582
 4791SOL    HW215273   4.862   1.820   3.686
 4792SOL     OW15274   2.948   2.683   1.085
 4792SOL    HW115275   3.031   2.694   1.140
 4792SOL    HW215276   2.876   2.642   1.140
 4793SOL     OW15277   0.843   0.110   6.975
 4793SOL    HW115278   0.875   0.205   6.976
 4793SOL    HW215279   0.769   0.101   6.908
 4794SOL     OW15280   5.226   1.069   1.865
 4794SOL    HW115281   5.223   0.970   1.868
 4794SOL    HW215282   5.278   1.098   1.784
 4795SOL     OW15283   6.259   3.074   4.319
 4795SOL    HW115284   6.356   3.074   4.342
 4795SOL    HW215285   6.241   3.003   4.250
 4796SOL     OW15286   5.857   3.615   0.514
 4796SOL    HW115287   5.796   3.677   0.565
 4796SOL    HW215288   5.806   3.532   0.489
 4797SOL     OW15289   0.990   5.258   4.486
 4797SOL    HW115290   0.954   5.189   4.424
 4797SOL    HW215291   0.937   5.256   4.572
 4798SOL     OW15292   6.819   4.912   5.875
 4798SOL    HW115293   6.726   4.922   5.910
 4798SOL    HW215294   6.880   4.977   5.921
 4799SOL     OW15295   4.755   1.244   4.520
 4799SOL    HW115296   4.697   1.271   4.596
 4799SOL    HW215297   4.709   1.175   4.465
 4800SOL     OW15298   1.973   3.022   4.195
 4800SOL    HW115299   1.987   2.924   4.211
 4800SOL    HW215300   1.927   3.062   4.274
 4801SOL     OW15301   6.952   2.557   0.624
 4801SOL    HW115302   6.898   2.564   0.707
 4801SOL    HW215303   0.002   2.630   0.621
 4802SOL     OW15304   1.772   0.076   2.023
 4802SOL    HW115305   1.767   0.128   2.108
 4802SOL    HW215306   1.865   0.082   1.986
 4803SOL     OW15307   1.469   0.548   1.013
 4803SOL    HW115308   1.492   0.637   1.053
 4803SOL    HW215309   1.440   0.562   0.918
 4804SOL     OW15310   4.259   6.080   6.999
 4804SOL    HW115311   4.267   6.032   0.069
 4804SOL    HW215312   4.350   6.090   6.959
 4805SOL     OW15313   0.217   0.485   1.434
 4805SOL    HW115314   0.234   0.519   1.342
 4805SOL    HW215315   0.277   0.532   1.498
 4806SOL     OW15316   0.133   2.448   3.737
 4806SOL    HW115317   0.155   2.427   3.642
 4806SOL    HW215318   0.036   2.470   3.745
 4807SOL     OW15319   0.898   6.695   2.479
 4807SOL    HW115320   0.971   6.648   2.528
 4807SOL    HW215321   0.845   6.629   2.426
 4808SOL     OW15322   5.419   2.896   0.457
 4808SOL    HW115323   5.334   2.925   0.412
 4808SOL    HW215324   5.399   2.822   0.521
 4809SOL     OW15325   4.701   6.796   0.349
 4809SOL    HW115326   4.617   6.801   0.296
 4809SOL    HW215327   4.747   6.885   0.347
 4810SOL     OW15328   1.855   6.442   1.065
 4810SOL    HW115329   1.877   6.372   1.132
 4810SOL    HW215330   1.801   6.514   1.108
 4811SOL     OW15331   5.277   3.879   3.699
 4811SOL    HW115332   5.263   3.977   3.683
 4811SOL    HW215333   5.375   3.858   3.689
 4812SOL     OW15334   6.229   5.081   3.995
 4812SOL    HW115335   6.282   5.003   4.029
 4812SOL    HW215336   6.268   5.113   3.909
 4813SOL     OW15337   5.667   3.043   3.095
 4813SOL    HW115338   5.618   2.998   3.020
 4813SOL    HW215339   5.762   3.011   3.096
 4814SOL     OW15340   6.319   2.947   0.825
 4814SOL    HW115341   6.350   2.884   0.897
 4814SOL    HW215342   6.327   2.902   0.736
 4815SOL     OW15343   4.782   0.711   3.185
 4815SOL    HW115344   4.818   0.786   3.130
 4815SOL    HW215345   4.740   0.747   3.268
 4816SOL     OW15346   4.916   5.262   3.463
 4816SOL    HW115347   4.925   5.350   3.416
 4816SOL    HW215348   4.823   5.227   3.453
 4817SOL     OW15349   6.131   1.441   6.955
 4817SOL    HW115350   6.131   1.344   6.930
 4817SOL    HW215351   6.084   1.453   0.025
 4818SOL     OW15352   0.177   5.653   3.556
 4818SOL    HW115353   0.251   5.660   3.622
 4818SOL    HW215354   0.119   5.734   3.561
 4819SOL     OW15355   1.952   3.510   0.802
 4819SOL    HW115356   1.899   3.463   0.731
 4819SOL    HW215357   2.020   3.448   0.841
 4820SOL     OW15358   0.148   3.248   2.399
 4820SOL    HW115359   0.120   3.155   2.375
 4820SOL    HW215360   0.223   3.244   2.465
 4821SOL     OW15361   0.297   5.636   3.835
 4821SOL    HW115362   0.217   5.603   3.886
 4821SOL    HW215363   0.381   5.608   3.882
 4822SOL     OW15364   2.281   4.901   4.196
 4822SOL    HW115365   2.319   4.928   4.284
 4822SOL    HW215366   2.306   4.969   4.127
 4823SOL     OW15367   1.676   2.753   0.477
 4823SOL    HW115368   1.623   2.751   0.393
 4823SOL    HW215369   1.763   2.799   0.461
 4824SOL     OW15370   6.367   1.762   0.539
 4824SOL    HW115371   6.268   1.770   0.548
 4824SOL    HW215372   6.396   1.670   0.562
 4825SOL     OW15373   1.205   6.689   3.753
 4825SOL    HW115374   1.251   6.626   3.691
 4825SOL    HW215375   1.150   6.754   3.700
 4826SOL     OW15376   4.322   6.075   0.991
 4826SOL    HW115377   4.277   6.159   0.963
 4826SOL    HW215378   4.279   6.041   1.076
 4827SOL     OW15379   6.078   1.031   0.595
 4827SOL    HW115380   6.165   1.048   0.549
 4827SOL    HW215381   6.029   0.958   0.548
 4828SOL     OW15382   5.111   0.813   5.877
 4828SOL    HW115383   5.073   0.721   5.867
 4828SOL    HW215384   5.052   0.867   5.937
 4829SOL     OW15385   4.339   6.288   5.386
 4829SOL    HW115386   4.428   6.327   5.408
 4829SOL    HW215387   4.306   6.236   5.465
 4830SOL     OW15388   1.504   6.459   3.898
 4830SOL    HW115389   1.508   6.558   3.881
 4830SOL    HW215390   1.419   6.437   3.945
 4831SOL     OW15391   3.808   4.421   5.887
 4831SOL    HW115392   3.851   4.508   5.911
 4831SOL    HW215393   3.718   4.438   5.848
 4832SOL     OW15394   4.021   3.652   4.861
 4832SOL    HW115395   4.023   3.628   4.764
 4832SOL    HW215396   4.009   3.568   4.915
 4833SOL     OW15397   6.048   2.638   5.386
 4833SOL    HW115398   6.007   2.580   5.457
 4833SOL    HW215399   6.098   2.713   5.430
 4834SOL     OW15400   0.279   5.741   1.386
 4834SOL    HW115401   0.287   5.660   1.329
 4834SOL    HW215402   0.354   5.742   1.453
 4835SOL     OW15403   6.983   3.368   6.016
 4835SOL    HW115404   6.998   3.402   6.109
 4835SOL    HW215405   0.053   3.367   5.967
 4836SOL     OW15406   4.648   1.805   5.628
 4836SOL    HW115407   4.582   1.730   5.623
 4836SOL    HW215408   4.622   1.877   5.563
 4837SOL     OW15409   1.357   3.505   4.533
 4837SOL    HW115410   1.447   3.465   4.520
 4837SOL    HW215411   1.305   3.450   4.598
 4838SOL     OW15412   1.681   3.742   6.220
 4838SOL    HW115413   1.773   3.756   6.183
 4838SOL    HW215414   1.682   3.663   6.282
 4839SOL     OW15415   2.898   1.305   2.167
 4839SOL    HW115416   2.819   1.260   2.126
 4839SOL    HW215417   2.869   1.359   2.246
 4840SOL     OW15418   5.222   3.081   4.748
 4840SOL    HW115419   5.139   3.090   4.803
 4840SOL    HW215420   5.299   3.055   4.807
 4841SOL     OW15421   2.968   5.872   3.206
 4841SOL    HW115422   2.953   5.917   3.294
 4841SOL    HW215423   2.926   5.926   3.133
 4842SOL     OW15424   4.180   5.834   3.814
 4842SOL    HW115425   4.132   5.882   3.741
 4842SOL    HW215426   4.278   5.828   3.791
 4843SOL     OW15427   5.786   0.942   0.852
 4843SOL    HW115428   5.821   0.879   0.922
 4843SOL    HW215429   5.840   0.932   0.768
 4844SOL     OW15430   1.595   4.938   6.813
 4844SOL    HW115431   1.557   5.021   6.853
 4844SOL    HW215432   1.608   4.951   6.715
 4845SOL     OW15433   4.896   3.961   4.963
 4845SOL    HW115434   4.915   3.867   4.937
 4845SOL    HW215435   4.913   3.973   5.061
 4846SOL     OW15436   6.781   4.114   4.907
 4846SOL    HW115437   6.838   4.040   4.942
 4846SOL    HW215438   6.697   4.076   4.868
 4847SOL     OW15439   3.259   0.103   0.554
 4847SOL    HW115440   3.194   0.069   0.622
 4847SOL    HW215441   3.312   0.027   0.518
 4848SOL     OW15442   4.652   1.732   4.059
 4848SOL    HW115443   4.657   1.831   4.065
 4848SOL    HW215444   4.731   1.692   4.105
 4849SOL     OW15445   1.495   5.917   1.981
 4849SOL    HW115446   1.571   5.982   1.991
 4849SOL    HW215447   1.530   5.824   1.989
 4850SOL     OW15448   3.349   6.392   1.959
 4850SOL    HW115449   3.284   6.400   1.883
 4850SOL    HW215450   3.405   6.475   1.964
 4851SOL     OW15451   4.218   4.619   6.920
 4851SOL    HW115452   4.301   4.608   6.975
 4851SOL    HW215453   4.235   4.584   6.828
 4852SOL     OW15454   5.019   4.747   5.973
 4852SOL    HW115455   5.041   4.692   6.053
 4852SOL    HW215456   5.002   4.687   5.895
 4853SOL     OW15457   4.064   0.469   2.794
 4853SOL    HW115458   4.111   0.552   2.824
 4853SOL    HW215459   3.969   0.491   2.770
 4854SOL     OW15460   4.347   6.768   2.502
 4854SOL    HW115461   4.398   6.709   2.565
 4854SOL    HW215462   4.255   6.732   2.489
 4855SOL     OW15463   4.154   4.778   5.663
 4855SOL    HW115464   4.057   4.752   5.663
 4855SOL    HW215465   4.209   4.703   5.627
 4856SOL     OW15466   0.607   2.367   2.636
 4856SOL    HW115467   0.677   2.408   2.695
 4856SOL    HW215468   0.650   2.305   2.571
 4857SOL     OW15469   1.640   2.059   5.800
 4857SOL    HW115470   1.545   2.043   5.828
 4857SOL    HW215471   1.667   1.989   5.735
 4858SOL     OW15472   1.560   5.275   4.792
 4858SOL    HW115473   1.592   5.290   4.698
 4858SOL    HW215474   1.471   5.229   4.790
 4859SOL     OW15475   6.620   5.256   3.294
 4859SOL    HW115476   6.582   5.164   3.307
 4859SOL    HW215477   6.545   5.322   3.291
 4860SOL     OW15478   4.321   5.330   1.621
 4860SOL    HW115479   4.375   5.264   1.568
 4860SOL    HW215480   4.249   5.368   1.562
 4861SOL     OW15481   6.333   5.204   5.192
 4861SOL    HW115482   6.384   5.149   5.257
 4861SOL    HW215483   6.332   5.299   5.222
 4862SOL     OW15484   2.028   5.680   4.618
 4862SOL    HW115485   1.965   5.700   4.692
 4862SOL    HW215486   2.009   5.740   4.541
 4863SOL     OW15487   5.454   1.393   2.560
 4863SOL    HW115488   5.426   1.476   2.512
 4863SOL    HW215489   5.536   1.413   2.615
 4864SOL     OW15490   2.002   3.247   1.544
 4864SOL    HW115491   2.061   3.278   1.619
 4864SOL    HW215492   1.983   3.324   1.483
 4865SOL     OW15493   3.961   6.726   5.058
 4865SOL    HW115494   3.912   6.814   5.055
 4865SOL    HW215495   4.030   6.730   5.130
 4866SOL     OW15496   0.056   5.397   1.499
 4866SOL    HW115497   0.103   5.310   1.510
 4866SOL    HW215498   0.017   5.403   1.407
 4867SOL     OW15499   5.636   4.996   5.450
 4867SOL    HW115500   5.733   5.000   5.475
 4867SOL    HW215501   5.610   4.901   5.436
 4868SOL     OW15502   1.745   6.049   1.830
 4868SOL    HW115503   1.739   6.074   1.926
 4868SOL    HW215504   1.815   5.978   1.818
 4869SOL     OW15505   6.986   1.344   2.110
 4869SOL    HW115506   6.968   1.438   2.139
 4869SOL    HW215507   6.930   1.281   2.164
 4870SOL     OW15508   6.322   0.621   0.927
 4870SOL    HW115509   6.272   0.607   0.842
 4870SOL    HW215510   6.334   0.719   0.943
 4871SOL     OW15511   1.769   3.137   4.722
 4871SOL    HW115512   1.804   3.219   4.676
 4871SOL    HW215513   1.804   3.134   4.815
 4872SOL     OW15514   1.321   1.884   2.731
 4872SOL    HW115515   1.356   1.802   2.776
 4872SOL    HW215516   1.274   1.941   2.798
 4873SOL     OW15517   1.187   6.735   5.152
 4873SOL    HW115518   1.250   6.808   5.176
 4873SOL    HW215519   1.237   6.648   5.149
 4874SOL     OW15520   6.453   2.493   3.849
 4874SOL    HW115521   6.500   2.427   3.909
 4874SOL    HW215522   6.360   2.507   3.882
 4875SOL     OW15523   0.372   2.763   6.740
 4875SOL    HW115524   0.374   2.689   6.808
 4875SOL    HW215525   0.285   2.761   6.691
 4876SOL     OW15526   6.475   1.351   6.747
 4876SOL    HW115527   6.495   1.259   6.783
 4876SOL    HW215528   6.560   1.404   6.744
 4877SOL     OW15529   4.800   2.073   1.517
 4877SOL    HW115530   4.837   2.044   1.605
 4877SOL    HW215531   4.726   2.139   1.532
 4878SOL     OW15532   1.208   2.989   1.808
 4878SOL    HW115533   1.235   2.895   1.787
 4878SOL    HW215534   1.258   3.052   1.750
 4879SOL     OW15535   4.144   6.048   4.275
 4879SOL    HW115536   4.096   6.049   4.188
 4879SOL    HW215537   4.165   5.954   4.301
 4880SOL     OW15538   6.054   1.563   5.621
 4880SOL    HW115539   6.071   1.514   5.536
 4880SOL    HW215540   5.971   1.527   5.664
 4881SOL     OW15541   2.468   5.667   6.008
 4881SOL    HW115542   2.533   5.675   5.932
 4881SOL    HW215543   2.376   5.689   5.975
 4882SOL     OW15544   5.443   5.788   6.928
 4882SOL    HW115545   5.402   5.714   6.982
 4882SOL    HW215546   5.485   5.855   6.990
 4883SOL     OW15547   6.052   5.572   0.027
 4883SOL    HW115548   5.965   5.618   0.007
 4883SOL    HW215549   6.127   5.636   0.011
 4884SOL     OW15550   3.898   6.640   2.010
 4884SOL    HW115551   3.838   6.591   1.946
 4884SOL    HW215552   3.980   6.585   2.027
 4885SOL     OW15553   1.481   0.549   2.151
 4885SOL    HW115554   1.438   0.488   2.217
 4885SOL    HW215555   1.481   0.506   2.061
 4886SOL     OW15556   6.097   0.692   5.664
 4886SOL    HW115557   6.037   0.769   5.684
 4886SOL    HW215558   6.045   0.622   5.614
 4887SOL     OW15559   0.550   1.528   5.026
 4887SOL    HW115560   0.624   1.593   5.039
 4887SOL    HW215561   0.511   1.502   5.114
 4888SOL     OW15562   3.973   5.915   1.564
 4888SOL    HW115563   4.017   6.001   1.539
 4888SOL    HW215564   3.971   5.855   1.485
 4889SOL     OW15565   1.489   3.093   6.721
 4889SOL    HW115566   1.442   3.074   6.635
 4889SOL    HW215567   1.585   3.067   6.712
 4890SOL     OW15568   0.276   0.574   4.442
 4890SOL    HW115569   0.373   0.599   4.444
 4890SOL    HW215570   0.222   0.647   4.483
 4891SOL     OW15571   1.148   4.640   0.478
 4891SOL    HW115572   1.234   4.614   0.522
 4891SOL    HW215573   1.124   4.572   0.409
 4892SOL     OW15574   1.885   5.795   2.196
 4892SOL    HW115575   1.949   5.736   2.147
 4892SOL    HW215576   1.804   5.742   2.223
 4893SOL     OW15577   0.231   3.618   6.001
 4893SOL    HW115578   0.195   3.530   5.972
 4893SOL    HW215579   0.250   3.616   6.099
 4894SOL     OW15580   0.553   6.749   3.501
 4894SOL    HW115581   0.494   6.803   3.440
 4894SOL    HW215582   0.626   6.707   3.446
 4895SOL     OW15583   6.501   3.548   6.730
 4895SOL    HW115584   6.451   3.598   6.801
 4895SOL    HW215585   6.465   3.455   6.724
 4896SOL     OW15586   4.248   7.002   4.331
 4896SOL    HW115587   4.186   6.941   4.281
 4896SOL    HW215588   4.194   0.054   4.379
 4897SOL     OW15589   2.840   5.918   6.481
 4897SOL    HW115590   2.818   5.860   6.403
 4897SOL    HW215591   2.810   6.012   6.463
 4898SOL     OW15592   5.583   2.462   4.734
 4898SOL    HW115593   5.650   2.523   4.691
 4898SOL    HW215594   5.537   2.510   4.809
 4899SOL     OW15595   6.059   4.364   4.342
 4899SOL    HW115596   6.085   4.461   4.348
 4899SOL    HW215597   6.141   4.308   4.328
 4900SOL     OW15598   1.054   6.843   4.937
 4900SOL    HW115599   1.058   6.938   4.906
 4900SOL    HW215600   1.119   6.830   5.012
 4901SOL     OW15601   6.506   6.564   3.239
 4901SOL    HW115602   6.430   6.628   3.241
 4901SOL    HW215603   6.499   6.506   3.157
 4902SOL     OW15604   3.614   5.102   0.993
 4902SOL    HW115605   3.519   5.112   0.962
 4902SOL    HW215606   3.621   5.026   1.057
 4903SOL     OW15607   6.180   5.085   5.796
 4903SOL    HW115608   6.242   5.012   5.767
 4903SOL    HW215609   6.123   5.053   5.871
 4904SOL     OW15610   2.619   0.667   3.478
 4904SOL    HW115611   2.671   0.593   3.436
 4904SOL    HW215612   2.605   0.647   3.575
 4905SOL     OW15613   6.564   3.601   2.980
 4905SOL    HW115614   6.611   3.535   3.038
 4905SOL    HW215615   6.626   3.676   2.958
 4906SOL     OW15616   5.084   0.549   1.462
 4906SOL    HW115617   5.098   0.473   1.524
 4906SOL    HW215618   5.169   0.570   1.414
 4907SOL     OW15619   2.289   2.073   1.570
 4907SOL    HW115620   2.193   2.057   1.591
 4907SOL    HW215621   2.325   2.144   1.631
 4908SOL     OW15622   4.670   5.636   6.584
 4908SOL    HW115623   4.719   5.561   6.540
 4908SOL    HW215624   4.596   5.599   6.640
 4909SOL     OW15625   6.318   6.719   5.515
 4909SOL    HW115626   6.414   6.717   5.487
 4909SOL    HW215627   6.306   6.780   5.593
 4910SOL     OW15628   5.019   6.332   5.730
 4910SOL    HW115629   5.088   6.261   5.716
 4910SOL    HW215630   5.059   6.409   5.780
 4911SOL     OW15631   0.567   3.852   6.688
 4911SOL    HW115632   0.528   3.887   6.603
 4911SOL    HW215633   0.530   3.904   6.766
 4912SOL     OW15634   2.132   2.828   1.581
 4912SOL    HW115635   2.211   2.799   1.528
 4912SOL    HW215636   2.063   2.868   1.520
 4913SOL     OW15637   2.508   2.968   1.711
 4913SOL    HW115638   2.491   3.033   1.637
 4913SOL    HW215639   2.437   2.978   1.781
 4914SOL     OW15640   1.511   6.470   2.769
 4914SOL    HW115641   1.595   6.443   2.816
 4914SOL    HW215642   1.473   6.392   2.720
 4915SOL     OW15643   3.431   6.394   3.655
 4915SOL    HW115644   3.373   6.329   3.606
 4915SOL    HW215645   3.520   6.400   3.609
 4916SOL     OW15646   0.980   1.510   1.662
 4916SOL    HW115647   0.964   1.544   1.569
 4916SOL    HW215648   1.043   1.571   1.709
 4917SOL     OW15649   1.558   3.766   6.644
 4917SOL    HW115650   1.609   3.814   6.715
 4917SOL    HW215651   1.482   3.824   6.613
 4918SOL     OW15652   2.402   0.377   3.799
 4918SOL    HW115653   2.357   0.334   3.720
 4918SOL    HW215654   2.334   0.400   3.868
 4919SOL     OW15655   2.425   3.165   1.533
 4919SOL    HW115656   2.456   3.260   1.527
 4919SOL    HW215657   2.372   3.142   1.451
 4920SOL     OW15658   3.648   1.111   0.410
 4920SOL    HW115659   3.638   1.102   0.311
 4920SOL    HW215660   3.723   1.053   0.441
 4921SOL     OW15661   6.425   5.291   1.953
 4921SOL    HW115662   6.510   5.243   1.975
 4921SOL    HW215663   6.347   5.232   1.975
 4922SOL     OW15664   1.019   2.779   5.798
 4922SOL    HW115665   0.980   2.798   5.888
 4922SOL    HW215666   0.950   2.736   5.740
 4923SOL     OW15667   2.661   2.274   6.409
 4923SOL    HW115668   2.585   2.228   6.455
 4923SOL    HW215669   2.680   2.361   6.453
 4924SOL     OW15670   0.623   3.042   4.134
 4924SOL    HW115671   0.679   3.122   4.154
 4924SOL    HW215672   0.617   3.029   4.035
 4925SOL     OW15673   4.455   5.147   5.393
 4925SOL    HW115674   4.529   5.155   5.326
 4925SOL    HW215675   4.408   5.060   5.379
 4926SOL     OW15676   4.122   3.368   0.545
 4926SOL    HW115677   4.161   3.281   0.573
 4926SOL    HW215678   4.027   3.355   0.518
 4927SOL     OW15679   3.452   4.104   1.962
 4927SOL    HW115680   3.537   4.118   2.012
 4927SOL    HW215681   3.375   4.111   2.026
 4928SOL     OW15682   0.068   0.810   0.053
 4928SOL    HW115683   0.041   0.875   0.125
 4928SOL    HW215684   0.157   0.770   0.077
 4929SOL     OW15685   0.868   4.667   4.257
 4929SOL    HW115686   0.945   4.698   4.314
 4929SOL    HW215687   0.785   4.666   4.312
 4930SOL     OW15688   0.412   3.277   0.506
 4930SOL    HW115689   0.364   3.346   0.561
 4930SOL    HW215690   0.354   3.197   0.494
 4931SOL     OW15691   5.601   6.781   1.150
 4931SOL    HW115692   5.545   6.812   1.073
 4931SOL    HW215693   5.697   6.777   1.122
 4932SOL     OW15694   3.554   1.206   1.206
 4932SOL    HW115695   3.483   1.234   1.271
 4932SOL    HW215696   3.529   1.234   1.114
 4933SOL     OW15697   3.070   0.098   4.675
 4933SOL    HW115698   2.972   0.081   4.671
 4933SOL    HW215699   3.120   0.014   4.654
 4934SOL     OW15700   1.727   5.786   5.095
 4934SOL    HW115701   1.793   5.820   5.163
 4934SOL    HW215702   1.766   5.796   5.004
 4935SOL     OW15703   1.987   2.529   1.096
 4935SOL    HW115704   1.946   2.601   1.040
 4935SOL    HW215705   2.019   2.568   1.182
 4936SOL     OW15706   6.410   4.092   1.560
 4936SOL    HW115707   6.455   4.031   1.494
 4936SOL    HW215708   6.467   4.099   1.642
 4937SOL     OW15709   0.798   3.316   4.651
 4937SOL    HW115710   0.805   3.271   4.740
 4937SOL    HW215711   0.701   3.331   4.629
 4938SOL     OW15712   3.527   4.235   1.315
 4938SOL    HW115713   3.595   4.308   1.308
 4938SOL    HW215714   3.506   4.217   1.411
 4939SOL     OW15715   1.368   1.075   1.359
 4939SOL    HW115716   1.441   1.131   1.321
 4939SOL    HW215717   1.280   1.107   1.325
 4940SOL     OW15718   1.089   2.116   5.641
 4940SOL    HW115719   1.027   2.142   5.715
 4940SOL    HW215720   1.046   2.134   5.553
 4941SOL     OW15721   4.053   2.062   5.709
 4941SOL    HW115722   4.003   2.051   5.623
 4941SOL    HW215723   4.082   1.973   5.742
 4942SOL     OW15724   6.612   0.952   2.867
 4942SOL    HW115725   6.701   0.962   2.913
 4942SOL    HW215726   6.615   0.999   2.779
 4943SOL     OW15727   4.619   2.495   6.606
 4943SOL    HW115728   4.702   2.517   6.657
 4943SOL    HW215729   4.543   2.480   6.670
 4944SOL     OW15730   0.957   4.833   0.374
 4944SOL    HW115731   1.035   4.784   0.413
 4944SOL    HW215732   0.878   4.824   0.435
 4945SOL     OW15733   2.577   0.442   5.436
 4945SOL    HW115734   2.556   0.350   5.469
 4945SOL    HW215735   2.501   0.477   5.382
 4946SOL     OW15736   2.655   5.907   0.540
 4946SOL    HW115737   2.745   5.937   0.573
 4946SOL    HW215738   2.618   5.976   0.478
 4947SOL     OW15739   0.752   0.324   1.203
 4947SOL    HW115740   0.810   0.397   1.240
 4947SOL    HW215741   0.661   0.361   1.184
 4948SOL     OW15742   1.300   2.499   1.994
 4948SOL    HW115743   1.207   2.524   1.968
 4948SOL    HW215744   1.360   2.579   1.990
 4949SOL     OW15745   6.371   4.584   5.799
 4949SOL    HW115746   6.458   4.630   5.817
 4949SOL    HW215747   6.370   4.496   5.845
 4950SOL     OW15748   3.915   4.225   5.289
 4950SOL    HW115749   3.992   4.162   5.278
 4950SOL    HW215750   3.946   4.319   5.274
 4951SOL     OW15751   4.715   5.193   3.214
 4951SOL    HW115752   4.620   5.223   3.207
 4951SOL    HW215753   4.728   5.145   3.301
 4952SOL     OW15754   1.031   0.984   6.724
 4952SOL    HW115755   1.079   1.021   6.645
 4952SOL    HW215756   1.096   0.968   6.798
 4953SOL     OW15757   1.382   2.076   5.694
 4953SOL    HW115758   1.422   2.055   5.604
 4953SOL    HW215759   1.285   2.053   5.694
 4954SOL     OW15760   3.231   3.467   5.416
 4954SOL    HW115761   3.286   3.429   5.342
 4954SOL    HW215762   3.139   3.488   5.382
 4955SOL     OW15763   4.163   5.929   0.203
 4955SOL    HW115764   4.181   5.962   0.296
 4955SOL    HW215765   4.098   5.990   0.158
 4956SOL     OW15766   2.689   0.414   4.906
 4956SOL    HW115767   2.662   0.348   4.975
 4956SOL    HW215768   2.620   0.486   4.898
 4957SOL     OW15769   5.731   5.315   0.220
 4957SOL    HW115770   5.692   5.380   0.285
 4957SOL    HW215771   5.661   5.287   0.155
 4958SOL     OW15772   3.648   5.726   6.953
 4958SOL    HW115773   3.684   5.706   6.862
 4958SOL    HW215774   3.585   5.804   6.947
 4959SOL     OW15775   6.612   2.490   2.960
 4959SOL    HW115776   6.652   2.581   2.957
 4959SOL    HW215777   6.553   2.477   2.881
 4960SOL     OW15778   5.257   4.449   3.987
 4960SOL    HW115779   5.305   4.512   4.048
 4960SOL    HW215780   5.321   4.382   3.951
 4961SOL     OW15781   3.620   2.785   2.097
 4961SOL    HW115782   3.698   2.841   2.127
 4961SOL    HW215783   3.632   2.691   2.129
 4962SOL     OW15784   1.594   2.484   0.036
 4962SOL    HW115785   1.562   2.577   0.019
 4962SOL    HW215786   1.531   2.438   0.099
 4963SOL     OW15787   0.325   4.213   6.493
 4963SOL    HW115788   0.264   4.239   6.419
 4963SOL    HW215789   0.335   4.113   6.494
 4964SOL     OW15790   1.634   4.523   4.057
 4964SOL    HW115791   1.570   4.452   4.083
 4964SOL    HW215792   1.659   4.513   3.961
 4965SOL     OW15793   2.187   0.124   3.200
 4965SOL    HW115794   2.112   0.188   3.189
 4965SOL    HW215795   2.194   0.066   3.118
 4966SOL     OW15796   4.441   0.037   5.260
 4966SOL    HW115797   4.360   0.024   5.317
 4966SOL    HW215798   4.515   0.076   5.315
 4967SOL     OW15799   4.711   4.240   3.799
 4967SOL    HW115800   4.785   4.261   3.735
 4967SOL    HW215801   4.706   4.142   3.814
 4968SOL     OW15802   6.618   3.344   4.397
 4968SOL    HW115803   6.605   3.357   4.299
 4968SOL    HW215804   6.710   3.373   4.423
 4969SOL     OW15805   0.241   6.000   4.539
 4969SOL    HW115806   0.166   6.035   4.594
 4969SOL    HW215807   0.247   5.900   4.550
 4970SOL     OW15808   2.213   1.626   1.629
 4970SOL    HW115809   2.136   1.652   1.572
 4970SOL    HW215810   2.196   1.655   1.724
 4971SOL     OW15811   0.034   5.788   1.477
 4971SOL    HW115812   0.030   5.747   1.569
 4971SOL    HW215813   0.130   5.792   1.448
 4972SOL     OW15814   0.140   4.008   6.911
 4972SOL    HW115815   0.175   4.100   6.930
 4972SOL    HW215816   0.044   4.014   6.885
 4973SOL     OW15817   5.293   1.961   6.530
 4973SOL    HW115818   5.223   1.924   6.591
 4973SOL    HW215819   5.331   1.887   6.474
 4974SOL     OW15820   3.647   6.918   5.722
 4974SOL    HW115821   3.664   6.993   5.787
 4974SOL    HW215822   3.598   6.953   5.643
 4975SOL     OW15823   5.750   4.153   1.367
 4975SOL    HW115824   5.804   4.196   1.439
 4975SOL    HW215825   5.653   4.176   1.379
 4976SOL     OW15826   0.665   0.335   3.883
 4976SOL    HW115827   0.623   0.244   3.884
 4976SOL    HW215828   0.655   0.377   3.973
 4977SOL     OW15829   1.296   4.066   5.703
 4977SOL    HW115830   1.246   4.009   5.638
 4977SOL    HW215831   1.386   4.089   5.667
 4978SOL     OW15832   6.364   5.189   4.461
 4978SOL    HW115833   6.460   5.190   4.434
 4978SOL    HW215834   6.357   5.212   4.558
 4979SOL     OW15835   2.747   6.896   6.309
 4979SOL    HW115836   2.674   6.862   6.368
 4979SOL    HW215837   2.829   6.841   6.322
 4980SOL     OW15838   6.058   3.149   3.746
 4980SOL    HW115839   5.984   3.091   3.780
 4980SOL    HW215840   6.030   3.245   3.752
 4981SOL     OW15841   3.710   6.151   3.732
 4981SOL    HW115842   3.629   6.118   3.779
 4981SOL    HW215843   3.727   6.096   3.651
 4982SOL     OW15844   4.278   1.923   5.071
 4982SOL    HW115845   4.215   1.846   5.081
 4982SOL    HW215846   4.227   2.007   5.057
 4983SOL     OW15847   6.069   3.349   2.915
 4983SOL    HW115848   6.093   3.436   2.871
 4983SOL    HW215849   5.974   3.351   2.945
 4984SOL     OW15850   4.962   3.689   4.877
 4984SOL    HW115851   4.945   3.645   4.790
 4984SOL    HW215852   4.888   3.667   4.941
 4985SOL     OW15853   5.402   0.369   2.413
 4985SOL    HW115854   5.321   0.326   2.455
 4985SOL    HW215855   5.484   0.341   2.462
 4986SOL     OW15856   1.566   5.146   1.243
 4986SOL    HW115857   1.556   5.098   1.156
 4986SOL    HW215858   1.503   5.224   1.246
 4987SOL     OW15859   2.134   3.146   2.752
 4987SOL    HW115860   2.083   3.140   2.666
 4987SOL    HW215861   2.158   3.241   2.770
 4988SOL     OW15862   6.253   5.355   4.008
 4988SOL    HW115863   6.222   5.260   4.014
 4988SOL    HW215864   6.205   5.401   3.934
 4989SOL     OW15865   6.888   6.790   3.467
 4989SOL    HW115866   6.799   6.792   3.422
 4989SOL    HW215867   6.928   6.881   3.466
 4990SOL     OW15868   4.785   1.909   6.614
 4990SOL    HW115869   4.794   2.007   6.626
 4990SOL    HW215870   4.723   1.890   6.537
 4991SOL     OW15871   1.836   5.746   6.056
 4991SOL    HW115872   1.847   5.845   6.060
 4991SOL    HW215873   1.749   5.720   6.098
 4992SOL     OW15874   1.624   3.417   4.503
 4992SOL    HW115875   1.693   3.437   4.572
 4992SOL    HW215876   1.628   3.485   4.430
 4993SOL     OW15877   2.239   6.033   3.941
 4993SOL    HW115878   2.251   6.024   4.040
 4993SOL    HW215879   2.284   5.956   3.895
 4994SOL     OW15880   3.077   5.338   5.493
 4994SOL    HW115881   2.996   5.398   5.499
 4994SOL    HW215882   3.072   5.284   5.410
 4995SOL     OW15883   0.449   0.945   6.190
 4995SOL    HW115884   0.372   0.957   6.252
 4995SOL    HW215885   0.420   0.958   6.096
 4996SOL     OW15886   0.285   0.667   4.106
 4996SOL    HW115887   0.295   0.766   4.097
 4996SOL    HW215888   0.317   0.638   4.196
 4997SOL     OW15889   4.422   1.658   0.512
 4997SOL    HW115890   4.406   1.647   0.610
 4997SOL    HW215891   4.517   1.635   0.490
 4998SOL     OW15892   0.426   3.833   3.402
 4998SOL    HW115893   0.339   3.881   3.390
 4998SOL    HW215894   0.412   3.735   3.395
 4999SOL     OW15895   0.556   3.034   3.864
 4999SOL    HW115896   0.581   2.967   3.793
 4999SOL    HW215897   0.569   3.126   3.829
 5000SOL     OW15898   2.817   6.419   3.177
 5000SOL    HW115899   2.812   6.320   3.189
 5000SOL    HW215900   2.897   6.454   3.225
 5001SOL     OW15901   0.342   5.565   3.316
 5001SOL    HW115902   0.302   5.474   3.306
 5001SOL    HW215903   0.286   5.619   3.379
 5002SOL     OW15904   1.501   4.971   3.535
 5002SOL    HW115905   1.518   4.951   3.439
 5002SOL    HW215906   1.476   4.887   3.583
 5003SOL     OW15907   3.527   0.760   1.891
 5003SOL    HW115908   3.566   0.820   1.961
 5003SOL    HW215909   3.546   0.797   1.800
 5004SOL     OW15910   4.287   6.274   0.405
 5004SOL    HW115911   4.296   6.292   0.307
 5004SOL    HW215912   4.272   6.176   0.419
 5005SOL     OW15913   3.541   2.912   0.620
 5005SOL    HW115914   3.570   2.991   0.674
 5005SOL    HW215915   3.577   2.920   0.527
 5006SOL     OW15916   5.367   0.671   2.343
 5006SOL    HW115917   5.359   0.727   2.425
 5006SOL    HW215918   5.317   0.585   2.356
 5007SOL     OW15919   6.136   5.396   2.281
 5007SOL    HW115920   6.171   5.328   2.346
 5007SOL    HW215921   6.065   5.451   2.326
 5008SOL     OW15922   4.937   0.145   3.422
 5008SOL    HW115923   4.846   0.116   3.450
 5008SOL    HW215924   4.944   0.245   3.431
 5009SOL     OW15925   0.383   1.557   7.006
 5009SOL    HW115926   0.459   1.621   7.009
 5009SOL    HW215927   0.417   1.465   6.986
 5010SOL     OW15928   4.844   3.716   1.021
 5010SOL    HW115929   4.796   3.789   0.972
 5010SOL    HW215930   4.942   3.730   1.015
 5011SOL     OW15931   1.896   2.493   6.243
 5011SOL    HW115932   1.955   2.545   6.181
 5011SOL    HW215933   1.801   2.506   6.217
 5012SOL     OW15934   6.149   1.714   6.127
 5012SOL    HW115935   6.130   1.812   6.138
 5012SOL    HW215936   6.092   1.677   6.053
 5013SOL     OW15937   5.277   0.109   5.687
 5013SOL    HW115938   5.190   0.101   5.639
 5013SOL    HW215939   5.262   0.153   5.776
 5014SOL     OW15940   6.343   3.500   0.918
 5014SOL    HW115941   6.313   3.513   1.012
 5014SOL    HW215942   6.346   3.402   0.897
 5015SOL     OW15943   5.809   5.524   4.380
 5015SOL    HW115944   5.882   5.462   4.352
 5015SOL    HW215945   5.724   5.498   4.334
 5016SOL     OW15946   1.605   2.712   6.683
 5016SOL    HW115947   1.658   2.639   6.640
 5016SOL    HW215948   1.557   2.764   6.612
 5017SOL     OW15949   0.286   2.290   2.003
 5017SOL    HW115950   0.270   2.289   2.101
 5017SOL    HW215951   0.337   2.372   1.978
 5018SOL     OW15952   1.139   0.672   6.923
 5018SOL    HW115953   1.225   0.710   6.956
 5018SOL    HW215954   1.146   0.657   6.824
 5019SOL     OW15955   1.464   4.341   4.167
 5019SOL    HW115956   1.378   4.379   4.202
 5019SOL    HW215957   1.444   4.271   4.099
 5020SOL     OW15958   1.867   0.022   4.193
 5020SOL    HW115959   1.925   6.960   4.206
 5020SOL    HW215960   1.838   0.057   4.282
 5021SOL     OW15961   2.637   0.215   1.537
 5021SOL    HW115962   2.669   0.245   1.627
 5021SOL    HW215963   2.607   0.295   1.484
 5022SOL     OW15964   6.722   2.718   1.050
 5022SOL    HW115965   6.678   2.681   1.132
 5022SOL    HW215966   6.787   2.651   1.014
 5023SOL     OW15967   0.045   3.327   3.017
 5023SOL    HW115968   0.033   3.228   3.026
 5023SOL    HW215969   0.096   3.362   3.096
 5024SOL     OW15970   4.882   4.439   0.194
 5024SOL    HW115971   4.903   4.444   0.097
 5024SOL    HW215972   4.938   4.505   0.244
 5025SOL     OW15973   5.096   2.207   4.685
 5025SOL    HW115974   5.025   2.200   4.756
 5025SOL    HW215975   5.137   2.299   4.688
 5026SOL     OW15976   5.498   6.121   4.972
 5026SOL    HW115977   5.399   6.119   4.981
 5026SOL    HW215978   5.528   6.045   4.912
 5027SOL     OW15979   5.216   6.617   0.697
 5027SOL    HW115980   5.172   6.545   0.750
 5027SOL    HW215981   5.315   6.613   0.710
 5028SOL     OW15982   6.521   1.783   2.376
 5028SOL    HW115983   6.534   1.768   2.278
 5028SOL    HW215984   6.520   1.882   2.394
 5029SOL     OW15985   5.218   2.362   2.294
 5029SOL    HW115986   5.247   2.444   2.344
 5029SOL    HW215987   5.120   2.368   2.277
 5030SOL     OW15988   0.317   3.500   0.621
 5030SOL    HW115989   0.249   3.506   0.548
 5030SOL    HW215990   0.284   3.549   0.702
 5031SOL     OW15991   6.412   0.340   6.134
 5031SOL    HW115992   6.476   0.409   6.100
 5031SOL    HW215993   6.321   0.381   6.142
 5032SOL     OW15994   2.515   4.295   6.011
 5032SOL    HW115995   2.538   4.290   6.108
 5032SOL    HW215996   2.455   4.374   5.996
 5033SOL     OW15997   2.416   6.830   6.038
 5033SOL    HW115998   2.412   6.842   6.138
 5033SOL    HW215999   2.512   6.830   6.008
 5034SOL     OW16000   4.386   6.076   4.386
 5034SOL    HW116001   4.296   6.076   4.342
 5034SOL    HW216002   4.417   6.170   4.398
 5035SOL     OW16003   1.883   3.767   3.631
 5035SOL    HW116004   1.942   3.762   3.712
 5035SOL    HW216005   1.875   3.677   3.589
 5036SOL     OW16006   1.141   3.193   4.896
 5036SOL    HW116007   1.158   3.171   4.992
 5036SOL    HW216008   1.079   3.125   4.857
 5037SOL     OW16009   5.094   4.573   1.174
 5037SOL    HW116010   5.074   4.520   1.257
 5037SOL    HW216011   5.011   4.618   1.143
 5038SOL     OW16012   3.061   3.869   3.772
 5038SOL    HW116013   2.974   3.841   3.731
 5038SOL    HW216014   3.092   3.954   3.729
 5039SOL     OW16015   0.485   3.822   0.038
 5039SOL    HW116016   0.474   3.809   0.137
 5039SOL    HW216017   0.577   3.858   0.020
 5040SOL     OW16018   0.572   1.287   5.298
 5040SOL    HW116019   0.485   1.239   5.314
 5040SOL    HW216020   0.613   1.252   5.214
 5041SOL     OW16021   6.857   1.925   1.517
 5041SOL    HW116022   6.936   1.986   1.515
 5041SOL    HW216023   6.807   1.931   1.431
 5042SOL     OW16024   0.836   2.297   5.600
 5042SOL    HW116025   0.827   2.259   5.693
 5042SOL    HW216026   0.906   2.367   5.599
 5043SOL     OW16027   3.261   6.579   2.168
 5043SOL    HW116028   3.319   6.592   2.088
 5043SOL    HW216029   3.175   6.629   2.156
 5044SOL     OW16030   0.013   5.420   0.014
 5044SOL    HW116031   0.019   5.343   6.968
 5044SOL    HW216032   6.954   5.407   0.075
 5045SOL     OW16033   5.889   2.286   0.943
 5045SOL    HW116034   5.799   2.287   0.985
 5045SOL    HW216035   5.959   2.299   1.013
 5046SOL     OW16036   3.840   2.927   2.161
 5046SOL    HW116037   3.891   2.942   2.076
 5046SOL    HW216038   3.904   2.925   2.238
 5047SOL     OW16039   1.871   3.872   3.352
 5047SOL    HW116040   1.863   3.858   3.451
 5047SOL    HW216041   1.780   3.866   3.310
 5048SOL     OW16042   2.971   0.725   6.062
 5048SOL    HW116043   3.051   0.672   6.090
 5048SOL    HW216044   2.963   0.723   5.962
 5049SOL     OW16045   4.040   1.843   6.491
 5049SOL    HW116046   4.090   1.851   6.404
 5049SOL    HW216047   4.008   1.934   6.519
 5050SOL     OW16048   1.791   0.809   0.864
 5050SOL    HW116049   1.842   0.814   0.950
 5050SOL    HW216050   1.842   0.856   0.792
 5051SOL     OW16051   4.542   4.814   0.948
 5051SOL    HW116052   4.584   4.863   1.025
 5051SOL    HW216053   4.527   4.719   0.973
 5052SOL     OW16054   2.069   2.825   4.556
 5052SOL    HW116055   2.094   2.901   4.496
 5052SOL    HW216056   2.109   2.839   4.647
 5053SOL     OW16057   6.830   0.743   0.827
 5053SOL    HW116058   6.733   0.768   0.828
 5053SOL    HW216059   6.847   0.672   0.896
 5054SOL     OW16060   3.990   5.068   3.529
 5054SOL    HW116061   3.916   5.135   3.537
 5054SOL    HW216062   3.954   4.982   3.492
 5055SOL     OW16063   0.205   3.342   5.157
 5055SOL    HW116064   0.260   3.405   5.212
 5055SOL    HW216065   0.138   3.394   5.105
 5056SOL     OW16066   6.418   4.079   3.956
 5056SOL    HW116067   6.480   4.132   4.013
 5056SOL    HW216068   6.349   4.139   3.916
 5057SOL     OW16069   7.008   5.766   2.105
 5057SOL    HW116070   7.008   5.668   2.086
 5057SOL    HW216071   6.947   5.785   2.182
 5058SOL     OW16072   2.505   5.547   6.255
 5058SOL    HW116073   2.576   5.479   6.273
 5058SOL    HW216074   2.510   5.576   6.159
 5059SOL     OW16075   6.926   0.615   2.535
 5059SOL    HW116076   6.918   0.656   2.444
 5059SOL    HW216077   6.958   0.520   2.526
 5060SOL     OW16078   0.072   2.164   6.171
 5060SOL    HW116079   7.003   2.126   6.204
 5060SOL    HW216080   0.127   2.193   6.249
 5061SOL     OW16081   5.271   3.657   0.682
 5061SOL    HW116082   5.235   3.581   0.627
 5061SOL    HW216083   5.347   3.700   0.634
 5062SOL     OW16084   6.513   0.100   0.508
 5062SOL    HW116085   6.510   0.010   0.551
 5062SOL    HW216086   6.605   0.117   0.471
 5063SOL     OW16087   1.383   6.253   2.708
 5063SOL    HW116088   1.416   6.162   2.732
 5063SOL    HW216089   1.304   6.246   2.648
 5064SOL     OW16090   5.056   3.912   6.879
 5064SOL    HW116091   5.120   3.895   6.953
 5064SOL    HW216092   4.968   3.942   6.917
 5065SOL     OW16093   3.076   6.572   6.329
 5065SOL    HW116094   3.121   6.486   6.304
 5065SOL    HW216095   2.991   6.552   6.376
 5066SOL     OW16096   4.658   4.962   1.140
 5066SOL    HW116097   4.615   5.052   1.130
 5066SOL    HW216098   4.745   4.961   1.091
 5067SOL     OW16099   4.879   1.280   6.808
 5067SOL    HW116100   4.861   1.359   6.866
 5067SOL    HW216101   4.956   1.299   6.748
 5068SOL     OW16102   3.722   4.777   1.014
 5068SOL    HW116103   3.749   4.689   1.051
 5068SOL    HW216104   3.687   4.765   0.921
 5069SOL     OW16105   6.736   5.495   2.996
 5069SOL    HW116106   6.712   5.398   2.995
 5069SOL    HW216107   6.672   5.544   3.055
 5070SOL     OW16108   4.836   3.237   3.979
 5070SOL    HW116109   4.852   3.255   4.076
 5070SOL    HW216110   4.924   3.230   3.931
 5071SOL     OW16111   4.518   0.885   0.337
 5071SOL    HW116112   4.551   0.864   0.430
 5071SOL    HW216113   4.481   0.802   0.296
 5072SOL     OW16114   0.619   4.272   1.154
 5072SOL    HW116115   0.691   4.325   1.199
 5072SOL    HW216116   0.540   4.331   1.138
 5073SOL     OW16117   4.134   2.256   3.563
 5073SOL    HW116118   4.124   2.354   3.578
 5073SOL    HW216119   4.226   2.227   3.589
 5074SOL     OW16120   4.439   4.675   5.224
 5074SOL    HW116121   4.518   4.673   5.162
 5074SOL    HW216122   4.374   4.604   5.197
 5075SOL     OW16123   6.750   6.600   3.905
 5075SOL    HW116124   6.751   6.509   3.864
 5075SOL    HW216125   6.766   6.669   3.834
 5076SOL     OW16126   4.470   0.432   0.907
 5076SOL    HW116127   4.405   0.358   0.891
 5076SOL    HW216128   4.563   0.396   0.905
 5077SOL     OW16129   6.702   2.838   2.128
 5077SOL    HW116130   6.741   2.928   2.145
 5077SOL    HW216131   6.771   2.768   2.146
 5078SOL     OW16132   0.082   0.935   4.295
 5078SOL    HW116133   7.007   0.973   4.291
 5078SOL    HW216134   0.105   0.892   4.208
 5079SOL     OW16135   4.510   4.894   4.961
 5079SOL    HW116136   4.442   4.967   4.958
 5079SOL    HW216137   4.490   4.827   4.890
 5080SOL     OW16138   6.009   0.521   5.972
 5080SOL    HW116139   6.044   0.527   5.878
 5080SOL    HW216140   6.079   0.482   6.031
 5081SOL     OW16141   3.319   3.134   2.994
 5081SOL    HW116142   3.332   3.233   3.007
 5081SOL    HW216143   3.368   3.105   2.912
 5082SOL     OW16144   0.779   0.739   6.050
 5082SOL    HW116145   0.756   0.745   5.952
 5082SOL    HW216146   0.780   0.831   6.089
 5083SOL     OW16147   0.978   4.433   2.328
 5083SOL    HW116148   0.921   4.396   2.254
 5083SOL    HW216149   0.981   4.532   2.321
 5084SOL     OW16150   0.820   5.661   2.305
 5084SOL    HW116151   0.844   5.744   2.355
 5084SOL    HW216152   0.764   5.684   2.226
 5085SOL     OW16153   6.495   3.105   6.664
 5085SOL    HW116154   6.544   3.146   6.588
 5085SOL    HW216155   6.476   3.009   6.644
 5086SOL     OW16156   6.406   5.596   4.569
 5086SOL    HW116157   6.393   5.696   4.569
 5086SOL    HW216158   6.365   5.557   4.487
 5087SOL     OW16159   6.046   5.543   4.983
 5087SOL    HW116160   6.093   5.502   4.904
 5087SOL    HW216161   6.096   5.624   5.013
 5088SOL     OW16162   6.304   0.794   0.129
 5088SOL    HW116163   6.314   0.724   0.058
 5088SOL    HW216164   6.316   0.885   0.089
 5089SOL     OW16165   5.668   2.558   4.290
 5089SOL    HW116166   5.570   2.541   4.282
 5089SOL    HW216167   5.715   2.525   4.209
 5090SOL     OW16168   1.211   5.558   0.360
 5090SOL    HW116169   1.227   5.478   0.302
 5090SOL    HW216170   1.246   5.540   0.452
 5091SOL     OW16171   0.964   6.637   3.492
 5091SOL    HW116172   1.041   6.577   3.470
 5091SOL    HW216173   0.997   6.717   3.541
 5092SOL     OW16174   3.342   3.045   1.104
 5092SOL    HW116175   3.256   3.037   1.155
 5092SOL    HW216176   3.322   3.042   1.006
 5093SOL     OW16177   1.181   1.934   1.147
 5093SOL    HW116178   1.210   2.029   1.143
 5093SOL    HW216179   1.154   1.912   1.241
 5094SOL     OW16180   0.157   0.182   6.661
 5094SOL    HW116181   0.152   0.181   6.761
 5094SOL    HW216182   0.197   0.097   6.629
 5095SOL     OW16183   2.963   6.970   5.251
 5095SOL    HW116184   3.022   6.982   5.331
 5095SOL    HW216185   2.870   6.997   5.274
 5096SOL     OW16186   3.730   6.005   3.328
 5096SOL    HW116187   3.784   5.935   3.280
 5096SOL    HW216188   3.696   5.968   3.414
 5097SOL     OW16189   1.007   1.646   6.436
 5097SOL    HW116190   1.092   1.699   6.445
 5097SOL    HW216191   0.933   1.694   6.483
 5098SOL     OW16192   6.608   2.580   3.316
 5098SOL    HW116193   6.649   2.618   3.233
 5098SOL    HW216194   6.549   2.503   3.291
 5099SOL     OW16195   0.678   1.370   4.288
 5099SOL    HW116196   0.632   1.283   4.308
 5099SOL    HW216197   0.655   1.436   4.359
 5100SOL     OW16198   4.518   5.183   5.682
 5100SOL    HW116199   4.428   5.213   5.648
 5100SOL    HW216200   4.536   5.090   5.652
 5101SOL     OW16201   5.084   5.878   0.770
 5101SOL    HW116202   5.046   5.786   0.759
 5101SOL    HW216203   5.033   5.942   0.712
 5102SOL     OW16204   3.551   5.213   4.279
 5102SOL    HW116205   3.597   5.301   4.288
 5102SOL    HW216206   3.610   5.149   4.230
 5103SOL     OW16207   1.383   1.712   3.836
 5103SOL    HW116208   1.303   1.701   3.895
 5103SOL    HW216209   1.357   1.766   3.755
 5104SOL     OW16210   0.541   0.846   0.857
 5104SOL    HW116211   0.541   0.752   0.892
 5104SOL    HW216212   0.606   0.900   0.910
 5105SOL     OW16213   1.485   2.764   6.451
 5105SOL    HW116214   1.394   2.789   6.419
 5105SOL    HW216215   1.554   2.804   6.390
 5106SOL     OW16216   2.233   6.718   2.257
 5106SOL    HW116217   2.245   6.665   2.341
 5106SOL    HW216218   2.269   6.666   2.179
 5107SOL     OW16219   2.215   0.038   6.663
 5107SOL    HW116220   2.261   7.005   6.736
 5107SOL    HW216221   2.124   0.065   6.694
 5108SOL     OW16222   3.330   4.148   4.511
 5108SOL    HW116223   3.411   4.144   4.569
 5108SOL    HW216224   3.263   4.212   4.550
 5109SOL     OW16225   6.576   2.354   2.679
 5109SOL    HW116226   6.640   2.286   2.715
 5109SOL    HW216227   6.622   2.410   2.610
 5110SOL     OW16228   2.180   6.002   5.294
 5110SOL    HW116229   2.156   5.983   5.389
 5110SOL    HW216230   2.239   6.083   5.290
 5111SOL     OW16231   1.839   0.559   6.759
 5111SOL    HW116232   1.861   0.513   6.674
 5111SOL    HW216233   1.919   0.558   6.819
 5112SOL     OW16234   0.239   6.586   3.036
 5112SOL    HW116235   0.307   6.515   3.058
 5112SOL    HW216236   0.286   6.672   3.016
 5113SOL     OW16237   0.557   0.426   6.366
 5113SOL    HW116238   0.579   0.330   6.346
 5113SOL    HW216239   0.468   0.430   6.412
 5114SOL     OW16240   4.134   6.002   6.664
 5114SOL    HW116241   4.227   6.032   6.685
 5114SOL    HW216242   4.119   6.006   6.565
 5115SOL     OW16243   2.390   3.755   5.301
 5115SOL    HW116244   2.358   3.681   5.242
 5115SOL    HW216245   2.384   3.842   5.252
 5116SOL     OW16246   6.643   3.859   1.177
 5116SOL    HW116247   6.626   3.799   1.099
 5116SOL    HW216248   6.742   3.871   1.189
 5117SOL     OW16249   2.493   5.009   2.388
 5117SOL    HW116250   2.474   4.976   2.481
 5117SOL    HW216251   2.414   5.060   2.354
 5118SOL     OW16252   4.031   0.052   1.453
 5118SOL    HW116253   4.018   0.096   1.541
 5118SOL    HW216254   3.974   6.988   1.447
 5119SOL     OW16255   6.151   0.372   2.232
 5119SOL    HW116256   6.078   0.410   2.175
 5119SOL    HW216257   6.117   0.359   2.325
 5120SOL     OW16258   3.267   1.556   2.013
 5120SOL    HW116259   3.261   1.518   1.921
 5120SOL    HW216260   3.198   1.514   2.072
 5121SOL     OW16261   0.645   3.955   4.334
 5121SOL    HW116262   0.602   3.980   4.420
 5121SOL    HW216263   0.615   4.019   4.262
 5122SOL     OW16264   1.874   5.272   3.389
 5122SOL    HW116265   1.947   5.203   3.397
 5122SOL    HW216266   1.881   5.336   3.465
 5123SOL     OW16267   6.281   3.110   2.606
 5123SOL    HW116268   6.186   3.124   2.578
 5123SOL    HW216269   6.342   3.159   2.544
 5124SOL     OW16270   3.055   6.397   0.724
 5124SOL    HW116271   3.071   6.358   0.814
 5124SOL    HW216272   3.133   6.455   0.699
 5125SOL     OW16273   0.635   2.058   5.955
 5125SOL    HW116274   0.708   2.106   5.907
 5125SOL    HW216275   0.547   2.078   5.911
 5126SOL     OW16276   3.899   1.741   0.208
 5126SOL    HW116277   3.967   1.815   0.204
 5126SOL    HW216278   3.943   1.654   0.186
 5127SOL     OW16279   4.881   3.127   6.517
 5127SOL    HW116280   4.812   3.059   6.538
 5127SOL    HW216281   4.953   3.085   6.462
 5128SOL     OW16282   0.000   0.258   6.209
 5128SOL    HW116283   0.010   0.276   6.111
 5128SOL    HW216284   0.089   0.234   6.248
 5129SOL     OW16285   4.815   3.063   3.754
 5129SOL    HW116286   4.841   3.125   3.679
 5129SOL    HW216287   4.778   3.117   3.830
 5130SOL     OW16288   2.102   6.373   5.013
 5130SOL    HW116289   2.003   6.375   5.027
 5130SOL    HW216290   2.130   6.279   4.994
 5131SOL     OW16291   3.794   4.907   2.995
 5131SOL    HW116292   3.748   4.872   2.913
 5131SOL    HW216293   3.844   4.832   3.038
 5132SOL     OW16294   3.639   2.049   6.427
 5132SOL    HW116295   3.549   2.007   6.433
 5132SOL    HW216296   3.632   2.137   6.381
 5133SOL     OW16297   4.291   4.649   6.373
 5133SOL    HW116298   4.283   4.630   6.275
 5133SOL    HW216299   4.201   4.644   6.416
 5134SOL     OW16300   5.670   5.784   0.175
 5134SOL    HW116301   5.610   5.863   0.170
 5134SOL    HW216302   5.648   5.730   0.257
 5135SOL     OW16303   0.067   3.000   2.228
 5135SOL    HW116304   0.065   3.070   2.157
 5135SOL    HW216305   0.100   2.914   2.188
 5136SOL     OW16306   0.551   0.603   4.418
 5136SOL    HW116307   0.552   0.674   4.347
 5136SOL    HW216308   0.581   0.516   4.378
 5137SOL     OW16309   5.758   0.550   3.080
 5137SOL    HW116310   5.725   0.624   3.138
 5137SOL    HW216311   5.857   0.543   3.089
 5138SOL     OW16312   2.962   3.829   2.272
 5138SOL    HW116313   2.869   3.865   2.283
 5138SOL    HW216314   2.988   3.781   2.355
 5139SOL     OW16315   4.632   0.139   4.812
 5139SOL    HW116316   4.711   0.150   4.752
 5139SOL    HW216317   4.651   0.180   4.901
 5140SOL     OW16318   3.311   3.719   6.529
 5140SOL    HW116319   3.300   3.709   6.430
 5140SOL    HW216320   3.221   3.716   6.572
 5141SOL     OW16321   1.025   3.370   1.241
 5141SOL    HW116322   1.090   3.443   1.261
 5141SOL    HW216323   1.064   3.309   1.172
 5142SOL     OW16324   0.539   6.908   3.121
 5142SOL    HW116325   0.511   6.942   3.211
 5142SOL    HW216326   0.557   6.810   3.127
 5143SOL     OW16327   6.710   6.131   2.414
 5143SOL    HW116328   6.727   6.071   2.492
 5143SOL    HW216329   6.694   6.224   2.446
 5144SOL     OW16330   1.949   2.821   5.029
 5144SOL    HW116331   1.883   2.850   5.099
 5144SOL    HW216332   1.922   2.732   4.993
 5145SOL     OW16333   1.865   5.865   5.637
 5145SOL    HW116334   1.787   5.844   5.579
 5145SOL    HW216335   1.937   5.907   5.582
 5146SOL     OW16336   6.024   5.789   6.492
 5146SOL    HW116337   6.056   5.757   6.403
 5146SOL    HW216338   6.057   5.726   6.563
 5147SOL     OW16339   5.591   2.023   3.933
 5147SOL    HW116340   5.645   1.942   3.958
 5147SOL    HW216341   5.554   2.011   3.841
 5148SOL     OW16342   6.076   1.627   0.607
 5148SOL    HW116343   5.980   1.639   0.581
 5148SOL    HW216344   6.096   1.529   0.614
 5149SOL     OW16345   3.781   5.809   4.217
 5149SOL    HW116346   3.709   5.807   4.286
 5149SOL    HW216347   3.798   5.716   4.184
 5150SOL     OW16348   6.941   0.873   3.333
 5150SOL    HW116349   6.913   0.868   3.429
 5150SOL    HW216350   6.923   0.965   3.298
 5151SOL     OW16351   5.383   5.196   1.748
 5151SOL    HW116352   5.367   5.280   1.800
 5151SOL    HW216353   5.303   5.136   1.756
 5152SOL     OW16354   2.249   2.156   0.499
 5152SOL    HW116355   2.210   2.183   0.588
 5152SOL    HW216356   2.181   2.171   0.427
 5153SOL     OW16357   2.063   2.823   0.708
 5153SOL    HW116358   2.160   2.802   0.720
 5153SOL    HW216359   2.015   2.808   0.794
 5154SOL     OW16360   0.655   2.507   0.513
 5154SOL    HW116361   0.581   2.524   0.578
 5154SOL    HW216362   0.674   2.590   0.461
 5155SOL     OW16363   1.484   0.867   0.196
 5155SOL    HW116364   1.466   0.933   0.268
 5155SOL    HW216365   1.549   0.798   0.228
 5156SOL     OW16366   4.925   5.281   5.831
 5156SOL    HW116367   4.969   5.315   5.914
 5156SOL    HW216368   4.910   5.183   5.839
 5157SOL     OW16369   3.558   0.924   2.112
 5157SOL    HW116370   3.534   1.009   2.065
 5157SOL    HW216371   3.568   0.942   2.210
 5158SOL     OW16372   1.335   2.243   2.229
 5158SOL    HW116373   1.342   2.270   2.133
 5158SOL    HW216374   1.253   2.186   2.241
 5159SOL     OW16375   6.565   2.903   5.236
 5159SOL    HW116376   6.521   2.980   5.191
 5159SOL    HW216377   6.661   2.900   5.211
 5160SOL     OW16378   6.880   6.866   2.952
 5160SOL    HW116379   6.789   6.834   2.926
 5160SOL    HW216380   6.946   6.792   2.940
 5161SOL     OW16381   0.990   1.864   5.902
 5161SOL    HW116382   0.964   1.900   5.992
 5161SOL    HW216383   1.031   1.773   5.914
 5162SOL     OW16384   0.427   6.716   5.485
 5162SOL    HW116385   0.396   6.698   5.391
 5162SOL    HW216386   0.431   6.815   5.500
 5163SOL     OW16387   3.223   0.374   1.768
 5163SOL    HW116388   3.264   0.465   1.774
 5163SOL    HW216389   3.192   0.357   1.675
 5164SOL     OW16390   2.615   3.456   0.245
 5164SOL    HW116391   2.522   3.437   0.213
 5164SOL    HW216392   2.678   3.388   0.208
 5165SOL     OW16393   1.595   5.014   5.857
 5165SOL    HW116394   1.683   5.014   5.905
 5165SOL    HW216395   1.545   4.931   5.879
 5166SOL     OW16396   6.859   5.773   5.538
 5166SOL    HW116397   6.789   5.785   5.608
 5166SOL    HW216398   6.816   5.778   5.448
 5167SOL     OW16399   5.998   4.006   5.739
 5167SOL    HW116400   6.039   3.994   5.648
 5167SOL    HW216401   5.929   4.078   5.735
 5168SOL     OW16402   4.794   1.685   3.214
 5168SOL    HW116403   4.770   1.699   3.310
 5168SOL    HW216404   4.894   1.686   3.205
 5169SOL     OW16405   4.899   5.580   4.234
 5169SOL    HW116406   4.945   5.622   4.313
 5169SOL    HW216407   4.939   5.490   4.216
 5170SOL     OW16408   2.073   3.997   6.059
 5170SOL    HW116409   2.029   4.077   6.018
 5170SOL    HW216410   2.167   3.990   6.026
 5171SOL     OW16411   2.816   6.464   6.190
 5171SOL    HW116412   2.830   6.455   6.288
 5171SOL    HW216413   2.846   6.380   6.144
 5172SOL     OW16414   5.822   5.536   6.129
 5172SOL    HW116415   5.828   5.488   6.041
 5172SOL    HW216416   5.852   5.631   6.118
 5173SOL     OW16417   3.999   5.744   4.389
 5173SOL    HW116418   3.980   5.783   4.299
 5173SOL    HW216419   4.097   5.730   4.400
 5174SOL     OW16420   0.645   6.367   2.969
 5174SOL    HW116421   0.694   6.342   3.053
 5174SOL    HW216422   0.548   6.343   2.980
 5175SOL     OW16423   2.488   1.816   6.531
 5175SOL    HW116424   2.564   1.784   6.588
 5175SOL    HW216425   2.402   1.779   6.568
 5176SOL     OW16426   6.185   6.442   6.185
 5176SOL    HW116427   6.109   6.465   6.245
 5176SOL    HW216428   6.270   6.477   6.223
 5177SOL     OW16429   5.389   5.257   0.706
 5177SOL    HW116430   5.488   5.247   0.714
 5177SOL    HW216431   5.365   5.354   0.709
 5178SOL     OW16432   0.377   3.862   1.118
 5178SOL    HW116433   0.357   3.960   1.116
 5178SOL    HW216434   0.319   3.814   1.052
 5179SOL     OW16435   4.819   5.177   2.972
 5179SOL    HW116436   4.778   5.192   3.062
 5179SOL    HW216437   4.835   5.079   2.959
 5180SOL     OW16438   1.912   4.536   2.026
 5180SOL    HW116439   1.920   4.603   1.952
 5180SOL    HW216440   1.845   4.569   2.093
 5181SOL     OW16441   6.791   1.388   5.442
 5181SOL    HW116442   6.691   1.388   5.449
 5181SOL    HW216443   6.818   1.380   5.346
 5182SOL     OW16444   2.134   6.434   2.011
 5182SOL    HW116445   2.149   6.379   1.929
 5182SOL    HW216446   2.102   6.376   2.085
 5183SOL     OW16447   4.901   2.009   3.393
 5183SOL    HW116448   4.829   2.012   3.323
 5183SOL    HW216449   4.866   1.961   3.474
 5184SOL     OW16450   2.621   1.773   2.664
 5184SOL    HW116451   2.668   1.860   2.645
 5184SOL    HW216452   2.655   1.703   2.603
 5185SOL     OW16453   6.571   0.175   2.022
 5185SOL    HW116454   6.528   0.085   2.009
 5185SOL    HW216455   6.524   0.224   2.095
 5186SOL     OW16456   6.216   2.600   6.570
 5186SOL    HW116457   6.150   2.572   6.640
 5186SOL    HW216458   6.172   2.599   6.481
 5187SOL     OW16459   1.357   4.603   5.240
 5187SOL    HW116460   1.304   4.653   5.308
 5187SOL    HW216461   1.446   4.646   5.229
 5188SOL     OW16462   6.880   0.424   1.257
 5188SOL    HW116463   6.791   0.381   1.273
 5188SOL    HW216464   6.944   0.356   1.223
 5189SOL     OW16465   5.085   6.187   6.633
 5189SOL    HW116466   5.042   6.098   6.642
 5189SOL    HW216467   5.015   6.258   6.631
 5190SOL     OW16468   1.699   4.725   0.433
 5190SOL    HW116469   1.668   4.745   0.525
 5190SOL    HW216470   1.780   4.666   0.438
 5191SOL     OW16471   2.667   4.046   1.521
 5191SOL    HW116472   2.625   4.045   1.430
 5191SOL    HW216473   2.632   3.969   1.575
 5192SOL     OW16474   0.616   4.745   3.207
 5192SOL    HW116475   0.521   4.758   3.234
 5192SOL    HW216476   0.659   4.678   3.268
 5193SOL     OW16477   4.195   0.616   4.814
 5193SOL    HW116478   4.151   0.575   4.735
 5193SOL    HW216479   4.285   0.651   4.788
 5194SOL     OW16480   4.434   1.705   5.179
 5194SOL    HW116481   4.368   1.664   5.242
 5194SOL    HW216482   4.398   1.791   5.143
 5195SOL     OW16483   1.539   1.065   5.970
 5195SOL    HW116484   1.461   1.004   5.982
 5195SOL    HW216485   1.619   1.025   6.015
 5196SOL     OW16486   5.714   6.447   3.156
 5196SOL    HW116487   5.747   6.409   3.242
 5196SOL    HW216488   5.615   6.432   3.149
 5197SOL     OW16489   1.633   3.589   4.803
 5197SOL    HW116490   1.571   3.656   4.764
 5197SOL    HW216491   1.726   3.608   4.772
 5198SOL     OW16492   6.031   5.406   3.478
 5198SOL    HW116493   5.995   5.448   3.561
 5198SOL    HW216494   5.960   5.407   3.407
 5199SOL     OW16495   0.440   4.742   1.199
 5199SOL    HW116496   0.435   4.793   1.113
 5199SOL    HW216497   0.419   4.804   1.275
 5200SOL     OW16498   6.155   3.857   5.108
 5200SOL    HW116499   6.185   3.782   5.049
 5200SOL    HW216500   6.225   3.876   5.176
 5201SOL     OW16501   1.189   6.236   4.606
 5201SOL    HW116502   1.264   6.210   4.545
 5201SOL    HW216503   1.102   6.222   4.560
 5202SOL     OW16504   6.737   4.546   1.398
 5202SOL    HW116505   6.701   4.639   1.395
 5202SOL    HW216506   6.770   4.521   1.307
 5203SOL     OW16507   6.188   3.042   6.886
 5203SOL    HW116508   6.131   3.036   6.803
 5203SOL    HW216509   6.271   3.093   6.865
 5204SOL     OW16510   5.299   5.407   6.123
 5204SOL    HW116511   5.365   5.342   6.160
 5204SOL    HW216512   5.207   5.370   6.134
 5205SOL     OW16513   2.787   6.438   0.190
 5205SOL    HW116514   2.874   6.460   0.233
 5205SOL    HW216515   2.712   6.463   0.251
 5206SOL     OW16516   0.078   4.624   4.763
 5206SOL    HW116517   0.089   4.669   4.851
 5206SOL    HW216518   0.164   4.630   4.711
 5207SOL     OW16519   1.294   4.747   2.488
 5207SOL    HW116520   1.242   4.787   2.564
 5207SOL    HW216521   1.231   4.723   2.414
 5208SOL     OW16522   5.037   1.490   0.491
 5208SOL    HW116523   5.106   1.558   0.464
 5208SOL    HW216524   4.992   1.520   0.575
 5209SOL     OW16525   5.551   5.209   2.916
 5209SOL    HW116526   5.546   5.134   2.850
 5209SOL    HW216527   5.610   5.181   2.992
 5210SOL     OW16528   4.869   3.880   2.749
 5210SOL    HW116529   4.847   3.960   2.692
 5210SOL    HW216530   4.844   3.899   2.844
 5211SOL     OW16531   3.073   4.026   2.114
 5211SOL    HW116532   3.102   4.105   2.166
 5211SOL    HW216533   3.041   3.954   2.177
 5212SOL     OW16534   0.826   6.715   6.549
 5212SOL    HW116535   0.802   6.705   6.646
 5212SOL    HW216536   0.896   6.786   6.539
 5213SOL     OW16537   4.350   2.456   6.132
 5213SOL    HW116538   4.323   2.381   6.191
 5213SOL    HW216539   4.378   2.535   6.187
 5214SOL     OW16540   4.187   2.107   0.036
 5214SOL    HW116541   4.211   2.072   6.963
 5214SOL    HW216542   4.250   2.181   0.060
 5215SOL     OW16543   5.632   5.190   3.534
 5215SOL    HW116544   5.590   5.109   3.574
 5215SOL    HW216545   5.592   5.272   3.576
 5216SOL     OW16546   4.395   5.736   1.515
 5216SOL    HW116547   4.358   5.695   1.431
 5216SOL    HW216548   4.410   5.664   1.583
 5217SOL     OW16549   2.799   4.889   3.552
 5217SOL    HW116550   2.852   4.973   3.541
 5217SOL    HW216551   2.822   4.847   3.639
 5218SOL     OW16552   1.882   0.226   4.006
 5218SOL    HW116553   1.913   0.225   3.911
 5218SOL    HW216554   1.912   0.142   4.052
 5219SOL     OW16555   2.901   0.535   1.246
 5219SOL    HW116556   2.927   0.440   1.264
 5219SOL    HW216557   2.823   0.537   1.183
 5220SOL     OW16558   1.260   6.714   2.116
 5220SOL    HW116559   1.177   6.728   2.172
 5220SOL    HW216560   1.291   6.802   2.080
 5221SOL     OW16561   4.405   0.931   6.856
 5221SOL    HW116562   4.415   0.988   6.938
 5221SOL    HW216563   4.312   0.939   6.821
 5222SOL     OW16564   0.655   6.528   2.614
 5222SOL    HW116565   0.738   6.516   2.560
 5222SOL    HW216566   0.612   6.440   2.630
 5223SOL     OW16567   4.407   6.676   1.033
 5223SOL    HW116568   4.351   6.601   1.000
 5223SOL    HW216569   4.457   6.717   0.957
 5224SOL     OW16570   5.636   1.242   3.592
 5224SOL    HW116571   5.693   1.286   3.523
 5224SOL    HW216572   5.638   1.143   3.578
 5225SOL     OW16573   0.078   6.865   5.390
 5225SOL    HW116574   0.120   6.776   5.372
 5225SOL    HW216575   0.083   6.922   5.308
 5226SOL     OW16576   2.500   0.099   3.936
 5226SOL    HW116577   2.471   0.160   3.862
 5226SOL    HW216578   2.459   0.129   4.022
 5227SOL     OW16579   4.935   3.691   4.093
 5227SOL    HW116580   4.895   3.763   4.150
 5227SOL    HW216581   5.018   3.724   4.049
 5228SOL     OW16582   5.244   0.917   1.579
 5228SOL    HW116583   5.146   0.932   1.565
 5228SOL    HW216584   5.258   0.858   1.658
 5229SOL     OW16585   1.309   4.502   3.517
 5229SOL    HW116586   1.394   4.452   3.506
 5229SOL    HW216587   1.289   4.554   3.433
 5230SOL     OW16588   1.317   1.115   6.263
 5230SOL    HW116589   1.238   1.122   6.324
 5230SOL    HW216590   1.290   1.068   6.179
 5231SOL     OW16591   2.969   3.404   3.548
 5231SOL    HW116592   2.981   3.398   3.449
 5231SOL    HW216593   3.056   3.428   3.590
 5232SOL     OW16594   5.395   2.929   4.902
 5232SOL    HW116595   5.311   2.905   4.950
 5232SOL    HW216596   5.413   2.862   4.831
 5233SOL     OW16597   1.039   6.985   3.361
 5233SOL    HW116598   0.956   6.991   3.306
 5233SOL    HW216599   1.060   0.057   3.400
 5234SOL     OW16600   3.847   5.067   1.635
 5234SOL    HW116601   3.824   4.996   1.569
 5234SOL    HW216602   3.946   5.072   1.647
 5235SOL     OW16603   1.062   3.319   1.501
 5235SOL    HW116604   1.045   3.322   1.402
 5235SOL    HW216605   1.154   3.283   1.518
 5236SOL     OW16606   6.413   3.475   0.321
 5236SOL    HW116607   6.452   3.426   0.398
 5236SOL    HW216608   6.436   3.428   0.236
 5237SOL     OW16609   1.994   1.362   3.145
 5237SOL    HW116610   1.990   1.430   3.071
 5237SOL    HW216611   1.965   1.404   3.231
 5238SOL     OW16612   2.008   3.552   1.120
 5238SOL    HW116613   1.920   3.592   1.095
 5238SOL    HW216614   2.075   3.624   1.137
 5239SOL     OW16615   2.941   3.308   4.785
 5239SOL    HW116616   2.912   3.218   4.817
 5239SOL    HW216617   2.941   3.308   4.685
 5240SOL     OW16618   3.642   2.150   4.672
 5240SOL    HW116619   3.644   2.228   4.735
 5240SOL    HW216620   3.547   2.126   4.652
 5241SOL     OW16621   2.828   5.516   5.464
 5241SOL    HW116622   2.810   5.614   5.457
 5241SOL    HW216623   2.758   5.473   5.521
 5242SOL     OW16624   4.368   0.282   5.594
 5242SOL    HW116625   4.351   0.189   5.560
 5242SOL    HW216626   4.450   0.282   5.651
 5243SOL     OW16627   0.697   4.101   0.542
 5243SOL    HW116628   0.741   4.175   0.491
 5243SOL    HW216629   0.766   4.035   0.572
 5244SOL     OW16630   5.601   3.511   6.726
 5244SOL    HW116631   5.590   3.440   6.796
 5244SOL    HW216632   5.519   3.513   6.668
 5245SOL     OW16633   4.660   4.955   6.369
 5245SOL    HW116634   4.707   4.892   6.307
 5245SOL    HW216635   4.718   5.036   6.383
 5246SOL     OW16636   1.380   3.959   3.138
 5246SOL    HW116637   1.333   3.871   3.124
 5246SOL    HW216638   1.321   4.020   3.191
 5247SOL     OW16639   0.057   4.544   0.256
 5247SOL    HW116640   0.069   4.624   0.197
 5247SOL    HW216641   7.015   4.478   0.211
 5248SOL     OW16642   5.262   1.316   0.453
 5248SOL    HW116643   5.250   1.304   0.354
 5248SOL    HW216644   5.181   1.360   0.491
 5249SOL     OW16645   1.559   5.760   6.986
 5249SOL    HW116646   1.648   5.765   0.014
 5249SOL    HW216647   1.543   5.846   6.937
 5250SOL     OW16648   1.032   1.544   5.714
 5250SOL    HW116649   0.935   1.523   5.724
 5250SOL    HW216650   1.043   1.638   5.682
 5251SOL     OW16651   0.424   2.838   0.830
 5251SOL    HW116652   0.451   2.912   0.769
 5251SOL    HW216653   0.506   2.796   0.869
 5252SOL     OW16654   5.048   6.888   1.159
 5252SOL    HW116655   5.078   6.907   1.252
 5252SOL    HW216656   4.973   6.822   1.161
 5253SOL     OW16657   5.821   2.997   3.860
 5253SOL    HW116658   5.760   3.075   3.868
 5253SOL    HW216659   5.768   2.915   3.837
 5254SOL     OW16660   5.508   0.546   4.421
 5254SOL    HW116661   5.561   0.470   4.384
 5254SOL    HW216662   5.497   0.534   4.520
 5255SOL     OW16663   2.664   5.586   3.902
 5255SOL    HW116664   2.610   5.572   3.819
 5255SOL    HW216665   2.662   5.683   3.927
 5256SOL     OW16666   4.843   6.613   1.972
 5256SOL    HW116667   4.770   6.673   2.004
 5256SOL    HW216668   4.853   6.536   2.035
 5257SOL     OW16669   3.150   1.462   3.417
 5257SOL    HW116670   3.079   1.433   3.353
 5257SOL    HW216671   3.114   1.535   3.475
 5258SOL     OW16672   5.941   2.035   2.109
 5258SOL    HW116673   5.932   2.128   2.146
 5258SOL    HW216674   5.938   1.969   2.184
 5259SOL     OW16675   5.647   4.386   1.524
 5259SOL    HW116676   5.630   4.402   1.426
 5259SOL    HW216677   5.560   4.384   1.573
 5260SOL     OW16678   4.885   2.840   1.550
 5260SOL    HW116679   4.873   2.760   1.609
 5260SOL    HW216680   4.916   2.918   1.606
 5261SOL     OW16681   2.587   2.447   4.844
 5261SOL    HW116682   2.592   2.434   4.745
 5261SOL    HW216683   2.535   2.530   4.863
 5262SOL     OW16684   1.677   0.330   1.913
 5262SOL    HW116685   1.666   0.234   1.938
 5262SOL    HW216686   1.770   0.345   1.879
 5263SOL     OW16687   1.292   6.744   6.805
 5263SOL    HW116688   1.280   6.656   6.761
 5263SOL    HW216689   1.309   6.730   6.903
 5264SOL     OW16690   1.006   1.622   1.066
 5264SOL    HW116691   1.085   1.668   1.026
 5264SOL    HW216692   0.962   1.683   1.132
 5265SOL     OW16693   5.219   4.836   3.742
 5265SOL    HW116694   5.282   4.758   3.739
 5265SOL    HW216695   5.238   4.890   3.824
 5266SOL     OW16696   1.929   0.086   1.310
 5266SOL    HW116697   2.006   0.051   1.363
 5266SOL    HW216698   1.962   0.152   1.242
 5267SOL     OW16699   4.306   3.820   5.301
 5267SOL    HW116700   4.350   3.730   5.309
 5267SOL    HW216701   4.228   3.813   5.238
 5268SOL     OW16702   5.389   4.979   5.757
 5268SOL    HW116703   5.475   5.023   5.730
 5268SOL    HW216704   5.351   4.929   5.679
 5269SOL     OW16705   1.864   4.622   5.962
 5269SOL    HW116706   1.824   4.595   6.049
 5269SOL    HW216707   1.812   4.580   5.887
 5270SOL     OW16708   6.909   2.475   3.542
 5270SOL    HW116709   6.847   2.485   3.464
 5270SOL    HW216710   6.960   2.389   3.533
 5271SOL     OW16711   5.401   3.772   5.744
 5271SOL    HW116712   5.394   3.686   5.793
 5271SOL    HW216713   5.479   3.824   5.779
 5272SOL     OW16714   2.028   1.300   3.518
 5272SOL    HW116715   2.123   1.273   3.507
 5272SOL    HW216716   2.013   1.333   3.611
 5273SOL     OW16717   6.898   0.304   5.111
 5273SOL    HW116718   6.943   0.373   5.167
 5273SOL    HW216719   6.825   0.260   5.164
 5274SOL     OW16720   0.699   5.654   4.756
 5274SOL    HW116721   0.630   5.619   4.694
 5274SOL    HW216722   0.662   5.656   4.849
 5275SOL     OW16723   1.993   6.529   6.656
 5275SOL    HW116724   1.962   6.606   6.712
 5275SOL    HW216725   2.007   6.560   6.562
 5276SOL     OW16726   0.410   6.988   0.516
 5276SOL    HW116727   0.464   6.947   0.590
 5276SOL    HW216728   0.359   0.049   0.552
 5277SOL     OW16729   0.553   0.940   2.313
 5277SOL    HW116730   0.510   0.974   2.229
 5277SOL    HW216731   0.482   0.914   2.378
 5278SOL     OW16732   0.586   3.845   6.088
 5278SOL    HW116733   0.529   3.908   6.142
 5278SOL    HW216734   0.657   3.898   6.041
 5279SOL     OW16735   3.067   6.741   6.867
 5279SOL    HW116736   2.981   6.771   6.908
 5279SOL    HW216737   3.060   6.745   6.767
 5280SOL     OW16738   4.626   6.582   5.189
 5280SOL    HW116739   4.624   6.668   5.239
 5280SOL    HW216740   4.711   6.576   5.136
 5281SOL     OW16741   2.909   6.848   4.878
 5281SOL    HW116742   2.820   6.883   4.907
 5281SOL    HW216743   2.981   6.892   4.932
 5282SOL     OW16744   0.239   6.671   0.454
 5282SOL    HW116745   0.339   6.668   0.444
 5282SOL    HW216746   0.200   6.724   0.379
 5283SOL     OW16747   1.251   1.344   4.046
 5283SOL    HW116748   1.323   1.412   4.033
 5283SOL    HW216749   1.292   1.254   4.062
 5284SOL     OW16750   4.913   3.146   2.111
 5284SOL    HW116751   5.001   3.099   2.101
 5284SOL    HW216752   4.839   3.084   2.082
 5285SOL     OW16753   1.547   2.111   4.232
 5285SOL    HW116754   1.523   2.014   4.226
 5285SOL    HW216755   1.521   2.146   4.321
 5286SOL     OW16756   6.518   2.875   1.266
 5286SOL    HW116757   6.529   2.904   1.171
 5286SOL    HW216758   6.443   2.810   1.273
 5287SOL     OW16759   0.953   5.453   1.990
 5287SOL    HW116760   0.949   5.379   1.923
 5287SOL    HW216761   0.905   5.533   1.955
 5288SOL     OW16762   4.323   0.626   1.627
 5288SOL    HW116763   4.277   0.637   1.539
 5288SOL    HW216764   4.292   0.542   1.671
 5289SOL     OW16765   2.659   4.598   5.888
 5289SOL    HW116766   2.590   4.647   5.941
 5289SOL    HW216767   2.617   4.561   5.805
 5290SOL     OW16768   1.794   2.851   4.647
 5290SOL    HW116769   1.885   2.864   4.607
 5290SOL    HW216770   1.744   2.938   4.645
 5291SOL     OW16771   2.964   4.875   4.542
 5291SOL    HW116772   2.937   4.881   4.638
 5291SOL    HW216773   3.036   4.806   4.532
 5292SOL     OW16774   0.379   4.043   4.848
 5292SOL    HW116775   0.368   4.142   4.858
 5292SOL    HW216776   0.295   4.003   4.812
 5293SOL     OW16777   2.685   0.404   4.233
 5293SOL    HW116778   2.586   0.388   4.233
 5293SOL    HW216779   2.723   0.377   4.322
 5294SOL     OW16780   5.097   6.750   4.617
 5294SOL    HW116781   5.176   6.692   4.598
 5294SOL    HW216782   5.022   6.694   4.651
 5295SOL     OW16783   2.139   0.665   1.750
 5295SOL    HW116784   2.044   0.694   1.759
 5295SOL    HW216785   2.174   0.636   1.840
 5296SOL     OW16786   4.674   4.669   2.051
 5296SOL    HW116787   4.647   4.657   1.956
 5296SOL    HW216788   4.656   4.763   2.079
 5297SOL     OW16789   2.934   5.504   6.223
 5297SOL    HW116790   3.020   5.453   6.222
 5297SOL    HW216791   2.950   5.595   6.261
 5298SOL     OW16792   2.529   2.270   0.550
 5298SOL    HW116793   2.439   2.264   0.506
 5298SOL    HW216794   2.564   2.178   0.566
 5299SOL     OW16795   2.547   0.831   1.619
 5299SOL    HW116796   2.575   0.739   1.645
 5299SOL    HW216797   2.622   0.895   1.635
 5300SOL     OW16798   3.372   5.037   6.868
 5300SOL    HW116799   3.324   5.125   6.873
 5300SOL    HW216800   3.306   4.963   6.876
 5301SOL     OW16801   5.737   0.013   5.919
 5301SOL    HW116802   5.693   0.042   5.834
 5301SOL    HW216803   5.700   0.065   5.996
 5302SOL     OW16804   4.871   5.840   2.792
 5302SOL    HW116805   4.939   5.767   2.781
 5302SOL    HW216806   4.906   5.909   2.855
 5303SOL     OW16807   1.076   5.682   5.324
 5303SOL    HW116808   1.055   5.704   5.229
 5303SOL    HW216809   1.150   5.614   5.327
 5304SOL     OW16810   0.473   0.716   3.194
 5304SOL    HW116811   0.538   0.767   3.138
 5304SOL    HW216812   0.403   0.675   3.135
 5305SOL     OW16813   6.912   5.581   4.613
 5305SOL    HW116814   6.973   5.621   4.545
 5305SOL    HW216815   6.898   5.645   4.689
 5306SOL     OW16816   0.915   2.166   5.865
 5306SOL    HW116817   0.965   2.211   5.938
 5306SOL    HW216818   0.932   2.067   5.869
 5307SOL     OW16819   0.198   1.499   1.180
 5307SOL    HW116820   0.156   1.410   1.159
 5307SOL    HW216821   0.132   1.556   1.229
 5308SOL     OW16822   1.396   4.386   2.359
 5308SOL    HW116823   1.419   4.428   2.446
 5308SOL    HW216824   1.346   4.451   2.302
 5309SOL     OW16825   5.771   5.620   3.384
 5309SOL    HW116826   5.701   5.623   3.456
 5309SOL    HW216827   5.754   5.694   3.318
 5310SOL     OW16828   6.205   2.675   3.594
 5310SOL    HW116829   6.273   2.679   3.521
 5310SOL    HW216830   6.248   2.693   3.682
 5311SOL     OW16831   6.085   0.405   6.997
 5311SOL    HW116832   6.165   0.449   6.956
 5311SOL    HW216833   6.088   0.416   0.079
 5312SOL     OW16834   6.097   6.168   0.441
 5312SOL    HW116835   6.064   6.231   0.512
 5312SOL    HW216836   6.056   6.078   0.456
 5313SOL     OW16837   0.804   0.065   5.744
 5313SOL    HW116838   0.903   0.055   5.748
 5313SOL    HW216839   0.772   0.041   5.652
 5314SOL     OW16840   5.978   1.670   2.033
 5314SOL    HW116841   5.934   1.757   2.017
 5314SOL    HW216842   6.053   1.658   1.968
 5315SOL     OW16843   4.423   2.239   3.573
 5315SOL    HW116844   4.464   2.260   3.484
 5315SOL    HW216845   4.432   2.317   3.634
 5316SOL     OW16846   0.391   2.475   4.546
 5316SOL    HW116847   0.342   2.512   4.467
 5316SOL    HW216848   0.328   2.419   4.600
 5317SOL     OW16849   5.454   2.640   6.698
 5317SOL    HW116850   5.508   2.584   6.636
 5317SOL    HW216851   5.358   2.612   6.694
 5318SOL     OW16852   0.110   3.881   6.105
 5318SOL    HW116853   0.170   3.928   6.041
 5318SOL    HW216854   0.060   3.949   6.159
 5319SOL     OW16855   3.571   5.889   2.431
 5319SOL    HW116856   3.545   5.952   2.358
 5319SOL    HW216857   3.490   5.840   2.462
 5320SOL     OW16858   4.136   5.775   1.059
 5320SOL    HW116859   4.218   5.759   1.005
 5320SOL    HW216860   4.075   5.696   1.053
 5321SOL     OW16861   1.456   4.487   5.573
 5321SOL    HW116862   1.543   4.510   5.529
 5321SOL    HW216863   1.388   4.557   5.550
 5322SOL     OW16864   4.033   6.847   2.271
 5322SOL    HW116865   4.066   6.756   2.244
 5322SOL    HW216866   3.966   6.837   2.345
 5323SOL     OW16867   4.240   0.347   6.118
 5323SOL    HW116868   4.244   0.345   6.018
 5323SOL    HW216869   4.237   0.442   6.150
 5324SOL     OW16870   1.612   2.136   1.524
 5324SOL    HW116871   1.517   2.163   1.541
 5324SOL    HW216872   1.665   2.149   1.608
 5325SOL     OW16873   1.974   2.537   5.026
 5325SOL    HW116874   2.013   2.463   4.973
 5325SOL    HW216875   2.047   2.586   5.074
 5326SOL     OW16876   6.266   0.028   1.278
 5326SOL    HW116877   6.209   0.109   1.269
 5326SOL    HW216878   6.214   6.965   1.250
 5327SOL     OW16879   0.355   2.308   5.498
 5327SOL    HW116880   0.272   2.253   5.492
 5327SOL    HW216881   0.340   2.396   5.452
 5328SOL     OW16882   4.815   5.627   0.212
 5328SOL    HW116883   4.769   5.609   0.126
 5328SOL    HW216884   4.799   5.552   0.276
 5329SOL     OW16885   2.177   6.833   6.344
 5329SOL    HW116886   2.269   6.864   6.318
 5329SOL    HW216887   2.108   6.889   6.298
 5330SOL     OW16888   2.339   4.775   1.513
 5330SOL    HW116889   2.413   4.715   1.543
 5330SOL    HW216890   2.347   4.790   1.414
 5331SOL     OW16891   6.379   1.056   6.467
 5331SOL    HW116892   6.345   1.138   6.514
 5331SOL    HW216893   6.419   0.994   6.534
 5332SOL     OW16894   6.991   5.236   1.762
 5332SOL    HW116895   6.978   5.307   1.694
 5332SOL    HW216896   0.068   5.205   1.761
 5333SOL     OW16897   0.997   5.821   4.777
 5333SOL    HW116898   1.097   5.824   4.769
 5333SOL    HW216899   0.968   5.726   4.792
 5334SOL     OW16900   3.918   0.201   4.892
 5334SOL    HW116901   3.934   0.164   4.800
 5334SOL    HW216902   3.834   0.255   4.892
 5335SOL     OW16903   0.163   5.617   0.152
 5335SOL    HW116904   0.218   5.681   0.099
 5335SOL    HW216905   0.141   5.538   0.096
 5336SOL     OW16906   1.168   4.727   1.388
 5336SOL    HW116907   1.178   4.820   1.424
 5336SOL    HW216908   1.240   4.711   1.320
 5337SOL     OW16909   5.149   3.915   1.316
 5337SOL    HW116910   5.188   3.851   1.382
 5337SOL    HW216911   5.066   3.957   1.354
 5338SOL     OW16912   6.047   1.956   0.199
 5338SOL    HW116913   6.071   2.014   0.121
 5338SOL    HW216914   6.004   1.872   0.165
 5339SOL     OW16915   6.499   0.549   1.804
 5339SOL    HW116916   6.507   0.542   1.903
 5339SOL    HW216917   6.482   0.458   1.765
 5340SOL     OW16918   5.718   2.131   5.996
 5340SOL    HW116919   5.694   2.197   6.066
 5340SOL    HW216920   5.726   2.176   5.907
 5341SOL     OW16921   4.534   0.786   0.591
 5341SOL    HW116922   4.460   0.725   0.560
 5341SOL    HW216923   4.521   0.808   0.688
 5342SOL     OW16924   2.471   0.992   6.293
 5342SOL    HW116925   2.556   1.021   6.248
 5342SOL    HW216926   2.412   1.071   6.308
 5343SOL     OW16927   3.874   3.812   1.995
 5343SOL    HW116928   3.804   3.858   2.050
 5343SOL    HW216929   3.932   3.757   2.054
 5344SOL     OW16930   2.423   2.482   2.683
 5344SOL    HW116931   2.382   2.440   2.764
 5344SOL    HW216932   2.380   2.444   2.601
 5345SOL     OW16933   5.135   0.177   2.695
 5345SOL    HW116934   5.158   0.265   2.736
 5345SOL    HW216935   5.060   0.134   2.746
 5346SOL     OW16936   2.850   6.610   3.455
 5346SOL    HW116937   2.819   6.705   3.454
 5346SOL    HW216938   2.814   6.564   3.536
 5347SOL     OW16939   6.971   1.665   1.718
 5347SOL    HW116940   0.051   1.649   1.718
 5347SOL    HW216941   6.952   1.757   1.682
 5348SOL     OW16942   0.137   1.043   0.592
 5348SOL    HW116943   0.055   0.992   0.618
 5348SOL    HW216944   0.199   1.047   0.670
 5349SOL     OW16945   6.087   0.243   1.268
 5349SOL    HW116946   5.994   0.210   1.250
 5349SOL    HW216947   6.092   0.340   1.245
 5350SOL     OW16948   2.726   0.477   0.203
 5350SOL    HW116949   2.627   0.490   0.202
 5350SOL    HW216950   2.771   0.564   0.226
 5351SOL     OW16951   4.116   0.483   1.804
 5351SOL    HW116952   4.069   0.526   1.728
 5351SOL    HW216953   4.084   0.523   1.890
 5352SOL     OW16954   3.220   6.257   3.547
 5352SOL    HW116955   3.156   6.282   3.474
 5352SOL    HW216956   3.223   6.158   3.558
 5353SOL     OW16957   5.762   0.285   5.652
 5353SOL    HW116958   5.746   0.324   5.743
 5353SOL    HW216959   5.699   0.209   5.637
 5354SOL     OW16960   1.211   3.510   1.347
 5354SOL    HW116961   1.308   3.487   1.358
 5354SOL    HW216962   1.178   3.554   1.430
 5355SOL     OW16963   4.100   1.858   5.412
 5355SOL    HW116964   4.027   1.905   5.362
 5355SOL    HW216965   4.061   1.784   5.467
 5356SOL     OW16966   5.692   3.148   0.468
 5356SOL    HW116967   5.692   3.048   0.461
 5356SOL    HW216968   5.772   3.185   0.420
 5357SOL     OW16969   4.040   6.149   0.697
 5357SOL    HW116970   4.052   6.065   0.750
 5357SOL    HW216971   3.964   6.138   0.632
 5358SOL     OW16972   5.160   3.674   1.755
 5358SOL    HW116973   5.227   3.694   1.683
 5358SOL    HW216974   5.173   3.581   1.788
 5359SOL     OW16975   2.961   0.239   6.992
 5359SOL    HW116976   2.947   0.160   6.932
 5359SOL    HW216977   3.041   0.224   0.032
 5360SOL     OW16978   4.195   0.411   7.010
 5360SOL    HW116979   4.234   0.490   6.964
 5360SOL    HW216980   4.157   0.439   0.081
 5361SOL     OW16981   1.583   0.768   6.193
 5361SOL    HW116982   1.608   0.849   6.246
 5361SOL    HW216983   1.484   0.759   6.191
 5362SOL     OW16984   3.699   5.494   3.557
 5362SOL    HW116985   3.756   5.417   3.584
 5362SOL    HW216986   3.665   5.541   3.639
 5363SOL     OW16987   0.726   5.405   4.970
 5363SOL    HW116988   0.793   5.344   4.929
 5363SOL    HW216989   0.641   5.403   4.916
 5364SOL     OW16990   1.077   6.330   6.737
 5364SOL    HW116991   1.007   6.392   6.701
 5364SOL    HW216992   1.047   6.235   6.727
 5365SOL     OW16993   3.589   1.709   6.022
 5365SOL    HW116994   3.548   1.621   6.047
 5365SOL    HW216995   3.666   1.728   6.084
 5366SOL     OW16996   3.298   4.436   6.394
 5366SOL    HW116997   3.328   4.501   6.465
 5366SOL    HW216998   3.216   4.471   6.349
 5367SOL     OW16999   0.559   4.700   0.813
 5367SOL    HW117000   0.553   4.668   0.718
 5367SOL    HW217001   0.655   4.705   0.840
 5368SOL     OW17002   6.978   0.708   3.979
 5368SOL    HW117003   0.013   0.633   4.019
 5368SOL    HW217004   6.893   0.671   3.940
 5369SOL     OW17005   2.093   3.318   2.459
 5369SOL    HW117006   2.072   3.221   2.457
 5369SOL    HW217007   2.111   3.347   2.553
 5370SOL     OW17008   4.002   2.929   1.253
 5370SOL    HW117009   4.101   2.939   1.260
 5370SOL    HW217010   3.963   2.921   1.345
 5371SOL     OW17011   1.695   4.105   5.058
 5371SOL    HW117012   1.688   4.160   4.975
 5371SOL    HW217013   1.669   4.010   5.038
 5372SOL     OW17014   2.690   6.176   3.258
 5372SOL    HW117015   2.658   6.155   3.166
 5372SOL    HW217016   2.752   6.103   3.289
 5373SOL     OW17017   2.001   5.015   4.310
 5373SOL    HW117018   1.951   5.039   4.393
 5373SOL    HW217019   2.077   4.954   4.333
 5374SOL     OW17020   2.987   2.612   0.534
 5374SOL    HW117021   2.982   2.571   0.625
 5374SOL    HW217022   3.064   2.572   0.483
 5375SOL     OW17023   1.157   3.814   4.907
 5375SOL    HW117024   1.245   3.852   4.880
 5375SOL    HW217025   1.129   3.853   4.995
 5376SOL     OW17026   2.886   4.239   6.867
 5376SOL    HW117027   2.807   4.250   6.807
 5376SOL    HW217028   2.958   4.189   6.818
 5377SOL     OW17029   0.672   1.607   1.649
 5377SOL    HW117030   0.681   1.508   1.663
 5377SOL    HW217031   0.662   1.653   1.737
 5378SOL     OW17032   5.173   6.730   0.338
 5378SOL    HW117033   5.235   6.807   0.326
 5378SOL    HW217034   5.122   6.740   0.424
 5379SOL     OW17035   6.956   6.784   0.728
 5379SOL    HW117036   0.015   6.735   0.686
 5379SOL    HW217037   6.977   6.801   0.825
 5380SOL     OW17038   2.509   1.234   4.071
 5380SOL    HW117039   2.563   1.178   4.134
 5380SOL    HW217040   2.428   1.268   4.118
 5381SOL     OW17041   5.785   3.748   1.313
 5381SOL    HW117042   5.868   3.749   1.369
 5381SOL    HW217043   5.765   3.654   1.285
 5382SOL     OW17044   1.530   0.032   1.440
 5382SOL    HW117045   1.607   0.036   1.505
 5382SOL    HW217046   1.561   0.064   1.350
 5383SOL     OW17047   2.245   2.290   4.714
 5383SOL    HW117048   2.192   2.289   4.799
 5383SOL    HW217049   2.275   2.384   4.696
 5384SOL     OW17050   5.482   6.589   4.398
 5384SOL    HW117051   5.578   6.611   4.410
 5384SOL    HW217052   5.434   6.600   4.485
 5385SOL     OW17053   3.169   4.008   2.940
 5385SOL    HW117054   3.180   4.043   3.033
 5385SOL    HW217055   3.108   3.929   2.940
 5386SOL     OW17056   5.619   0.061   5.653
 5386SOL    HW117057   5.679   7.017   5.602
 5386SOL    HW217058   5.527   0.056   5.615
 5387SOL     OW17059   3.364   5.072   1.278
 5387SOL    HW117060   3.349   5.170   1.265
 5387SOL    HW217061   3.463   5.054   1.278
 5388SOL     OW17062   6.236   6.209   2.966
 5388SOL    HW117063   6.262   6.166   2.880
 5388SOL    HW217064   6.140   6.237   2.962
 5389SOL     OW17065   5.743   2.361   1.422
 5389SOL    HW117066   5.766   2.351   1.325
 5389SOL    HW217067   5.791   2.291   1.475
 5390SOL     OW17068   6.168   4.795   5.960
 5390SOL    HW117069   6.244   4.737   5.930
 5390SOL    HW217070   6.087   4.739   5.974
 5391SOL     OW17071   3.215   3.196   6.940
 5391SOL    HW117072   3.163   3.111   6.930
 5391SOL    HW217073   3.270   3.191   0.006
 5392SOL     OW17074   6.668   2.753   2.672
 5392SOL    HW117075   6.578   2.784   2.704
 5392SOL    HW217076   6.656   2.681   2.604
 5393SOL     OW17077   6.448   6.552   6.304
 5393SOL    HW117078   6.488   6.599   6.383
 5393SOL    HW217079   6.465   6.454   6.311
 5394SOL     OW17080   2.139   3.798   5.425
 5394SOL    HW117081   2.200   3.722   5.401
 5394SOL    HW217082   2.052   3.761   5.458
 5395SOL     OW17083   4.432   0.668   1.078
 5395SOL    HW117084   4.521   0.712   1.068
 5395SOL    HW217085   4.433   0.580   1.030
 5396SOL     OW17086   4.696   2.576   2.178
 5396SOL    HW117087   4.686   2.648   2.109
 5396SOL    HW217088   4.656   2.607   2.265
 5397SOL     OW17089   0.889   2.763   1.594
 5397SOL    HW117090   0.969   2.763   1.533
 5397SOL    HW217091   0.885   2.676   1.643
 5398SOL     OW17092   3.344   3.197   2.039
 5398SOL    HW117093   3.406   3.127   2.003
 5398SOL    HW217094   3.261   3.198   1.984
 5399SOL     OW17095   0.664   5.269   6.940
 5399SOL    HW117096   0.762   5.288   6.940
 5399SOL    HW217097   0.627   5.282   0.014
 5400SOL     OW17098   2.402   3.582   6.911
 5400SOL    HW117099   2.441   3.542   6.828
 5400SOL    HW217100   2.302   3.577   6.906
 5401SOL     OW17101   6.354   1.925   0.848
 5401SOL    HW117102   6.355   1.828   0.874
 5401SOL    HW217103   6.260   1.953   0.829
 5402SOL     OW17104   1.171   6.013   2.759
 5402SOL    HW117105   1.160   6.039   2.664
 5402SOL    HW217106   1.264   6.033   2.790
 5403SOL     OW17107   6.147   3.278   6.610
 5403SOL    HW117108   6.104   3.300   6.522
 5403SOL    HW217109   6.109   3.193   6.645
 5404SOL     OW17110   1.275   2.970   3.232
 5404SOL    HW117111   1.284   2.872   3.250
 5404SOL    HW217112   1.317   2.991   3.144
 5405SOL     OW17113   7.005   3.740   5.162
 5405SOL    HW117114   6.934   3.774   5.224
 5405SOL    HW217115   0.075   3.736   5.210
 5406SOL     OW17116   1.462   0.613   4.098
 5406SOL    HW117117   1.557   0.617   4.067
 5406SOL    HW217118   1.405   0.571   4.028
 5407SOL     OW17119   4.166   3.423   6.627
 5407SOL    HW117120   4.088   3.379   6.672
 5407SOL    HW217121   4.241   3.358   6.619
 5408SOL     OW17122   3.676   1.083   0.127
 5408SOL    HW117123   3.751   1.042   0.075
 5408SOL    HW217124   3.685   1.182   0.125
 5409SOL     OW17125   4.580   0.494   2.608
 5409SOL    HW117126   4.620   0.508   2.517
 5409SOL    HW217127   4.504   0.430   2.602
 5410SOL     OW17128   1.775   1.970   3.427
 5410SOL    HW117129   1.677   1.951   3.420
 5410SOL    HW217130   1.810   1.999   3.338
 5411SOL     OW17131   1.940   4.721   4.879
 5411SOL    HW117132   1.955   4.783   4.802
 5411SOL    HW217133   1.967   4.766   4.964
 5412SOL     OW17134   6.556   2.306   2.151
 5412SOL    HW117135   6.514   2.376   2.093
 5412SOL    HW217136   6.635   2.266   2.103
 5413SOL     OW17137   2.061   6.766   2.567
 5413SOL    HW117138   1.970   6.746   2.603
 5413SOL    HW217139   2.095   6.686   2.518
 5414SOL     OW17140   4.216   0.792   5.166
 5414SOL    HW117141   4.139   0.835   5.212
 5414SOL    HW217142   4.196   0.696   5.149
 5415SOL     OW17143   6.260   3.994   2.638
 5415SOL    HW117144   6.195   3.980   2.713
 5415SOL    HW217145   6.288   3.906   2.600
 5416SOL     OW17146   4.310   5.450   4.420
 5416SOL    HW117147   4.329   5.453   4.321
 5416SOL    HW217148   4.293   5.355   4.447
 5417SOL     OW17149   3.184   0.046   5.940
 5417SOL    HW117150   3.121   0.124   5.931
 5417SOL    HW217151   3.132   6.979   5.935
 5418SOL     OW17152   3.712   0.783   3.617
 5418SOL    HW117153   3.623   0.747   3.645
 5418SOL    HW217154   3.782   0.714   3.634
 5419SOL     OW17155   3.608   4.090   0.005
 5419SOL    HW117156   3.642   4.181   0.028
 5419SOL    HW217157   3.508   4.087   0.016
 5420SOL     OW17158   0.782   2.579   2.748
 5420SOL    HW117159   0.752   2.620   2.662
 5420SOL    HW217160   0.881   2.566   2.747
 5421SOL     OW17161   1.613   2.848   0.865
 5421SOL    HW117162   1.615   2.948   0.873
 5421SOL    HW217163   1.590   2.824   0.770
 5422SOL     OW17164   1.010   3.807   0.107
 5422SOL    HW117165   0.987   3.853   0.193
 5422SOL    HW217166   1.108   3.786   0.106
 5423SOL     OW17167   5.393   3.155   5.623
 5423SOL    HW117168   5.451   3.194   5.552
 5423SOL    HW217169   5.315   3.217   5.640
 5424SOL     OW17170   5.513   3.631   5.492
 5424SOL    HW117171   5.507   3.694   5.569
 5424SOL    HW217172   5.483   3.676   5.409
 5425SOL     OW17173   5.296   0.523   4.809
 5425SOL    HW117174   5.316   0.425   4.810
 5425SOL    HW217175   5.202   0.538   4.777
 5426SOL     OW17176   0.152   6.612   5.035
 5426SOL    HW117177   0.152   6.541   4.965
 5426SOL    HW217178   0.194   6.695   4.998
 5427SOL     OW17179   4.230   6.725   0.030
 5427SOL    HW117180   4.139   6.696   0.060
 5427SOL    HW217181   4.294   6.721   0.106
 5428SOL     OW17182   2.331   0.718   7.001
 5428SOL    HW117183   2.355   0.732   6.905
 5428SOL    HW217184   2.326   0.806   0.030
 5429SOL     OW17185   1.232   2.385   5.868
 5429SOL    HW117186   1.154   2.336   5.906
 5429SOL    HW217187   1.247   2.469   5.920
 5430SOL     OW17188   2.207   2.244   5.214
 5430SOL    HW117189   2.234   2.149   5.234
 5430SOL    HW217190   2.289   2.298   5.194
 5431SOL     OW17191   3.336   5.692   4.373
 5431SOL    HW117192   3.369   5.679   4.280
 5431SOL    HW217193   3.398   5.645   4.437
 5432SOL     OW17194   5.631   5.665   1.289
 5432SOL    HW117195   5.542   5.695   1.324
 5432SOL    HW217196   5.618   5.614   1.204
 5433SOL     OW17197   0.163   1.947   4.166
 5433SOL    HW117198   0.157   1.940   4.066
 5433SOL    HW217199   0.177   2.043   4.191
 5434SOL     OW17200   2.556   6.812   5.187
 5434SOL    HW117201   2.463   6.779   5.178
 5434SOL    HW217202   2.620   6.737   5.171
 5435SOL     OW17203   5.262   1.333   1.963
 5435SOL    HW117204   5.221   1.394   1.896
 5435SOL    HW217205   5.230   1.239   1.947
 5436SOL     OW17206   5.025   3.941   2.424
 5436SOL    HW117207   5.097   3.955   2.357
 5436SOL    HW217208   4.945   3.995   2.399
 5437SOL     OW17209   3.408   4.541   6.681
 5437SOL    HW117210   3.463   4.624   6.684
 5437SOL    HW217211   3.466   4.464   6.654
 5438SOL     OW17212   6.712   0.948   1.062
 5438SOL    HW117213   6.778   1.023   1.070
 5438SOL    HW217214   6.740   0.872   1.119
 5439SOL     OW17215   1.151   3.010   1.366
 5439SOL    HW117216   1.123   3.043   1.276
 5439SOL    HW217217   1.246   3.036   1.383
 5440SOL     OW17218   1.546   1.289   1.301
 5440SOL    HW117219   1.506   1.344   1.227
 5440SOL    HW217220   1.629   1.245   1.269
 5441SOL     OW17221   3.673   2.097   4.142
 5441SOL    HW117222   3.612   2.118   4.065
 5441SOL    HW217223   3.625   2.117   4.228
 5442SOL     OW17224   3.291   0.691   2.121
 5442SOL    HW117225   3.369   0.727   2.070
 5442SOL    HW217226   3.206   0.718   2.075
 5443SOL     OW17227   2.853   0.035   5.873
 5443SOL    HW117228   2.849   0.122   5.922
 5443SOL    HW217229   2.917   0.044   5.796
 5444SOL     OW17230   0.262   0.712   3.665
 5444SOL    HW117231   0.237   0.652   3.740
 5444SOL    HW217232   0.189   0.710   3.596
 5445SOL     OW17233   5.941   3.540   1.850
 5445SOL    HW117234   6.027   3.491   1.864
 5445SOL    HW217235   5.960   3.637   1.834
 5446SOL     OW17236   6.814   5.429   5.938
 5446SOL    HW117237   6.762   5.513   5.951
 5446SOL    HW217238   6.912   5.450   5.933
 5447SOL     OW17239   2.900   2.290   0.934
 5447SOL    HW117240   2.923   2.290   1.031
 5447SOL    HW217241   2.915   2.382   0.897
 5448SOL     OW17242   5.602   1.824   6.196
 5448SOL    HW117243   5.526   1.784   6.144
 5448SOL    HW217244   5.682   1.834   6.137
 5449SOL     OW17245   0.309   2.513   6.501
 5449SOL    HW117246   0.407   2.496   6.507
 5449SOL    HW217247   0.285   2.597   6.550
 5450SOL     OW17248   2.267   5.867   0.921
 5450SOL    HW117249   2.316   5.798   0.975
 5450SOL    HW217250   2.315   5.881   0.835
 5451SOL     OW17251   1.820   0.202   2.928
 5451SOL    HW117252   1.870   0.252   2.858
 5451SOL    HW217253   1.782   0.118   2.889
 5452SOL     OW17254   2.483   3.711   5.570
 5452SOL    HW117255   2.583   3.705   5.574
 5452SOL    HW217256   2.456   3.748   5.481
 5453SOL     OW17257   0.568   5.010   5.972
 5453SOL    HW117258   0.601   5.102   5.948
 5453SOL    HW217259   0.629   4.971   6.041
 5454SOL     OW17260   0.281   3.896   5.076
 5454SOL    HW117261   0.324   3.946   5.001
 5454SOL    HW217262   0.230   3.819   5.040
 5455SOL     OW17263   6.817   2.842   0.688
 5455SOL    HW117264   6.733   2.850   0.741
 5455SOL    HW217265   6.795   2.818   0.593
 5456SOL     OW17266   3.296   6.757   1.745
 5456SOL    HW117267   3.315   6.844   1.699
 5456SOL    HW217268   3.270   6.688   1.678
 5457SOL     OW17269   6.627   3.716   0.334
 5457SOL    HW117270   6.673   3.628   0.325
 5457SOL    HW217271   6.529   3.703   0.322
 5458SOL     OW17272   2.068   4.291   6.027
 5458SOL    HW117273   2.072   4.331   6.119
 5458SOL    HW217274   2.118   4.349   5.963
 5459SOL     OW17275   2.324   4.487   5.904
 5459SOL    HW117276   2.290   4.577   5.874
 5459SOL    HW217277   2.337   4.429   5.824
 5460SOL     OW17278   3.693   6.943   3.319
 5460SOL    HW117279   3.649   0.003   3.363
 5460SOL    HW217280   3.721   6.968   3.226
 5461SOL     OW17281   4.480   6.474   4.764
 5461SOL    HW117282   4.474   6.381   4.802
 5461SOL    HW217283   4.391   6.501   4.728
 5462SOL     OW17284   0.824   0.609   1.552
 5462SOL    HW117285   0.843   0.571   1.643
 5462SOL    HW217286   0.731   0.583   1.525
 5463SOL     OW17287   6.793   3.523   0.887
 5463SOL    HW117288   6.725   3.572   0.942
 5463SOL    HW217289   6.843   3.459   0.946
 5464SOL     OW17290   2.117   6.548   4.234
 5464SOL    HW117291   2.202   6.569   4.187
 5464SOL    HW217292   2.137   6.517   4.327
 5465SOL     OW17293   2.504   5.532   6.591
 5465SOL    HW117294   2.489   5.552   6.494
 5465SOL    HW217295   2.561   5.603   6.632
 5466SOL     OW17296   5.283   5.061   4.878
 5466SOL    HW117297   5.374   5.089   4.909
 5466SOL    HW217298   5.268   4.966   4.903
 5467SOL     OW17299   5.452   1.563   2.339
 5467SOL    HW117300   5.509   1.494   2.295
 5467SOL    HW217301   5.367   1.575   2.288
 5468SOL     OW17302   4.434   1.600   5.707
 5468SOL    HW117303   4.362   1.668   5.688
 5468SOL    HW217304   4.427   1.570   5.802
 5469SOL     OW17305   4.836   4.391   1.575
 5469SOL    HW117306   4.868   4.421   1.665
 5469SOL    HW217307   4.797   4.299   1.582
 5470SOL     OW17308   0.222   5.291   3.308
 5470SOL    HW117309   0.262   5.226   3.374
 5470SOL    HW217310   0.232   5.254   3.215
 5471SOL     OW17311   6.060   4.696   2.267
 5471SOL    HW117312   6.138   4.753   2.292
 5471SOL    HW217313   6.005   4.676   2.348
 5472SOL     OW17314   3.785   5.574   5.395
 5472SOL    HW117315   3.805   5.491   5.447
 5472SOL    HW217316   3.691   5.604   5.415
 5473SOL     OW17317   1.555   4.376   3.441
 5473SOL    HW117318   1.583   4.323   3.521
 5473SOL    HW217319   1.561   4.318   3.359
 5474SOL     OW17320   1.129   6.214   3.355
 5474SOL    HW117321   1.124   6.312   3.371
 5474SOL    HW217322   1.134   6.166   3.443
 5475SOL     OW17323   3.026   2.781   1.488
 5475SOL    HW117324   3.075   2.821   1.566
 5475SOL    HW217325   3.036   2.681   1.490
 5476SOL     OW17326   1.754   3.076   6.991
 5476SOL    HW117327   1.820   3.065   0.047
 5476SOL    HW217328   1.756   2.995   6.932
 5477SOL     OW17329   1.920   2.459   2.275
 5477SOL    HW117330   1.999   2.459   2.214
 5477SOL    HW217331   1.842   2.417   2.229
 5478SOL     OW17332   0.160   5.684   6.106
 5478SOL    HW117333   0.076   5.737   6.101
 5478SOL    HW217334   0.149   5.608   6.169
 5479SOL     OW17335   4.761   6.945   5.230
 5479SOL    HW117336   4.723   6.863   5.273
 5479SOL    HW217337   4.719   0.008   5.272
 5480SOL     OW17338   1.003   2.756   5.362
 5480SOL    HW117339   0.967   2.801   5.445
 5480SOL    HW217340   0.981   2.659   5.365
 5481SOL     OW17341   4.619   6.461   3.822
 5481SOL    HW117342   4.664   6.523   3.757
 5481SOL    HW217343   4.548   6.511   3.872
 5482SOL     OW17344   1.965   5.360   2.075
 5482SOL    HW117345   2.062   5.367   2.098
 5482SOL    HW217346   1.955   5.350   1.975
 5483SOL     OW17347   0.426   2.245   6.176
 5483SOL    HW117348   0.374   2.324   6.144
 5483SOL    HW217349   0.475   2.204   6.099
 5484SOL     OW17350   5.049   7.015   4.677
 5484SOL    HW117351   5.116   0.061   4.638
 5484SOL    HW217352   5.069   6.923   4.646
 5485SOL     OW17353   3.936   0.669   4.940
 5485SOL    HW117354   4.024   0.649   4.896
 5485SOL    HW217355   3.868   0.690   4.870
 5486SOL     OW17356   3.035   4.872   3.746
 5486SOL    HW117357   2.957   4.811   3.761
 5486SOL    HW217358   3.031   4.948   3.812
 5487SOL     OW17359   3.172   5.419   5.772
 5487SOL    HW117360   3.142   5.357   5.845
 5487SOL    HW217361   3.159   5.375   5.683
 5488SOL     OW17362   4.714   1.739   6.829
 5488SOL    HW117363   4.747   1.795   6.752
 5488SOL    HW217364   4.793   1.702   6.878
 5489SOL     OW17365   0.329   3.348   3.959
 5489SOL    HW117366   0.331   3.448   3.968
 5489SOL    HW217367   0.412   3.317   3.913
 5490SOL     OW17368   0.668   5.325   2.781
 5490SOL    HW117369   0.597   5.290   2.720
 5490SOL    HW217370   0.714   5.402   2.738
 5491SOL     OW17371   6.357   3.725   0.383
 5491SOL    HW117372   6.363   3.626   0.370
 5491SOL    HW217373   6.262   3.752   0.392
 5492SOL     OW17374   7.003   1.762   6.104
 5492SOL    HW117375   7.011   1.806   6.193
 5492SOL    HW217376   6.989   1.663   6.116
 5493SOL     OW17377   4.342   4.213   0.169
 5493SOL    HW117378   4.384   4.230   0.080
 5493SOL    HW217379   4.304   4.120   0.170
 5494SOL     OW17380   6.163   2.852   5.563
 5494SOL    HW117381   6.257   2.846   5.529
 5494SOL    HW217382   6.151   2.936   5.616
 5495SOL     OW17383   5.749   0.302   0.038
 5495SOL    HW117384   5.704   0.266   6.974
 5495SOL    HW217385   5.810   0.377   0.012
 5496SOL     OW17386   4.068   0.155   5.757
 5496SOL    HW117387   4.151   0.141   5.811
 5496SOL    HW217388   4.001   0.206   5.811
 5497SOL     OW17389   0.825   0.579   5.344
 5497SOL    HW117390   0.860   0.651   5.404
 5497SOL    HW217391   0.832   0.491   5.390
 5498SOL     OW17392   0.429   4.899   1.425
 5498SOL    HW117393   0.346   4.844   1.415
 5498SOL    HW217394   0.410   4.992   1.395
 5499SOL     OW17395   2.117   0.436   3.928
 5499SOL    HW117396   2.130   0.535   3.925
 5499SOL    HW217397   2.019   0.415   3.926
 5500SOL     OW17398   2.275   6.514   1.159
 5500SOL    HW117399   2.227   6.585   1.106
 5500SOL    HW217400   2.249   6.424   1.125
 5501SOL     OW17401   4.582   3.360   6.694
 5501SOL    HW117402   4.543   3.422   6.762
 5501SOL    HW217403   4.509   3.310   6.649
 5502SOL     OW17404   4.599   3.474   6.425
 5502SOL    HW117405   4.588   3.468   6.524
 5502SOL    HW217406   4.543   3.405   6.380
 5503SOL     OW17407   5.886   3.464   0.754
 5503SOL    HW117408   5.921   3.518   0.678
 5503SOL    HW217409   5.931   3.492   0.839
 5504SOL     OW17410   3.569   2.045   6.862
 5504SOL    HW117411   3.629   1.966   6.868
 5504SOL    HW217412   3.483   2.019   6.818
 5505SOL     OW17413   2.887   4.792   2.510
 5505SOL    HW117414   2.837   4.832   2.434
 5505SOL    HW217415   2.974   4.755   2.477
 5506SOL     OW17416   6.600   2.429   6.113
 5506SOL    HW117417   6.520   2.430   6.173
 5506SOL    HW217418   6.611   2.518   6.068
 5507SOL     OW17419   3.640   6.666   0.649
 5507SOL    HW117420   3.586   6.700   0.726
 5507SOL    HW217421   3.727   6.716   0.646
 5508SOL     OW17422   0.381   1.502   6.610
 5508SOL    HW117423   0.450   1.507   6.681
 5508SOL    HW217424   0.306   1.443   6.639
 5509SOL     OW17425   6.279   3.642   6.965
 5509SOL    HW117426   6.197   3.655   6.909
 5509SOL    HW217427   6.252   3.616   0.040
 5510SOL     OW17428   5.109   5.432   6.532
 5510SOL    HW117429   5.046   5.394   6.600
 5510SOL    HW217430   5.201   5.396   6.549
 5511SOL     OW17431   0.989   2.544   6.141
 5511SOL    HW117432   0.902   2.587   6.117
 5511SOL    HW217433   1.048   2.610   6.187
 5512SOL     OW17434   1.847   0.097   2.498
 5512SOL    HW117435   1.803   0.126   2.583
 5512SOL    HW217436   1.791   0.025   2.455
 5513SOL     OW17437   3.478   4.634   0.017
 5513SOL    HW117438   3.563   4.590   7.005
 5513SOL    HW217439   3.476   4.637   0.117
 5514SOL     OW17440   3.456   1.127   0.603
 5514SOL    HW117441   3.507   1.075   0.534
 5514SOL    HW217442   3.479   1.224   0.595
 5515SOL     OW17443   3.334   5.344   2.550
 5515SOL    HW117444   3.354   5.410   2.478
 5515SOL    HW217445   3.414   5.286   2.566
 5516SOL     OW17446   1.859   2.228   5.746
 5516SOL    HW117447   1.773   2.179   5.761
 5516SOL    HW217448   1.859   2.270   5.656
 5517SOL     OW17449   1.332   2.068   3.558
 5517SOL    HW117450   1.236   2.048   3.580
 5517SOL    HW217451   1.379   2.104   3.638
 5518SOL     OW17452   4.285   5.112   6.257
 5518SOL    HW117453   4.253   5.204   6.278
 5518SOL    HW217454   4.382   5.114   6.233
 5519SOL     OW17455   5.448   2.687   5.994
 5519SOL    HW117456   5.442   2.719   5.899
 5519SOL    HW217457   5.467   2.764   6.054
 5520SOL     OW17458   5.041   6.253   1.309
 5520SOL    HW117459   5.016   6.279   1.216
 5520SOL    HW217460   5.008   6.161   1.328
 5521SOL     OW17461   4.382   6.825   2.035
 5521SOL    HW117462   4.370   6.905   2.094
 5521SOL    HW217463   4.357   6.742   2.085
 5522SOL     OW17464   5.179   6.438   0.043
 5522SOL    HW117465   5.154   6.493   6.981
 5522SOL    HW217466   5.266   6.391   0.025
 5523SOL     OW17467   5.181   2.506   0.785
 5523SOL    HW117468   5.154   2.502   0.689
 5523SOL    HW217469   5.144   2.428   0.834
 5524SOL     OW17470   2.877   1.241   3.474
 5524SOL    HW117471   2.876   1.319   3.538
 5524SOL    HW217472   2.910   1.272   3.385
 5525SOL     OW17473   0.019   1.630   1.346
 5525SOL    HW117474   6.940   1.653   1.344
 5525SOL    HW217475   0.043   1.595   1.437
 5526SOL     OW17476   5.511   4.205   4.114
 5526SOL    HW117477   5.593   4.259   4.134
 5526SOL    HW217478   5.532   4.108   4.121
 5527SOL     OW17479   6.319   0.308   2.618
 5527SOL    HW117480   6.285   0.402   2.610
 5527SOL    HW217481   6.418   0.307   2.604
 5528SOL     OW17482   1.365   1.687   6.641
 5528SOL    HW117483   1.349   1.758   6.709
 5528SOL    HW217484   1.325   1.715   6.553
 5529SOL     OW17485   3.058   0.743   1.985
 5529SOL    HW117486   3.028   0.832   2.020
 5529SOL    HW217487   3.000   0.716   1.909
 5530SOL     OW17488   0.718   1.911   1.082
 5530SOL    HW117489   0.644   1.936   1.019
 5530SOL    HW217490   0.786   1.984   1.084
 5531SOL     OW17491   1.609   4.526   0.759
 5531SOL    HW117492   1.581   4.500   0.667
 5531SOL    HW217493   1.687   4.470   0.787
 5532SOL     OW17494   0.411   4.027   6.203
 5532SOL    HW117495   0.341   4.011   6.133
 5532SOL    HW217496   0.382   3.984   6.289
 5533SOL     OW17497   3.905   1.114   2.803
 5533SOL    HW117498   3.867   1.099   2.895
 5533SOL    HW217499   3.839   1.084   2.734
 5534SOL     OW17500   1.607   0.395   4.360
 5534SOL    HW117501   1.694   0.358   4.327
 5534SOL    HW217502   1.595   0.488   4.327
 5535SOL     OW17503   6.793   2.203   2.678
 5535SOL    HW117504   6.871   2.212   2.740
 5535SOL    HW217505   6.825   2.185   2.585
 5536SOL     OW17506   4.634   7.011   4.462
 5536SOL    HW117507   4.545   6.983   4.498
 5536SOL    HW217508   4.682   0.048   4.530
 5537SOL     OW17509   2.695   2.209   3.099
 5537SOL    HW117510   2.616   2.263   3.124
 5537SOL    HW217511   2.716   2.223   3.002
 5538SOL     OW17512   4.538   5.633   4.144
 5538SOL    HW117513   4.551   5.626   4.243
 5538SOL    HW217514   4.617   5.676   4.103
 5539SOL     OW17515   2.081   4.480   6.749
 5539SOL    HW117516   2.005   4.415   6.763
 5539SOL    HW217517   2.154   4.459   6.814
 5540SOL     OW17518   4.069   5.462   1.496
 5540SOL    HW117519   4.002   5.389   1.512
 5540SOL    HW217520   4.021   5.543   1.463
 5541SOL     OW17521   4.438   0.681   6.057
 5541SOL    HW117522   4.530   0.653   6.083
 5541SOL    HW217523   4.415   0.640   5.969
 5542SOL     OW17524   5.021   4.647   6.316
 5542SOL    HW117525   5.013   4.566   6.258
 5542SOL    HW217526   5.089   4.631   6.387
 5543SOL     OW17527   0.719   1.728   5.038
 5543SOL    HW117528   0.813   1.759   5.053
 5543SOL    HW217529   0.674   1.788   4.972
 5544SOL     OW17530   5.757   0.917   0.210
 5544SOL    HW117531   5.680   0.855   0.190
 5544SOL    HW217532   5.737   0.968   0.294
 5545SOL     OW17533   2.284   2.160   1.962
 5545SOL    HW117534   2.292   2.260   1.961
 5545SOL    HW217535   2.376   2.120   1.967
 5546SOL     OW17536   4.088   5.593   5.387
 5546SOL    HW117537   3.989   5.608   5.377
 5546SOL    HW217538   4.107   5.564   5.481
 5547SOL     OW17539   3.494   5.685   4.162
 5547SOL    HW117540   3.544   5.605   4.130
 5547SOL    HW217541   3.459   5.736   4.084
 5548SOL     OW17542   0.255   1.696   5.027
 5548SOL    HW117543   0.280   1.670   4.933
 5548SOL    HW217544   0.187   1.632   5.062
 5549SOL     OW17545   3.544   5.381   6.835
 5549SOL    HW117546   3.459   5.380   6.888
 5549SOL    HW217547   3.524   5.372   6.738
 5550SOL     OW17548   2.690   6.411   2.945
 5550SOL    HW117549   2.743   6.433   3.027
 5550SOL    HW217550   2.752   6.397   2.868
 5551SOL     OW17551   0.587   1.357   2.374
 5551SOL    HW117552   0.635   1.429   2.325
 5551SOL    HW217553   0.649   1.281   2.391
 5552SOL     OW17554   1.747   2.420   2.683
 5552SOL    HW117555   1.726   2.330   2.721
 5552SOL    HW217556   1.662   2.466   2.657
 5553SOL     OW17557   4.533   6.056   6.001
 5553SOL    HW117558   4.534   6.147   5.958
 5553SOL    HW217559   4.495   6.063   6.093
 5554SOL     OW17560   3.214   0.926   4.617
 5554SOL    HW117561   3.229   0.983   4.698
 5554SOL    HW217562   3.124   0.883   4.623
 5555SOL     OW17563   0.511   6.405   1.444
 5555SOL    HW117564   0.446   6.480   1.440
 5555SOL    HW217565   0.529   6.371   1.352
 5556SOL     OW17566   6.983   1.217   5.514
 5556SOL    HW117567   6.907   1.282   5.501
 5556SOL    HW217568   6.957   1.128   5.477
 5557SOL     OW17569   3.608   0.311   2.779
 5557SOL    HW117570   3.514   0.320   2.747
 5557SOL    HW217571   3.625   0.216   2.806
 5558SOL     OW17572   5.158   2.170   5.865
 5558SOL    HW117573   5.229   2.108   5.833
 5558SOL    HW217574   5.097   2.122   5.927
 5559SOL     OW17575   2.775   0.885   0.800
 5559SOL    HW117576   2.845   0.887   0.871
 5559SOL    HW217577   2.728   0.797   0.801
 5560SOL     OW17578   0.104   0.958   5.203
 5560SOL    HW117579   0.110   1.025   5.129
 5560SOL    HW217580   0.163   0.880   5.182
 5561SOL     OW17581   1.239   4.462   1.611
 5561SOL    HW117582   1.196   4.373   1.617
 5561SOL    HW217583   1.259   4.496   1.703
 5562SOL     OW17584   3.711   2.316   6.887
 5562SOL    HW117585   3.798   2.266   6.888
 5562SOL    HW217586   3.635   2.252   6.896
 5563SOL     OW17587   3.890   4.276   1.152
 5563SOL    HW117588   3.817   4.212   1.128
 5563SOL    HW217589   3.891   4.289   1.251
 5564SOL     OW17590   5.786   1.383   2.480
 5564SOL    HW117591   5.739   1.439   2.549
 5564SOL    HW217592   5.733   1.385   2.395
 5565SOL     OW17593   1.977   2.692   5.726
 5565SOL    HW117594   2.044   2.766   5.723
 5565SOL    HW217595   1.898   2.721   5.780
 5566SOL     OW17596   2.546   3.790   0.520
 5566SOL    HW117597   2.499   3.845   0.589
 5566SOL    HW217598   2.645   3.799   0.532
 5567SOL     OW17599   1.385   5.206   3.596
 5567SOL    HW117600   1.400   5.265   3.517
 5567SOL    HW217601   1.421   5.115   3.578
 5568SOL     OW17602   3.571   2.465   6.608
 5568SOL    HW117603   3.556   2.497   6.702
 5568SOL    HW217604   3.636   2.526   6.562
 5569SOL     OW17605   4.493   1.738   0.007
 5569SOL    HW117606   4.581   1.702   6.992
 5569SOL    HW217607   4.479   1.830   6.988
 5570SOL     OW17608   1.901   3.031   5.885
 5570SOL    HW117609   1.991   3.065   5.858
 5570SOL    HW217610   1.851   3.103   5.933
 5571SOL     OW17611   0.020   4.122   6.573
 5571SOL    HW117612   0.026   4.186   6.498
 5571SOL    HW217613   7.011   4.170   6.657
 5572SOL     OW17614   0.282   3.304   6.124
 5572SOL    HW117615   0.306   3.276   6.217
 5572SOL    HW217616   0.365   3.308   6.068
 5573SOL     OW17617   6.831   3.556   6.645
 5573SOL    HW117618   6.732   3.554   6.636
 5573SOL    HW217619   6.873   3.574   6.556
 5574SOL     OW17620   1.882   6.652   4.474
 5574SOL    HW117621   1.787   6.639   4.447
 5574SOL    HW217622   1.885   6.707   4.558
 5575SOL     OW17623   0.976   1.230   2.706
 5575SOL    HW117624   1.023   1.170   2.642
 5575SOL    HW217625   0.881   1.243   2.676
 5576SOL     OW17626   5.638   6.339   5.329
 5576SOL    HW117627   5.620   6.251   5.374
 5576SOL    HW217628   5.552   6.380   5.302
 5577SOL     OW17629   1.522   4.432   4.663
 5577SOL    HW117630   1.489   4.466   4.750
 5577SOL    HW217631   1.559   4.508   4.609
 5578SOL     OW17632   3.787   1.774   5.759
 5578SOL    HW117633   3.759   1.706   5.827
 5578SOL    HW217634   3.706   1.825   5.729
 5579SOL     OW17635   5.040   4.340   2.035
 5579SOL    HW117636   4.966   4.289   2.081
 5579SOL    HW217637   5.074   4.286   1.958
 5580SOL     OW17638   5.784   1.417   1.771
 5580SOL    HW117639   5.791   1.380   1.864
 5580SOL    HW217640   5.692   1.455   1.758
 5581SOL     OW17641   2.995   2.899   0.421
 5581SOL    HW117642   2.928   2.947   0.478
 5581SOL    HW217643   2.995   2.802   0.446
 5582SOL     OW17644   2.956   3.163   3.690
 5582SOL    HW117645   2.923   3.230   3.623
 5582SOL    HW217646   2.893   3.086   3.694
 5583SOL     OW17647   3.698   0.624   6.706
 5583SOL    HW117648   3.742   0.534   6.711
 5583SOL    HW217649   3.700   0.657   6.611
 5584SOL     OW17650   5.117   3.241   4.092
 5584SOL    HW117651   5.189   3.302   4.123
 5584SOL    HW217652   5.151   3.147   4.090
 5585SOL     OW17653   0.321   0.249   3.665
 5585SOL    HW117654   0.369   0.322   3.615
 5585SOL    HW217655   0.248   0.289   3.720
 5586SOL     OW17656   2.099   0.631   0.161
 5586SOL    HW117657   2.125   0.602   0.253
 5586SOL    HW217658   2.178   0.673   0.116
 5587SOL     OW17659   3.842   6.246   3.369
 5587SOL    HW117660   3.818   6.152   3.345
 5587SOL    HW217661   3.913   6.246   3.439
 5588SOL     OW17662   5.307   6.801   6.518
 5588SOL    HW117663   5.287   6.817   6.421
 5588SOL    HW217664   5.263   6.873   6.573
 5589SOL     OW17665   2.129   3.670   6.918
 5589SOL    HW117666   2.035   3.696   6.894
 5589SOL    HW217667   2.189   3.750   6.907
 5590SOL     OW17668   6.689   0.670   3.330
 5590SOL    HW117669   6.769   0.730   3.326
 5590SOL    HW217670   6.667   0.636   3.239
 5591SOL     OW17671   5.444   0.210   0.006
 5591SOL    HW117672   5.396   0.214   6.937
 5591SOL    HW217673   5.430   0.295   0.057
 5592SOL     OW17674   1.377   2.793   2.571
 5592SOL    HW117675   1.359   2.885   2.536
 5592SOL    HW217676   1.328   2.780   2.657
 5593SOL     OW17677   2.105   3.842   4.856
 5593SOL    HW117678   2.012   3.863   4.886
 5593SOL    HW217679   2.161   3.925   4.859
 5594SOL     OW17680   2.780   1.343   5.882
 5594SOL    HW117681   2.779   1.345   5.982
 5594SOL    HW217682   2.709   1.282   5.848
 5595SOL     OW17683   0.332   3.163   6.941
 5595SOL    HW117684   0.386   3.228   6.887
 5595SOL    HW217685   0.362   3.166   0.018
 5596SOL     OW17686   4.880   3.556   4.352
 5596SOL    HW117687   4.863   3.598   4.262
 5596SOL    HW217688   4.867   3.457   4.346
 5597SOL     OW17689   0.317   2.128   6.631
 5597SOL    HW117690   0.395   2.072   6.605
 5597SOL    HW217691   0.292   2.187   6.554
 5598SOL     OW17692   6.240   0.777   3.684
 5598SOL    HW117693   6.254   0.679   3.697
 5598SOL    HW217694   6.279   0.827   3.762
 5599SOL     OW17695   5.633   3.361   2.825
 5599SOL    HW117696   5.558   3.421   2.797
 5599SOL    HW217697   5.620   3.270   2.786
 5600SOL     OW17698   1.617   2.902   2.370
 5600SOL    HW117699   1.548   2.837   2.339
 5600SOL    HW217700   1.708   2.864   2.355
 5601SOL     OW17701   6.103   2.346   6.185
 5601SOL    HW117702   6.110   2.428   6.241
 5601SOL    HW217703   6.042   2.363   6.108
 5602SOL     OW17704   6.269   1.762   3.232
 5602SOL    HW117705   6.188   1.710   3.259
 5602SOL    HW217706   6.246   1.859   3.224
 5603SOL     OW17707   3.427   1.487   6.084
 5603SOL    HW117708   3.400   1.469   5.990
 5603SOL    HW217709   3.346   1.512   6.137
 5604SOL     OW17710   1.537   4.896   3.274
 5604SOL    HW117711   1.508   4.918   3.181
 5604SOL    HW217712   1.633   4.868   3.273
 5605SOL     OW17713   3.484   6.558   4.811
 5605SOL    HW117714   3.411   6.496   4.784
 5605SOL    HW217715   3.572   6.512   4.801
 5606SOL     OW17716   4.473   3.700   1.071
 5606SOL    HW117717   4.531   3.702   1.152
 5606SOL    HW217718   4.377   3.693   1.099
 5607SOL     OW17719   0.798   2.186   2.476
 5607SOL    HW117720   0.806   2.123   2.399
 5607SOL    HW217721   0.852   2.268   2.458
 5608SOL     OW17722   6.632   0.011   3.617
 5608SOL    HW117723   6.700   6.968   3.578
 5608SOL    HW217724   6.638   0.101   3.574
 5609SOL     OW17725   6.573   1.107   0.114
 5609SOL    HW117726   6.583   1.017   0.156
 5609SOL    HW217727   6.609   1.177   0.176
 5610SOL     OW17728   5.927   6.962   6.084
 5610SOL    HW117729   5.860   6.980   6.012
 5610SOL    HW217730   5.906   6.875   6.129
 5611SOL     OW17731   6.430   3.867   1.335
 5611SOL    HW117732   6.379   3.949   1.310
 5611SOL    HW217733   6.518   3.866   1.288
 5612SOL     OW17734   4.951   2.297   1.309
 5612SOL    HW117735   4.869   2.334   1.266
 5612SOL    HW217736   4.929   2.209   1.353
 5613SOL     OW17737   6.479   5.057   5.385
 5613SOL    HW117738   6.486   4.957   5.396
 5613SOL    HW217739   6.519   5.101   5.466
 5614SOL     OW17740   5.699   2.217   4.758
 5614SOL    HW117741   5.669   2.312   4.759
 5614SOL    HW217742   5.750   2.199   4.674
 5615SOL     OW17743   0.190   3.571   2.607
 5615SOL    HW117744   0.094   3.581   2.581
 5615SOL    HW217745   0.198   3.504   2.680
 5616SOL     OW17746   1.346   3.307   1.621
 5616SOL    HW117747   1.406   3.256   1.682
 5616SOL    HW217748   1.299   3.379   1.672
 5617SOL     OW17749   0.469   5.378   5.178
 5617SOL    HW117750   0.439   5.427   5.259
 5617SOL    HW217751   0.568   5.361   5.184
 5618SOL     OW17752   4.736   0.728   2.811
 5618SOL    HW117753   4.773   0.760   2.724
 5618SOL    HW217754   4.636   0.725   2.806
 5619SOL     OW17755   2.986   3.884   4.059
 5619SOL    HW117756   3.056   3.956   4.061
 5619SOL    HW217757   2.956   3.869   3.965
 5620SOL     OW17758   4.910   5.268   5.222
 5620SOL    HW117759   4.922   5.205   5.299
 5620SOL    HW217760   4.849   5.342   5.249
 5621SOL     OW17761   0.844   3.511   6.143
 5621SOL    HW117762   0.777   3.562   6.090
 5621SOL    HW217763   0.828   3.413   6.132
 5622SOL     OW17764   5.769   5.708   3.127
 5622SOL    HW117765   5.689   5.659   3.090
 5622SOL    HW217766   5.841   5.642   3.148
 5623SOL     OW17767   4.678   5.092   3.464
 5623SOL    HW117768   4.589   5.129   3.489
 5623SOL    HW217769   4.682   4.994   3.484
 5624SOL     OW17770   4.820   3.977   3.932
 5624SOL    HW117771   4.808   3.951   4.028
 5624SOL    HW217772   4.822   3.894   3.876
 5625SOL     OW17773   3.188   6.791   6.425
 5625SOL    HW117774   3.159   6.871   6.372
 5625SOL    HW217775   3.167   6.708   6.373
 5626SOL     OW17776   1.724   4.624   6.378
 5626SOL    HW117777   1.739   4.535   6.334
 5626SOL    HW217778   1.635   4.624   6.424
 5627SOL     OW17779   1.195   5.574   0.881
 5627SOL    HW117780   1.249   5.656   0.899
 5627SOL    HW217781   1.201   5.512   0.959
 5628SOL     OW17782   1.104   2.715   0.280
 5628SOL    HW117783   1.177   2.780   0.301
 5628SOL    HW217784   1.138   2.646   0.216
 5629SOL     OW17785   6.907   3.575   4.075
 5629SOL    HW117786   6.886   3.479   4.059
 5629SOL    HW217787   6.958   3.612   3.998
 5630SOL     OW17788   1.227   4.288   0.180
 5630SOL    HW117789   1.300   4.264   0.116
 5630SOL    HW217790   1.151   4.328   0.129
 5631SOL     OW17791   3.994   0.774   2.891
 5631SOL    HW117792   3.973   0.698   2.953
 5631SOL    HW217793   4.081   0.815   2.917
 5632SOL     OW17794   3.344   6.750   6.837
 5632SOL    HW117795   3.391   6.720   6.921
 5632SOL    HW217796   3.252   6.712   6.836
 5633SOL     OW17797   1.586   5.671   5.514
 5633SOL    HW117798   1.635   5.644   5.596
 5633SOL    HW217799   1.563   5.589   5.461
 5634SOL     OW17800   2.861   0.025   2.072
 5634SOL    HW117801   2.933   0.065   2.015
 5634SOL    HW217802   2.783   0.001   2.014
 5635SOL     OW17803   3.550   0.226   2.302
 5635SOL    HW117804   3.488   0.222   2.223
 5635SOL    HW217805   3.598   0.314   2.302
 5636SOL     OW17806   5.386   0.253   4.808
 5636SOL    HW117807   5.396   0.212   4.898
 5636SOL    HW217808   5.437   0.199   4.741
 5637SOL     OW17809   5.229   7.017   5.079
 5637SOL    HW117810   5.138   6.999   5.041
 5637SOL    HW217811   5.248   0.097   5.075
 5638SOL     OW17812   0.477   5.594   0.144
 5638SOL    HW117813   0.479   5.623   0.239
 5638SOL    HW217814   0.452   5.672   0.086
 5639SOL     OW17815   3.005   6.681   2.145
 5639SOL    HW117816   3.014   6.730   2.058
 5639SOL    HW217817   2.908   6.667   2.166
 5640SOL     OW17818   3.545   6.881   4.018
 5640SOL    HW117819   3.445   6.890   4.013
 5640SOL    HW217820   3.585   6.965   4.054
 5641SOL     OW17821   6.544   4.994   3.275
 5641SOL    HW117822   6.580   4.955   3.360
 5641SOL    HW217823   6.457   4.951   3.252
 5642SOL     OW17824   2.526   1.884   6.279
 5642SOL    HW117825   2.520   1.828   6.362
 5642SOL    HW217826   2.613   1.933   6.278
 5643SOL     OW17827   5.468   3.176   3.602
 5643SOL    HW117828   5.423   3.254   3.558
 5643SOL    HW217829   5.516   3.122   3.533
 5644SOL     OW17830   3.216   0.580   5.853
 5644SOL    HW117831   3.300   0.632   5.837
 5644SOL    HW217832   3.236   0.482   5.847
 5645SOL     OW17833   6.270   6.811   3.508
 5645SOL    HW117834   6.198   6.743   3.523
 5645SOL    HW217835   6.296   6.811   3.411
 5646SOL     OW17836   6.921   0.679   2.979
 5646SOL    HW117837   6.984   0.627   2.921
 5646SOL    HW217838   6.828   0.645   2.966
 5647SOL     OW17839   6.214   3.732   5.987
 5647SOL    HW117840   6.270   3.656   5.953
 5647SOL    HW217841   6.141   3.696   6.045
 5648SOL     OW17842   1.937   1.569   4.255
 5648SOL    HW117843   1.910   1.622   4.335
 5648SOL    HW217844   2.034   1.546   4.262
 5649SOL     OW17845   0.230   0.423   4.930
 5649SOL    HW117846   0.305   0.423   4.996
 5649SOL    HW217847   0.228   0.510   4.881
 5650SOL     OW17848   6.224   5.256   4.935
 5650SOL    HW117849   6.250   5.243   5.031
 5650SOL    HW217850   6.164   5.181   4.906
 5651SOL     OW17851   6.049   0.331   2.479
 5651SOL    HW117852   6.090   0.270   2.547
 5651SOL    HW217853   5.979   0.388   2.522
 5652SOL     OW17854   5.127   4.710   0.114
 5652SOL    HW117855   5.074   4.677   0.192
 5652SOL    HW217856   5.179   4.634   0.075
 5653SOL     OW17857   1.958   6.121   6.788
 5653SOL    HW117858   2.015   6.041   6.772
 5653SOL    HW217859   1.990   6.197   6.731
 5654SOL     OW17860   2.081   6.881   6.961
 5654SOL    HW117861   2.151   6.865   6.892
 5654SOL    HW217862   2.043   6.973   6.949
 5655SOL     OW17863   6.348   5.819   2.940
 5655SOL    HW117864   6.303   5.824   2.850
 5655SOL    HW217865   6.279   5.806   3.011
 5656SOL     OW17866   3.965   5.256   6.029
 5656SOL    HW117867   3.926   5.167   6.052
 5656SOL    HW217868   4.046   5.272   6.085
 5657SOL     OW17869   4.864   5.392   2.303
 5657SOL    HW117870   4.871   5.430   2.395
 5657SOL    HW217871   4.931   5.318   2.292
 5658SOL     OW17872   4.408   6.804   5.999
 5658SOL    HW117873   4.317   6.762   5.999
 5658SOL    HW217874   4.399   6.902   6.015
 5659SOL     OW17875   3.750   4.015   2.505
 5659SOL    HW117876   3.664   3.985   2.547
 5659SOL    HW217877   3.826   3.995   2.567
 5660SOL     OW17878   6.806   6.122   1.641
 5660SOL    HW117879   6.889   6.080   1.680
 5660SOL    HW217880   6.727   6.098   1.697
 5661SOL     OW17881   6.265   6.144   4.222
 5661SOL    HW117882   6.193   6.162   4.289
 5661SOL    HW217883   6.299   6.231   4.185
 5662SOL     OW17884   1.639   4.258   4.344
 5662SOL    HW117885   1.641   4.307   4.431
 5662SOL    HW217886   1.580   4.308   4.280
 5663SOL     OW17887   2.427   3.727   1.035
 5663SOL    HW117888   2.443   3.629   1.021
 5663SOL    HW217889   2.504   3.779   0.997
 5664SOL     OW17890   6.463   6.612   2.010
 5664SOL    HW117891   6.418   6.569   2.089
 5664SOL    HW217892   6.558   6.631   2.033
 5665SOL     OW17893   1.726   1.236   5.720
 5665SOL    HW117894   1.646   1.211   5.665
 5665SOL    HW217895   1.695   1.282   5.804
 5666SOL     OW17896   5.668   5.605   6.733
 5666SOL    HW117897   5.711   5.518   6.757
 5666SOL    HW217898   5.704   5.637   6.645
 5667SOL     OW17899   5.533   4.716   2.523
 5667SOL    HW117900   5.470   4.716   2.600
 5667SOL    HW217901   5.594   4.795   2.531
 5668SOL     OW17902   6.954   2.216   6.588
 5668SOL    HW117903   6.856   2.202   6.578
 5668SOL    HW217904   6.998   2.208   6.498
 5669SOL     OW17905   6.976   2.514   4.657
 5669SOL    HW117906   0.052   2.500   4.625
 5669SOL    HW217907   6.963   2.469   4.745
 5670SOL     OW17908   1.596   3.474   2.578
 5670SOL    HW117909   1.680   3.431   2.546
 5670SOL    HW217910   1.557   3.531   2.505
 5671SOL     OW17911   0.941   0.790   5.478
 5671SOL    HW117912   0.962   0.823   5.571
 5671SOL    HW217913   0.912   0.866   5.421
 5672SOL     OW17914   4.781   4.308   5.484
 5672SOL    HW117915   4.731   4.244   5.426
 5672SOL    HW217916   4.780   4.399   5.443
 5673SOL     OW17917   1.682   6.620   1.180
 5673SOL    HW117918   1.674   6.542   1.241
 5673SOL    HW217919   1.732   6.693   1.226
 5674SOL     OW17920   0.606   3.189   1.296
 5674SOL    HW117921   0.635   3.178   1.201
 5674SOL    HW217922   0.686   3.208   1.353
 5675SOL     OW17923   4.082   1.138   5.701
 5675SOL    HW117924   4.085   1.234   5.672
 5675SOL    HW217925   4.029   1.132   5.786
 5676SOL     OW17926   2.171   6.310   2.279
 5676SOL    HW117927   2.268   6.335   2.278
 5676SOL    HW217928   2.140   6.299   2.374
 5677SOL     OW17929   6.341   0.211   2.893
 5677SOL    HW117930   6.365   0.116   2.873
 5677SOL    HW217931   6.330   0.261   2.807
 5678SOL     OW17932   0.796   5.093   2.925
 5678SOL    HW117933   0.732   5.153   2.975
 5678SOL    HW217934   0.764   5.081   2.831
 5679SOL     OW17935   3.732   5.741   5.663
 5679SOL    HW117936   3.695   5.649   5.649
 5679SOL    HW217937   3.761   5.751   5.758
 5680SOL     OW17938   1.989   6.655   6.420
 5680SOL    HW117939   2.067   6.713   6.399
 5680SOL    HW217940   1.920   6.664   6.348
 5681SOL     OW17941   3.009   3.980   6.501
 5681SOL    HW117942   3.020   3.901   6.441
 5681SOL    HW217943   3.039   4.063   6.453
 5682SOL     OW17944   1.935   3.078   3.929
 5682SOL    HW117945   1.868   3.153   3.933
 5682SOL    HW217946   1.948   3.041   4.021
 5683SOL     OW17947   3.944   2.922   5.463
 5683SOL    HW117948   4.042   2.930   5.442
 5683SOL    HW217949   3.925   2.960   5.553
 5684SOL     OW17950   3.144   4.002   3.236
 5684SOL    HW117951   3.231   3.960   3.263
 5684SOL    HW217952   3.132   4.088   3.285
 5685SOL     OW17953   0.194   6.267   1.266
 5685SOL    HW117954   0.114   6.274   1.207
 5685SOL    HW217955   0.274   6.306   1.220
 5686SOL     OW17956   3.293   4.809   7.007
 5686SOL    HW117957   3.366   4.741   7.010
 5686SOL    HW217958   3.205   4.764   0.001
 5687SOL     OW17959   4.398   5.988   6.659
 5687SOL    HW117960   4.410   5.926   6.737
 5687SOL    HW217961   4.454   5.956   6.583
 5688SOL     OW17962   5.274   1.320   2.740
 5688SOL    HW117963   5.332   1.348   2.664
 5688SOL    HW217964   5.211   1.247   2.710
 5689SOL     OW17965   4.206   3.190   5.696
 5689SOL    HW117966   4.182   3.110   5.751
 5689SOL    HW217967   4.186   3.172   5.600
 5690SOL     OW17968   3.784   0.071   3.075
 5690SOL    HW117969   3.797   0.139   3.148
 5690SOL    HW217970   3.702   0.094   3.022
 5691SOL     OW17971   3.436   0.436   4.429
 5691SOL    HW117972   3.483   0.484   4.355
 5691SOL    HW217973   3.402   0.349   4.396
 5692SOL     OW17974   5.848   2.331   6.889
 5692SOL    HW117975   5.907   2.344   6.809
 5692SOL    HW217976   5.756   2.305   6.858
 5693SOL     OW17977   5.215   2.713   1.869
 5693SOL    HW117978   5.191   2.810   1.867
 5693SOL    HW217979   5.303   2.700   1.825
 5694SOL     OW17980   1.471   2.261   4.817
 5694SOL    HW117981   1.458   2.286   4.722
 5694SOL    HW217982   1.569   2.252   4.836
 5695SOL     OW17983   1.932   4.087   3.640
 5695SOL    HW117984   1.899   4.099   3.546
 5695SOL    HW217985   1.938   3.989   3.660
 5696SOL     OW17986   2.922   0.925   6.416
 5696SOL    HW117987   2.926   0.825   6.414
 5696SOL    HW217988   2.852   0.956   6.351
 5697SOL     OW17989   6.724   3.465   0.356
 5697SOL    HW117990   6.754   3.372   0.334
 5697SOL    HW217991   6.725   3.478   0.455
 5698SOL     OW17992   1.377   4.344   3.851
 5698SOL    HW117993   1.352   4.441   3.857
 5698SOL    HW217994   1.329   4.303   3.774
 5699SOL     OW17995   0.595   2.275   4.930
 5699SOL    HW117996   0.498   2.252   4.936
 5699SOL    HW217997   0.650   2.200   4.967
 5700SOL     OW17998   1.642   4.923   4.354
 5700SOL    HW117999   1.717   4.873   4.396
 5700SOL    HW218000   1.588   4.860   4.298
 5701SOL     OW18001   4.906   3.491   3.135
 5701SOL    HW118002   4.818   3.519   3.174
 5701SOL    HW218003   4.935   3.559   3.067
 5702SOL     OW18004   3.240   0.239   0.111
 5702SOL    HW118005   3.283   0.299   0.043
 5702SOL    HW218006   3.258   0.144   0.087
 5703SOL     OW18007   4.747   4.311   1.860
 5703SOL    HW118008   4.789   4.401   1.871
 5703SOL    HW218009   4.653   4.313   1.894
 5704SOL     OW18010   4.726   4.504   2.993
 5704SOL    HW118011   4.724   4.575   2.923
 5704SOL    HW218012   4.638   4.501   3.040
 5705SOL     OW18013   6.678   1.258   3.791
 5705SOL    HW118014   6.693   1.353   3.815
 5705SOL    HW218015   6.765   1.208   3.796
 5706SOL     OW18016   2.269   1.164   6.995
 5706SOL    HW118017   2.225   1.113   6.921
 5706SOL    HW218018   2.242   1.260   6.989
 5707SOL     OW18019   4.097   1.554   0.138
 5707SOL    HW118020   4.162   1.541   0.212
 5707SOL    HW218021   4.090   1.469   0.084
 5708SOL     OW18022   0.065   0.007   0.525
 5708SOL    HW118023   0.016   6.962   0.585
 5708SOL    HW218024   0.097   6.975   0.443
 5709SOL     OW18025   1.096   2.538   1.186
 5709SOL    HW118026   1.071   2.538   1.089
 5709SOL    HW218027   1.195   2.552   1.194
 5710SOL     OW18028   3.626   4.858   0.299
 5710SOL    HW118029   3.603   4.760   0.292
 5710SOL    HW218030   3.541   4.911   0.301
 5711SOL     OW18031   5.280   1.767   5.416
 5711SOL    HW118032   5.283   1.679   5.368
 5711SOL    HW218033   5.286   1.751   5.514
 5712SOL     OW18034   6.311   6.437   6.701
 5712SOL    HW118035   6.322   6.338   6.709
 5712SOL    HW218036   6.240   6.468   6.764
 5713SOL     OW18037   0.528   2.839   2.619
 5713SOL    HW118038   0.532   2.916   2.683
 5713SOL    HW218039   0.440   2.793   2.628
 5714SOL     OW18040   2.224   0.527   6.650
 5714SOL    HW118041   2.170   0.478   6.581
 5714SOL    HW218042   2.234   0.623   6.623
 5715SOL     OW18043   1.337   0.166   3.622
 5715SOL    HW118044   1.368   0.125   3.536
 5715SOL    HW218045   1.356   0.104   3.698
 5716SOL     OW18046   2.227   2.595   5.152
 5716SOL    HW118047   2.246   2.665   5.221
 5716SOL    HW218048   2.298   2.525   5.155
 5717SOL     OW18049   0.803   3.097   5.787
 5717SOL    HW118050   0.877   3.158   5.760
 5717SOL    HW218051   0.770   3.047   5.707
 5718SOL     OW18052   2.703   5.406   6.109
 5718SOL    HW118053   2.667   5.340   6.175
 5718SOL    HW218054   2.778   5.457   6.151
 5719SOL     OW18055   2.085   0.926   0.427
 5719SOL    HW118056   2.150   0.870   0.478
 5719SOL    HW218057   2.061   1.007   0.481
 5720SOL     OW18058   1.715   5.591   3.836
 5720SOL    HW118059   1.741   5.656   3.765
 5720SOL    HW218060   1.731   5.632   3.926
 5721SOL     OW18061   6.499   4.211   0.033
 5721SOL    HW118062   6.598   4.220   0.027
 5721SOL    HW218063   6.475   4.131   0.087
 5722SOL     OW18064   5.685   1.112   4.589
 5722SOL    HW118065   5.645   1.159   4.510
 5722SOL    HW218066   5.700   1.178   4.662
 5723SOL     OW18067   0.354   4.399   1.104
 5723SOL    HW118068   0.392   4.425   1.015
 5723SOL    HW218069   0.284   4.466   1.131
 5724SOL     OW18070   5.315   3.076   5.900
 5724SOL    HW118071   5.350   3.156   5.949
 5724SOL    HW218072   5.344   3.081   5.804
 5725SOL     OW18073   5.750   6.504   5.645
 5725SOL    HW118074   5.842   6.519   5.608
 5725SOL    HW218075   5.689   6.577   5.613
 5726SOL     OW18076   3.900   4.728   5.650
 5726SOL    HW118077   3.850   4.650   5.689
 5726SOL    HW218078   3.899   4.721   5.550
 5727SOL     OW18079   5.967   2.568   4.213
 5727SOL    HW118080   5.959   2.649   4.271
 5727SOL    HW218081   5.949   2.486   4.267
 5728SOL     OW18082   4.121   0.615   4.491
 5728SOL    HW118083   4.127   0.710   4.522
 5728SOL    HW218084   4.025   0.585   4.495
 5729SOL     OW18085   1.701   2.686   4.001
 5729SOL    HW118086   1.637   2.710   4.074
 5729SOL    HW218087   1.686   2.591   3.973
 5730SOL     OW18088   3.975   4.663   7.014
 5730SOL    HW118089   3.986   4.690   0.092
 5730SOL    HW218090   4.065   4.658   6.971
 5731SOL     OW18091   4.011   1.523   4.699
 5731SOL    HW118092   4.024   1.603   4.641
 5731SOL    HW218093   4.060   1.535   4.785
 5732SOL     OW18094   5.578   4.697   4.625
 5732SOL    HW118095   5.591   4.707   4.526
 5732SOL    HW218096   5.621   4.774   4.672
 5733SOL     OW18097   2.631   6.967   1.917
 5733SOL    HW118098   2.612   6.933   1.825
 5733SOL    HW218099   2.562   6.933   1.980
 5734SOL     OW18100   1.506   6.999   5.959
 5734SOL    HW118101   1.484   7.008   6.056
 5734SOL    HW218102   1.433   0.022   5.904
 5735SOL     OW18103   5.277   0.990   1.035
 5735SOL    HW118104   5.375   1.009   1.035
 5735SOL    HW218105   5.254   0.931   1.113
 5736SOL     OW18106   5.215   3.881   6.612
 5736SOL    HW118107   5.148   3.855   6.543
 5736SOL    HW218108   5.174   3.873   6.703
 5737SOL     OW18109   5.072   5.996   2.551
 5737SOL    HW118110   5.001   5.927   2.541
 5737SOL    HW218111   5.145   5.979   2.486
 5738SOL     OW18112   3.136   0.805   1.551
 5738SOL    HW118113   3.174   0.769   1.637
 5738SOL    HW218114   3.120   0.903   1.561
 5739SOL     OW18115   2.062   0.666   5.133
 5739SOL    HW118116   1.997   0.624   5.197
 5739SOL    HW218117   2.020   0.673   5.042
 5740SOL     OW18118   4.962   3.459   2.696
 5740SOL    HW118119   4.982   3.373   2.649
 5740SOL    HW218120   4.947   3.532   2.629
 5741SOL     OW18121   1.207   3.171   3.910
 5741SOL    HW118122   1.286   3.219   3.872
 5741SOL    HW218123   1.237   3.089   3.958
 5742SOL     OW18124   5.595   5.371   1.959
 5742SOL    HW118125   5.537   5.291   1.975
 5742SOL    HW218126   5.690   5.342   1.948
 5743SOL     OW18127   4.195   6.318   6.847
 5743SOL    HW118128   4.201   6.243   6.913
 5743SOL    HW218129   4.282   6.366   6.844
 5744SOL     OW18130   5.205   5.815   3.111
 5744SOL    HW118131   5.256   5.895   3.143
 5744SOL    HW218132   5.116   5.812   3.156
 5745SOL     OW18133   0.788   3.778   2.906
 5745SOL    HW118134   0.703   3.756   2.859
 5745SOL    HW218135   0.773   3.776   3.005
 5746SOL     OW18136   5.171   0.428   3.384
 5746SOL    HW118137   5.253   0.414   3.329
 5746SOL    HW218138   5.093   0.442   3.323
 5747SOL     OW18139   2.174   6.756   1.445
 5747SOL    HW118140   2.198   6.806   1.362
 5747SOL    HW218141   2.084   6.785   1.477
 5748SOL     OW18142   6.198   6.144   0.199
 5748SOL    HW118143   6.166   6.182   0.285
 5748SOL    HW218144   6.120   6.130   0.138
 5749SOL     OW18145   2.358   6.075   6.447
 5749SOL    HW118146   2.358   5.980   6.418
 5749SOL    HW218147   2.405   6.131   6.379
 5750SOL     OW18148   6.765   2.690   4.403
 5750SOL    HW118149   6.787   2.738   4.318
 5750SOL    HW218150   6.674   2.716   4.433
 5751SOL     OW18151   0.319   3.671   4.010
 5751SOL    HW118152   0.342   3.721   3.927
 5751SOL    HW218153   0.395   3.678   4.075
 5752SOL     OW18154   5.938   0.864   0.041
 5752SOL    HW118155   5.856   0.886   0.094
 5752SOL    HW218156   5.942   0.765   0.025
 5753SOL     OW18157   3.562   3.702   4.215
 5753SOL    HW118158   3.657   3.673   4.207
 5753SOL    HW218159   3.546   3.783   4.158
 5754SOL     OW18160   5.853   6.300   1.313
 5754SOL    HW118161   5.952   6.314   1.306
 5754SOL    HW218162   5.809   6.386   1.337
 5755SOL     OW18163   1.228   2.881   6.382
 5755SOL    HW118164   1.241   2.921   6.473
 5755SOL    HW218165   1.130   2.881   6.360
 5756SOL     OW18166   6.413   6.531   1.535
 5756SOL    HW118167   6.480   6.554   1.606
 5756SOL    HW218168   6.392   6.434   1.538
 5757SOL     OW18169   0.812   1.352   3.767
 5757SOL    HW118170   0.912   1.343   3.763
 5757SOL    HW218171   0.771   1.264   3.744
 5758SOL     OW18172   6.529   6.952   3.086
 5758SOL    HW118173   6.612   7.002   3.110
 5758SOL    HW218174   6.530   6.930   2.988
 5759SOL     OW18175   1.774   6.450   3.251
 5759SOL    HW118176   1.826   6.380   3.299
 5759SOL    HW218177   1.831   6.494   3.182
 5760SOL     OW18178   0.477   2.310   0.017
 5760SOL    HW118179   0.563   2.278   6.995
 5760SOL    HW218180   0.401   2.270   6.985
 5761SOL     OW18181   6.493   6.706   5.028
 5761SOL    HW118182   6.586   6.672   5.045
 5761SOL    HW218183   6.477   6.711   4.930
 5762SOL     OW18184   0.633   5.502   5.703
 5762SOL    HW118185   0.698   5.564   5.747
 5762SOL    HW218186   0.546   5.505   5.752
 5763SOL     OW18187   5.053   0.447   0.343
 5763SOL    HW118188   5.103   0.519   0.391
 5763SOL    HW218189   5.085   0.357   0.374
 5764SOL     OW18190   4.263   6.326   4.627
 5764SOL    HW118191   4.220   6.276   4.552
 5764SOL    HW218192   4.363   6.314   4.621
 5765SOL     OW18193   0.005   6.009   2.679
 5765SOL    HW118194   6.965   5.933   2.706
 5765SOL    HW218195   0.097   5.996   2.716
 5766SOL     OW18196   0.540   1.565   4.085
 5766SOL    HW118197   0.570   1.476   4.051
 5766SOL    HW218198   0.561   1.571   4.183
 5767SOL     OW18199   4.999   6.430   0.227
 5767SOL    HW118200   5.055   6.511   0.211
 5767SOL    HW218201   5.031   6.354   0.171
 5768SOL     OW18202   1.448   1.046   4.920
 5768SOL    HW118203   1.366   0.989   4.927
 5768SOL    HW218204   1.507   1.030   4.998
 5769SOL     OW18205   0.786   2.672   5.661
 5769SOL    HW118206   0.721   2.703   5.731
 5769SOL    HW218207   0.770   2.575   5.642
 5770SOL     OW18208   1.814   4.280   2.491
 5770SOL    HW118209   1.762   4.281   2.405
 5770SOL    HW218210   1.801   4.367   2.539
 5771SOL     OW18211   2.886   5.536   3.131
 5771SOL    HW118212   2.942   5.558   3.051
 5771SOL    HW218213   2.944   5.525   3.211
 5772SOL     OW18214   2.694   0.179   3.162
 5772SOL    HW118215   2.672   0.095   3.212
 5772SOL    HW218216   2.768   0.227   3.209
 5773SOL     OW18217   5.707   0.685   3.805
 5773SOL    HW118218   5.794   0.724   3.835
 5773SOL    HW218219   5.638   0.698   3.877
 5774SOL     OW18220   1.005   6.847   3.629
 5774SOL    HW118221   0.986   6.903   3.548
 5774SOL    HW218222   0.937   6.866   3.700
 5775SOL     OW18223   6.050   4.892   2.658
 5775SOL    HW118224   6.059   4.948   2.576
 5775SOL    HW218225   6.137   4.890   2.707
 5776SOL     OW18226   3.240   0.991   4.139
 5776SOL    HW118227   3.234   1.079   4.187
 5776SOL    HW218228   3.253   0.917   4.205
 5777SOL     OW18229   1.103   0.496   1.541
 5777SOL    HW118230   1.053   0.515   1.457
 5777SOL    HW218231   1.039   0.482   1.616
 5778SOL     OW18232   0.004   0.340   0.131
 5778SOL    HW118233   6.974   0.406   0.074
 5778SOL    HW218234   0.045   0.386   0.209
 5779SOL     OW18235   5.828   1.733   0.573
 5779SOL    HW118236   5.739   1.709   0.611
 5779SOL    HW218237   5.854   1.825   0.602
 5780SOL     OW18238   5.034   4.808   3.999
 5780SOL    HW118239   4.946   4.854   4.007
 5780SOL    HW218240   5.101   4.870   3.958
 5781SOL     OW18241   1.393   5.252   6.317
 5781SOL    HW118242   1.411   5.259   6.415
 5781SOL    HW218243   1.472   5.209   6.272
 5782SOL     OW18244   6.740   0.835   6.946
 5782SOL    HW118245   6.777   0.874   6.862
 5782SOL    HW218246   6.801   0.857   0.005
 5783SOL     OW18247   2.586   2.803   6.786
 5783SOL    HW118248   2.647   2.727   6.761
 5783SOL    HW218249   2.492   2.769   6.791
 5784SOL     OW18250   6.811   6.256   6.928
 5784SOL    HW118251   6.903   6.259   6.966
 5784SOL    HW218252   6.808   6.312   6.845
 5785SOL     OW18253   1.478   1.512   1.478
 5785SOL    HW118254   1.517   1.421   1.459
 5785SOL    HW218255   1.539   1.561   1.540
 5786SOL     OW18256   6.275   5.811   1.652
 5786SOL    HW118257   6.187   5.778   1.619
 5786SOL    HW218258   6.308   5.883   1.591
 5787SOL     OW18259   2.044   3.417   6.229
 5787SOL    HW118260   2.116   3.407   6.160
 5787SOL    HW218261   1.996   3.504   6.215
 5788SOL     OW18262   3.491   0.569   3.557
 5788SOL    HW118263   3.437   0.544   3.477
 5788SOL    HW218264   3.447   0.646   3.603
 5789SOL     OW18265   3.875   4.956   6.098
 5789SOL    HW118266   3.965   4.931   6.134
 5789SOL    HW218267   3.859   4.906   6.013
 5790SOL     OW18268   1.014   3.943   3.755
 5790SOL    HW118269   0.997   3.956   3.852
 5790SOL    HW218270   0.967   3.861   3.723
 5791SOL     OW18271   1.593   0.336   3.247
 5791SOL    HW118272   1.648   0.292   3.318
 5791SOL    HW218273   1.579   0.432   3.270
 5792SOL     OW18274   7.010   2.646   3.049
 5792SOL    HW118275   7.015   2.547   3.036
 5792SOL    HW218276   0.068   2.690   3.000
 5793SOL     OW18277   6.444   0.620   4.720
 5793SOL    HW118278   6.516   0.551   4.721
 5793SOL    HW218279   6.371   0.594   4.782
 5794SOL     OW18280   6.622   4.141   6.351
 5794SOL    HW118281   6.639   4.238   6.369
 5794SOL    HW218282   6.670   4.085   6.419
 5795SOL     OW18283   6.179   4.336   6.305
 5795SOL    HW118284   6.088   4.372   6.329
 5795SOL    HW218285   6.206   4.267   6.373
 5796SOL     OW18286   2.916   2.532   0.798
 5796SOL    HW118287   2.955   2.588   0.871
 5796SOL    HW218288   2.822   2.561   0.780
 5797SOL     OW18289   3.062   2.628   5.450
 5797SOL    HW118290   3.147   2.637   5.398
 5797SOL    HW218291   3.040   2.531   5.461
 5798SOL     OW18292   6.672   5.234   4.135
 5798SOL    HW118293   6.592   5.293   4.141
 5798SOL    HW218294   6.748   5.276   4.186
 5799SOL     OW18295   5.459   1.192   4.173
 5799SOL    HW118296   5.511   1.276   4.159
 5799SOL    HW218297   5.392   1.182   4.100
 5800SOL     OW18298   6.206   5.773   6.701
 5800SOL    HW118299   6.160   5.856   6.732
 5800SOL    HW218300   6.304   5.791   6.692
 5801SOL     OW18301   2.121   0.872   2.901
 5801SOL    HW118302   2.213   0.899   2.927
 5801SOL    HW218303   2.057   0.946   2.924
 5802SOL     OW18304   0.513   2.635   4.741
 5802SOL    HW118305   0.477   2.576   4.668
 5802SOL    HW218306   0.613   2.627   4.744
 5803SOL     OW18307   1.542   5.075   0.821
 5803SOL    HW118308   1.456   5.122   0.841
 5803SOL    HW218309   1.560   5.006   0.891
 5804SOL     OW18310   0.271   2.459   6.088
 5804SOL    HW118311   0.189   2.445   6.144
 5804SOL    HW218312   0.244   2.490   5.997
 5805SOL     OW18313   5.809   3.539   6.532
 5805SOL    HW118314   5.817   3.629   6.488
 5805SOL    HW218315   5.716   3.528   6.568
 5806SOL     OW18316   6.462   6.758   6.788
 5806SOL    HW118317   6.476   6.847   6.744
 5806SOL    HW218318   6.448   6.771   6.886
 5807SOL     OW18319   2.287   3.609   1.673
 5807SOL    HW118320   2.269   3.579   1.767
 5807SOL    HW218321   2.351   3.686   1.674
 5808SOL     OW18322   6.322   1.555   3.634
 5808SOL    HW118323   6.223   1.567   3.621
 5808SOL    HW218324   6.358   1.497   3.561
 5809SOL     OW18325   0.220   2.799   3.892
 5809SOL    HW118326   0.151   2.787   3.820
 5809SOL    HW218327   0.287   2.725   3.887
 5810SOL     OW18328   2.762   2.299   2.579
 5810SOL    HW118329   2.830   2.277   2.509
 5810SOL    HW218330   2.691   2.357   2.539
 5811SOL     OW18331   3.339   0.291   2.757
 5811SOL    HW118332   3.350   0.285   2.658
 5811SOL    HW218333   3.261   0.235   2.785
 5812SOL     OW18334   4.528   0.517   5.174
 5812SOL    HW118335   4.429   0.521   5.159
 5812SOL    HW218336   4.558   0.599   5.222
 5813SOL     OW18337   1.477   1.291   5.355
 5813SOL    HW118338   1.499   1.210   5.410
 5813SOL    HW218339   1.532   1.291   5.272
 5814SOL     OW18340   7.002   5.117   0.893
 5814SOL    HW118341   6.950   5.037   0.864
 5814SOL    HW218342   0.069   5.088   0.939
 5815SOL     OW18343   3.805   0.615   3.849
 5815SOL    HW118344   3.819   0.534   3.907
 5815SOL    HW218345   3.718   0.659   3.874
 5816SOL     OW18346   5.069   6.806   0.594
 5816SOL    HW118347   4.983   6.809   0.645
 5816SOL    HW218348   5.119   6.723   0.619
 5817SOL     OW18349   5.932   2.425   6.005
 5817SOL    HW118350   5.901   2.520   6.001
 5817SOL    HW218351   5.874   2.368   5.946
 5818SOL     OW18352   6.408   6.114   5.561
 5818SOL    HW118353   6.466   6.190   5.591
 5818SOL    HW218354   6.444   6.029   5.597
 5819SOL     OW18355   6.075   0.231   0.616
 5819SOL    HW118356   6.163   0.277   0.611
 5819SOL    HW218357   6.035   0.245   0.707
 5820SOL     OW18358   5.609   4.993   2.002
 5820SOL    HW118359   5.675   4.998   1.927
 5820SOL    HW218360   5.656   5.010   2.089
 5821SOL     OW18361   3.337   7.009   2.812
 5821SOL    HW118362   3.255   0.023   2.861
 5821SOL    HW218363   3.315   6.999   2.715
 5822SOL     OW18364   0.899   1.057   2.083
 5822SOL    HW118365   0.810   1.078   2.042
 5822SOL    HW218366   0.972   1.087   2.021
 5823SOL     OW18367   1.997   2.750   4.196
 5823SOL    HW118368   2.019   2.764   4.099
 5823SOL    HW218369   2.014   2.654   4.220
 5824SOL     OW18370   4.356   0.133   3.663
 5824SOL    HW118371   4.322   0.042   3.640
 5824SOL    HW218372   4.286   0.183   3.714
 5825SOL     OW18373   3.834   1.018   1.530
 5825SOL    HW118374   3.905   0.997   1.597
 5825SOL    HW218375   3.801   1.111   1.545
 5826SOL     OW18376   0.097   6.688   3.738
 5826SOL    HW118377   0.001   6.712   3.749
 5826SOL    HW218378   0.126   6.631   3.815
 5827SOL     OW18379   1.705   4.527   5.451
 5827SOL    HW118380   1.667   4.603   5.398
 5827SOL    HW218381   1.748   4.462   5.389
 5828SOL     OW18382   6.609   1.965   1.618
 5828SOL    HW118383   6.702   1.941   1.591
 5828SOL    HW218384   6.575   1.898   1.683
 5829SOL     OW18385   1.293   1.691   1.592
 5829SOL    HW118386   1.323   1.623   1.525
 5829SOL    HW218387   1.225   1.650   1.653
 5830SOL     OW18388   2.084   0.972   5.473
 5830SOL    HW118389   2.178   1.006   5.473
 5830SOL    HW218390   2.053   0.958   5.567
 5831SOL     OW18391   5.748   5.850   2.836
 5831SOL    HW118392   5.810   5.890   2.903
 5831SOL    HW218393   5.675   5.800   2.883
 5832SOL     OW18394   3.486   3.257   4.156
 5832SOL    HW118395   3.472   3.205   4.072
 5832SOL    HW218396   3.413   3.324   4.166
 5833SOL     OW18397   3.365   3.314   5.182
 5833SOL    HW118398   3.451   3.363   5.165
 5833SOL    HW218399   3.336   3.268   5.098
 5834SOL     OW18400   6.544   0.856   0.252
 5834SOL    HW118401   6.562   0.804   0.335
 5834SOL    HW218402   6.463   0.819   0.206
 5835SOL     OW18403   5.637   3.306   4.364
 5835SOL    HW118404   5.558   3.249   4.385
 5835SOL    HW218405   5.718   3.249   4.352
 5836SOL     OW18406   3.526   0.100   3.016
 5836SOL    HW118407   3.481   0.131   3.100
 5836SOL    HW218408   3.457   0.075   2.948
 5837SOL     OW18409   4.292   4.579   6.118
 5837SOL    HW118410   4.387   4.610   6.127
 5837SOL    HW218411   4.265   4.585   6.022
 5838SOL     OW18412   0.936   1.126   5.846
 5838SOL    HW118413   0.991   1.171   5.917
 5838SOL    HW218414   0.865   1.189   5.814
 5839SOL     OW18415   0.245   2.604   2.327
 5839SOL    HW118416   0.283   2.514   2.308
 5839SOL    HW218417   0.188   2.600   2.409
 5840SOL     OW18418   3.409   5.407   0.314
 5840SOL    HW118419   3.416   5.319   0.266
 5840SOL    HW218420   3.468   5.474   0.270
 5841SOL     OW18421   6.145   2.433   3.235
 5841SOL    HW118422   6.174   2.410   3.328
 5841SOL    HW218423   6.217   2.408   3.171
 5842SOL     OW18424   3.674   2.526   0.351
 5842SOL    HW118425   3.706   2.582   0.427
 5842SOL    HW218426   3.752   2.495   0.298
 5843SOL     OW18427   0.737   2.877   1.190
 5843SOL    HW118428   0.825   2.880   1.142
 5843SOL    HW218429   0.750   2.907   1.285
 5844SOL     OW18430   1.838   6.456   0.129
 5844SOL    HW118431   1.835   6.363   0.093
 5844SOL    HW218432   1.911   6.507   0.085
 5845SOL     OW18433   1.473   2.606   4.716
 5845SOL    HW118434   1.510   2.519   4.683
 5845SOL    HW218435   1.436   2.657   4.638
 5846SOL     OW18436   0.150   3.246   6.735
 5846SOL    HW118437   0.128   3.337   6.769
 5846SOL    HW218438   0.212   3.199   6.798
 5847SOL     OW18439   1.410   2.158   3.787
 5847SOL    HW118440   1.503   2.138   3.817
 5847SOL    HW218441   1.360   2.204   3.861
 5848SOL     OW18442   1.032   4.906   3.360
 5848SOL    HW118443   1.079   4.860   3.284
 5848SOL    HW218444   0.950   4.952   3.325
 5849SOL     OW18445   3.256   6.651   6.042
 5849SOL    HW118446   3.185   6.642   6.113
 5849SOL    HW218447   3.269   6.562   5.997
 5850SOL     OW18448   0.707   4.558   3.419
 5850SOL    HW118449   0.786   4.608   3.456
 5850SOL    HW218450   0.636   4.551   3.489
 5851SOL     OW18451   5.751   2.983   1.912
 5851SOL    HW118452   5.699   2.898   1.908
 5851SOL    HW218453   5.762   3.011   2.008
 5852SOL     OW18454   4.040   6.103   3.143
 5852SOL    HW118455   3.980   6.071   3.070
 5852SOL    HW218456   4.011   6.194   3.173
 5853SOL     OW18457   4.764   4.012   5.706
 5853SOL    HW118458   4.724   4.082   5.766
 5853SOL    HW218459   4.777   4.051   5.615
 5854SOL     OW18460   1.118   1.125   6.503
 5854SOL    HW118461   1.209   1.099   6.536
 5854SOL    HW218462   1.114   1.224   6.492
 5855SOL     OW18463   1.722   1.735   4.950
 5855SOL    HW118464   1.671   1.761   4.868
 5855SOL    HW218465   1.817   1.715   4.925
 5856SOL     OW18466   1.682   5.101   2.976
 5856SOL    HW118467   1.680   5.066   2.883
 5856SOL    HW218468   1.769   5.147   2.992
 5857SOL     OW18469   0.596   2.677   5.410
 5857SOL    HW118470   0.675   2.703   5.354
 5857SOL    HW218471   0.616   2.590   5.456
 5858SOL     OW18472   3.544   6.670   3.463
 5858SOL    HW118473   3.557   6.750   3.521
 5858SOL    HW218474   3.510   6.594   3.518
 5859SOL     OW18475   6.192   6.207   1.956
 5859SOL    HW118476   6.138   6.244   2.031
 5859SOL    HW218477   6.156   6.117   1.930
 5860SOL     OW18478   7.011   3.941   0.880
 5860SOL    HW118479   6.965   3.950   0.968
 5860SOL    HW218480   7.005   3.846   0.850
 5861SOL     OW18481   6.034   1.685   4.091
 5861SOL    HW118482   6.064   1.712   3.999
 5861SOL    HW218483   6.112   1.648   4.141
 5862SOL     OW18484   4.531   4.905   3.821
 5862SOL    HW118485   4.571   4.862   3.902
 5862SOL    HW218486   4.573   4.866   3.738
 5863SOL     OW18487   2.008   1.892   1.075
 5863SOL    HW118488   2.064   1.819   1.113
 5863SOL    HW218489   2.007   1.885   0.976
 5864SOL     OW18490   4.816   5.235   0.637
 5864SOL    HW118491   4.799   5.201   0.730
 5864SOL    HW218492   4.732   5.272   0.599
 5865SOL     OW18493   4.431   0.734   3.545
 5865SOL    HW118494   4.384   0.685   3.472
 5865SOL    HW218495   4.366   0.759   3.616
 5866SOL     OW18496   3.434   1.737   0.098
 5866SOL    HW118497   3.391   1.747   0.008
 5866SOL    HW218498   3.394   1.658   0.145
 5867SOL     OW18499   6.654   2.731   1.534
 5867SOL    HW118500   6.628   2.827   1.533
 5867SOL    HW218501   6.753   2.724   1.552
 5868SOL     OW18502   1.088   6.706   4.686
 5868SOL    HW118503   0.996   6.706   4.646
 5868SOL    HW218504   1.081   6.715   4.785
 5869SOL     OW18505   2.929   5.027   4.313
 5869SOL    HW118506   2.983   5.111   4.309
 5869SOL    HW218507   2.944   4.982   4.401
 5870SOL     OW18508   4.792   5.523   3.835
 5870SOL    HW118509   4.714   5.466   3.809
 5870SOL    HW218510   4.865   5.513   3.767
 5871SOL     OW18511   2.812   3.602   0.377
 5871SOL    HW118512   2.843   3.530   0.439
 5871SOL    HW218513   2.745   3.564   0.314
 5872SOL     OW18514   4.042   5.314   3.990
 5872SOL    HW118515   3.990   5.233   3.960
 5872SOL    HW218516   4.098   5.290   4.069
 5873SOL     OW18517   2.079   2.725   6.901
 5873SOL    HW118518   2.036   2.751   6.988
 5873SOL    HW218519   2.009   2.714   6.831
 5874SOL     OW18520   1.080   4.178   6.303
 5874SOL    HW118521   1.114   4.231   6.381
 5874SOL    HW218522   1.064   4.084   6.331
 5875SOL     OW18523   3.255   2.431   0.764
 5875SOL    HW118524   3.303   2.501   0.711
 5875SOL    HW218525   3.236   2.466   0.855
 5876SOL     OW18526   4.334   4.139   6.352
 5876SOL    HW118527   4.273   4.138   6.273
 5876SOL    HW218528   4.280   4.124   6.435
 5877SOL     OW18529   5.798   0.177   2.381
 5877SOL    HW118530   5.750   0.090   2.379
 5877SOL    HW218531   5.739   0.247   2.420
 5878SOL     OW18532   4.813   4.043   2.295
 5878SOL    HW118533   4.827   3.964   2.236
 5878SOL    HW218534   4.791   4.123   2.240
 5879SOL     OW18535   3.046   4.234   5.162
 5879SOL    HW118536   2.991   4.318   5.165
 5879SOL    HW218537   2.984   4.155   5.162
 5880SOL     OW18538   5.814   2.508   0.255
 5880SOL    HW118539   5.735   2.554   0.296
 5880SOL    HW218540   5.896   2.564   0.268
 5881SOL     OW18541   1.475   6.011   2.802
 5881SOL    HW118542   1.542   5.963   2.746
 5881SOL    HW218543   1.443   5.950   2.875
 5882SOL     OW18544   1.581   4.928   5.574
 5882SOL    HW118545   1.592   4.989   5.496
 5882SOL    HW218546   1.574   4.981   5.658
 5883SOL     OW18547   6.800   5.219   0.334
 5883SOL    HW118548   6.735   5.258   0.399
 5883SOL    HW218549   6.766   5.129   0.304
 5884SOL     OW18550   6.356   0.746   2.520
 5884SOL    HW118551   6.288   0.820   2.524
 5884SOL    HW218552   6.333   0.685   2.444
 5885SOL     OW18553   0.239   5.485   1.307
 5885SOL    HW118554   0.154   5.496   1.254
 5885SOL    HW218555   0.217   5.463   1.401
 5886SOL     OW18556   2.117   4.504   3.636
 5886SOL    HW118557   2.116   4.583   3.698
 5886SOL    HW218558   2.148   4.423   3.686
 5887SOL     OW18559   3.022   3.395   0.259
 5887SOL    HW118560   3.024   3.398   0.359
 5887SOL    HW218561   3.115   3.400   0.224
 5888SOL     OW18562   2.561   6.174   1.499
 5888SOL    HW118563   2.594   6.264   1.526
 5888SOL    HW218564   2.491   6.144   1.563
 5889SOL     OW18565   5.487   1.730   2.812
 5889SOL    HW118566   5.573   1.780   2.810
 5889SOL    HW218567   5.424   1.770   2.744
 5890SOL     OW18568   2.541   4.806   3.544
 5890SOL    HW118569   2.534   4.762   3.454
 5890SOL    HW218570   2.637   4.818   3.567
 5891SOL     OW18571   2.537   2.977   6.535
 5891SOL    HW118572   2.465   3.033   6.494
 5891SOL    HW218573   2.504   2.940   6.622
 5892SOL     OW18574   1.351   2.779   0.593
 5892SOL    HW118575   1.379   2.812   0.503
 5892SOL    HW218576   1.252   2.765   0.595
 5893SOL     OW18577   0.537   6.210   1.654
 5893SOL    HW118578   0.601   6.145   1.614
 5893SOL    HW218579   0.507   6.276   1.584
 5894SOL     OW18580   2.314   5.774   6.830
 5894SOL    HW118581   2.408   5.756   6.859
 5894SOL    HW218582   2.255   5.699   6.860
 5895SOL     OW18583   6.131   3.962   3.774
 5895SOL    HW118584   6.091   3.924   3.858
 5895SOL    HW218585   6.192   4.038   3.798
 5896SOL     OW18586   5.576   2.770   1.912
 5896SOL    HW118587   5.598   2.718   1.994
 5896SOL    HW218588   5.584   2.711   1.831
 5897SOL     OW18589   3.554   2.278   0.327
 5897SOL    HW118590   3.599   2.367   0.323
 5897SOL    HW218591   3.472   2.280   0.269
 5898SOL     OW18592   2.885   0.761   6.671
 5898SOL    HW118593   2.912   0.735   6.579
 5898SOL    HW218594   2.846   0.853   6.669
 5899SOL     OW18595   0.419   6.944   6.985
 5899SOL    HW118596   0.510   6.912   6.958
 5899SOL    HW218597   0.363   6.865   7.013
 5900SOL     OW18598   6.099   6.806   2.292
 5900SOL    HW118599   6.004   6.789   2.320
 5900SOL    HW218600   6.110   6.902   2.269
 5901SOL     OW18601   2.467   0.652   4.979
 5901SOL    HW118602   2.540   0.720   4.972
 5901SOL    HW218603   2.424   0.659   5.069
 5902SOL     OW18604   4.104   4.110   5.695
 5902SOL    HW118605   4.017   4.134   5.653
 5902SOL    HW218606   4.156   4.051   5.633
 5903SOL     OW18607   6.328   2.038   4.855
 5903SOL    HW118608   6.284   2.097   4.922
 5903SOL    HW218609   6.336   2.086   4.767
 5904SOL     OW18610   6.758   5.036   1.505
 5904SOL    HW118611   6.790   4.996   1.592
 5904SOL    HW218612   6.683   4.980   1.469
 5905SOL     OW18613   6.356   2.713   4.845
 5905SOL    HW118614   6.277   2.734   4.902
 5905SOL    HW218615   6.417   2.651   4.894
 5906SOL     OW18616   4.583   0.974   5.878
 5906SOL    HW118617   4.550   1.062   5.911
 5906SOL    HW218618   4.514   0.932   5.819
 5907SOL     OW18619   1.157   3.539   5.848
 5907SOL    HW118620   1.234   3.586   5.804
 5907SOL    HW218621   1.186   3.505   5.937
 5908SOL     OW18622   4.231   3.814   6.590
 5908SOL    HW118623   4.190   3.886   6.646
 5908SOL    HW218624   4.176   3.799   6.509
 5909SOL     OW18625   5.838   5.035   3.619
 5909SOL    HW118626   5.857   5.037   3.717
 5909SOL    HW218627   5.765   5.100   3.598
 5910SOL     OW18628   3.264   4.609   1.285
 5910SOL    HW118629   3.182   4.663   1.268
 5910SOL    HW218630   3.245   4.537   1.351
 5911SOL     OW18631   6.159   0.412   6.172
 5911SOL    HW118632   6.070   0.366   6.179
 5911SOL    HW218633   6.183   0.452   6.260
 5912SOL     OW18634   0.469   3.356   5.936
 5912SOL    HW118635   0.511   3.444   5.957
 5912SOL    HW218636   0.523   3.309   5.866
 5913SOL     OW18637   2.010   2.498   4.276
 5913SOL    HW118638   1.951   2.418   4.262
 5913SOL    HW218639   2.013   2.521   4.373
 5914SOL     OW18640   1.466   5.925   0.895
 5914SOL    HW118641   1.560   5.959   0.900
 5914SOL    HW218642   1.409   5.977   0.958
 5915SOL     OW18643   5.901   3.618   3.802
 5915SOL    HW118644   5.910   3.527   3.760
 5915SOL    HW218645   5.988   3.644   3.844
 5916SOL     OW18646   3.280   0.583   6.512
 5916SOL    HW118647   3.313   0.491   6.533
 5916SOL    HW218648   3.287   0.641   6.593
 5917SOL     OW18649   3.860   3.997   2.248
 5917SOL    HW118650   3.957   3.980   2.263
 5917SOL    HW218651   3.814   4.005   2.337
 5918SOL     OW18652   2.392   1.799   3.951
 5918SOL    HW118653   2.311   1.749   3.983
 5918SOL    HW218654   2.452   1.736   3.901
 5919SOL     OW18655   1.732   1.946   7.009
 5919SOL    HW118656   1.750   2.030   0.043
 5919SOL    HW218657   1.649   1.958   6.954
 5920SOL     OW18658   2.991   4.935   6.887
 5920SOL    HW118659   3.025   4.957   6.979
 5920SOL    HW218660   2.894   4.910   6.893
 5921SOL     OW18661   4.026   5.385   5.156
 5921SOL    HW118662   4.048   5.453   5.226
 5921SOL    HW218663   4.108   5.332   5.135
 5922SOL     OW18664   6.423   4.965   1.662
 5922SOL    HW118665   6.428   4.999   1.757
 5922SOL    HW218666   6.383   4.874   1.662
 5923SOL     OW18667   0.698   0.907   3.522
 5923SOL    HW118668   0.606   0.877   3.494
 5923SOL    HW218669   0.735   0.841   3.588
 5924SOL     OW18670   5.773   1.871   4.586
 5924SOL    HW118671   5.705   1.866   4.659
 5924SOL    HW218672   5.810   1.780   4.568
 5925SOL     OW18673   6.364   5.565   0.509
 5925SOL    HW118674   6.461   5.565   0.486
 5925SOL    HW218675   6.318   5.639   0.459
 5926SOL     OW18676   3.532   6.196   1.637
 5926SOL    HW118677   3.583   6.163   1.716
 5926SOL    HW218678   3.537   6.296   1.634
 5927SOL     OW18679   2.398   5.010   1.602
 5927SOL    HW118680   2.372   4.921   1.563
 5927SOL    HW218681   2.412   5.001   1.700
 5928SOL     OW18682   0.603   6.422   1.064
 5928SOL    HW118683   0.568   6.455   0.976
 5928SOL    HW218684   0.702   6.435   1.067
 5929SOL     OW18685   0.677   6.607   5.537
 5929SOL    HW118686   0.722   6.616   5.448
 5929SOL    HW218687   0.583   6.643   5.531
 5930SOL     OW18688   6.047   1.132   5.321
 5930SOL    HW118689   6.004   1.111   5.233
 5930SOL    HW218690   6.096   1.052   5.355
 5931SOL     OW18691   5.750   4.832   0.735
 5931SOL    HW118692   5.754   4.825   0.835
 5931SOL    HW218693   5.656   4.819   0.704
 5932SOL     OW18694   2.251   0.070   0.162
 5932SOL    HW118695   2.235   0.161   0.125
 5932SOL    HW218696   2.191   0.054   0.240
 5933SOL     OW18697   6.283   3.336   3.095
 5933SOL    HW118698   6.216   3.348   3.021
 5933SOL    HW218699   6.360   3.281   3.062
 5934SOL     OW18700   3.988   3.753   2.370
 5934SOL    HW118701   4.020   3.737   2.277
 5934SOL    HW218702   3.894   3.720   2.379
 5935SOL     OW18703   4.064   3.185   2.900
 5935SOL    HW118704   4.146   3.133   2.873
 5935SOL    HW218705   4.011   3.206   2.818
 5936SOL     OW18706   6.766   6.006   6.778
 5936SOL    HW118707   6.751   6.092   6.828
 5936SOL    HW218708   6.764   5.930   6.843
 5937SOL     OW18709   1.060   4.290   6.956
 5937SOL    HW118710   1.115   4.326   6.880
 5937SOL    HW218711   1.066   4.191   6.958
 5938SOL     OW18712   2.486   4.616   0.459
 5938SOL    HW118713   2.431   4.658   0.388
 5938SOL    HW218714   2.427   4.590   0.536
 5939SOL     OW18715   1.519   0.949   2.111
 5939SOL    HW118716   1.515   1.038   2.156
 5939SOL    HW218717   1.541   0.879   2.179
 5940SOL     OW18718   3.878   4.871   3.774
 5940SOL    HW118719   3.827   4.955   3.793
 5940SOL    HW218720   3.871   4.849   3.677
 5941SOL     OW18721   6.485   2.905   3.567
 5941SOL    HW118722   6.548   2.957   3.510
 5941SOL    HW218723   6.429   2.968   3.621
 5942SOL     OW18724   6.978   1.118   4.693
 5942SOL    HW118725   6.921   1.200   4.695
 5942SOL    HW218726   6.959   1.063   4.774
 5943SOL     OW18727   1.350   5.218   0.479
 5943SOL    HW118728   1.334   5.295   0.541
 5943SOL    HW218729   1.438   5.175   0.501
 5944SOL     OW18730   5.377   2.443   2.617
 5944SOL    HW118731   5.312   2.480   2.683
 5944SOL    HW218732   5.374   2.497   2.533
 5945SOL     OW18733   6.693   5.696   6.022
 5945SOL    HW118734   6.639   5.627   6.070
 5945SOL    HW218735   6.632   5.764   5.982
 5946SOL     OW18736   3.533   2.754   5.554
 5946SOL    HW118737   3.536   2.682   5.484
 5946SOL    HW218738   3.438   2.783   5.568
 5947SOL     OW18739   4.836   3.861   2.089
 5947SOL    HW118740   4.811   3.909   2.005
 5947SOL    HW218741   4.931   3.831   2.084
 5948SOL     OW18742   2.926   5.140   3.208
 5948SOL    HW118743   2.952   5.142   3.304
 5948SOL    HW218744   2.828   5.126   3.199
 5949SOL     OW18745   4.288   4.678   2.980
 5949SOL    HW118746   4.339   4.678   3.066
 5949SOL    HW218747   4.338   4.624   2.912
 5950SOL     OW18748   6.386   2.815   4.585
 5950SOL    HW118749   6.373   2.771   4.674
 5950SOL    HW218750   6.382   2.745   4.513
 5951SOL     OW18751   1.848   0.366   4.242
 5951SOL    HW118752   1.878   0.301   4.172
 5951SOL    HW218753   1.915   0.440   4.249
 5952SOL     OW18754   0.403   5.997   5.023
 5952SOL    HW118755   0.308   6.000   4.992
 5952SOL    HW218756   0.464   6.012   4.945
 5953SOL     OW18757   1.056   3.278   6.089
 5953SOL    HW118758   1.126   3.209   6.105
 5953SOL    HW218759   1.100   3.366   6.068
 5954SOL     OW18760   1.317   4.986   6.522
 5954SOL    HW118761   1.341   5.079   6.552
 5954SOL    HW218762   1.264   4.991   6.437
 5955SOL     OW18763   5.021   4.829   2.747
 5955SOL    HW118764   5.048   4.817   2.652
 5955SOL    HW218765   5.067   4.909   2.785
 5956SOL     OW18766   0.358   2.006   0.057
 5956SOL    HW118767   0.284   1.956   0.101
 5956SOL    HW218768   0.321   2.085   0.008
 5957SOL     OW18769   4.616   6.788   5.381
 5957SOL    HW118770   4.525   6.829   5.368
 5957SOL    HW218771   4.613   6.725   5.458
 5958SOL     OW18772   0.895   5.154   2.557
 5958SOL    HW118773   0.953   5.147   2.476
 5958SOL    HW218774   0.826   5.225   2.542
 5959SOL     OW18775   1.336   1.027   6.599
 5959SOL    HW118776   1.391   0.946   6.578
 5959SOL    HW218777   1.396   1.106   6.611
 5960SOL     OW18778   3.481   6.309   5.629
 5960SOL    HW118779   3.387   6.313   5.593
 5960SOL    HW218780   3.500   6.393   5.681
 5961SOL     OW18781   2.593   1.123   5.375
 5961SOL    HW118782   2.608   1.207   5.427
 5961SOL    HW218783   2.591   1.144   5.277
 5962SOL     OW18784   5.342   3.896   1.984
 5962SOL    HW118785   5.340   3.796   1.990
 5962SOL    HW218786   5.391   3.923   1.901
 5963SOL     OW18787   4.145   4.126   1.702
 5963SOL    HW118788   4.100   4.181   1.631
 5963SOL    HW218789   4.216   4.180   1.746
 5964SOL     OW18790   1.464   3.737   5.651
 5964SOL    HW118791   1.466   3.642   5.621
 5964SOL    HW218792   1.475   3.797   5.572
 5965SOL     OW18793   2.190   1.697   3.671
 5965SOL    HW118794   2.232   1.785   3.691
 5965SOL    HW218795   2.253   1.641   3.619
 5966SOL     OW18796   1.766   5.451   4.284
 5966SOL    HW118797   1.790   5.485   4.194
 5966SOL    HW218798   1.783   5.353   4.289
 5967SOL     OW18799   4.501   5.877   2.621
 5967SOL    HW118800   4.570   5.937   2.579
 5967SOL    HW218801   4.545   5.818   2.688
 5968SOL     OW18802   0.335   1.643   3.909
 5968SOL    HW118803   0.365   1.622   3.816
 5968SOL    HW218804   0.408   1.621   3.974
 5969SOL     OW18805   5.895   2.392   2.949
 5969SOL    HW118806   5.897   2.446   3.033
 5969SOL    HW218807   5.936   2.445   2.875
 5970SOL     OW18808   2.098   3.446   3.503
 5970SOL    HW118809   2.121   3.539   3.477
 5970SOL    HW218810   2.182   3.391   3.509
 5971SOL     OW18811   3.073   6.278   3.322
 5971SOL    HW118812   3.131   6.255   3.243
 5971SOL    HW218813   3.053   6.376   3.319
 5972SOL     OW18814   5.352   0.143   1.868
 5972SOL    HW118815   5.293   0.221   1.889
 5972SOL    HW218816   5.423   0.134   1.937
 5973SOL     OW18817   1.723   4.595   3.080
 5973SOL    HW118818   1.812   4.636   3.062
 5973SOL    HW218819   1.696   4.613   3.175
 5974SOL     OW18820   0.991   3.912   6.385
 5974SOL    HW118821   1.008   3.891   6.481
 5974SOL    HW218822   1.011   3.832   6.329
 5975SOL     OW18823   2.325   2.325   6.288
 5975SOL    HW118824   2.332   2.225   6.295
 5975SOL    HW218825   2.351   2.354   6.195
 5976SOL     OW18826   3.429   2.901   4.403
 5976SOL    HW118827   3.364   2.859   4.465
 5976SOL    HW218828   3.446   2.996   4.432
 5977SOL     OW18829   0.400   3.502   3.142
 5977SOL    HW118830   0.370   3.589   3.101
 5977SOL    HW218831   0.479   3.467   3.091
 5978SOL     OW18832   5.057   5.517   2.066
 5978SOL    HW118833   5.047   5.545   2.161
 5978SOL    HW218834   4.977   5.463   2.038
 5979SOL     OW18835   0.911   1.232   1.359
 5979SOL    HW118836   0.819   1.201   1.335
 5979SOL    HW218837   0.910   1.331   1.371
 5980SOL     OW18838   5.932   2.939   6.171
 5980SOL    HW118839   6.004   2.913   6.106
 5980SOL    HW218840   5.892   2.856   6.211
 5981SOL     OW18841   3.782   2.125   0.877
 5981SOL    HW118842   3.713   2.156   0.812
 5981SOL    HW218843   3.737   2.082   0.955
 5982SOL     OW18844   6.145   2.484   6.822
 5982SOL    HW118845   6.140   2.474   6.921
 5982SOL    HW218846   6.184   2.401   6.781
 5983SOL     OW18847   1.336   0.529   4.734
 5983SOL    HW118848   1.243   0.517   4.699
 5983SOL    HW218849   1.347   0.479   4.820
 5984SOL     OW18850   0.637   6.916   5.981
 5984SOL    HW118851   0.703   6.867   5.923
 5984SOL    HW218852   0.638   7.013   5.958
 5985SOL     OW18853   5.419   3.645   3.897
 5985SOL    HW118854   5.453   3.579   3.963
 5985SOL    HW218855   5.385   3.598   3.816
 5986SOL     OW18856   3.098   3.244   2.895
 5986SOL    HW118857   3.042   3.280   2.970
 5986SOL    HW218858   3.171   3.186   2.933
 5987SOL     OW18859   5.024   0.275   5.787
 5987SOL    HW118860   4.929   0.280   5.757
 5987SOL    HW218861   5.031   0.214   5.866
 5988SOL     OW18862   3.458   0.304   5.701
 5988SOL    HW118863   3.541   0.284   5.648
 5988SOL    HW218864   3.484   0.346   5.787
 5989SOL     OW18865   3.018   1.719   0.106
 5989SOL    HW118866   2.946   1.727   0.037
 5989SOL    HW218867   3.031   1.808   0.150
 5990SOL     OW18868   3.544   5.189   2.617
 5990SOL    HW118869   3.567   5.174   2.713
 5990SOL    HW218870   3.529   5.100   2.573
 5991SOL     OW18871   2.647   5.208   3.453
 5991SOL    HW118872   2.646   5.123   3.400
 5991SOL    HW218873   2.624   5.188   3.548
 5992SOL     OW18874   4.401   2.062   4.029
 5992SOL    HW118875   4.347   2.004   3.968
 5992SOL    HW218876   4.372   2.158   4.019
 5993SOL     OW18877   2.977   5.691   3.686
 5993SOL    HW118878   2.881   5.687   3.661
 5993SOL    HW218879   2.996   5.778   3.731
 5994SOL     OW18880   6.341   1.921   1.177
 5994SOL    HW118881   6.396   1.919   1.094
 5994SOL    HW218882   6.400   1.939   1.256
 5995SOL     OW18883   0.902   4.729   1.301
 5995SOL    HW118884   0.989   4.687   1.329
 5995SOL    HW218885   0.853   4.762   1.383
 5996SOL     OW18886   1.090   5.821   5.990
 5996SOL    HW118887   1.158   5.785   5.926
 5996SOL    HW218888   1.090   5.921   5.986
 5997SOL     OW18889   0.401   0.633   1.599
 5997SOL    HW118890   0.450   0.653   1.684
 5997SOL    HW218891   0.349   0.714   1.570
 5998SOL     OW18892   4.623   2.628   3.531
 5998SOL    HW118893   4.658   2.675   3.612
 5998SOL    HW218894   4.632   2.688   3.451
 5999SOL     OW18895   2.410   2.639   3.131
 5999SOL    HW118896   2.349   2.706   3.173
 5999SOL    HW218897   2.405   2.646   3.032
 6000SOL     OW18898   4.925   0.795   3.609
 6000SOL    HW118899   5.003   0.845   3.648
 6000SOL    HW218900   4.845   0.854   3.610
 6001SOL     OW18901   6.560   1.779   0.347
 6001SOL    HW118902   6.492   1.802   0.417
 6001SOL    HW218903   6.619   1.706   0.381
 6002SOL     OW18904   1.731   0.305   2.177
 6002SOL    HW118905   1.719   0.344   2.085
 6002SOL    HW218906   1.643   0.306   2.225
 6003SOL     OW18907   5.584   4.594   3.940
 6003SOL    HW118908   5.648   4.618   4.013
 6003SOL    HW218909   5.603   4.501   3.908
 6004SOL     OW18910   6.740   3.378   1.978
 6004SOL    HW118911   6.833   3.395   1.946
 6004SOL    HW218912   6.674   3.398   1.905
 6005SOL     OW18913   1.844   6.092   2.459
 6005SOL    HW118914   1.810   6.168   2.403
 6005SOL    HW218915   1.913   6.041   2.407
 6006SOL     OW18916   2.484   5.930   0.146
 6006SOL    HW118917   2.412   5.975   0.198
 6006SOL    HW218918   2.564   5.989   0.141
 6007SOL     OW18919   5.079   3.397   4.735
 6007SOL    HW118920   5.002   3.453   4.703
 6007SOL    HW218921   5.091   3.410   4.833
 6008SOL     OW18922   4.674   4.058   1.267
 6008SOL    HW118923   4.692   4.097   1.358
 6008SOL    HW218924   4.679   3.958   1.272
 6009SOL     OW18925   4.574   2.046   5.109
 6009SOL    HW118926   4.497   1.991   5.075
 6009SOL    HW218927   4.657   2.021   5.059
 6010SOL     OW18928   1.513   4.421   3.068
 6010SOL    HW118929   1.556   4.375   3.145
 6010SOL    HW218930   1.571   4.496   3.036
 6011SOL     OW18931   6.520   2.191   1.777
 6011SOL    HW118932   6.440   2.157   1.826
 6011SOL    HW218933   6.559   2.117   1.722
 6012SOL     OW18934   0.259   3.144   1.882
 6012SOL    HW118935   0.183   3.124   1.819
 6012SOL    HW218936   0.343   3.105   1.845
 6013SOL     OW18937   5.507   0.289   2.668
 6013SOL    HW118938   5.574   0.335   2.609
 6013SOL    HW218939   5.502   0.336   2.756
 6014SOL     OW18940   6.085   0.455   1.001
 6014SOL    HW118941   6.005   0.514   0.994
 6014SOL    HW218942   6.168   0.511   0.998
 6015SOL     OW18943   5.645   0.349   4.291
 6015SOL    HW118944   5.611   0.386   4.204
 6015SOL    HW218945   5.618   0.253   4.299
 6016SOL     OW18946   2.108   6.988   5.235
 6016SOL    HW118947   2.067   6.934   5.309
 6016SOL    HW218948   2.063   0.060   5.230
 6017SOL     OW18949   7.016   3.975   2.321
 6017SOL    HW118950   6.918   3.955   2.324
 6017SOL    HW218951   0.018   4.037   2.245
 6018SOL     OW18952   2.721   5.270   1.648
 6018SOL    HW118953   2.816   5.292   1.626
 6018SOL    HW218954   2.710   5.267   1.748
 6019SOL     OW18955   5.779   6.160   3.343
 6019SOL    HW118956   5.741   6.099   3.413
 6019SOL    HW218957   5.794   6.251   3.382
 6020SOL     OW18958   2.220   6.588   2.860
 6020SOL    HW118959   2.298   6.527   2.846
 6020SOL    HW218960   2.135   6.539   2.838
 6021SOL     OW18961   4.153   0.260   3.780
 6021SOL    HW118962   4.154   0.254   3.880
 6021SOL    HW218963   4.080   0.201   3.744
 6022SOL     OW18964   4.478   0.931   5.072
 6022SOL    HW118965   4.559   0.873   5.063
 6022SOL    HW218966   4.405   0.881   5.118
 6023SOL     OW18967   0.137   2.254   2.265
 6023SOL    HW118968   0.156   2.272   2.361
 6023SOL    HW218969   0.047   2.291   2.241
 6024SOL     OW18970   6.761   5.912   2.559
 6024SOL    HW118971   6.667   5.880   2.553
 6024SOL    HW218972   6.809   5.862   2.631
 6025SOL     OW18973   4.110   2.173   2.435
 6025SOL    HW118974   4.010   2.173   2.435
 6025SOL    HW218975   4.143   2.183   2.529
 6026SOL     OW18976   0.397   4.578   5.478
 6026SOL    HW118977   0.492   4.596   5.506
 6026SOL    HW218978   0.358   4.508   5.537
 6027SOL     OW18979   4.030   3.490   0.204
 6027SOL    HW118980   4.037   3.394   0.178
 6027SOL    HW218981   4.074   3.504   0.292
 6028SOL     OW18982   0.824   4.291   0.084
 6028SOL    HW118983   0.923   4.297   0.077
 6028SOL    HW218984   0.782   4.363   0.029
 6029SOL     OW18985   0.919   4.927   1.613
 6029SOL    HW118986   0.825   4.916   1.581
 6029SOL    HW218987   0.960   4.838   1.629
 6030SOL     OW18988   1.739   6.736   1.469
 6030SOL    HW118989   1.685   6.656   1.495
 6030SOL    HW218990   1.816   6.747   1.532
 6031SOL     OW18991   5.144   0.901   4.352
 6031SOL    HW118992   5.080   0.855   4.414
 6031SOL    HW218993   5.238   0.872   4.375
 6032SOL     OW18994   0.456   3.195   2.092
 6032SOL    HW118995   0.413   3.142   2.020
 6032SOL    HW218996   0.531   3.143   2.132
 6033SOL     OW18997   0.184   6.816   4.542
 6033SOL    HW118998   0.228   6.804   4.453
 6033SOL    HW218999   0.085   6.810   4.532
 6034SOL     OW19000   2.336   4.444   5.068
 6034SOL    HW119001   2.293   4.354   5.065
 6034SOL    HW219002   2.414   4.446   5.005
 6035SOL     OW19003   5.465   0.158   3.715
 6035SOL    HW119004   5.461   0.163   3.615
 6035SOL    HW219005   5.377   0.124   3.749
 6036SOL     OW19006   6.897   0.613   4.649
 6036SOL    HW119007   6.935   0.551   4.580
 6036SOL    HW219008   6.878   0.702   4.607
 6037SOL     OW19009   0.200   5.723   4.650
 6037SOL    HW119010   0.300   5.730   4.655
 6037SOL    HW219011   0.162   5.726   4.743
 6038SOL     OW19012   6.589   3.692   6.511
 6038SOL    HW119013   6.656   3.749   6.559
 6038SOL    HW219014   6.541   3.634   6.576
 6039SOL     OW19015   4.087   3.413   4.373
 6039SOL    HW119016   3.991   3.432   4.352
 6039SOL    HW219017   4.133   3.380   4.291
 6040SOL     OW19018   1.442   0.850   1.448
 6040SOL    HW119019   1.409   0.940   1.422
 6040SOL    HW219020   1.365   0.787   1.456
 6041SOL     OW19021   0.306   2.488   0.524
 6041SOL    HW119022   0.364   2.495   0.605
 6041SOL    HW219023   0.262   2.576   0.507
 6042SOL     OW19024   5.431   5.657   5.014
 6042SOL    HW119025   5.357   5.715   4.978
 6042SOL    HW219026   5.434   5.571   4.963
 6043SOL     OW19027   0.298   4.584   4.341
 6043SOL    HW119028   0.375   4.520   4.331
 6043SOL    HW219029   0.220   4.551   4.290
 6044SOL     OW19030   1.957   0.293   1.540
 6044SOL    HW119031   1.957   0.193   1.536
 6044SOL    HW219032   1.870   0.328   1.503
 6045SOL     OW19033   6.503   4.080   0.520
 6045SOL    HW119034   6.522   4.174   0.495
 6045SOL    HW219035   6.567   4.050   0.590
 6046SOL     OW19036   1.946   3.416   0.341
 6046SOL    HW119037   1.860   3.464   0.360
 6046SOL    HW219038   1.925   3.326   0.301
 6047SOL     OW19039   0.512   6.276   4.789
 6047SOL    HW119040   0.438   6.311   4.732
 6047SOL    HW219041   0.509   6.322   4.878
 6048SOL     OW19042   4.567   6.106   4.584
 6048SOL    HW119043   4.497   6.114   4.513
 6048SOL    HW219044   4.609   6.195   4.600
 6049SOL     OW19045   6.760   5.431   0.139
 6049SOL    HW119046   6.726   5.518   0.174
 6049SOL    HW219047   6.777   5.369   0.215
 6050SOL     OW19048   5.607   4.708   5.534
 6050SOL    HW119049   5.691   4.716   5.588
 6050SOL    HW219050   5.591   4.612   5.513
 6051SOL     OW19051   3.049   1.886   3.410
 6051SOL    HW119052   3.056   1.985   3.402
 6051SOL    HW219053   3.069   1.844   3.321
 6052SOL     OW19054   6.723   1.273   0.257
 6052SOL    HW119055   6.717   1.359   0.206
 6052SOL    HW219056   6.802   1.277   0.318
 6053SOL     OW19057   1.721   0.003   6.357
 6053SOL    HW119058   1.738   6.991   6.263
 6053SOL    HW219059   1.701   6.941   6.414
 6054SOL     OW19060   1.681   4.071   6.480
 6054SOL    HW119061   1.767   4.123   6.485
 6054SOL    HW219062   1.699   3.976   6.506
 6055SOL     OW19063   5.564   0.349   3.361
 6055SOL    HW119064   5.644   0.310   3.316
 6055SOL    HW219065   5.504   0.390   3.292
 6056SOL     OW19066   5.240   3.331   6.120
 6056SOL    HW119067   5.338   3.320   6.103
 6056SOL    HW219068   5.219   3.427   6.134
 6057SOL     OW19069   3.418   1.173   6.467
 6057SOL    HW119070   3.441   1.257   6.417
 6057SOL    HW219071   3.319   1.166   6.475
 6058SOL     OW19072   5.503   1.631   5.190
 6058SOL    HW119073   5.407   1.616   5.214
 6058SOL    HW219074   5.513   1.723   5.153
 6059SOL     OW19075   6.574   5.979   6.307
 6059SOL    HW119076   6.569   6.043   6.230
 6059SOL    HW219077   6.538   5.890   6.278
 6060SOL     OW19078   3.474   6.317   6.543
 6060SOL    HW119079   3.570   6.297   6.558
 6060SOL    HW219080   3.445   6.391   6.604
 6061SOL     OW19081   2.010   1.559   0.217
 6061SOL    HW119082   1.921   1.593   0.187
 6061SOL    HW219083   2.081   1.624   0.191
 6062SOL     OW19084   1.163   0.114   4.281
 6062SOL    HW119085   1.143   0.165   4.365
 6062SOL    HW219086   1.130   0.020   4.290
 6063SOL     OW19087   5.485   5.960   0.129
 6063SOL    HW119088   5.517   6.047   0.091
 6063SOL    HW219089   5.432   5.978   0.211
 6064SOL     OW19090   0.722   4.975   2.667
 6064SOL    HW119091   0.673   4.936   2.589
 6064SOL    HW219092   0.800   5.029   2.634
 6065SOL     OW19093   5.692   6.794   1.660
 6065SOL    HW119094   5.781   6.831   1.686
 6065SOL    HW219095   5.678   6.706   1.706
 6066SOL     OW19096   4.425   1.975   5.964
 6066SOL    HW119097   4.403   2.063   6.006
 6066SOL    HW219098   4.457   1.912   6.034
 6067SOL     OW19099   5.356   2.417   6.921
 6067SOL    HW119100   5.301   2.467   6.988
 6067SOL    HW219101   5.296   2.378   6.851
 6068SOL     OW19102   5.658   1.774   5.451
 6068SOL    HW119103   5.706   1.820   5.526
 6068SOL    HW219104   5.562   1.799   5.452
 6069SOL     OW19105   6.366   4.844   4.125
 6069SOL    HW119106   6.463   4.868   4.124
 6069SOL    HW219107   6.333   4.844   4.220
 6070SOL     OW19108   4.926   2.900   0.230
 6070SOL    HW119109   4.874   2.981   0.204
 6070SOL    HW219110   4.902   2.873   0.323
 6071SOL     OW19111   5.278   6.848   5.690
 6071SOL    HW119112   5.269   6.947   5.685
 6071SOL    HW219113   5.375   6.823   5.683
 6072SOL     OW19114   6.626   1.396   0.990
 6072SOL    HW119115   6.692   1.455   1.034
 6072SOL    HW219116   6.602   1.433   0.900
 6073SOL     OW19117   6.512   1.325   1.237
 6073SOL    HW119118   6.552   1.348   1.148
 6073SOL    HW219119   6.480   1.230   1.235
 6074SOL     OW19120   0.772   0.422   5.041
 6074SOL    HW119121   0.731   0.484   5.108
 6074SOL    HW219122   0.870   0.417   5.056
 6075SOL     OW19123   4.492   3.934   6.552
 6075SOL    HW119124   4.529   3.906   6.463
 6075SOL    HW219125   4.412   3.879   6.574
 6076SOL     OW19126   2.863   0.270   4.419
 6076SOL    HW119127   2.955   0.240   4.395
 6076SOL    HW219128   2.828   0.214   4.493
 6077SOL     OW19129   5.074   4.905   3.183
 6077SOL    HW119130   5.143   4.868   3.120
 6077SOL    HW219131   5.096   5.001   3.202
 6078SOL     OW19132   1.636   4.381   3.792
 6078SOL    HW119133   1.547   4.366   3.833
 6078SOL    HW219134   1.700   4.310   3.821
 6079SOL     OW19135   2.945   1.412   0.785
 6079SOL    HW119136   2.951   1.453   0.694
 6079SOL    HW219137   2.855   1.432   0.824
 6080SOL     OW19138   6.112   2.765   3.244
 6080SOL    HW119139   6.124   2.689   3.307
 6080SOL    HW219140   6.188   2.829   3.254
 6081SOL     OW19141   0.998   3.960   2.804
 6081SOL    HW119142   0.933   3.914   2.865
 6081SOL    HW219143   0.959   3.966   2.712
 6082SOL     OW19144   3.489   1.757   4.668
 6082SOL    HW119145   3.510   1.775   4.572
 6082SOL    HW219146   3.429   1.830   4.703
 6083SOL     OW19147   1.687   6.564   0.490
 6083SOL    HW119148   1.694   6.633   0.419
 6083SOL    HW219149   1.725   6.599   0.575
 6084SOL     OW19150   0.363   5.215   5.668
 6084SOL    HW119151   0.381   5.120   5.693
 6084SOL    HW219152   0.291   5.219   5.599
 6085SOL     OW19153   4.951   5.157   1.913
 6085SOL    HW119154   4.964   5.095   1.991
 6085SOL    HW219155   4.882   5.225   1.936
 6086SOL     OW19156   3.113   1.498   2.587
 6086SOL    HW119157   3.089   1.403   2.607
 6086SOL    HW219158   3.126   1.509   2.488
 6087SOL     OW19159   3.611   0.420   0.825
 6087SOL    HW119160   3.648   0.371   0.904
 6087SOL    HW219161   3.666   0.501   0.807
 6088SOL     OW19162   0.136   7.004   4.976
 6088SOL    HW119163   0.099   0.069   4.934
 6088SOL    HW219164   0.148   0.001   5.074
 6089SOL     OW19165   6.482   3.715   0.648
 6089SOL    HW119166   6.391   3.687   0.680
 6089SOL    HW219167   6.476   3.749   0.554
 6090SOL     OW19168   0.108   5.694   4.123
 6090SOL    HW119169   0.071   5.639   4.048
 6090SOL    HW219170   0.177   5.641   4.172
 6091SOL     OW19171   6.522   2.003   1.372
 6091SOL    HW119172   6.480   2.092   1.354
 6091SOL    HW219173   6.540   1.995   1.470
 6092SOL     OW19174   0.843   3.544   1.102
 6092SOL    HW119175   0.898   3.509   1.177
 6092SOL    HW219176   0.804   3.468   1.050
 6093SOL     OW19177   1.166   4.040   0.772
 6093SOL    HW119178   1.070   4.069   0.765
 6093SOL    HW219179   1.213   4.063   0.687
 6094SOL     OW19180   0.549   1.387   0.340
 6094SOL    HW119181   0.558   1.426   0.431
 6094SOL    HW219182   0.629   1.412   0.285
 6095SOL     OW19183   6.641   4.186   5.144
 6095SOL    HW119184   6.683   4.186   5.054
 6095SOL    HW219185   6.592   4.273   5.159
 6096SOL     OW19186   4.533   2.063   3.011
 6096SOL    HW119187   4.436   2.080   2.995
 6096SOL    HW219188   4.577   2.038   2.925
 6097SOL     OW19189   3.163   2.181   2.496
 6097SOL    HW119190   3.076   2.177   2.445
 6097SOL    HW219191   3.232   2.224   2.439
 6098SOL     OW19192   1.075   0.276   6.663
 6098SOL    HW119193   0.996   0.330   6.692
 6098SOL    HW219194   1.156   0.333   6.659
 6099SOL     OW19195   5.927   4.471   5.003
 6099SOL    HW119196   5.958   4.405   5.071
 6099SOL    HW219197   5.903   4.423   4.918
 6100SOL     OW19198   0.128   2.467   6.960
 6100SOL    HW119199   0.104   2.451   6.864
 6100SOL    HW219200   0.093   2.556   6.989
 6101SOL     OW19201   6.336   6.931   3.770
 6101SOL    HW119202   6.342   6.906   3.673
 6101SOL    HW219203   6.416   6.896   3.819
 6102SOL     OW19204   2.636   6.901   4.915
 6102SOL    HW119205   2.606   6.892   5.010
 6102SOL    HW219206   2.559   6.883   4.854
 6103SOL     OW19207   5.786   1.555   5.289
 6103SOL    HW119208   5.742   1.622   5.349
 6103SOL    HW219209   5.756   1.570   5.195
 6104SOL     OW19210   1.408   2.936   1.068
 6104SOL    HW119211   1.478   2.865   1.075
 6104SOL    HW219212   1.443   3.022   1.104
 6105SOL     OW19213   3.136   4.923   4.995
 6105SOL    HW119214   3.201   4.987   4.957
 6105SOL    HW219215   3.084   4.880   4.921
 6106SOL     OW19216   2.666   5.003   4.344
 6106SOL    HW119217   2.675   4.903   4.344
 6106SOL    HW219218   2.757   5.044   4.347
 6107SOL     OW19219   1.935   4.891   5.350
 6107SOL    HW119220   1.935   4.879   5.449
 6107SOL    HW219221   2.005   4.834   5.308
 6108SOL     OW19222   5.191   1.680   4.730
 6108SOL    HW119223   5.245   1.761   4.706
 6108SOL    HW219224   5.243   1.623   4.794
 6109SOL     OW19225   6.904   3.684   1.684
 6109SOL    HW119226   6.936   3.747   1.754
 6109SOL    HW219227   6.804   3.682   1.683
 6110SOL     OW19228   3.080   2.218   3.365
 6110SOL    HW119229   3.052   2.234   3.270
 6110SOL    HW219230   3.179   2.208   3.370
 6111SOL     OW19231   0.458   4.547   3.648
 6111SOL    HW119232   0.409   4.460   3.653
 6111SOL    HW219233   0.487   4.574   3.740
 6112SOL     OW19234   1.405   2.400   0.561
 6112SOL    HW119235   1.481   2.335   0.559
 6112SOL    HW219236   1.417   2.462   0.639
 6113SOL     OW19237   1.622   5.095   5.073
 6113SOL    HW119238   1.635   5.194   5.064
 6113SOL    HW219239   1.656   5.049   4.991
 6114SOL     OW19240   4.756   4.526   0.841
 6114SOL    HW119241   4.731   4.541   0.745
 6114SOL    HW219242   4.854   4.506   0.847
 6115SOL     OW19243   6.359   4.698   1.644
 6115SOL    HW119244   6.352   4.653   1.556
 6115SOL    HW219245   6.398   4.635   1.711
 6116SOL     OW19246   3.203   2.464   1.065
 6116SOL    HW119247   3.224   2.371   1.094
 6116SOL    HW219248   3.173   2.518   1.144
 6117SOL     OW19249   5.537   6.860   4.014
 6117SOL    HW119250   5.547   6.898   3.922
 6117SOL    HW219251   5.439   6.852   4.036
 6118SOL     OW19252   6.762   0.070   3.188
 6118SOL    HW119253   6.797   6.999   3.219
 6118SOL    HW219254   6.698   0.106   3.256
 6119SOL     OW19255   5.232   5.845   4.294
 6119SOL    HW119256   5.149   5.806   4.333
 6119SOL    HW219257   5.293   5.874   4.368
 6120SOL     OW19258   2.140   1.820   2.797
 6120SOL    HW119259   2.047   1.826   2.762
 6120SOL    HW219260   2.141   1.851   2.893
 6121SOL     OW19261   6.975   1.353   4.960
 6121SOL    HW119262   6.920   1.405   4.894
 6121SOL    HW219263   7.010   1.414   5.030
 6122SOL     OW19264   3.623   6.051   4.408
 6122SOL    HW119265   3.661   6.133   4.364
 6122SOL    HW219266   3.698   5.990   4.435
 6123SOL     OW19267   5.572   1.269   2.848
 6123SOL    HW119268   5.631   1.272   2.929
 6123SOL    HW219269   5.477   1.255   2.876
 6124SOL     OW19270   3.102   0.365   4.714
 6124SOL    HW119271   3.100   0.278   4.664
 6124SOL    HW219272   3.172   0.425   4.674
 6125SOL     OW19273   0.835   4.382   2.074
 6125SOL    HW119274   0.883   4.300   2.044
 6125SOL    HW219275   0.803   4.433   1.994
 6126SOL     OW19276   3.962   6.137   2.704
 6126SOL    HW119277   3.884   6.079   2.678
 6126SOL    HW219278   3.933   6.232   2.706
 6127SOL     OW19279   1.811   5.154   1.846
 6127SOL    HW119280   1.819   5.240   1.796
 6127SOL    HW219281   1.796   5.079   1.781
 6128SOL     OW19282   5.134   3.407   1.153
 6128SOL    HW119283   5.067   3.368   1.217
 6128SOL    HW219284   5.095   3.409   1.061
 6129SOL     OW19285   6.425   3.841   3.354
 6129SOL    HW119286   6.463   3.901   3.284
 6129SOL    HW219287   6.378   3.897   3.423
 6130SOL     OW19288   5.438   3.794   2.591
 6130SOL    HW119289   5.399   3.751   2.672
 6130SOL    HW219290   5.405   3.748   2.509
 6131SOL     OW19291   6.306   1.168   5.188
 6131SOL    HW119292   6.317   1.267   5.178
 6131SOL    HW219293   6.218   1.148   5.231
 6132SOL     OW19294   6.482   2.556   0.765
 6132SOL    HW119295   6.551   2.504   0.817
 6132SOL    HW219296   6.430   2.494   0.708
 6133SOL     OW19297   1.321   4.400   0.413
 6133SOL    HW119298   1.281   4.347   0.338
 6133SOL    HW219299   1.383   4.469   0.376
 6134SOL     OW19300   4.599   4.272   6.990
 6134SOL    HW119301   4.653   4.274   6.906
 6134SOL    HW219302   4.635   4.200   0.033
 6135SOL     OW19303   5.898   0.131   2.974
 6135SOL    HW119304   5.993   0.161   2.979
 6135SOL    HW219305   5.874   0.110   2.879
 6136SOL     OW19306   1.320   1.417   2.271
 6136SOL    HW119307   1.221   1.404   2.269
 6136SOL    HW219308   1.348   1.448   2.362
 6137SOL     OW19309   3.182   0.123   6.782
 6137SOL    HW119310   3.101   0.104   6.726
 6137SOL    HW219311   3.189   0.221   6.798
 6138SOL     OW19312   5.305   0.166   3.059
 6138SOL    HW119313   5.259   0.118   3.133
 6138SOL    HW219314   5.300   0.111   2.975
 6139SOL     OW19315   2.810   6.188   3.704
 6139SOL    HW119316   2.778   6.189   3.799
 6139SOL    HW219317   2.897   6.237   3.698
 6140SOL     OW19318   2.000   5.317   1.236
 6140SOL    HW119319   1.924   5.315   1.301
 6140SOL    HW219320   2.003   5.232   1.185
 6141SOL     OW19321   0.096   5.847   5.487
 6141SOL    HW119322   0.120   5.809   5.398
 6141SOL    HW219323   0.015   5.801   5.523
 6142SOL     OW19324   0.444   4.190   3.350
 6142SOL    HW119325   0.533   4.226   3.377
 6142SOL    HW219326   0.455   4.136   3.266
 6143SOL     OW19327   6.586   4.573   5.973
 6143SOL    HW119328   6.600   4.487   6.022
 6143SOL    HW219329   6.622   4.648   6.029
 6144SOL     OW19330   0.154   5.096   4.222
 6144SOL    HW119331   0.168   5.142   4.309
 6144SOL    HW219332   0.171   4.998   4.232
 6145SOL     OW19333   5.514   5.151   3.265
 6145SOL    HW119334   5.557   5.164   3.355
 6145SOL    HW219335   5.528   5.058   3.234
 6146SOL     OW19336   5.653   2.476   3.820
 6146SOL    HW119337   5.740   2.491   3.772
 6146SOL    HW219338   5.596   2.413   3.768
 6147SOL     OW19339   1.094   4.048   3.057
 6147SOL    HW119340   1.169   3.984   3.035
 6147SOL    HW219341   1.037   4.062   2.976
 6148SOL     OW19342   6.361   6.165   2.719
 6148SOL    HW119343   6.411   6.251   2.715
 6148SOL    HW219344   6.417   6.092   2.680
 6149SOL     OW19345   1.383   5.510   4.910
 6149SOL    HW119346   1.406   5.563   4.993
 6149SOL    HW219347   1.344   5.422   4.937
 6150SOL     OW19348   4.514   6.557   5.678
 6150SOL    HW119349   4.485   6.462   5.664
 6150SOL    HW219350   4.583   6.560   5.750
 6151SOL     OW19351   4.561   0.218   5.782
 6151SOL    HW119352   4.609   0.134   5.808
 6151SOL    HW219353   4.628   0.290   5.764
 6152SOL     OW19354   6.309   4.419   5.073
 6152SOL    HW119355   6.326   4.419   5.172
 6152SOL    HW219356   6.216   4.389   5.056
 6153SOL     OW19357   4.114   4.890   6.238
 6153SOL    HW119358   4.180   4.964   6.251
 6153SOL    HW219359   4.157   4.814   6.191
 6154SOL     OW19360   5.437   3.441   3.492
 6154SOL    HW119361   5.401   3.512   3.553
 6154SOL    HW219362   5.392   3.448   3.403
 6155SOL     OW19363   2.439   4.676   4.838
 6155SOL    HW119364   2.458   4.646   4.932
 6155SOL    HW219365   2.396   4.602   4.787
 6156SOL     OW19366   5.802   0.546   4.639
 6156SOL    HW119367   5.721   0.595   4.671
 6156SOL    HW219368   5.789   0.448   4.653
 6157SOL     OW19369   0.890   1.595   4.003
 6157SOL    HW119370   0.809   1.539   3.987
 6157SOL    HW219371   0.892   1.670   3.936
 6158SOL     OW19372   5.439   6.682   0.013
 6158SOL    HW119373   5.461   6.776   7.007
 6158SOL    HW219374   5.448   6.669   0.112
 6159SOL     OW19375   4.940   3.737   6.712
 6159SOL    HW119376   4.921   3.650   6.757
 6159SOL    HW219377   4.977   3.802   6.778
 6160SOL     OW19378   6.406   4.478   0.121
 6160SOL    HW119379   6.436   4.384   0.109
 6160SOL    HW219380   6.462   4.538   0.064
 6161SOL     OW19381   6.190   0.001   6.461
 6161SOL    HW119382   6.210   6.925   6.491
 6161SOL    HW219383   6.266   0.034   6.405
 6162SOL     OW19384   5.230   5.012   3.943
 6162SOL    HW119385   5.296   5.011   4.018
 6162SOL    HW219386   5.187   5.102   3.937
 6163SOL     OW19387   0.186   4.183   2.816
 6163SOL    HW119388   0.132   4.131   2.883
 6163SOL    HW219389   0.164   4.151   2.724
 6164SOL     OW19390   4.181   2.792   0.764
 6164SOL    HW119391   4.116   2.863   0.794
 6164SOL    HW219392   4.189   2.722   0.835
 6165SOL     OW19393   3.924   0.362   1.310
 6165SOL    HW119394   3.855   0.425   1.275
 6165SOL    HW219395   4.013   0.406   1.308
 6166SOL     OW19396   3.775   1.235   0.722
 6166SOL    HW119397   3.718   1.164   0.681
 6166SOL    HW219398   3.789   1.215   0.819
 6167SOL     OW19399   6.816   5.413   3.717
 6167SOL    HW119400   6.857   5.402   3.808
 6167SOL    HW219401   6.790   5.509   3.705
 6168SOL     OW19402   0.320   3.075   1.141
 6168SOL    HW119403   0.383   3.152   1.137
 6168SOL    HW219404   0.360   3.002   1.196
 6169SOL     OW19405   1.980   4.169   1.365
 6169SOL    HW119406   2.078   4.147   1.361
 6169SOL    HW219407   1.964   4.235   1.439
 6170SOL     OW19408   6.512   1.834   3.331
 6170SOL    HW119409   6.437   1.787   3.284
 6170SOL    HW219410   6.514   1.804   3.427
 6171SOL     OW19411   6.182   1.368   5.933
 6171SOL    HW119412   6.116   1.436   5.963
 6171SOL    HW219413   6.182   1.291   5.997
 6172SOL     OW19414   0.536   4.644   4.076
 6172SOL    HW119415   0.571   4.664   4.168
 6172SOL    HW219416   0.592   4.691   4.008
 6173SOL     OW19417   5.600   6.069   2.963
 6173SOL    HW119418   5.618   6.118   2.878
 6173SOL    HW219419   5.686   6.037   3.002
 6174SOL     OW19420   6.461   2.363   3.310
 6174SOL    HW119421   6.378   2.307   3.304
 6174SOL    HW219422   6.488   2.372   3.406
 6175SOL     OW19423   3.969   1.285   0.005
 6175SOL    HW119424   3.899   1.324   0.064
 6175SOL    HW219425   3.928   1.257   6.936
 6176SOL     OW19426   2.652   4.491   6.487
 6176SOL    HW119427   2.554   4.507   6.486
 6176SOL    HW219428   2.697   4.563   6.541
 6177SOL     OW19429   5.917   5.436   1.621
 6177SOL    HW119430   5.959   5.523   1.594
 6177SOL    HW219431   5.866   5.450   1.707
 6178SOL     OW19432   4.061   4.768   2.078
 6178SOL    HW119433   3.965   4.781   2.100
 6178SOL    HW219434   4.070   4.743   1.981
 6179SOL     OW19435   5.372   5.421   4.857
 6179SOL    HW119436   5.274   5.439   4.852
 6179SOL    HW219437   5.396   5.346   4.796
 6180SOL     OW19438   1.955   4.040   6.682
 6180SOL    HW119439   1.906   4.030   6.769
 6180SOL    HW219440   1.917   3.977   6.615
 6181SOL     OW19441   6.392   5.944   0.214
 6181SOL    HW119442   6.336   5.861   0.214
 6181SOL    HW219443   6.340   6.019   0.173
 6182SOL     OW19444   2.634   2.365   6.695
 6182SOL    HW119445   2.710   2.307   6.723
 6182SOL    HW219446   2.665   2.461   6.692
 6183SOL     OW19447   0.040   0.729   0.417
 6183SOL    HW119448   7.004   0.744   0.499
 6183SOL    HW219449   0.117   0.794   0.415
 6184SOL     OW19450   3.192   6.624   5.713
 6184SOL    HW119451   3.148   6.622   5.624
 6184SOL    HW219452   3.131   6.668   5.780
 6185SOL     OW19453   3.513   2.937   5.026
 6185SOL    HW119454   3.552   3.020   4.987
 6185SOL    HW219455   3.538   2.859   4.968
 6186SOL     OW19456   1.142   1.988   2.495
 6186SOL    HW119457   1.065   1.926   2.509
 6186SOL    HW219458   1.214   1.965   2.560
 6187SOL     OW19459   3.130   1.738   6.066
 6187SOL    HW119460   3.130   1.653   6.119
 6187SOL    HW219461   3.217   1.786   6.078
 6188SOL     OW19462   1.720   1.648   5.587
 6188SOL    HW119463   1.638   1.593   5.602
 6188SOL    HW219464   1.759   1.674   5.676
 6189SOL     OW19465   6.625   5.004   0.308
 6189SOL    HW119466   6.567   4.925   0.292
 6189SOL    HW219467   6.571   5.088   0.301
 6190SOL     OW19468   0.939   2.532   3.560
 6190SOL    HW119469   0.920   2.509   3.655
 6190SOL    HW219470   0.934   2.632   3.549
 6191SOL     OW19471   2.632   4.376   0.496
 6191SOL    HW119472   2.666   4.361   0.589
 6191SOL    HW219473   2.571   4.456   0.494
 6192SOL     OW19474   3.096   1.852   1.292
 6192SOL    HW119475   3.027   1.838   1.221
 6192SOL    HW219476   3.063   1.920   1.357
 6193SOL     OW19477   4.146   5.803   6.864
 6193SOL    HW119478   4.204   5.854   6.927
 6193SOL    HW219479   4.144   5.850   6.775
 6194SOL     OW19480   5.469   0.224   5.994
 6194SOL    HW119481   5.518   0.270   5.919
 6194SOL    HW219482   5.401   0.287   6.032
 6195SOL     OW19483   4.411   5.634   5.539
 6195SOL    HW119484   4.457   5.556   5.495
 6195SOL    HW219485   4.472   5.713   5.537
 6196SOL     OW19486   6.419   3.559   3.236
 6196SOL    HW119487   6.379   3.470   3.215
 6196SOL    HW219488   6.461   3.597   3.154
 6197SOL     OW19489   0.923   5.459   0.810
 6197SOL    HW119490   1.001   5.500   0.858
 6197SOL    HW219491   0.867   5.531   0.769
 6198SOL     OW19492   6.034   1.467   6.616
 6198SOL    HW119493   6.011   1.562   6.598
 6198SOL    HW219494   5.957   1.423   6.663
 6199SOL     OW19495   2.532   0.165   6.192
 6199SOL    HW119496   2.536   0.203   6.099
 6199SOL    HW219497   2.622   0.170   6.234
 6200SOL     OW19498   1.681   0.289   0.746
 6200SOL    HW119499   1.673   0.389   0.741
 6200SOL    HW219500   1.601   0.248   0.703
 6201SOL     OW19501   0.368   5.115   3.509
 6201SOL    HW119502   0.315   5.187   3.552
 6201SOL    HW219503   0.356   5.030   3.559
 6202SOL     OW19504   5.562   0.800   1.881
 6202SOL    HW119505   5.515   0.779   1.795
 6202SOL    HW219506   5.582   0.897   1.886
 6203SOL     OW19507   6.421   1.116   2.206
 6203SOL    HW119508   6.510   1.074   2.191
 6203SOL    HW219509   6.400   1.117   2.304
 6204SOL     OW19510   0.940   5.562   4.839
 6204SOL    HW119511   0.844   5.564   4.814
 6204SOL    HW219512   0.957   5.485   4.900
 6205SOL     OW19513   6.185   4.498   3.133
 6205SOL    HW119514   6.246   4.431   3.092
 6205SOL    HW219515   6.234   4.584   3.148
 6206SOL     OW19516   5.150   2.090   3.428
 6206SOL    HW119517   5.057   2.061   3.408
 6206SOL    HW219518   5.213   2.015   3.411
 6207SOL     OW19519   1.789   5.691   3.578
 6207SOL    HW119520   1.759   5.681   3.483
 6207SOL    HW219521   1.798   5.788   3.600
 6208SOL     OW19522   3.782   4.566   6.505
 6208SOL    HW119523   3.700   4.603   6.548
 6208SOL    HW219524   3.812   4.485   6.555
 6209SOL     OW19525   3.550   1.209   1.956
 6209SOL    HW119526   3.616   1.244   1.888
 6209SOL    HW219527   3.532   1.281   2.023
 6210SOL     OW19528   5.528   1.463   4.114
 6210SOL    HW119529   5.483   1.528   4.175
 6210SOL    HW219530   5.625   1.487   4.105
 6211SOL     OW19531   5.384   2.913   5.312
 6211SOL    HW119532   5.352   2.926   5.406
 6211SOL    HW219533   5.404   3.002   5.271
 6212SOL     OW19534   5.083   4.318   4.993
 6212SOL    HW119535   4.994   4.342   5.030
 6212SOL    HW219536   5.101   4.221   5.009
 6213SOL     OW19537   5.373   5.796   0.728
 6213SOL    HW119538   5.458   5.822   0.775
 6213SOL    HW219539   5.313   5.875   0.721
 6214SOL     OW19540   6.656   6.913   6.354
 6214SOL    HW119541   6.690   6.824   6.383
 6214SOL    HW219542   6.677   6.981   6.424
 6215SOL     OW19543   5.770   1.855   5.076
 6215SOL    HW119544   5.681   1.887   5.043
 6215SOL    HW219545   5.756   1.802   5.160
 6216SOL     OW19546   5.067   2.096   5.599
 6216SOL    HW119547   5.099   2.122   5.690
 6216SOL    HW219548   4.982   2.044   5.608
 6217SOL     OW19549   6.911   4.284   2.512
 6217SOL    HW119550   6.924   4.185   2.526
 6217SOL    HW219551   6.943   4.310   2.421
 6218SOL     OW19552   4.688   6.683   0.941
 6218SOL    HW119553   4.652   6.591   0.960
 6218SOL    HW219554   4.716   6.688   0.845
 6219SOL     OW19555   2.080   0.561   6.872
 6219SOL    HW119556   2.120   0.566   6.963
 6219SOL    HW219557   2.152   0.564   6.803
 6220SOL     OW19558   3.388   0.017   1.992
 6220SOL    HW119559   3.372   6.955   2.051
 6220SOL    HW219560   3.357   7.015   1.899
 6221SOL     OW19561   4.615   5.778   5.269
 6221SOL    HW119562   4.646   5.808   5.359
 6221SOL    HW219563   4.519   5.751   5.273
 6222SOL     OW19564   6.147   1.709   2.322
 6222SOL    HW119565   6.157   1.674   2.416
 6222SOL    HW219566   6.131   1.632   2.260
 6223SOL     OW19567   6.622   5.223   4.465
 6223SOL    HW119568   6.624   5.194   4.560
 6223SOL    HW219569   6.632   5.323   4.460
 6224SOL     OW19570   4.280   6.643   0.316
 6224SOL    HW119571   4.274   6.593   0.402
 6224SOL    HW219572   4.362   6.701   0.317
 6225SOL     OW19573   5.202   6.203   6.255
 6225SOL    HW119574   5.220   6.209   6.157
 6225SOL    HW219575   5.120   6.257   6.277
 6226SOL     OW19576   0.741   0.966   3.909
 6226SOL    HW119577   0.731   1.009   3.998
 6226SOL    HW219578   0.723   1.034   3.837
 6227SOL     OW19579   2.338   4.764   6.224
 6227SOL    HW119580   2.253   4.741   6.178
 6227SOL    HW219581   2.367   4.856   6.198
 6228SOL     OW19582   0.944   3.083   4.020
 6228SOL    HW119583   0.928   2.994   3.978
 6228SOL    HW219584   1.011   3.134   3.967
 6229SOL     OW19585   0.255   4.159   4.582
 6229SOL    HW119586   0.214   4.236   4.631
 6229SOL    HW219587   0.253   4.078   4.641
 6230SOL     OW19588   0.998   0.929   1.338
 6230SOL    HW119589   0.949   0.951   1.423
 6230SOL    HW219590   1.045   1.011   1.305
 6231SOL     OW19591   2.135   5.284   6.146
 6231SOL    HW119592   2.045   5.326   6.139
 6231SOL    HW219593   2.189   5.305   6.064
 6232SOL     OW19594   4.310   0.254   6.807
 6232SOL    HW119595   4.257   0.295   6.881
 6232SOL    HW219596   4.305   0.312   6.726
 6233SOL     OW19597   0.053   3.985   1.599
 6233SOL    HW119598   0.139   3.934   1.606
 6233SOL    HW219599   7.017   3.972   1.682
 6234SOL     OW19600   4.819   5.990   3.810
 6234SOL    HW119601   4.768   5.906   3.830
 6234SOL    HW219602   4.916   5.974   3.826
 6235SOL     OW19603   0.220   0.328   1.801
 6235SOL    HW119604   0.153   0.317   1.728
 6235SOL    HW219605   0.213   0.420   1.839
 6236SOL     OW19606   6.923   6.366   1.396
 6236SOL    HW119607   6.836   6.318   1.403
 6236SOL    HW219608   6.986   6.332   1.466
 6237SOL     OW19609   4.129   1.219   2.319
 6237SOL    HW119610   4.111   1.175   2.407
 6237SOL    HW219611   4.061   1.189   2.253
 6238SOL     OW19612   2.518   0.610   3.717
 6238SOL    HW119613   2.536   0.673   3.792
 6238SOL    HW219614   2.470   0.530   3.752
 6239SOL     OW19615   3.981   1.487   3.902
 6239SOL    HW119616   3.948   1.430   3.826
 6239SOL    HW219617   4.081   1.486   3.904
 6240SOL     OW19618   3.941   3.108   4.155
 6240SOL    HW119619   3.913   3.203   4.168
 6240SOL    HW219620   4.001   3.102   4.075
 6241SOL     OW19621   3.384   0.074   3.592
 6241SOL    HW119622   3.369   6.995   3.571
 6241SOL    HW219623   3.301   0.125   3.570
 6242SOL     OW19624   3.589   2.124   4.393
 6242SOL    HW119625   3.513   2.080   4.442
 6242SOL    HW219626   3.653   2.162   4.460
 6243SOL     OW19627   4.121   1.045   0.104
 6243SOL    HW119628   4.187   1.044   0.179
 6243SOL    HW219629   4.093   1.139   0.086
 6244SOL     OW19630   4.592   2.332   2.097
 6244SOL    HW119631   4.635   2.258   2.148
 6244SOL    HW219632   4.632   2.419   2.126
 6245SOL     OW19633   6.607   5.263   1.456
 6245SOL    HW119634   6.536   5.194   1.441
 6245SOL    HW219635   6.693   5.217   1.480
 6246SOL     OW19636   0.754   5.972   5.114
 6246SOL    HW119637   0.691   6.011   5.181
 6246SOL    HW219638   0.735   5.874   5.104
 6247SOL     OW19639   5.699   5.421   2.813
 6247SOL    HW119640   5.692   5.406   2.714
 6247SOL    HW219641   5.637   5.360   2.861
 6248SOL     OW19642   4.277   2.765   5.619
 6248SOL    HW119643   4.257   2.745   5.523
 6248SOL    HW219644   4.376   2.778   5.631
 6249SOL     OW19645   5.454   2.743   3.391
 6249SOL    HW119646   5.527   2.743   3.321
 6249SOL    HW219647   5.482   2.684   3.467
 6250SOL     OW19648   5.446   0.315   5.697
 6250SOL    HW119649   5.384   0.250   5.653
 6250SOL    HW219650   5.425   0.407   5.666
 6251SOL     OW19651   2.972   0.723   4.145
 6251SOL    HW119652   3.042   0.753   4.079
 6251SOL    HW219653   2.944   0.630   4.123
 6252SOL     OW19654   3.377   5.220   0.531
 6252SOL    HW119655   3.475   5.207   0.546
 6252SOL    HW219656   3.362   5.260   0.441
 6253SOL     OW19657   4.934   6.353   3.655
 6253SOL    HW119658   5.004   6.407   3.609
 6253SOL    HW219659   4.955   6.346   3.752
 6254SOL     OW19660   0.377   0.058   1.801
 6254SOL    HW119661   0.344   0.151   1.783
 6254SOL    HW219662   0.461   0.042   1.749
 6255SOL     OW19663   2.033   0.899   0.780
 6255SOL    HW119664   2.119   0.914   0.830
 6255SOL    HW219665   2.017   0.975   0.718
 6256SOL     OW19666   6.185   5.114   1.992
 6256SOL    HW119667   6.108   5.130   2.054
 6256SOL    HW219668   6.168   5.161   1.905
 6257SOL     OW19669   3.645   3.702   0.779
 6257SOL    HW119670   3.567   3.667   0.832
 6257SOL    HW219671   3.631   3.679   0.683
 6258SOL     OW19672   3.960   5.149   4.919
 6258SOL    HW119673   3.960   5.062   4.870
 6258SOL    HW219674   3.967   5.225   4.853
 6259SOL     OW19675   4.318   1.445   4.741
 6259SOL    HW119676   4.338   1.431   4.838
 6259SOL    HW219677   4.293   1.540   4.725
 6260SOL     OW19678   3.345   1.963   0.277
 6260SOL    HW119679   3.415   2.032   0.296
 6260SOL    HW219680   3.384   1.893   0.217
 6261SOL     OW19681   4.051   6.929   0.745
 6261SOL    HW119682   3.998   6.908   0.826
 6261SOL    HW219683   4.002   6.899   0.663
 6262SOL     OW19684   5.974   1.335   2.909
 6262SOL    HW119685   6.057   1.334   2.965
 6262SOL    HW219686   5.894   1.340   2.969
 6263SOL     OW19687   6.415   6.288   6.339
 6263SOL    HW119688   6.482   6.283   6.413
 6263SOL    HW219689   6.323   6.276   6.376
 6264SOL     OW19690   0.914   6.225   0.717
 6264SOL    HW119691   0.999   6.261   0.754
 6264SOL    HW219692   0.934   6.147   0.657
 6265SOL     OW19693   3.992   6.884   6.531
 6265SOL    HW119694   4.016   6.920   6.441
 6265SOL    HW219695   3.928   6.808   6.520
 6266SOL     OW19696   3.081   5.245   3.011
 6266SOL    HW119697   3.109   5.335   3.044
 6266SOL    HW219698   3.024   5.200   3.080
 6267SOL     OW19699   0.367   6.379   4.332
 6267SOL    HW119700   0.276   6.342   4.312
 6267SOL    HW219701   0.421   6.310   4.379
 6268SOL     OW19702   3.631   1.709   1.330
 6268SOL    HW119703   3.543   1.695   1.285
 6268SOL    HW219704   3.704   1.715   1.262
 6269SOL     OW19705   6.799   6.090   0.482
 6269SOL    HW119706   6.748   6.061   0.401
 6269SOL    HW219707   6.852   6.013   0.518
 6270SOL     OW19708   1.204   6.491   0.880
 6270SOL    HW119709   1.212   6.494   0.780
 6270SOL    HW219710   1.286   6.531   0.921
 6271SOL     OW19711   6.717   3.034   5.564
 6271SOL    HW119712   6.709   3.098   5.488
 6271SOL    HW219713   6.629   2.989   5.579
 6272SOL     OW19714   0.679   0.996   0.199
 6272SOL    HW119715   0.741   1.072   0.179
 6272SOL    HW219716   0.642   1.008   0.292
 6273SOL     OW19717   0.695   6.544   3.370
 6273SOL    HW119718   0.680   6.448   3.392
 6273SOL    HW219719   0.778   6.576   3.415
 6274SOL     OW19720   2.657   5.926   4.161
 6274SOL    HW119721   2.687   5.998   4.098
 6274SOL    HW219722   2.733   5.900   4.221
 6275SOL     OW19723   2.398   5.925   0.677
 6275SOL    HW119724   2.491   5.916   0.642
 6275SOL    HW219725   2.335   5.873   0.619
 6276SOL     OW19726   1.754   5.005   2.726
 6276SOL    HW119727   1.733   5.049   2.638
 6276SOL    HW219728   1.730   4.908   2.721
 6277SOL     OW19729   5.410   2.884   1.205
 6277SOL    HW119730   5.324   2.865   1.252
 6277SOL    HW219731   5.393   2.949   1.130
 6278SOL     OW19732   3.307   2.570   0.447
 6278SOL    HW119733   3.391   2.583   0.499
 6278SOL    HW219734   3.305   2.633   0.369
 6279SOL     OW19735   1.630   6.494   2.384
 6279SOL    HW119736   1.564   6.419   2.385
 6279SOL    HW219737   1.687   6.488   2.302
 6280SOL     OW19738   5.143   1.219   0.130
 6280SOL    HW119739   5.088   1.175   0.200
 6280SOL    HW219740   5.157   1.157   0.053
 6281SOL     OW19741   5.240   4.127   6.138
 6281SOL    HW119742   5.180   4.047   6.129
 6281SOL    HW219743   5.256   4.166   6.047
 6282SOL     OW19744   0.531   3.704   5.534
 6282SOL    HW119745   0.555   3.718   5.631
 6282SOL    HW219746   0.552   3.609   5.509
 6283SOL     OW19747   2.686   0.580   4.542
 6283SOL    HW119748   2.637   0.493   4.536
 6283SOL    HW219749   2.745   0.579   4.623
 6284SOL     OW19750   1.723   3.476   6.321
 6284SOL    HW119751   1.737   3.387   6.365
 6284SOL    HW219752   1.721   3.464   6.221
 6285SOL     OW19753   1.281   4.225   3.256
 6285SOL    HW119754   1.261   4.308   3.204
 6285SOL    HW219755   1.197   4.187   3.294
 6286SOL     OW19756   0.890   2.513   6.875
 6286SOL    HW119757   0.932   2.479   6.959
 6286SOL    HW219758   0.916   2.455   6.799
 6287SOL     OW19759   4.561   5.130   4.529
 6287SOL    HW119760   4.575   5.073   4.448
 6287SOL    HW219761   4.493   5.087   4.589
 6288SOL     OW19762   2.977   3.549   5.833
 6288SOL    HW119763   2.905   3.480   5.831
 6288SOL    HW219764   3.049   3.525   5.767
 6289SOL     OW19765   2.538   4.675   5.094
 6289SOL    HW119766   2.572   4.762   5.128
 6289SOL    HW219767   2.571   4.600   5.152
 6290SOL     OW19768   6.619   6.792   3.391
 6290SOL    HW119769   6.611   6.697   3.360
 6290SOL    HW219770   6.533   6.840   3.372
 6291SOL     OW19771   3.288   3.804   1.905
 6291SOL    HW119772   3.222   3.878   1.891
 6291SOL    HW219773   3.360   3.835   1.966
 6292SOL     OW19774   1.193   4.488   4.511
 6292SOL    HW119775   1.182   4.467   4.414
 6292SOL    HW219776   1.267   4.554   4.522
 6293SOL     OW19777   3.219   1.096   6.857
 6293SOL    HW119778   3.155   1.079   6.782
 6293SOL    HW219779   3.194   1.040   6.936
 6294SOL     OW19780   1.964   0.701   2.109
 6294SOL    HW119781   1.951   0.627   2.042
 6294SOL    HW219782   1.905   0.778   2.086
 6295SOL     OW19783   4.685   2.991   5.849
 6295SOL    HW119784   4.679   2.955   5.756
 6295SOL    HW219785   4.598   3.033   5.874
 6296SOL     OW19786   0.270   2.663   0.200
 6296SOL    HW119787   0.277   2.724   0.122
 6296SOL    HW219788   0.178   2.625   0.205
 6297SOL     OW19789   6.569   0.742   4.127
 6297SOL    HW119790   6.480   0.749   4.170
 6297SOL    HW219791   6.639   0.728   4.196
 6298SOL     OW19792   6.784   6.952   6.844
 6298SOL    HW119793   6.724   6.923   6.919
 6298SOL    HW219794   6.869   6.990   6.882
 6299SOL     OW19795   3.569   1.650   3.958
 6299SOL    HW119796   3.584   1.588   3.880
 6299SOL    HW219797   3.655   1.697   3.979
 6300SOL     OW19798   2.598   1.763   1.030
 6300SOL    HW119799   2.695   1.759   1.051
 6300SOL    HW219800   2.545   1.721   1.104
 6301SOL     OW19801   4.245   6.495   0.537
 6301SOL    HW119802   4.147   6.500   0.559
 6301SOL    HW219803   4.265   6.405   0.497
 6302SOL     OW19804   1.260   3.489   0.192
 6302SOL    HW119805   1.337   3.476   0.255
 6302SOL    HW219806   1.246   3.404   0.140
 6303SOL     OW19807   6.960   5.320   4.569
 6303SOL    HW119808   6.938   5.417   4.562
 6303SOL    HW219809   6.909   5.279   4.645
 6304SOL     OW19810   2.358   1.484   3.488
 6304SOL    HW119811   2.309   1.471   3.402
 6304SOL    HW219812   2.420   1.562   3.481
 6305SOL     OW19813   0.425   5.464   5.449
 6305SOL    HW119814   0.384   5.552   5.474
 6305SOL    HW219815   0.517   5.458   5.486
 6306SOL     OW19816   0.617   4.294   4.011
 6306SOL    HW119817   0.637   4.254   3.922
 6306SOL    HW219818   0.594   4.391   4.000
 6307SOL     OW19819   3.023   3.120   3.346
 6307SOL    HW119820   3.073   3.034   3.346
 6307SOL    HW219821   2.952   3.118   3.276
 6308SOL     OW19822   1.217   1.918   0.671
 6308SOL    HW119823   1.258   1.905   0.581
 6308SOL    HW219824   1.247   2.007   0.708
 6309SOL     OW19825   1.946   5.606   5.385
 6309SOL    HW119826   1.902   5.536   5.328
 6309SOL    HW219827   1.929   5.585   5.482
 6310SOL     OW19828   0.374   6.830   3.707
 6310SOL    HW119829   0.350   6.733   3.701
 6310SOL    HW219830   0.437   6.853   3.633
 6311SOL     OW19831   6.283   1.278   6.563
 6311SOL    HW119832   6.199   1.329   6.575
 6311SOL    HW219833   6.359   1.327   6.605
 6312SOL     OW19834   3.400   5.629   1.033
 6312SOL    HW119835   3.450   5.605   0.950
 6312SOL    HW219836   3.454   5.602   1.113
 6313SOL     OW19837   5.529   4.871   3.193
 6313SOL    HW119838   5.507   4.827   3.280
 6313SOL    HW219839   5.598   4.816   3.145
 6314SOL     OW19840   1.909   6.919   3.748
 6314SOL    HW119841   1.862   6.897   3.834
 6314SOL    HW219842   1.995   6.869   3.743
 6315SOL     OW19843   2.453   2.363   3.149
 6315SOL    HW119844   2.420   2.457   3.150
 6315SOL    HW219845   2.407   2.310   3.221
 6316SOL     OW19846   4.268   0.524   5.096
 6316SOL    HW119847   4.225   0.539   5.008
 6316SOL    HW219848   4.237   0.438   5.136
 6317SOL     OW19849   4.436   4.481   2.864
 6317SOL    HW119850   4.388   4.411   2.812
 6317SOL    HW219851   4.432   4.459   2.962
 6318SOL     OW19852   6.074   6.898   6.880
 6318SOL    HW119853   6.102   6.969   6.944
 6318SOL    HW219854   6.035   6.821   6.930
 6319SOL     OW19855   5.248   2.438   4.756
 6319SOL    HW119856   5.161   2.486   4.758
 6319SOL    HW219857   5.312   2.483   4.819
 6320SOL     OW19858   6.343   1.601   6.319
 6320SOL    HW119859   6.337   1.651   6.406
 6320SOL    HW219860   6.318   1.661   6.244
 6321SOL     OW19861   0.465   3.779   0.296
 6321SOL    HW119862   0.366   3.763   0.296
 6321SOL    HW219863   0.510   3.713   0.355
 6322SOL     OW19864   1.680   1.551   2.541
 6322SOL    HW119865   1.601   1.610   2.521
 6322SOL    HW219866   1.670   1.511   2.632
 6323SOL     OW19867   2.364   5.968   1.543
 6323SOL    HW119868   2.302   5.892   1.562
 6323SOL    HW219869   2.447   5.932   1.500
 6324SOL     OW19870   5.063   3.382   0.882
 6324SOL    HW119871   5.018   3.438   0.813
 6324SOL    HW219872   4.994   3.328   0.931
 6325SOL     OW19873   1.453   3.602   3.843
 6325SOL    HW119874   1.428   3.570   3.752
 6325SOL    HW219875   1.516   3.678   3.835
 6326SOL     OW19876   4.674   5.456   5.239
 6326SOL    HW119877   4.622   5.436   5.322
 6326SOL    HW219878   4.685   5.555   5.230
 6327SOL     OW19879   0.557   0.766   2.668
 6327SOL    HW119880   0.618   0.832   2.712
 6327SOL    HW219881   0.487   0.814   2.616
 6328SOL     OW19882   3.831   3.742   5.269
 6328SOL    HW119883   3.750   3.691   5.300
 6328SOL    HW219884   3.816   3.839   5.283
 6329SOL     OW19885   0.227   3.004   4.878
 6329SOL    HW119886   0.313   2.990   4.828
 6329SOL    HW219887   0.154   2.953   4.834
 6330SOL     OW19888   4.104   1.877   3.719
 6330SOL    HW119889   4.139   1.876   3.813
 6330SOL    HW219890   4.176   1.848   3.656
 6331SOL     OW19891   1.832   3.562   4.022
 6331SOL    HW119892   1.932   3.559   4.021
 6331SOL    HW219893   1.800   3.562   4.117
 6332SOL     OW19894   4.493   1.466   0.013
 6332SOL    HW119895   4.484   1.553   0.061
 6332SOL    HW219896   4.431   1.465   6.952
 6333SOL     OW19897   5.894   0.674   0.368
 6333SOL    HW119898   5.965   0.683   0.299
 6333SOL    HW219899   5.812   0.634   0.328
 6334SOL     OW19900   2.663   1.229   2.056
 6334SOL    HW119901   2.690   1.196   1.966
 6334SOL    HW219902   2.589   1.171   2.092
 6335SOL     OW19903   6.626   3.214   5.364
 6335SOL    HW119904   6.563   3.281   5.404
 6335SOL    HW219905   6.676   3.256   5.288
 6336SOL     OW19906   0.839   4.532   5.549
 6336SOL    HW119907   0.816   4.496   5.458
 6336SOL    HW219908   0.935   4.510   5.570
 6337SOL     OW19909   5.877   0.054   5.167
 6337SOL    HW119910   5.930   0.052   5.251
 6337SOL    HW219911   5.936   0.035   5.089
 6338SOL     OW19912   0.581   0.596   2.442
 6338SOL    HW119913   0.555   0.644   2.526
 6338SOL    HW219914   0.649   0.649   2.393
 6339SOL     OW19915   0.428   4.013   3.109
 6339SOL    HW119916   0.439   3.914   3.102
 6339SOL    HW219917   0.485   4.058   3.040
 6340SOL     OW19918   2.649   5.224   6.295
 6340SOL    HW119919   2.729   5.172   6.265
 6340SOL    HW219920   2.635   5.213   6.393
 6341SOL     OW19921   0.174   4.632   2.995
 6341SOL    HW119922   0.119   4.697   2.943
 6341SOL    HW219923   0.151   4.638   3.092
 6342SOL     OW19924   2.118   0.510   1.548
 6342SOL    HW119925   2.133   0.556   1.635
 6342SOL    HW219926   2.051   0.437   1.560
 6343SOL     OW19927   1.580   5.184   6.934
 6343SOL    HW119928   1.614   5.263   6.883
 6343SOL    HW219929   1.486   5.202   6.964
 6344SOL     OW19930   0.992   1.423   4.202
 6344SOL    HW119931   1.074   1.376   4.169
 6344SOL    HW219932   0.944   1.464   4.125
 6345SOL     OW19933   6.846   3.208   3.409
 6345SOL    HW119934   6.763   3.187   3.461
 6345SOL    HW219935   6.915   3.246   3.471
 6346SOL     OW19936   0.272   4.858   4.283
 6346SOL    HW119937   0.310   4.765   4.283
 6346SOL    HW219938   0.318   4.913   4.213
 6347SOL     OW19939   1.977   2.571   3.541
 6347SOL    HW119940   1.996   2.632   3.464
 6347SOL    HW219941   2.013   2.611   3.625
 6348SOL     OW19942   0.876   2.955   6.611
 6348SOL    HW119943   0.919   3.034   6.656
 6348SOL    HW219944   0.782   2.978   6.586
 6349SOL     OW19945   6.173   1.352   0.687
 6349SOL    HW119946   6.165   1.364   0.786
 6349SOL    HW219947   6.147   1.259   0.662
 6350SOL     OW19948   0.777   6.176   1.334
 6350SOL    HW119949   0.851   6.156   1.270
 6350SOL    HW219950   0.697   6.209   1.284
 6351SOL     OW19951   6.010   2.624   1.877
 6351SOL    HW119952   5.983   2.618   1.973
 6351SOL    HW219953   6.086   2.689   1.867
 6352SOL     OW19954   4.570   0.755   4.497
 6352SOL    HW119955   4.547   0.669   4.542
 6352SOL    HW219956   4.641   0.801   4.549
 6353SOL     OW19957   3.560   6.341   6.015
 6353SOL    HW119958   3.501   6.364   6.093
 6353SOL    HW219959   3.507   6.347   5.930
 6354SOL     OW19960   5.318   5.127   2.543
 6354SOL    HW119961   5.239   5.102   2.598
 6354SOL    HW219962   5.402   5.104   2.593
 6355SOL     OW19963   5.099   5.821   0.425
 6355SOL    HW119964   5.034   5.747   0.442
 6355SOL    HW219965   5.050   5.903   0.396
 6356SOL     OW19966   0.405   6.713   6.361
 6356SOL    HW119967   0.467   6.650   6.314
 6356SOL    HW219968   0.314   6.705   6.321
 6357SOL     OW19969   5.031   2.074   2.969
 6357SOL    HW119970   5.027   2.093   2.871
 6357SOL    HW219971   4.963   2.004   2.992
 6358SOL     OW19972   1.099   1.799   4.251
 6358SOL    HW119973   1.054   1.888   4.257
 6358SOL    HW219974   1.035   1.727   4.277
 6359SOL     OW19975   5.877   4.413   0.898
 6359SOL    HW119976   5.778   4.417   0.883
 6359SOL    HW219977   5.924   4.430   0.812
 6360SOL     OW19978   2.252   2.827   1.201
 6360SOL    HW119979   2.306   2.811   1.284
 6360SOL    HW219980   2.286   2.768   1.128
 6361SOL     OW19981   0.070   1.992   2.422
 6361SOL    HW119982   0.132   1.958   2.493
 6361SOL    HW219983   0.102   1.961   2.333
 6362SOL     OW19984   1.864   5.287   0.592
 6362SOL    HW119985   1.889   5.311   0.686
 6362SOL    HW219986   1.921   5.211   0.561
 6363SOL     OW19987   0.947   2.252   2.120
 6363SOL    HW119988   1.003   2.204   2.188
 6363SOL    HW219989   0.968   2.217   2.029
 6364SOL     OW19990   2.878   1.207   3.959
 6364SOL    HW119991   2.919   1.216   4.050
 6364SOL    HW219992   2.947   1.228   3.889
 6365SOL     OW19993   6.893   6.920   2.573
 6365SOL    HW119994   6.871   6.896   2.478
 6365SOL    HW219995   6.943   6.845   2.616
 6366SOL     OW19996   6.070   1.621   5.205
 6366SOL    HW119997   6.118   1.642   5.290
 6366SOL    HW219998   5.979   1.586   5.226
 6367SOL     OW19999   1.095   2.324   4.473
 6367SOL    HW120000   1.040   2.330   4.390
 6367SOL    HW220001   1.051   2.261   4.537
 6368SOL     OW20002   4.961   3.409   5.036
 6368SOL    HW120003   4.890   3.478   5.040
 6368SOL    HW220004   5.042   3.442   5.085
 6369SOL     OW20005   3.123   4.288   0.989
 6369SOL    HW120006   3.141   4.236   1.072
 6369SOL    HW220007   3.104   4.383   1.012
 6370SOL     OW20008   5.985   4.051   4.778
 6370SOL    HW120009   5.914   4.085   4.840
 6370SOL    HW220010   6.039   4.127   4.744
 6371SOL     OW20011   5.836   4.065   0.702
 6371SOL    HW120012   5.899   4.064   0.625
 6371SOL    HW220013   5.789   4.153   0.705
 6372SOL     OW20014   6.569   0.898   0.826
 6372SOL    HW120015   6.610   0.914   0.916
 6372SOL    HW220016   6.470   0.905   0.832
 6373SOL     OW20017   5.369   2.238   1.436
 6373SOL    HW120018   5.440   2.169   1.427
 6373SOL    HW220019   5.410   2.328   1.441
 6374SOL     OW20020   4.350   3.243   6.549
 6374SOL    HW120021   4.322   3.150   6.576
 6374SOL    HW220022   4.399   3.239   6.462
 6375SOL     OW20023   5.241   0.956   2.312
 6375SOL    HW120024   5.305   1.025   2.345
 6375SOL    HW220025   5.284   0.903   2.238
 6376SOL     OW20026   2.801   6.522   0.548
 6376SOL    HW120027   2.769   6.431   0.575
 6376SOL    HW220028   2.741   6.592   0.587
 6377SOL     OW20029   0.287   0.856   0.399
 6377SOL    HW120030   0.378   0.828   0.430
 6377SOL    HW220031   0.253   0.929   0.458
 6378SOL     OW20032   6.171   4.085   3.000
 6378SOL    HW120033   6.089   4.066   2.947
 6378SOL    HW220034   6.160   4.049   3.093
 6379SOL     OW20035   3.290   5.297   6.913
 6379SOL    HW120036   3.226   5.290   6.989
 6379SOL    HW220037   3.254   5.361   6.845
 6380SOL     OW20038   2.113   3.203   4.671
 6380SOL    HW120039   2.174   3.161   4.603
 6380SOL    HW220040   2.018   3.190   4.642
 6381SOL     OW20041   3.254   3.848   0.845
 6381SOL    HW120042   3.324   3.799   0.897
 6381SOL    HW220043   3.295   3.883   0.760
 6382SOL     OW20044   2.057   1.381   1.323
 6382SOL    HW120045   2.015   1.296   1.357
 6382SOL    HW220046   2.133   1.407   1.382
 6383SOL     OW20047   2.750   2.029   2.666
 6383SOL    HW120048   2.736   2.127   2.656
 6383SOL    HW220049   2.847   2.010   2.682
 6384SOL     OW20050   6.650   1.985   2.145
 6384SOL    HW120051   6.727   1.931   2.180
 6384SOL    HW220052   6.685   2.059   2.088
 6385SOL     OW20053   6.917   3.855   1.211
 6385SOL    HW120054   6.982   3.781   1.226
 6385SOL    HW220055   6.966   3.942   1.199
 6386SOL     OW20056   3.213   3.890   0.372
 6386SOL    HW120057   3.161   3.820   0.323
 6386SOL    HW220058   3.296   3.850   0.411
 6387SOL     OW20059   6.464   0.917   6.262
 6387SOL    HW120060   6.431   0.968   6.341
 6387SOL    HW220061   6.394   0.852   6.233
 6388SOL     OW20062   6.106   4.949   1.689
 6388SOL    HW120063   6.049   4.947   1.608
 6388SOL    HW220064   6.120   5.044   1.718
 6389SOL     OW20065   6.650   6.431   0.649
 6389SOL    HW120066   6.647   6.503   0.718
 6389SOL    HW220067   6.558   6.418   0.611
 6390SOL     OW20068   4.822   6.601   6.299
 6390SOL    HW120069   4.766   6.682   6.283
 6390SOL    HW220070   4.919   6.625   6.288
 6391SOL     OW20071   1.754   2.229   4.877
 6391SOL    HW120072   1.802   2.298   4.822
 6391SOL    HW220073   1.791   2.231   4.970
 6392SOL     OW20074   5.096   6.680   3.877
 6392SOL    HW120075   5.000   6.673   3.849
 6392SOL    HW220076   5.150   6.721   3.803
 6393SOL     OW20077   2.192   5.477   0.664
 6393SOL    HW120078   2.172   5.395   0.612
 6393SOL    HW220079   2.257   5.455   0.738
 6394SOL     OW20080   1.707   5.444   2.071
 6394SOL    HW120081   1.676   5.500   2.148
 6394SOL    HW220082   1.807   5.439   2.073
 6395SOL     OW20083   1.381   4.180   4.805
 6395SOL    HW120084   1.456   4.212   4.747
 6395SOL    HW220085   1.298   4.231   4.782
 6396SOL     OW20086   1.475   3.256   5.234
 6396SOL    HW120087   1.505   3.207   5.315
 6396SOL    HW220088   1.550   3.260   5.167
 6397SOL     OW20089   0.079   2.785   5.148
 6397SOL    HW120090   0.102   2.690   5.124
 6397SOL    HW220091   0.127   2.811   5.231
 6398SOL     OW20092   1.322   0.307   2.543
 6398SOL    HW120093   1.316   0.391   2.490
 6398SOL    HW220094   1.297   0.326   2.638
 6399SOL     OW20095   2.424   0.330   6.953
 6399SOL    HW120096   2.510   0.312   6.999
 6399SOL    HW220097   2.349   0.326   0.001
 6400SOL     OW20098   0.873   6.293   2.791
 6400SOL    HW120099   0.967   6.325   2.795
 6400SOL    HW220100   0.814   6.355   2.843
 6401SOL     OW20101   4.006   5.015   1.948
 6401SOL    HW120102   4.064   4.951   1.999
 6401SOL    HW220103   3.913   4.979   1.943
 6402SOL     OW20104   3.857   3.907   6.286
 6402SOL    HW120105   3.867   3.963   6.204
 6402SOL    HW220106   3.779   3.941   6.340
 6403SOL     OW20107   4.193   5.543   5.646
 6403SOL    HW120108   4.280   5.580   5.613
 6403SOL    HW220109   4.198   5.443   5.647
 6404SOL     OW20110   4.592   5.887   6.484
 6404SOL    HW120111   4.601   5.797   6.525
 6404SOL    HW220112   4.672   5.942   6.506
 6405SOL     OW20113   4.303   0.918   2.429
 6405SOL    HW120114   4.296   1.018   2.427
 6405SOL    HW220115   4.212   0.878   2.426
 6406SOL     OW20116   0.439   3.461   2.202
 6406SOL    HW120117   0.347   3.427   2.183
 6406SOL    HW220118   0.502   3.384   2.211
 6407SOL     OW20119   0.394   6.836   1.596
 6407SOL    HW120120   0.399   6.795   1.687
 6407SOL    HW220121   0.305   6.882   1.586
 6408SOL     OW20122   0.066   1.015   1.598
 6408SOL    HW120123   0.093   1.091   1.658
 6408SOL    HW220124   0.023   1.052   1.515
 6409SOL     OW20125   5.764   4.371   3.664
 6409SOL    HW120126   5.750   4.306   3.739
 6409SOL    HW220127   5.791   4.459   3.702
 6410SOL     OW20128   1.661   0.693   0.302
 6410SOL    HW120129   1.727   0.692   0.227
 6410SOL    HW220130   1.631   0.600   0.322
 6411SOL     OW20131   1.193   2.521   3.830
 6411SOL    HW120132   1.142   2.606   3.840
 6411SOL    HW220133   1.248   2.506   3.912
 6412SOL     OW20134   3.981   0.045   0.134
 6412SOL    HW120135   3.992   6.977   0.183
 6412SOL    HW220136   4.070   0.089   0.121
 6413SOL     OW20137   4.322   6.094   3.107
 6413SOL    HW120138   4.227   6.096   3.138
 6413SOL    HW220139   4.347   6.183   3.069
 6414SOL     OW20140   3.110   0.246   0.386
 6414SOL    HW120141   3.139   0.231   0.292
 6414SOL    HW220142   3.156   0.180   0.446
 6415SOL     OW20143   0.704   1.945   3.735
 6415SOL    HW120144   0.627   1.935   3.798
 6415SOL    HW220145   0.670   1.945   3.641
 6416SOL     OW20146   2.962   4.825   0.228
 6416SOL    HW120147   2.864   4.813   0.246
 6416SOL    HW220148   2.999   4.743   0.185
 6417SOL     OW20149   4.111   3.557   6.410
 6417SOL    HW120150   4.194   3.580   6.360
 6417SOL    HW220151   4.135   3.502   6.490
 6418SOL     OW20152   4.774   5.383   0.341
 6418SOL    HW120153   4.824   5.301   0.367
 6418SOL    HW220154   4.700   5.359   0.278
 6419SOL     OW20155   1.135   6.638   6.452
 6419SOL    HW120156   1.179   6.624   6.364
 6419SOL    HW220157   1.100   6.732   6.457
 6420SOL     OW20158   2.823   4.879   3.284
 6420SOL    HW120159   2.817   4.876   3.384
 6420SOL    HW220160   2.907   4.925   3.257
 6421SOL     OW20161   5.552   6.889   1.453
 6421SOL    HW120162   5.602   6.966   1.414
 6421SOL    HW220163   5.602   6.854   1.532
 6422SOL     OW20164   0.710   2.186   4.405
 6422SOL    HW120165   0.638   2.192   4.337
 6422SOL    HW220166   0.679   2.226   4.491
 6423SOL     OW20167   1.126   4.113   4.356
 6423SOL    HW120168   1.035   4.092   4.321
 6423SOL    HW220169   1.137   4.073   4.447
 6424SOL     OW20170   6.962   3.603   5.564
 6424SOL    HW120171   6.939   3.572   5.472
 6424SOL    HW220172   6.881   3.599   5.622
 6425SOL     OW20173   1.000   6.694   5.365
 6425SOL    HW120174   1.054   6.720   5.284
 6425SOL    HW220175   1.059   6.646   5.430
 6426SOL     OW20176   3.669   5.859   3.856
 6426SOL    HW120177   3.760   5.870   3.896
 6426SOL    HW220178   3.671   5.887   3.760
 6427SOL     OW20179   4.008   3.155   3.623
 6427SOL    HW120180   3.967   3.076   3.668
 6427SOL    HW220181   4.018   3.136   3.525
 6428SOL     OW20182   6.141   2.253   0.434
 6428SOL    HW120183   6.202   2.174   0.435
 6428SOL    HW220184   6.066   2.237   0.370
 6429SOL     OW20185   2.794   1.598   4.623
 6429SOL    HW120186   2.773   1.517   4.569
 6429SOL    HW220187   2.752   1.678   4.582
 6430SOL     OW20188   5.411   1.488   4.541
 6430SOL    HW120189   5.448   1.532   4.460
 6430SOL    HW220190   5.439   1.539   4.622
 6431SOL     OW20191   3.209   4.996   2.919
 6431SOL    HW120192   3.187   5.089   2.949
 6431SOL    HW220193   3.130   4.956   2.874
 6432SOL     OW20194   4.513   3.200   6.323
 6432SOL    HW120195   4.582   3.216   6.253
 6432SOL    HW220196   4.461   3.118   6.301
 6433SOL     OW20197   3.250   5.431   6.206
 6433SOL    HW120198   3.227   5.494   6.132
 6433SOL    HW220199   3.323   5.470   6.261
 6434SOL     OW20200   6.648   4.800   6.182
 6434SOL    HW120201   6.631   4.896   6.206
 6434SOL    HW220202   6.583   4.741   6.230
 6435SOL     OW20203   4.559   1.540   1.222
 6435SOL    HW120204   4.636   1.603   1.232
 6435SOL    HW220205   4.570   1.487   1.137
 6436SOL     OW20206   0.386   2.918   3.583
 6436SOL    HW120207   0.485   2.932   3.592
 6436SOL    HW220208   0.356   2.852   3.652
 6437SOL     OW20209   1.774   3.049   5.570
 6437SOL    HW120210   1.822   3.048   5.657
 6437SOL    HW220211   1.838   3.026   5.496
 6438SOL     OW20212   0.467   4.905   0.992
 6438SOL    HW120213   0.470   4.845   0.913
 6438SOL    HW220214   0.537   4.976   0.983
 6439SOL     OW20215   4.982   6.322   3.088
 6439SOL    HW120216   4.949   6.402   3.139
 6439SOL    HW220217   4.983   6.243   3.148
 6440SOL     OW20218   2.394   1.658   5.182
 6440SOL    HW120219   2.356   1.591   5.118
 6440SOL    HW220220   2.469   1.707   5.138
 6441SOL     OW20221   0.927   1.815   1.612
 6441SOL    HW120222   0.899   1.719   1.609
 6441SOL    HW220223   0.860   1.871   1.564
 6442SOL     OW20224   2.398   1.689   4.279
 6442SOL    HW120225   2.494   1.659   4.272
 6442SOL    HW220226   2.394   1.786   4.299
 6443SOL     OW20227   2.531   2.631   6.097
 6443SOL    HW120228   2.577   2.669   6.016
 6443SOL    HW220229   2.460   2.568   6.068
 6444SOL     OW20230   0.224   3.664   4.933
 6444SOL    HW120231   0.307   3.678   4.880
 6444SOL    HW220232   0.187   3.574   4.913
 6445SOL     OW20233   3.595   2.906   3.192
 6445SOL    HW120234   3.564   2.991   3.235
 6445SOL    HW220235   3.648   2.852   3.258
 6446SOL     OW20236   1.670   1.001   1.576
 6446SOL    HW120237   1.594   0.937   1.587
 6446SOL    HW220238   1.745   0.974   1.636
 6447SOL     OW20239   5.793   3.811   1.039
 6447SOL    HW120240   5.792   3.783   1.135
 6447SOL    HW220241   5.802   3.911   1.033
 6448SOL     OW20242   4.057   4.255   1.468
 6448SOL    HW120243   4.014   4.345   1.453
 6448SOL    HW220244   3.987   4.184   1.466
 6449SOL     OW20245   4.586   5.335   0.584
 6449SOL    HW120246   4.586   5.435   0.578
 6449SOL    HW220247   4.539   5.298   0.504
 6450SOL     OW20248   4.614   3.581   0.244
 6450SOL    HW120249   4.557   3.499   0.246
 6450SOL    HW220250   4.587   3.638   0.166
 6451SOL     OW20251   4.305   2.802   1.590
 6451SOL    HW120252   4.393   2.793   1.636
 6451SOL    HW220253   4.233   2.815   1.658
 6452SOL     OW20254   4.424   1.988   4.300
 6452SOL    HW120255   4.510   1.937   4.307
 6452SOL    HW220256   4.413   2.022   4.207
 6453SOL     OW20257   2.462   0.455   2.928
 6453SOL    HW120258   2.474   0.366   2.971
 6453SOL    HW220259   2.468   0.445   2.828
 6454SOL     OW20260   5.221   3.607   4.983
 6454SOL    HW120261   5.141   3.657   4.950
 6454SOL    HW220262   5.295   3.614   4.915
 6455SOL     OW20263   0.353   2.627   4.300
 6455SOL    HW120264   0.323   2.581   4.216
 6455SOL    HW220265   0.412   2.704   4.277
 6456SOL     OW20266   6.008   2.073   3.390
 6456SOL    HW120267   5.928   2.066   3.450
 6456SOL    HW220268   6.089   2.092   3.446
 6457SOL     OW20269   1.640   5.911   3.307
 6457SOL    HW120270   1.679   5.838   3.251
 6457SOL    HW220271   1.542   5.895   3.319
 6458SOL     OW20272   1.433   0.326   4.562
 6458SOL    HW120273   1.416   0.416   4.602
 6458SOL    HW220274   1.481   0.336   4.475
 6459SOL     OW20275   0.503   3.488   2.741
 6459SOL    HW120276   0.500   3.484   2.641
 6459SOL    HW220277   0.418   3.452   2.778
 6460SOL     OW20278   1.853   4.986   5.957
 6460SOL    HW120279   1.844   5.084   5.936
 6460SOL    HW220280   1.948   4.965   5.977
 6461SOL     OW20281   0.200   0.010   1.604
 6461SOL    HW120282   0.227   0.079   1.537
 6461SOL    HW220283   0.260   0.016   1.684
 6462SOL     OW20284   2.459   4.020   5.648
 6462SOL    HW120285   2.532   3.984   5.589
 6462SOL    HW220286   2.376   4.033   5.594
 6463SOL     OW20287   4.438   3.209   1.235
 6463SOL    HW120288   4.470   3.126   1.190
 6463SOL    HW220289   4.403   3.273   1.167
 6464SOL     OW20290   1.401   3.479   3.269
 6464SOL    HW120291   1.463   3.415   3.222
 6464SOL    HW220292   1.313   3.434   3.284
 6465SOL     OW20293   2.321   1.530   2.995
 6465SOL    HW120294   2.230   1.549   2.957
 6465SOL    HW220295   2.389   1.533   2.922
 6466SOL     OW20296   6.571   5.182   6.711
 6466SOL    HW120297   6.666   5.212   6.717
 6466SOL    HW220298   6.522   5.209   6.794
 6467SOL     OW20299   2.352   3.533   5.750
 6467SOL    HW120300   2.387   3.541   5.843
 6467SOL    HW220301   2.372   3.617   5.699
 6468SOL     OW20302   1.218   0.438   1.063
 6468SOL    HW120303   1.311   0.471   1.048
 6468SOL    HW220304   1.162   0.513   1.099
 6469SOL     OW20305   2.355   0.810   1.236
 6469SOL    HW120306   2.287   0.880   1.257
 6469SOL    HW220307   2.441   0.831   1.282
 6470SOL     OW20308   5.951   1.737   6.563
 6470SOL    HW120309   5.966   1.754   6.661
 6470SOL    HW220310   5.924   1.823   6.519
 6471SOL     OW20311   0.592   6.221   6.001
 6471SOL    HW120312   0.671   6.210   5.941
 6471SOL    HW220313   0.523   6.278   5.955
 6472SOL     OW20314   0.516   7.006   1.298
 6472SOL    HW120315   0.446   0.048   1.337
 6472SOL    HW220316   0.580   6.977   1.370
 6473SOL     OW20317   2.774   1.984   3.504
 6473SOL    HW120318   2.805   2.072   3.540
 6473SOL    HW220319   2.853   1.923   3.493
 6474SOL     OW20320   3.548   6.974   4.338
 6474SOL    HW120321   3.578   6.879   4.332
 6474SOL    HW220322   3.548   7.003   4.434
 6475SOL     OW20323   5.327   5.633   3.283
 6475SOL    HW120324   5.391   5.563   3.253
 6475SOL    HW220325   5.295   5.685   3.203
 6476SOL     OW20326   5.197   4.260   5.703
 6476SOL    HW120327   5.210   4.161   5.698
 6476SOL    HW220328   5.151   4.292   5.619
 6477SOL     OW20329   0.540   6.514   0.811
 6477SOL    HW120330   0.487   6.491   0.730
 6477SOL    HW220331   0.514   6.605   0.843
 6478SOL     OW20332   1.573   6.229   0.753
 6478SOL    HW120333   1.633   6.308   0.768
 6478SOL    HW220334   1.625   6.156   0.708
 6479SOL     OW20335   4.579   6.040   3.997
 6479SOL    HW120336   4.484   6.014   4.017
 6479SOL    HW220337   4.635   5.958   3.988
 6480SOL     OW20338   3.039   1.620   5.345
 6480SOL    HW120339   3.020   1.531   5.303
 6480SOL    HW220340   2.980   1.689   5.305
 6481SOL     OW20341   4.418   3.226   1.747
 6481SOL    HW120342   4.495   3.182   1.794
 6481SOL    HW220343   4.420   3.204   1.650
 6482SOL     OW20344   5.475   3.164   5.251
 6482SOL    HW120345   5.538   3.185   5.177
 6482SOL    HW220346   5.464   3.245   5.309
 6483SOL     OW20347   1.696   5.601   5.743
 6483SOL    HW120348   1.656   5.599   5.834
 6483SOL    HW220349   1.795   5.618   5.750
 6484SOL     OW20350   3.984   1.620   3.017
 6484SOL    HW120351   3.963   1.535   3.065
 6484SOL    HW220352   4.078   1.648   3.037
 6485SOL     OW20353   2.364   4.922   4.483
 6485SOL    HW120354   2.424   4.841   4.478
 6485SOL    HW220355   2.418   5.000   4.514
 6486SOL     OW20356   7.004   4.290   2.226
 6486SOL    HW120357   7.016   4.378   2.180
 6486SOL    HW220358   0.068   4.234   2.212
 6487SOL     OW20359   5.824   5.364   3.959
 6487SOL    HW120360   5.848   5.386   4.054
 6487SOL    HW220361   5.742   5.415   3.933
 6488SOL     OW20362   3.981   5.056   4.013
 6488SOL    HW120363   4.040   5.088   4.087
 6488SOL    HW220364   4.036   5.016   3.941
 6489SOL     OW20365   6.678   2.983   4.762
 6489SOL    HW120366   6.742   3.027   4.699
 6489SOL    HW220367   6.727   2.921   4.822
 6490SOL     OW20368   1.848   3.118   0.254
 6490SOL    HW120369   1.880   3.066   0.334
 6490SOL    HW220370   1.775   3.180   0.282
 6491SOL     OW20371   1.933   0.368   1.817
 6491SOL    HW120372   2.026   0.366   1.855
 6491SOL    HW220373   1.936   0.334   1.723
 6492SOL     OW20374   4.095   3.722   3.810
 6492SOL    HW120375   4.178   3.774   3.832
 6492SOL    HW220376   4.022   3.746   3.873
 6493SOL     OW20377   1.220   4.713   4.125
 6493SOL    HW120378   1.185   4.805   4.143
 6493SOL    HW220379   1.149   4.658   4.082
 6494SOL     OW20380   6.647   1.011   1.478
 6494SOL    HW120381   6.654   0.919   1.440
 6494SOL    HW220382   6.729   1.063   1.455
 6495SOL     OW20383   6.569   6.697   2.362
 6495SOL    HW120384   6.546   6.609   2.320
 6495SOL    HW220385   6.619   6.681   2.447
 6496SOL     OW20386   2.815   2.175   1.549
 6496SOL    HW120387   2.901   2.169   1.499
 6496SOL    HW220388   2.760   2.093   1.531
 6497SOL     OW20389   0.679   2.375   0.865
 6497SOL    HW120390   0.750   2.414   0.924
 6497SOL    HW220391   0.605   2.441   0.853
 6498SOL     OW20392   2.324   4.582   4.329
 6498SOL    HW120393   2.343   4.493   4.289
 6498SOL    HW220394   2.301   4.648   4.257
 6499SOL     OW20395   5.714   2.462   2.479
 6499SOL    HW120396   5.645   2.424   2.542
 6499SOL    HW220397   5.804   2.453   2.520
 6500SOL     OW20398   1.636   3.835   2.475
 6500SOL    HW120399   1.566   3.803   2.539
 6500SOL    HW220400   1.714   3.871   2.526
 6501SOL     OW20401   6.633   1.158   2.637
 6501SOL    HW120402   6.663   1.207   2.556
 6501SOL    HW220403   6.691   1.181   2.715
 6502SOL     OW20404   0.920   2.938   1.890
 6502SOL    HW120405   0.873   3.017   1.930
 6502SOL    HW220406   1.014   2.963   1.867
 6503SOL     OW20407   0.342   2.570   5.354
 6503SOL    HW120408   0.431   2.610   5.374
 6503SOL    HW220409   0.270   2.629   5.389
 6504SOL     OW20410   3.893   6.917   5.940
 6504SOL    HW120411   3.862   6.832   5.982
 6504SOL    HW220412   3.818   6.984   5.943
 6505SOL     OW20413   0.147   6.561   0.052
 6505SOL    HW120414   0.097   6.479   0.079
 6505SOL    HW220415   0.243   6.553   0.080
 6506SOL     OW20416   0.244   3.692   1.607
 6506SOL    HW120417   0.162   3.671   1.554
 6506SOL    HW220418   0.297   3.608   1.621
 6507SOL     OW20419   4.290   5.565   0.928
 6507SOL    HW120420   4.310   5.502   0.853
 6507SOL    HW220421   4.375   5.592   0.973
 6508SOL     OW20422   0.053   0.537   4.172
 6508SOL    HW120423   6.999   0.589   4.217
 6508SOL    HW220424   0.139   0.589   4.174
 6509SOL     OW20425   2.526   1.824   0.576
 6509SOL    HW120426   2.585   1.900   0.552
 6509SOL    HW220427   2.522   1.759   0.501
 6510SOL     OW20428   3.430   4.962   4.679
 6510SOL    HW120429   3.408   5.049   4.635
 6510SOL    HW220430   3.401   4.886   4.621
 6511SOL     OW20431   3.281   2.809   6.695
 6511SOL    HW120432   3.228   2.894   6.687
 6511SOL    HW220433   3.276   2.759   6.608
 6512SOL     OW20434   5.169   0.822   1.247
 6512SOL    HW120435   5.157   0.753   1.176
 6512SOL    HW220436   5.080   0.855   1.277
 6513SOL     OW20437   3.253   4.941   2.520
 6513SOL    HW120438   3.206   5.012   2.573
 6513SOL    HW220439   3.186   4.884   2.474
 6514SOL     OW20440   4.850   5.635   5.622
 6514SOL    HW120441   4.823   5.542   5.647
 6514SOL    HW220442   4.768   5.688   5.599
 6515SOL     OW20443   0.561   4.828   2.019
 6515SOL    HW120444   0.567   4.914   2.070
 6515SOL    HW220445   0.640   4.819   1.958
 6516SOL     OW20446   5.796   1.369   3.811
 6516SOL    HW120447   5.866   1.301   3.789
 6516SOL    HW220448   5.707   1.336   3.781
 6517SOL     OW20449   6.734   4.181   0.203
 6517SOL    HW120450   6.711   4.198   0.299
 6517SOL    HW220451   6.742   4.083   0.187
 6518SOL     OW20452   1.019   1.775   2.024
 6518SOL    HW120453   0.983   1.764   2.116
 6518SOL    HW220454   0.970   1.849   1.977
 6519SOL     OW20455   1.195   1.709   3.317
 6519SOL    HW120456   1.264   1.761   3.268
 6519SOL    HW220457   1.201   1.731   3.415
 6520SOL     OW20458   5.911   6.200   6.572
 6520SOL    HW120459   5.864   6.126   6.619
 6520SOL    HW220460   5.918   6.279   6.632
 6521SOL     OW20461   1.614   4.629   4.491
 6521SOL    HW120462   1.562   4.627   4.406
 6521SOL    HW220463   1.703   4.673   4.475
 6522SOL     OW20464   2.164   3.012   5.087
 6522SOL    HW120465   2.099   2.947   5.048
 6522SOL    HW220466   2.257   2.983   5.066
 6523SOL     OW20467   5.458   6.293   0.505
 6523SOL    HW120468   5.409   6.357   0.446
 6523SOL    HW220469   5.516   6.234   0.450
 6524SOL     OW20470   3.336   2.733   1.440
 6524SOL    HW120471   3.417   2.745   1.384
 6524SOL    HW220472   3.311   2.821   1.482
 6525SOL     OW20473   1.871   4.534   4.228
 6525SOL    HW120474   1.916   4.450   4.200
 6525SOL    HW220475   1.778   4.536   4.193
 6526SOL     OW20476   6.333   6.036   0.477
 6526SOL    HW120477   6.349   5.975   0.400
 6526SOL    HW220478   6.238   6.067   0.476
 6527SOL     OW20479   5.431   2.232   1.125
 6527SOL    HW120480   5.347   2.279   1.152
 6527SOL    HW220481   5.415   2.134   1.121
 6528SOL     OW20482   4.711   6.407   0.359
 6528SOL    HW120483   4.793   6.429   0.305
 6528SOL    HW220484   4.663   6.492   0.382
 6529SOL     OW20485   4.418   0.093   1.730
 6529SOL    HW120486   4.417   0.176   1.673
 6529SOL    HW220487   4.328   0.082   1.772
 6530SOL     OW20488   0.218   2.373   3.990
 6530SOL    HW120489   0.179   2.364   3.898
 6530SOL    HW220490   0.311   2.409   3.984
 6531SOL     OW20491   3.749   3.155   3.463
 6531SOL    HW120492   3.839   3.112   3.467
 6531SOL    HW220493   3.738   3.217   3.541
 6532SOL     OW20494   1.008   5.640   0.186
 6532SOL    HW120495   1.080   5.608   0.248
 6532SOL    HW220496   0.937   5.569   0.179
 6533SOL     OW20497   4.950   5.404   1.372
 6533SOL    HW120498   5.047   5.425   1.366
 6533SOL    HW220499   4.925   5.387   1.467
 6534SOL     OW20500   6.544   2.955   4.125
 6534SOL    HW120501   6.550   2.986   4.219
 6534SOL    HW220502   6.471   3.005   4.078
 6535SOL     OW20503   5.346   3.527   5.872
 6535SOL    HW120504   5.264   3.544   5.925
 6535SOL    HW220505   5.328   3.454   5.805
 6536SOL     OW20506   0.351   4.906   5.640
 6536SOL    HW120507   0.304   4.871   5.559
 6536SOL    HW220508   0.444   4.868   5.643
 6537SOL     OW20509   6.678   5.579   4.405
 6537SOL    HW120510   6.582   5.575   4.432
 6537SOL    HW220511   6.709   5.674   4.406
 6538SOL     OW20512   1.519   3.293   3.592
 6538SOL    HW120513   1.616   3.271   3.607
 6538SOL    HW220514   1.481   3.234   3.521
 6539SOL     OW20515   5.237   6.891   5.966
 6539SOL    HW120516   5.336   6.902   5.970
 6539SOL    HW220517   5.212   6.841   5.883
 6540SOL     OW20518   0.923   2.444   4.786
 6540SOL    HW120519   0.899   2.352   4.754
 6540SOL    HW220520   1.018   2.464   4.761
 6541SOL     OW20521   3.960   1.663   5.558
 6541SOL    HW120522   3.929   1.698   5.646
 6541SOL    HW220523   3.930   1.568   5.548
 6542SOL     OW20524   1.648   4.262   2.017
 6542SOL    HW120525   1.739   4.277   1.979
 6542SOL    HW220526   1.611   4.176   1.983
 6543SOL     OW20527   3.981   1.495   4.191
 6543SOL    HW120528   4.034   1.549   4.125
 6543SOL    HW220529   4.040   1.427   4.234
 6544SOL     OW20530   0.867   0.319   0.929
 6544SOL    HW120531   0.812   0.246   0.969
 6544SOL    HW220532   0.880   0.392   0.995
 6545SOL     OW20533   5.791   5.645   1.005
 6545SOL    HW120534   5.859   5.610   0.941
 6545SOL    HW220535   5.738   5.568   1.042
 6546SOL     OW20536   4.608   5.169   5.172
 6546SOL    HW120537   4.660   5.254   5.177
 6546SOL    HW220538   4.556   5.166   5.087
 6547SOL     OW20539   1.318   6.361   5.300
 6547SOL    HW120540   1.387   6.288   5.304
 6547SOL    HW220541   1.251   6.340   5.229
 6548SOL     OW20542   1.389   2.345   5.623
 6548SOL    HW120543   1.428   2.256   5.648
 6548SOL    HW220544   1.341   2.384   5.702
 6549SOL     OW20545   3.671   1.348   2.482
 6549SOL    HW120546   3.600   1.298   2.433
 6549SOL    HW220547   3.659   1.446   2.465
 6550SOL     OW20548   6.143   0.082   2.012
 6550SOL    HW120549   6.204   0.135   1.953
 6550SOL    HW220550   6.160   7.002   1.998
 6551SOL     OW20551   2.568   4.914   1.334
 6551SOL    HW120552   2.621   4.914   1.418
 6551SOL    HW220553   2.573   4.824   1.291
 6552SOL     OW20554   2.294   3.922   7.012
 6552SOL    HW120555   2.234   3.956   0.066
 6552SOL    HW220556   2.324   3.998   6.954
 6553SOL     OW20557   6.961   1.926   3.193
 6553SOL    HW120558   6.997   1.834   3.182
 6553SOL    HW220559   6.863   1.921   3.215
 6554SOL     OW20560   1.637   1.828   3.717
 6554SOL    HW120561   1.592   1.821   3.806
 6554SOL    HW220562   1.721   1.883   3.726
 6555SOL     OW20563   1.433   3.588   2.347
 6555SOL    HW120564   1.482   3.509   2.311
 6555SOL    HW220565   1.418   3.654   2.273
 6556SOL     OW20566   5.034   3.332   3.323
 6556SOL    HW120567   5.110   3.286   3.277
 6556SOL    HW220568   4.981   3.385   3.256
 6557SOL     OW20569   1.877   6.908   3.014
 6557SOL    HW120570   1.795   6.943   2.971
 6557SOL    HW220571   1.955   6.966   2.991
 6558SOL     OW20572   5.219   5.562   1.050
 6558SOL    HW120573   5.201   5.658   1.029
 6558SOL    HW220574   5.181   5.504   0.978
 6559SOL     OW20575   0.253   1.655   6.414
 6559SOL    HW120576   0.208   1.732   6.459
 6559SOL    HW220577   0.298   1.598   6.483
 6560SOL     OW20578   6.908   4.751   6.196
 6560SOL    HW120579   6.815   4.766   6.164
 6560SOL    HW220580   6.957   4.693   6.131
 6561SOL     OW20581   2.715   5.312   0.761
 6561SOL    HW120582   2.775   5.378   0.718
 6561SOL    HW220583   2.716   5.325   0.860
 6562SOL     OW20584   4.833   2.370   1.736
 6562SOL    HW120585   4.739   2.403   1.744
 6562SOL    HW220586   4.852   2.305   1.809
 6563SOL     OW20587   5.865   6.081   5.094
 6563SOL    HW120588   5.837   6.029   5.174
 6563SOL    HW220589   5.849   6.027   5.011
 6564SOL     OW20590   5.229   3.602   2.585
 6564SOL    HW120591   5.140   3.648   2.588
 6564SOL    HW220592   5.215   3.503   2.577
 6565SOL     OW20593   5.006   6.014   2.236
 6565SOL    HW120594   5.085   5.959   2.263
 6565SOL    HW220595   4.998   6.094   2.296
 6566SOL     OW20596   5.005   5.481   3.659
 6566SOL    HW120597   5.041   5.541   3.587
 6566SOL    HW220598   5.015   5.386   3.630
 6567SOL     OW20599   3.160   0.790   2.922
 6567SOL    HW120600   3.088   0.843   2.966
 6567SOL    HW220601   3.205   0.846   2.852
 6568SOL     OW20602   5.177   1.279   1.196
 6568SOL    HW120603   5.090   1.238   1.224
 6568SOL    HW220604   5.162   1.375   1.171
 6569SOL     OW20605   1.686   4.594   3.367
 6569SOL    HW120606   1.731   4.619   3.452
 6569SOL    HW220607   1.620   4.521   3.384
 6570SOL     OW20608   4.892   6.991   2.712
 6570SOL    HW120609   4.954   6.925   2.669
 6570SOL    HW220610   4.801   6.951   2.721
 6571SOL     OW20611   2.919   6.462   2.775
 6571SOL    HW120612   2.946   6.497   2.864
 6571SOL    HW220613   2.977   6.503   2.704
 6572SOL     OW20614   1.543   6.015   3.905
 6572SOL    HW120615   1.555   5.996   3.808
 6572SOL    HW220616   1.632   6.010   3.951
 6573SOL     OW20617   0.333   2.248   3.223
 6573SOL    HW120618   0.241   2.213   3.209
 6573SOL    HW220619   0.341   2.339   3.182
 6574SOL     OW20620   0.456   5.356   1.857
 6574SOL    HW120621   0.424   5.446   1.830
 6574SOL    HW220622   0.533   5.328   1.800
 6575SOL     OW20623   0.204   1.520   3.482
 6575SOL    HW120624   0.106   1.524   3.502
 6575SOL    HW220625   0.220   1.456   3.407
 6576SOL     OW20626   4.015   6.882   1.967
 6576SOL    HW120627   4.025   6.908   2.063
 6576SOL    HW220628   3.983   6.787   1.962
 6577SOL     OW20629   3.487   0.952   5.045
 6577SOL    HW120630   3.569   1.001   5.017
 6577SOL    HW220631   3.487   0.941   5.145
 6578SOL     OW20632   1.331   5.591   6.575
 6578SOL    HW120633   1.311   5.580   6.672
 6578SOL    HW220634   1.268   5.658   6.535
 6579SOL     OW20635   1.710   1.456   3.238
 6579SOL    HW120636   1.655   1.539   3.232
 6579SOL    HW220637   1.795   1.476   3.287
 6580SOL     OW20638   3.097   2.952   7.011
 6580SOL    HW120639   2.999   2.957   0.013
 6580SOL    HW220640   3.118   2.868   6.962
 6581SOL     OW20641   0.605   2.582   2.241
 6581SOL    HW120642   0.551   2.518   2.296
 6581SOL    HW220643   0.650   2.532   2.167
 6582SOL     OW20644   4.267   0.552   3.387
 6582SOL    HW120645   4.229   0.621   3.326
 6582SOL    HW220646   4.324   0.489   3.334
 6583SOL     OW20647   2.728   4.420   1.130
 6583SOL    HW120648   2.824   4.438   1.151
 6583SOL    HW220649   2.715   4.322   1.114
 6584SOL     OW20650   4.108   3.302   6.280
 6584SOL    HW120651   4.121   3.251   6.365
 6584SOL    HW220652   4.088   3.398   6.301
 6585SOL     OW20653   5.592   0.442   1.613
 6585SOL    HW120654   5.571   0.424   1.709
 6585SOL    HW220655   5.650   0.368   1.578
 6586SOL     OW20656   6.637   1.533   0.136
 6586SOL    HW120657   6.700   1.562   0.065
 6586SOL    HW220658   6.552   1.500   0.095
 6587SOL     OW20659   3.098   4.772   5.479
 6587SOL    HW120660   3.120   4.847   5.540
 6587SOL    HW220661   3.100   4.804   5.384
 6588SOL     OW20662   0.977   1.283   0.374
 6588SOL    HW120663   1.033   1.303   0.294
 6588SOL    HW220664   0.887   1.326   0.364
 6589SOL     OW20665   6.031   6.914   1.183
 6589SOL    HW120666   6.046   6.922   1.085
 6589SOL    HW220667   5.974   6.990   1.214
 6590SOL     OW20668   1.459   5.952   4.691
 6590SOL    HW120669   1.437   6.044   4.723
 6590SOL    HW220670   1.403   5.885   4.740
 6591SOL     OW20671   6.349   3.375   3.500
 6591SOL    HW120672   6.288   3.324   3.439
 6591SOL    HW220673   6.443   3.344   3.487
 6592SOL     OW20674   0.326   0.952   4.081
 6592SOL    HW120675   0.384   0.935   4.160
 6592SOL    HW220676   0.306   1.049   4.074
 6593SOL     OW20677   1.319   0.587   2.965
 6593SOL    HW120678   1.293   0.576   3.061
 6593SOL    HW220679   1.414   0.558   2.953
 6594SOL     OW20680   5.683   0.304   6.560
 6594SOL    HW120681   5.630   0.219   6.561
 6594SOL    HW220682   5.780   0.282   6.564
 6595SOL     OW20683   1.424   1.593   5.092
 6595SOL    HW120684   1.519   1.617   5.108
 6595SOL    HW220685   1.415   1.493   5.088
 6596SOL     OW20686   5.413   0.895   3.315
 6596SOL    HW120687   5.367   0.975   3.353
 6596SOL    HW220688   5.362   0.812   3.340
 6597SOL     OW20689   0.986   5.216   1.159
 6597SOL    HW120690   1.018   5.131   1.200
 6597SOL    HW220691   0.924   5.263   1.222
 6598SOL     OW20692   0.807   5.549   1.640
 6598SOL    HW120693   0.807   5.598   1.726
 6598SOL    HW220694   0.836   5.610   1.566
 6599SOL     OW20695   0.920   5.490   6.246
 6599SOL    HW120696   1.005   5.529   6.209
 6599SOL    HW220697   0.855   5.563   6.263
 6600SOL     OW20698   4.215   6.242   4.926
 6600SOL    HW120699   4.231   6.336   4.896
 6600SOL    HW220700   4.150   6.199   4.864
 6601SOL     OW20701   0.947   2.832   2.373
 6601SOL    HW120702   0.887   2.777   2.431
 6601SOL    HW220703   0.956   2.789   2.283
 6602SOL     OW20704   5.992   5.934   0.781
 6602SOL    HW120705   5.969   5.843   0.814
 6602SOL    HW220706   6.088   5.953   0.799
 6603SOL     OW20707   0.169   4.628   2.384
 6603SOL    HW120708   0.134   4.604   2.294
 6603SOL    HW220709   0.093   4.652   2.444
 6604SOL     OW20710   1.205   5.290   2.380
 6604SOL    HW120711   1.178   5.334   2.466
 6604SOL    HW220712   1.209   5.359   2.308
 6605SOL     OW20713   6.989   5.069   1.327
 6605SOL    HW120714   0.053   5.116   1.294
 6605SOL    HW220715   6.966   5.104   1.419
 6606SOL     OW20716   1.285   4.562   2.981
 6606SOL    HW120717   1.235   4.544   2.896
 6606SOL    HW220718   1.360   4.497   2.990
 6607SOL     OW20719   6.524   3.437   4.124
 6607SOL    HW120720   6.559   3.478   4.040
 6607SOL    HW220721   6.425   3.420   4.114
 6608SOL     OW20722   1.306   0.369   5.354
 6608SOL    HW120723   1.326   0.361   5.451
 6608SOL    HW220724   1.390   0.386   5.303
 6609SOL     OW20725   3.057   2.612   0.104
 6609SOL    HW120726   3.081   2.524   0.063
 6609SOL    HW220727   2.959   2.630   0.091
 6610SOL     OW20728   3.249   6.562   1.543
 6610SOL    HW120729   3.282   6.546   1.450
 6610SOL    HW220730   3.178   6.495   1.565
 6611SOL     OW20731   3.144   1.705   4.332
 6611SOL    HW120732   3.220   1.767   4.312
 6611SOL    HW220733   3.139   1.633   4.262
 6612SOL     OW20734   0.056   6.992   6.915
 6612SOL    HW120735   0.041   6.931   6.993
 6612SOL    HW220736   0.071   0.068   6.948
 6613SOL     OW20737   4.040   6.692   1.330
 6613SOL    HW120738   4.125   6.721   1.375
 6613SOL    HW220739   4.058   6.677   1.233
 6614SOL     OW20740   3.615   4.307   0.893
 6614SOL    HW120741   3.654   4.245   0.960
 6614SOL    HW220742   3.562   4.378   0.940
 6615SOL     OW20743   3.131   5.869   5.819
 6615SOL    HW120744   3.072   5.792   5.795
 6615SOL    HW220745   3.189   5.893   5.742
 6616SOL     OW20746   3.910   2.106   6.533
 6616SOL    HW120747   3.825   2.114   6.481
 6616SOL    HW220748   3.892   2.061   6.620
 6617SOL     OW20749   3.522   1.514   4.216
 6617SOL    HW120750   3.607   1.519   4.269
 6617SOL    HW220751   3.541   1.537   4.120
 6618SOL     OW20752   5.920   3.258   3.493
 6618SOL    HW120753   5.984   3.187   3.464
 6618SOL    HW220754   5.853   3.274   3.420
 6619SOL     OW20755   4.831   4.963   4.018
 6619SOL    HW120756   4.782   5.020   3.953
 6619SOL    HW220757   4.778   4.954   4.102
 6620SOL     OW20758   1.383   2.706   3.176
 6620SOL    HW120759   1.404   2.681   3.081
 6620SOL    HW220760   1.409   2.631   3.237
 6621SOL     OW20761   3.242   3.626   3.357
 6621SOL    HW120762   3.187   3.646   3.438
 6621SOL    HW220763   3.303   3.549   3.375
 6622SOL     OW20764   0.193   4.791   1.377
 6622SOL    HW120765   0.123   4.861   1.388
 6622SOL    HW220766   0.188   4.728   1.455
 6623SOL     OW20767   3.652   3.374   3.644
 6623SOL    HW120768   3.683   3.468   3.658
 6623SOL    HW220769   3.658   3.323   3.730
 6624SOL     OW20770   2.661   2.299   2.839
 6624SOL    HW120771   2.644   2.392   2.871
 6624SOL    HW220772   2.722   2.301   2.761
 6625SOL     OW20773   6.979   4.578   5.419
 6625SOL    HW120774   0.034   4.562   5.352
 6625SOL    HW220775   6.924   4.656   5.390
 6626SOL     OW20776   3.067   5.605   5.926
 6626SOL    HW120777   3.130   5.654   5.987
 6626SOL    HW220778   3.119   5.540   5.870
 6627SOL     OW20779   2.608   6.586   4.434
 6627SOL    HW120780   2.538   6.655   4.417
 6627SOL    HW220781   2.573   6.497   4.403
 6628SOL     OW20782   3.621   0.156   3.440
 6628SOL    HW120783   3.581   0.131   3.528
 6628SOL    HW220784   3.675   0.239   3.450
 6629SOL     OW20785   4.969   5.910   4.796
 6629SOL    HW120786   4.873   5.884   4.785
 6629SOL    HW220787   4.991   5.986   4.735
 6630SOL     OW20788   2.099   7.016   0.426
 6630SOL    HW120789   2.062   6.971   0.507
 6630SOL    HW220790   2.077   0.096   0.429
 6631SOL     OW20791   1.462   2.465   5.402
 6631SOL    HW120792   1.442   2.408   5.483
 6631SOL    HW220793   1.558   2.457   5.379
 6632SOL     OW20794   1.272   0.088   6.563
 6632SOL    HW120795   1.224   0.103   6.477
 6632SOL    HW220796   1.230   0.143   6.635
 6633SOL     OW20797   4.664   6.735   6.024
 6633SOL    HW120798   4.569   6.755   5.999
 6633SOL    HW220799   4.722   6.811   5.997
 6634SOL     OW20800   2.764   2.363   4.014
 6634SOL    HW120801   2.712   2.431   3.963
 6634SOL    HW220802   2.723   2.273   4.002
 6635SOL     OW20803   5.041   5.965   5.985
 6635SOL    HW120804   4.986   5.882   5.985
 6635SOL    HW220805   5.134   5.944   6.016
 6636SOL     OW20806   4.043   1.337   1.023
 6636SOL    HW120807   4.059   1.411   0.958
 6636SOL    HW220808   4.043   1.374   1.116
 6637SOL     OW20809   7.006   2.035   6.791
 6637SOL    HW120810   7.009   2.105   6.720
 6637SOL    HW220811   0.048   2.061   6.867
 6638SOL     OW20812   2.882   3.609   3.698
 6638SOL    HW120813   2.870   3.514   3.668
 6638SOL    HW220814   2.866   3.614   3.797
 6639SOL     OW20815   4.527   2.913   1.200
 6639SOL    HW120816   4.556   2.892   1.293
 6639SOL    HW220817   4.533   2.831   1.143
 6640SOL     OW20818   1.038   3.787   4.503
 6640SOL    HW120819   1.050   3.845   4.585
 6640SOL    HW220820   1.006   3.697   4.531
 6641SOL     OW20821   5.824   2.590   7.006
 6641SOL    HW120822   5.845   2.497   6.977
 6641SOL    HW220823   5.780   2.588   0.079
 6642SOL     OW20824   1.049   5.026   6.027
 6642SOL    HW120825   1.112   5.102   6.011
 6642SOL    HW220826   1.076   4.977   6.110
 6643SOL     OW20827   4.315   5.778   6.099
 6643SOL    HW120828   4.236   5.718   6.111
 6643SOL    HW220829   4.332   5.829   6.184
 6644SOL     OW20830   1.848   0.409   3.597
 6644SOL    HW120831   1.756   0.385   3.566
 6644SOL    HW220832   1.890   0.471   3.531
 6645SOL     OW20833   4.848   2.552   5.404
 6645SOL    HW120834   4.809   2.640   5.430
 6645SOL    HW220835   4.793   2.511   5.331
 6646SOL     OW20836   5.023   0.433   6.468
 6646SOL    HW120837   5.107   0.395   6.430
 6646SOL    HW220838   4.983   0.367   6.532
 6647SOL     OW20839   4.084   4.649   1.176
 6647SOL    HW120840   4.174   4.605   1.187
 6647SOL    HW220841   4.083   4.700   1.091
 6648SOL     OW20842   3.375   5.406   5.474
 6648SOL    HW120843   3.441   5.332   5.490
 6648SOL    HW220844   3.286   5.366   5.450
 6649SOL     OW20845   5.231   2.551   6.062
 6649SOL    HW120846   5.166   2.615   6.103
 6649SOL    HW220847   5.308   2.601   6.022
 6650SOL     OW20848   2.406   1.184   4.780
 6650SOL    HW120849   2.322   1.135   4.755
 6650SOL    HW220850   2.480   1.119   4.794
 6651SOL     OW20851   6.696   1.291   4.111
 6651SOL    HW120852   6.792   1.265   4.104
 6651SOL    HW220853   6.644   1.246   4.038
 6652SOL     OW20854   0.114   4.497   6.597
 6652SOL    HW120855   0.165   4.564   6.543
 6652SOL    HW220856   0.017   4.505   6.577
 6653SOL     OW20857   5.534   4.178   6.733
 6653SOL    HW120858   5.481   4.194   6.817
 6653SOL    HW220859   5.477   4.198   6.653
 6654SOL     OW20860   6.642   2.043   3.250
 6654SOL    HW120861   6.606   1.952   3.271
 6654SOL    HW220862   6.618   2.068   3.157
 6655SOL     OW20863   6.972   6.046   1.320
 6655SOL    HW120864   0.032   6.108   1.320
 6655SOL    HW220865   6.987   5.973   1.386
 6656SOL     OW20866   4.530   1.318   2.230
 6656SOL    HW120867   4.495   1.273   2.312
 6656SOL    HW220868   4.539   1.417   2.247
 6657SOL     OW20869   4.776   2.092   4.553
 6657SOL    HW120870   4.795   2.186   4.581
 6657SOL    HW220871   4.855   2.035   4.572
 6658SOL     OW20872   6.634   5.870   4.712
 6658SOL    HW120873   6.722   5.827   4.732
 6658SOL    HW220874   6.642   5.969   4.726
 6659SOL     OW20875   0.507   6.216   0.813
 6659SOL    HW120876   0.418   6.225   0.858
 6659SOL    HW220877   0.531   6.302   0.769
 6660SOL     OW20878   0.851   0.064   4.324
 6660SOL    HW120879   0.929   0.005   4.303
 6660SOL    HW220880   0.780   0.010   4.370
 6661SOL     OW20881   3.983   6.535   3.944
 6661SOL    HW120882   4.048   6.570   3.876
 6661SOL    HW220883   3.899   6.588   3.939
 6662SOL     OW20884   3.366   6.901   2.277
 6662SOL    HW120885   3.389   6.821   2.332
 6662SOL    HW220886   3.268   6.919   2.281
 6663SOL     OW20887   1.519   4.207   5.559
 6663SOL    HW120888   1.493   4.301   5.581
 6663SOL    HW220889   1.572   4.206   5.474
 6664SOL     OW20890   3.118   0.320   2.142
 6664SOL    HW120891   3.205   0.295   2.100
 6664SOL    HW220892   3.108   0.272   2.229
 6665SOL     OW20893   2.844   0.941   0.335
 6665SOL    HW120894   2.816   0.981   0.422
 6665SOL    HW220895   2.829   0.842   0.338
 6666SOL     OW20896   2.716   5.767   5.712
 6666SOL    HW120897   2.763   5.783   5.626
 6666SOL    HW220898   2.742   5.677   5.748
 6667SOL     OW20899   1.898   5.628   0.490
 6667SOL    HW120900   1.966   5.698   0.513
 6667SOL    HW220901   1.944   5.541   0.470
 6668SOL     OW20902   6.961   3.641   6.411
 6668SOL    HW120903   0.011   3.664   6.481
 6668SOL    HW220904   6.938   3.722   6.358
 6669SOL     OW20905   0.788   2.959   3.352
 6669SOL    HW120906   0.819   2.868   3.379
 6669SOL    HW220907   0.775   2.962   3.252
 6670SOL     OW20908   2.809   3.884   0.492
 6670SOL    HW120909   2.852   3.941   0.422
 6670SOL    HW220910   2.809   3.788   0.461
 6671SOL     OW20911   4.564   5.052   0.517
 6671SOL    HW120912   4.606   5.041   0.427
 6671SOL    HW220913   4.591   4.977   0.577
 6672SOL     OW20914   1.698   2.941   1.297
 6672SOL    HW120915   1.644   2.882   1.237
 6672SOL    HW220916   1.681   2.916   1.392
 6673SOL     OW20917   5.766   3.853   3.885
 6673SOL    HW120918   5.769   3.758   3.854
 6673SOL    HW220919   5.833   3.867   3.957
 6674SOL     OW20920   6.695   0.409   0.376
 6674SOL    HW120921   6.761   0.484   0.369
 6674SOL    HW220922   6.677   0.371   0.285
 6675SOL     OW20923   4.304   1.099   0.284
 6675SOL    HW120924   4.378   1.039   0.314
 6675SOL    HW220925   4.329   1.142   0.197
 6676SOL     OW20926   0.649   4.247   5.116
 6676SOL    HW120927   0.565   4.194   5.129
 6676SOL    HW220928   0.675   4.246   5.020
 6677SOL     OW20929   0.273   2.206   6.903
 6677SOL    HW120930   0.217   2.288   6.913
 6677SOL    HW220931   0.302   2.197   6.807
 6678SOL     OW20932   2.686   4.262   6.661
 6678SOL    HW120933   2.727   4.330   6.601
 6678SOL    HW220934   2.588   4.279   6.668
 6679SOL     OW20935   1.309   0.571   4.380
 6679SOL    HW120936   1.379   0.592   4.312
 6679SOL    HW220937   1.237   0.516   4.338
 6680SOL     OW20938   6.154   5.246   1.737
 6680SOL    HW120939   6.239   5.281   1.699
 6680SOL    HW220940   6.077   5.295   1.696
 6681SOL     OW20941   3.007   5.813   1.068
 6681SOL    HW120942   2.939   5.885   1.058
 6681SOL    HW220943   2.964   5.730   1.103
 6682SOL     OW20944   2.571   5.283   6.542
 6682SOL    HW120945   2.523   5.366   6.570
 6682SOL    HW220946   2.512   5.204   6.557
 6683SOL     OW20947   6.556   6.175   6.113
 6683SOL    HW120948   6.515   6.241   6.176
 6683SOL    HW220949   6.644   6.211   6.081
 6684SOL     OW20950   2.521   6.024   6.091
 6684SOL    HW120951   2.431   6.002   6.052
 6684SOL    HW220952   2.591   6.012   6.022
 6685SOL     OW20953   3.991   2.341   0.951
 6685SOL    HW120954   3.925   2.305   0.885
 6685SOL    HW220955   4.063   2.273   0.966
 6686SOL     OW20956   4.571   4.732   5.461
 6686SOL    HW120957   4.500   4.721   5.392
 6686SOL    HW220958   4.648   4.672   5.440
 6687SOL     OW20959   0.551   2.225   1.358
 6687SOL    HW120960   0.507   2.293   1.416
 6687SOL    HW220961   0.648   2.247   1.347
 6688SOL     OW20962   4.955   5.638   0.643
 6688SOL    HW120963   4.881   5.662   0.580
 6688SOL    HW220964   4.953   5.540   0.660
 6689SOL     OW20965   3.276   5.151   6.192
 6689SOL    HW120966   3.220   5.126   6.271
 6689SOL    HW220967   3.296   5.250   6.195
 6690SOL     OW20968   1.227   0.477   0.631
 6690SOL    HW120969   1.135   0.449   0.605
 6690SOL    HW220970   1.274   0.515   0.551
 6691SOL     OW20971   2.612   1.786   2.036
 6691SOL    HW120972   2.684   1.823   2.094
 6691SOL    HW220973   2.624   1.687   2.027
 6692SOL     OW20974   4.317   6.581   2.146
 6692SOL    HW120975   4.251   6.519   2.104
 6692SOL    HW220976   4.362   6.536   2.222
 6693SOL     OW20977   3.292   1.454   5.838
 6693SOL    HW120978   3.305   1.553   5.828
 6693SOL    HW220979   3.199   1.430   5.808
 6694SOL     OW20980   4.322   3.965   1.581
 6694SOL    HW120981   4.401   4.027   1.576
 6694SOL    HW220982   4.257   3.999   1.649
 6695SOL     OW20983   2.707   2.624   0.424
 6695SOL    HW120984   2.793   2.575   0.411
 6695SOL    HW220985   2.712   2.713   0.378
 6696SOL     OW20986   3.879   2.936   5.203
 6696SOL    HW120987   3.893   2.952   5.300
 6696SOL    HW220988   3.802   2.873   5.190
 6697SOL     OW20989   4.560   2.210   2.446
 6697SOL    HW120990   4.537   2.116   2.420
 6697SOL    HW220991   4.494   2.273   2.406
 6698SOL     OW20992   2.753   3.627   1.585
 6698SOL    HW120993   2.786   3.652   1.676
 6698SOL    HW220994   2.831   3.604   1.527
 6699SOL     OW20995   1.539   3.139   6.451
 6699SOL    HW120996   1.477   3.216   6.466
 6699SOL    HW220997   1.557   3.130   6.353
 6700SOL     OW20998   5.643   0.969   1.225
 6700SOL    HW120999   5.624   0.948   1.129
 6700SOL    HW221000   5.556   0.987   1.272
 6701SOL     OW21001   5.666   0.186   1.510
 6701SOL    HW121002   5.592   0.124   1.536
 6701SOL    HW221003   5.754   0.140   1.522
 6702SOL     OW21004   4.016   2.751   1.049
 6702SOL    HW121005   3.999   2.815   1.124
 6702SOL    HW221006   4.077   2.678   1.081
 6703SOL     OW21007   0.812   1.449   0.186
 6703SOL    HW121008   0.812   1.377   0.117
 6703SOL    HW221009   0.830   1.537   0.143
 6704SOL     OW21010   3.120   6.967   5.477
 6704SOL    HW121011   3.100   0.015   5.550
 6704SOL    HW221012   3.212   6.931   5.490
 6705SOL     OW21013   0.060   4.583   2.131
 6705SOL    HW121014   7.000   4.646   2.122
 6705SOL    HW221015   0.089   4.553   2.041
 6706SOL     OW21016   7.004   5.909   0.452
 6706SOL    HW121017   6.997   5.817   0.413
 6706SOL    HW221018   0.080   5.943   0.440
 6707SOL     OW21019   4.472   1.100   2.833
 6707SOL    HW121020   4.382   1.097   2.877
 6707SOL    HW221021   4.474   1.037   2.756
 6708SOL     OW21022   0.537   2.857   0.476
 6708SOL    HW121023   0.534   2.893   0.569
 6708SOL    HW221024   0.539   2.933   0.411
 6709SOL     OW21025   2.390   4.229   1.892
 6709SOL    HW121026   2.344   4.177   1.965
 6709SOL    HW221027   2.454   4.294   1.933
 6710SOL     OW21028   4.674   1.903   1.326
 6710SOL    HW121029   4.728   1.962   1.387
 6710SOL    HW221030   4.735   1.843   1.275
 6711SOL     OW21031   4.068   5.998   6.402
 6711SOL    HW121032   3.992   5.955   6.355
 6711SOL    HW221033   4.148   5.999   6.342
 6712SOL     OW21034   5.343   3.727   1.200
 6712SOL    HW121035   5.415   3.784   1.241
 6712SOL    HW221036   5.263   3.783   1.181
 6713SOL     OW21037   1.785   4.066   4.208
 6713SOL    HW121038   1.728   4.137   4.250
 6713SOL    HW221039   1.734   4.023   4.133
 6714SOL     OW21040   5.483   1.574   1.932
 6714SOL    HW121041   5.430   1.492   1.954
 6714SOL    HW221042   5.428   1.655   1.948
 6715SOL     OW21043   1.104   0.463   5.962
 6715SOL    HW121044   1.104   0.551   5.913
 6715SOL    HW221045   1.039   0.467   6.037
 6716SOL     OW21046   1.253   5.285   1.639
 6716SOL    HW121047   1.161   5.255   1.610
 6716SOL    HW221048   1.281   5.232   1.719
 6717SOL     OW21049   6.636   2.078   5.268
 6717SOL    HW121050   6.625   2.064   5.169
 6717SOL    HW221051   6.579   2.155   5.297
 6718SOL     OW21052   4.498   1.995   1.104
 6718SOL    HW121053   4.531   1.949   1.187
 6718SOL    HW221054   4.408   1.959   1.080
 6719SOL     OW21055   1.790   1.291   0.635
 6719SOL    HW121056   1.854   1.339   0.575
 6719SOL    HW221057   1.724   1.241   0.580
 6720SOL     OW21058   1.297   1.684   5.430
 6720SOL    HW121059   1.263   1.725   5.345
 6720SOL    HW221060   1.290   1.585   5.424
 6721SOL     OW21061   6.655   6.213   0.122
 6721SOL    HW121062   6.692   6.141   0.180
 6721SOL    HW221063   6.717   6.229   0.045
 6722SOL     OW21064   6.109   4.746   0.763
 6722SOL    HW121065   6.093   4.776   0.857
 6722SOL    HW221066   6.049   4.668   0.743
 6723SOL     OW21067   1.475   3.171   4.164
 6723SOL    HW121068   1.435   3.262   4.151
 6723SOL    HW221069   1.491   3.155   4.261
 6724SOL     OW21070   1.877   3.712   4.722
 6724SOL    HW121071   1.868   3.806   4.690
 6724SOL    HW221072   1.974   3.685   4.720
 6725SOL     OW21073   4.880   3.291   4.256
 6725SOL    HW121074   4.897   3.243   4.342
 6725SOL    HW221075   4.963   3.291   4.200
 6726SOL     OW21076   0.072   1.446   6.742
 6726SOL    HW121077   0.013   1.479   6.815
 6726SOL    HW221078   0.020   1.441   6.656
 6727SOL     OW21079   0.671   4.941   5.263
 6727SOL    HW121080   0.763   4.937   5.224
 6727SOL    HW221081   0.617   4.864   5.230
 6728SOL     OW21082   3.531   1.197   4.257
 6728SOL    HW121083   3.548   1.295   4.251
 6728SOL    HW221084   3.435   1.180   4.280
 6729SOL     OW21085   4.067   0.950   1.673
 6729SOL    HW121086   4.061   1.043   1.709
 6729SOL    HW221087   4.145   0.944   1.610
 6730SOL     OW21088   0.359   1.860   0.755
 6730SOL    HW121089   0.334   1.902   0.842
 6730SOL    HW221090   0.342   1.924   0.680
 6731SOL     OW21091   3.777   0.279   6.313
 6731SOL    HW121092   3.875   0.277   6.333
 6731SOL    HW221093   3.748   0.191   6.275
 6732SOL     OW21094   6.372   4.906   5.707
 6732SOL    HW121095   6.427   4.988   5.689
 6732SOL    HW221096   6.432   4.827   5.717
 6733SOL     OW21097   5.208   5.270   5.111
 6733SOL    HW121098   5.233   5.240   5.019
 6733SOL    HW221099   5.110   5.292   5.113
 6734SOL     OW21100   5.868   2.383   5.126
 6734SOL    HW121101   5.877   2.290   5.090
 6734SOL    HW221102   5.851   2.380   5.224
 6735SOL     OW21103   5.364   2.881   4.371
 6735SOL    HW121104   5.353   2.979   4.354
 6735SOL    HW221105   5.462   2.859   4.374
 6736SOL     OW21106   3.561   4.136   0.419
 6736SOL    HW121107   3.553   4.191   0.503
 6736SOL    HW221108   3.646   4.084   0.422
 6737SOL     OW21109   6.237   3.659   0.720
 6737SOL    HW121110   6.153   3.702   0.752
 6737SOL    HW221111   6.281   3.612   0.797
 6738SOL     OW21112   2.271   6.504   4.491
 6738SOL    HW121113   2.201   6.467   4.552
 6738SOL    HW221114   2.333   6.431   4.462
 6739SOL     OW21115   6.860   0.069   5.924
 6739SOL    HW121116   6.779   0.024   5.888
 6739SOL    HW221117   6.862   0.164   5.892
 6740SOL     OW21118   0.468   6.712   1.820
 6740SOL    HW121119   0.508   6.790   1.867
 6740SOL    HW221120   0.439   6.644   1.888
 6741SOL     OW21121   3.405   1.915   0.629
 6741SOL    HW121122   3.358   1.963   0.703
 6741SOL    HW221123   3.339   1.891   0.558
 6742SOL     OW21124   6.538   4.365   2.262
 6742SOL    HW121125   6.602   4.421   2.210
 6742SOL    HW221126   6.445   4.385   2.234
 6743SOL     OW21127   3.815   3.770   6.855
 6743SOL    HW121128   3.726   3.723   6.852
 6743SOL    HW221129   3.800   3.869   6.851
 6744SOL     OW21130   6.665   6.872   5.714
 6744SOL    HW121131   6.717   6.838   5.635
 6744SOL    HW221132   6.675   6.808   5.790
 6745SOL     OW21133   6.508   3.641   5.576
 6745SOL    HW121134   6.487   3.737   5.596
 6745SOL    HW221135   6.597   3.617   5.615
 6746SOL     OW21136   1.331   2.302   2.790
 6746SOL    HW121137   1.346   2.271   2.884
 6746SOL    HW221138   1.237   2.335   2.780
 6747SOL     OW21139   1.368   6.191   4.799
 6747SOL    HW121140   1.412   6.279   4.813
 6747SOL    HW221141   1.283   6.203   4.747
 6748SOL     OW21142   1.668   1.296   4.827
 6748SOL    HW121143   1.654   1.355   4.907
 6748SOL    HW221144   1.694   1.352   4.749
 6749SOL     OW21145   4.200   5.061   2.230
 6749SOL    HW121146   4.287   5.099   2.262
 6749SOL    HW221147   4.134   5.135   2.216
 6750SOL     OW21148   3.472   1.199   5.511
 6750SOL    HW121149   3.377   1.184   5.538
 6750SOL    HW221150   3.532   1.142   5.568
 6751SOL     OW21151   4.106   0.908   4.493
 6751SOL    HW121152   4.036   0.970   4.530
 6751SOL    HW221153   4.196   0.948   4.505
 6752SOL     OW21154   2.058   4.958   2.478
 6752SOL    HW121155   1.976   4.922   2.523
 6752SOL    HW221156   2.034   5.044   2.432
 6753SOL     OW21157   3.723   4.344   0.329
 6753SOL    HW121158   3.680   4.256   0.349
 6753SOL    HW221159   3.797   4.331   0.262
 6754SOL     OW21160   6.451   1.108   0.606
 6754SOL    HW121161   6.481   1.040   0.673
 6754SOL    HW221162   6.395   1.064   0.536
 6755SOL     OW21163   3.394   5.785   5.881
 6755SOL    HW121164   3.466   5.814   5.818
 6755SOL    HW221165   3.311   5.837   5.862
 6756SOL     OW21166   3.791   3.182   6.265
 6756SOL    HW121167   3.820   3.247   6.195
 6756SOL    HW221168   3.695   3.197   6.287
 6757SOL     OW21169   4.290   0.078   1.383
 6757SOL    HW121170   4.303   7.013   1.329
 6757SOL    HW221171   4.199   0.077   1.425
 6758SOL     OW21172   5.339   3.375   3.008
 6758SOL    HW121173   5.284   3.302   2.969
 6758SOL    HW221174   5.366   3.439   2.936
 6759SOL     OW21175   1.428   1.722   2.526
 6759SOL    HW121176   1.379   1.637   2.544
 6759SOL    HW221177   1.382   1.797   2.573
 6760SOL     OW21178   5.852   2.060   5.461
 6760SOL    HW121179   5.867   2.154   5.492
 6760SOL    HW221180   5.764   2.054   5.414
 6761SOL     OW21181   3.140   0.713   5.198
 6761SOL    HW121182   3.085   0.662   5.132
 6761SOL    HW221183   3.131   0.811   5.181
 6762SOL     OW21184   5.847   4.777   4.439
 6762SOL    HW121185   5.889   4.843   4.377
 6762SOL    HW221186   5.814   4.824   4.521
 6763SOL     OW21187   5.837   6.871   3.965
 6763SOL    HW121188   5.747   6.843   4.000
 6763SOL    HW221189   5.825   6.930   3.885
 6764SOL     OW21190   0.391   4.905   1.731
 6764SOL    HW121191   0.341   4.824   1.762
 6764SOL    HW221192   0.404   4.899   1.632
 6765SOL     OW21193   0.205   3.777   2.422
 6765SOL    HW121194   0.122   3.831   2.408
 6765SOL    HW221195   0.183   3.697   2.477
 6766SOL     OW21196   6.001   0.245   0.884
 6766SOL    HW121197   5.920   0.214   0.934
 6766SOL    HW221198   6.042   0.323   0.931
 6767SOL     OW21199   3.182   0.576   1.375
 6767SOL    HW121200   3.165   0.652   1.437
 6767SOL    HW221201   3.108   0.572   1.307
 6768SOL     OW21202   1.893   6.773   6.768
 6768SOL    HW121203   1.803   6.782   6.810
 6768SOL    HW221204   1.961   6.821   6.824
 6769SOL     OW21205   4.894   3.196   0.997
 6769SOL    HW121206   4.796   3.203   0.977
 6769SOL    HW221207   4.913   3.234   1.088
 6770SOL     OW21208   0.056   1.435   1.541
 6770SOL    HW121209   0.047   1.382   1.625
 6770SOL    HW221210   0.154   1.447   1.519
 6771SOL     OW21211   4.995   1.713   3.392
 6771SOL    HW121212   4.932   1.739   3.465
 6771SOL    HW221213   5.077   1.770   3.397
 6772SOL     OW21214   3.753   1.780   4.468
 6772SOL    HW121215   3.793   1.690   4.446
 6772SOL    HW221216   3.663   1.787   4.427
 6773SOL     OW21217   0.374   3.850   1.447
 6773SOL    HW121218   0.423   3.808   1.371
 6773SOL    HW221219   0.336   3.778   1.506
 6774SOL     OW21220   0.984   2.495   6.445
 6774SOL    HW121221   0.903   2.460   6.398
 6774SOL    HW221222   1.059   2.505   6.380
 6775SOL     OW21223   1.103   3.997   6.917
 6775SOL    HW121224   1.093   3.922   6.982
 6775SOL    HW221225   1.096   3.961   6.823
 6776SOL     OW21226   5.799   6.015   6.755
 6776SOL    HW121227   5.810   5.947   6.827
 6776SOL    HW221228   5.705   6.012   6.720
 6777SOL     OW21229   4.727   5.241   6.751
 6777SOL    HW121230   4.789   5.310   6.788
 6777SOL    HW221231   4.735   5.239   6.651
 6778SOL     OW21232   6.495   6.082   3.172
 6778SOL    HW121233   6.486   6.119   3.080
 6778SOL    HW221234   6.406   6.051   3.205
 6779SOL     OW21235   6.012   3.614   6.111
 6779SOL    HW121236   6.042   3.563   6.191
 6779SOL    HW221237   5.930   3.667   6.134
 6780SOL     OW21238   0.730   3.291   1.802
 6780SOL    HW121239   0.779   3.247   1.876
 6780SOL    HW221240   0.658   3.350   1.839
 6781SOL     OW21241   5.995   5.258   5.629
 6781SOL    HW121242   5.971   5.346   5.670
 6781SOL    HW221243   6.046   5.202   5.694
 6782SOL     OW21244   5.819   1.004   3.520
 6782SOL    HW121245   5.882   0.960   3.456
 6782SOL    HW221246   5.742   0.944   3.539
 6783SOL     OW21247   1.138   5.766   6.535
 6783SOL    HW121248   1.049   5.743   6.575
 6783SOL    HW221249   1.127   5.787   6.438
 6784SOL     OW21250   4.033   3.231   0.160
 6784SOL    HW121251   4.060   3.177   0.080
 6784SOL    HW221252   3.997   3.170   0.231
 6785SOL     OW21253   5.948   5.198   2.140
 6785SOL    HW121254   5.971   5.288   2.177
 6785SOL    HW221255   5.875   5.207   2.072
 6786SOL     OW21256   1.745   3.644   5.754
 6786SOL    HW121257   1.762   3.578   5.827
 6786SOL    HW221258   1.647   3.645   5.733
 6787SOL     OW21259   0.933   4.112   1.416
 6787SOL    HW121260   0.927   4.211   1.431
 6787SOL    HW221261   0.963   4.096   1.321
 6788SOL     OW21262   2.667   4.160   1.019
 6788SOL    HW121263   2.652   4.214   0.936
 6788SOL    HW221264   2.754   4.111   1.011
 6789SOL     OW21265   0.873   5.416   3.638
 6789SOL    HW121266   0.791   5.465   3.670
 6789SOL    HW221267   0.849   5.321   3.620
 6790SOL     OW21268   1.210   2.356   0.911
 6790SOL    HW121269   1.254   2.437   0.873
 6790SOL    HW221270   1.247   2.274   0.866
 6791SOL     OW21271   3.112   3.935   6.069
 6791SOL    HW121272   3.065   3.890   5.993
 6791SOL    HW221273   3.205   3.900   6.077
 6792SOL     OW21274   0.326   4.819   0.314
 6792SOL    HW121275   0.391   4.743   0.318
 6792SOL    HW221276   0.351   4.880   0.238
 6793SOL     OW21277   5.944   1.458   1.574
 6793SOL    HW121278   5.881   1.440   1.650
 6793SOL    HW221279   5.902   1.525   1.512
 6794SOL     OW21280   4.141   1.248   4.280
 6794SOL    HW121281   4.057   1.207   4.316
 6794SOL    HW221282   4.205   1.262   4.356
 6795SOL     OW21283   3.626   6.329   0.163
 6795SOL    HW121284   3.687   6.365   0.234
 6795SOL    HW221285   3.620   6.395   0.088
 6796SOL     OW21286   3.797   1.825   3.007
 6796SOL    HW121287   3.848   1.904   3.040
 6796SOL    HW221288   3.861   1.755   2.975
 6797SOL     OW21289   6.739   2.174   1.954
 6797SOL    HW121290   6.822   2.146   1.906
 6797SOL    HW221291   6.671   2.204   1.887
 6798SOL     OW21292   6.611   0.286   2.539
 6798SOL    HW121293   6.623   0.379   2.573
 6798SOL    HW221294   6.662   0.275   2.454
 6799SOL     OW21295   5.111   5.714   1.881
 6799SOL    HW121296   5.083   5.640   1.942
 6799SOL    HW221297   5.075   5.801   1.915
 6800SOL     OW21298   3.379   3.970   6.688
 6800SOL    HW121299   3.365   3.872   6.671
 6800SOL    HW221300   3.364   4.021   6.604
 6801SOL     OW21301   1.296   2.751   2.829
 6801SOL    HW121302   1.309   2.835   2.881
 6801SOL    HW221303   1.322   2.673   2.886
 6802SOL     OW21304   2.662   4.701   2.695
 6802SOL    HW121305   2.612   4.655   2.622
 6802SOL    HW221306   2.743   4.745   2.658
 6803SOL     OW21307   3.788   2.676   0.881
 6803SOL    HW121308   3.878   2.645   0.912
 6803SOL    HW221309   3.750   2.609   0.818
 6804SOL     OW21310   1.116   0.072   3.855
 6804SOL    HW121311   1.046   0.081   3.784
 6804SOL    HW221312   1.117   0.154   3.912
 6805SOL     OW21313   5.885   1.169   5.103
 6805SOL    HW121314   5.852   1.250   5.151
 6805SOL    HW221315   5.807   1.121   5.061
 6806SOL     OW21316   5.280   6.487   5.100
 6806SOL    HW121317   5.239   6.553   5.037
 6806SOL    HW221318   5.369   6.521   5.131
 6807SOL     OW21319   3.585   3.614   6.796
 6807SOL    HW121320   3.547   3.530   6.836
 6807SOL    HW221321   3.513   3.683   6.791
 6808SOL     OW21322   2.133   3.267   3.850
 6808SOL    HW121323   2.144   3.174   3.814
 6808SOL    HW221324   2.077   3.320   3.786
 6809SOL     OW21325   1.666   3.416   6.992
 6809SOL    HW121326   1.581   3.375   6.958
 6809SOL    HW221327   1.646   3.506   0.013
 6810SOL     OW21328   5.621   1.536   3.346
 6810SOL    HW121329   5.633   1.571   3.253
 6810SOL    HW221330   5.701   1.480   3.371
 6811SOL     OW21331   4.616   5.564   2.283
 6811SOL    HW121332   4.705   5.520   2.294
 6811SOL    HW221333   4.626   5.646   2.227
 6812SOL     OW21334   3.362   3.334   2.461
 6812SOL    HW121335   3.426   3.259   2.477
 6812SOL    HW221336   3.375   3.371   2.369
 6813SOL     OW21337   5.336   3.492   0.935
 6813SOL    HW121338   5.240   3.503   0.906
 6813SOL    HW221339   5.396   3.534   0.866
 6814SOL     OW21340   2.421   3.100   0.720
 6814SOL    HW121341   2.465   3.063   0.802
 6814SOL    HW221342   2.481   3.169   0.679
 6815SOL     OW21343   1.241   0.243   1.244
 6815SOL    HW121344   1.266   0.275   1.336
 6815SOL    HW221345   1.228   0.321   1.184
 6816SOL     OW21346   6.292   4.045   1.161
 6816SOL    HW121347   6.331   4.137   1.155
 6816SOL    HW221348   6.281   4.008   1.069
 6817SOL     OW21349   0.610   2.474   6.504
 6817SOL    HW121350   0.636   2.560   6.548
 6817SOL    HW221351   0.668   2.459   6.423
 6818SOL     OW21352   3.871   5.311   1.541
 6818SOL    HW121353   3.864   5.217   1.574
 6818SOL    HW221354   3.851   5.314   1.443
 6819SOL     OW21355   3.148   1.638   3.858
 6819SOL    HW121356   3.192   1.727   3.871
 6819SOL    HW221357   3.216   1.570   3.831
 6820SOL     OW21358   2.179   5.230   4.293
 6820SOL    HW121359   2.193   5.256   4.388
 6820SOL    HW221360   2.100   5.169   4.286
 6821SOL     OW21361   2.355   2.826   4.271
 6821SOL    HW121362   2.255   2.821   4.267
 6821SOL    HW221363   2.389   2.764   4.342
 6822SOL     OW21364   5.010   1.639   6.160
 6822SOL    HW121365   5.022   1.735   6.138
 6822SOL    HW221366   4.939   1.629   6.229
 6823SOL     OW21367   4.030   3.429   2.008
 6823SOL    HW121368   3.990   3.388   1.925
 6823SOL    HW221369   3.987   3.389   2.089
 6824SOL     OW21370   1.449   4.777   5.898
 6824SOL    HW121371   1.424   4.683   5.877
 6824SOL    HW221372   1.403   4.805   5.983
 6825SOL     OW21373   5.638   6.963   3.765
 6825SOL    HW121374   5.583   0.025   3.741
 6825SOL    HW221375   5.720   6.960   3.707
 6826SOL     OW21376   0.905   3.142   2.711
 6826SOL    HW121377   0.980   3.085   2.745
 6826SOL    HW221378   0.862   3.096   2.633
 6827SOL     OW21379   5.683   6.320   4.951
 6827SOL    HW121380   5.773   6.277   4.942
 6827SOL    HW221381   5.612   6.249   4.949
 6828SOL     OW21382   2.256   1.882   1.373
 6828SOL    HW121383   2.165   1.909   1.341
 6828SOL    HW221384   2.288   1.947   1.441
 6829SOL     OW21385   5.501   4.990   3.667
 6829SOL    HW121386   5.503   4.930   3.747
 6829SOL    HW221387   5.408   4.992   3.629
 6830SOL     OW21388   5.091   2.087   4.187
 6830SOL    HW121389   5.104   2.139   4.271
 6830SOL    HW221390   5.113   2.145   4.108
 6831SOL     OW21391   6.780   1.523   6.042
 6831SOL    HW121392   6.712   1.455   6.069
 6831SOL    HW221393   6.777   1.535   5.942
 6832SOL     OW21394   3.071   5.547   1.744
 6832SOL    HW121395   3.053   5.604   1.664
 6832SOL    HW221396   3.014   5.465   1.740
 6833SOL     OW21397   4.392   5.547   6.999
 6833SOL    HW121398   4.427   5.473   6.943
 6833SOL    HW221399   4.298   5.526   0.010
 6834SOL     OW21400   3.440   5.556   2.413
 6834SOL    HW121401   3.465   5.578   2.318
 6834SOL    HW221402   3.405   5.639   2.458
 6835SOL     OW21403   4.306   0.078   4.779
 6835SOL    HW121404   4.230   0.027   4.820
 6835SOL    HW221405   4.360   0.122   4.851
 6836SOL     OW21406   3.916   5.524   6.747
 6836SOL    HW121407   3.831   5.576   6.737
 6836SOL    HW221408   3.898   5.440   6.797
 6837SOL     OW21409   0.495   3.060   2.781
 6837SOL    HW121410   0.528   3.071   2.875
 6837SOL    HW221411   0.409   3.109   2.770
 6838SOL     OW21412   2.332   1.555   0.626
 6838SOL    HW121413   2.301   1.486   0.691
 6838SOL    HW221414   2.264   1.628   0.619
 6839SOL     OW21415   4.529   0.778   1.768
 6839SOL    HW121416   4.455   0.713   1.752
 6839SOL    HW221417   4.594   0.774   1.693
 6840SOL     OW21418   0.807   1.058   6.863
 6840SOL    HW121419   0.881   1.016   6.811
 6840SOL    HW221420   0.747   1.108   6.800
 6841SOL     OW21421   0.171   3.171   5.695
 6841SOL    HW121422   0.096   3.156   5.631
 6841SOL    HW221423   0.256   3.137   5.655
 6842SOL     OW21424   2.488   4.557   2.516
 6842SOL    HW121425   2.442   4.469   2.532
 6842SOL    HW221426   2.448   4.601   2.436
 6843SOL     OW21427   4.355   0.070   0.990
 6843SOL    HW121428   4.321   6.996   1.011
 6843SOL    HW221429   4.418   0.100   1.062
 6844SOL     OW21430   5.710   0.652   5.842
 6844SOL    HW121431   5.622   0.681   5.881
 6844SOL    HW221432   5.738   0.566   5.883
 6845SOL     OW21433   5.064   2.197   2.727
 6845SOL    HW121434   5.163   2.190   2.737
 6845SOL    HW221435   5.036   2.165   2.636
 6846SOL     OW21436   2.061   3.162   0.079
 6846SOL    HW121437   2.062   3.256   0.047
 6846SOL    HW221438   1.981   3.148   0.138
 6847SOL     OW21439   6.746   2.417   4.525
 6847SOL    HW121440   6.726   2.487   4.457
 6847SOL    HW221441   6.820   2.450   4.585
 6848SOL     OW21442   6.906   5.010   3.594
 6848SOL    HW121443   6.888   5.103   3.560
 6848SOL    HW221444   6.991   4.975   3.553
 6849SOL     OW21445   2.874   4.709   6.225
 6849SOL    HW121446   2.795   4.679   6.171
 6849SOL    HW221447   2.843   4.773   6.295
 6850SOL     OW21448   4.887   0.162   4.364
 6850SOL    HW121449   4.830   0.131   4.288
 6850SOL    HW221450   4.983   0.137   4.345
 6851SOL     OW21451   1.811   3.926   2.841
 6851SOL    HW121452   1.858   3.973   2.767
 6851SOL    HW221453   1.723   3.969   2.858
 6852SOL     OW21454   4.523   3.995   0.514
 6852SOL    HW121455   4.446   4.024   0.572
 6852SOL    HW221456   4.559   4.075   0.465
 6853SOL     OW21457   3.992   4.744   6.552
 6853SOL    HW121458   4.035   4.658   6.582
 6853SOL    HW221459   3.918   4.724   6.488
 6854SOL     OW21460   4.934   5.715   5.920
 6854SOL    HW121461   4.880   5.679   5.844
 6854SOL    HW221462   5.027   5.734   5.889
 6855SOL     OW21463   4.462   5.138   3.267
 6855SOL    HW121464   4.372   5.135   3.311
 6855SOL    HW221465   4.451   5.134   3.168
 6856SOL     OW21466   0.048   2.707   0.001
 6856SOL    HW121467   0.015   2.707   0.095
 6856SOL    HW221468   7.012   2.771   6.964
 6857SOL     OW21469   1.227   4.191   5.934
 6857SOL    HW121470   1.157   4.130   5.971
 6857SOL    HW221471   1.258   4.157   5.845
 6858SOL     OW21472   1.490   3.916   1.546
 6858SOL    HW121473   1.542   3.868   1.476
 6858SOL    HW221474   1.472   3.855   1.623
 6859SOL     OW21475   2.005   2.016   1.327
 6859SOL    HW121476   1.923   2.060   1.365
 6859SOL    HW221477   1.979   1.960   1.248
 6860SOL     OW21478   0.051   6.318   0.141
 6860SOL    HW121479   0.088   6.231   0.108
 6860SOL    HW221480   0.028   6.310   0.238
 6861SOL     OW21481   6.069   3.180   6.293
 6861SOL    HW121482   5.975   3.212   6.304
 6861SOL    HW221483   6.073   3.113   6.220
 6862SOL     OW21484   1.129   4.578   3.691
 6862SOL    HW121485   1.188   4.591   3.771
 6862SOL    HW221486   1.184   4.542   3.615
 6863SOL     OW21487   5.243   1.543   5.257
 6863SOL    HW121488   5.283   1.459   5.220
 6863SOL    HW221489   5.147   1.549   5.230
 6864SOL     OW21490   1.308   3.335   6.563
 6864SOL    HW121491   1.357   3.422   6.570
 6864SOL    HW221492   1.223   3.349   6.513
 6865SOL     OW21493   2.186   0.468   4.412
 6865SOL    HW121494   2.187   0.503   4.505
 6865SOL    HW221495   2.131   0.528   4.354
 6866SOL     OW21496   2.043   4.893   0.322
 6866SOL    HW121497   1.944   4.886   0.311
 6866SOL    HW221498   2.081   4.951   0.250
 6867SOL     OW21499   2.299   2.823   6.476
 6867SOL    HW121500   2.202   2.822   6.455
 6867SOL    HW221501   2.313   2.857   6.569
 6868SOL     OW21502   3.650   4.984   3.207
 6868SOL    HW121503   3.560   4.960   3.171
 6868SOL    HW221504   3.720   4.964   3.138
 6869SOL     OW21505   2.067   0.862   5.791
 6869SOL    HW121506   2.092   0.943   5.845
 6869SOL    HW221507   1.979   0.878   5.746
 6870SOL     OW21508   5.582   2.378   6.508
 6870SOL    HW121509   5.665   2.433   6.509
 6870SOL    HW221510   5.604   2.284   6.480
 6871SOL     OW21511   6.736   2.997   2.682
 6871SOL    HW121512   6.659   3.060   2.683
 6871SOL    HW221513   6.705   2.907   2.652
 6872SOL     OW21514   1.235   4.338   1.098
 6872SOL    HW121515   1.177   4.419   1.104
 6872SOL    HW221516   1.293   4.344   1.017
 6873SOL     OW21517   0.439   4.297   2.906
 6873SOL    HW121518   0.517   4.261   2.856
 6873SOL    HW221519   0.354   4.275   2.857
 6874SOL     OW21520   4.482   6.487   2.403
 6874SOL    HW121521   4.442   6.473   2.494
 6874SOL    HW221522   4.549   6.561   2.408
 6875SOL     OW21523   2.899   0.990   0.069
 6875SOL    HW121524   2.989   0.947   0.062
 6875SOL    HW221525   2.879   1.008   0.166
 6876SOL     OW21526   5.131   5.139   3.336
 6876SOL    HW121527   5.190   5.110   3.411
 6876SOL    HW221528   5.040   5.161   3.371
 6877SOL     OW21529   0.740   4.519   1.795
 6877SOL    HW121530   0.655   4.478   1.826
 6877SOL    HW221531   0.802   4.447   1.762
 6878SOL     OW21532   2.426   0.422   4.664
 6878SOL    HW121533   2.382   0.508   4.638
 6878SOL    HW221534   2.379   0.385   4.744
 6879SOL     OW21535   1.272   1.699   0.994
 6879SOL    HW121536   1.266   1.798   1.007
 6879SOL    HW221537   1.362   1.667   1.025
 6880SOL     OW21538   1.940   6.267   0.614
 6880SOL    HW121539   1.849   6.226   0.621
 6880SOL    HW221540   1.951   6.310   0.524
 6881SOL     OW21541   0.100   3.386   0.466
 6881SOL    HW121542   0.121   3.294   0.431
 6881SOL    HW221543   0.017   3.382   0.522
 6882SOL     OW21544   3.099   6.801   0.370
 6882SOL    HW121545   3.067   6.709   0.348
 6882SOL    HW221546   3.109   6.811   0.469
 6883SOL     OW21547   5.336   0.651   1.383
 6883SOL    HW121548   5.389   0.690   1.459
 6883SOL    HW221549   5.277   0.721   1.344
 6884SOL     OW21550   2.044   4.711   3.795
 6884SOL    HW121551   1.957   4.717   3.746
 6884SOL    HW221552   2.108   4.779   3.757
 6885SOL     OW21553   5.869   4.724   4.842
 6885SOL    HW121554   5.813   4.716   4.924
 6885SOL    HW221555   5.966   4.718   4.868
 6886SOL     OW21556   5.452   3.501   0.124
 6886SOL    HW121557   5.366   3.524   0.079
 6886SOL    HW221558   5.444   3.518   0.222
 6887SOL     OW21559   5.444   5.994   5.748
 6887SOL    HW121560   5.492   6.080   5.766
 6887SOL    HW221561   5.347   6.012   5.732
 6888SOL     OW21562   6.519   3.783   6.975
 6888SOL    HW121563   6.501   3.876   7.008
 6888SOL    HW221564   6.434   3.731   6.972
 6889SOL     OW21565   6.827   1.921   5.440
 6889SOL    HW121566   6.767   1.958   5.369
 6889SOL    HW221567   6.777   1.852   5.493
 6890SOL     OW21568   5.013   4.437   4.134
 6890SOL    HW121569   4.971   4.486   4.057
 6890SOL    HW221570   5.110   4.424   4.116
 6891SOL     OW21571   1.662   2.109   0.711
 6891SOL    HW121572   1.628   2.114   0.805
 6891SOL    HW221573   1.722   2.029   0.701
 6892SOL     OW21574   2.799   0.825   5.395
 6892SOL    HW121575   2.847   0.742   5.366
 6892SOL    HW221576   2.855   0.905   5.374
 6893SOL     OW21577   6.015   2.696   0.310
 6893SOL    HW121578   6.071   2.656   0.383
 6893SOL    HW221579   5.988   2.789   0.336
 6894SOL     OW21580   5.521   4.927   6.917
 6894SOL    HW121581   5.615   4.932   6.951
 6894SOL    HW221582   5.464   4.880   6.984
 6895SOL     OW21583   0.842   5.391   2.227
 6895SOL    HW121584   0.888   5.381   2.138
 6895SOL    HW221585   0.848   5.486   2.258
 6896SOL     OW21586   5.292   1.135   5.856
 6896SOL    HW121587   5.281   1.082   5.772
 6896SOL    HW221588   5.203   1.166   5.888
 6897SOL     OW21589   4.288   2.763   5.351
 6897SOL    HW121590   4.227   2.712   5.290
 6897SOL    HW221591   4.367   2.796   5.298
 6898SOL     OW21592   1.734   6.894   1.264
 6898SOL    HW121593   1.719   6.837   1.345
 6898SOL    HW221594   1.782   6.978   1.291
 6899SOL     OW21595   5.476   5.551   2.354
 6899SOL    HW121596   5.441   5.622   2.294
 6899SOL    HW221597   5.533   5.592   2.425
 6900SOL     OW21598   6.834   3.679   4.608
 6900SOL    HW121599   6.789   3.716   4.689
 6900SOL    HW221600   6.830   3.746   4.534
 6901SOL     OW21601   4.903   5.020   5.819
 6901SOL    HW121602   4.835   4.947   5.811
 6901SOL    HW221603   4.990   4.990   5.780
 6902SOL     OW21604   0.322   5.675   5.570
 6902SOL    HW121605   0.254   5.744   5.592
 6902SOL    HW221606   0.368   5.645   5.654
 6903SOL     OW21607   1.789   6.198   5.123
 6903SOL    HW121608   1.809   6.141   5.044
 6903SOL    HW221609   1.833   6.158   5.204
 6904SOL     OW21610   0.367   0.470   5.482
 6904SOL    HW121611   0.437   0.491   5.550
 6904SOL    HW221612   0.402   0.401   5.419
 6905SOL     OW21613   4.616   5.837   5.560
 6905SOL    HW121614   4.671   5.919   5.543
 6905SOL    HW221615   4.607   5.823   5.658
 6906SOL     OW21616   2.518   0.774   3.924
 6906SOL    HW121617   2.459   0.853   3.939
 6906SOL    HW221618   2.614   0.800   3.936
 6907SOL     OW21619   5.892   1.686   1.001
 6907SOL    HW121620   5.838   1.690   1.085
 6907SOL    HW221621   5.854   1.749   0.933
 6908SOL     OW21622   3.671   5.755   0.394
 6908SOL    HW121623   3.649   5.839   0.444
 6908SOL    HW221624   3.769   5.755   0.372
 6909SOL     OW21625   5.945   4.059   2.063
 6909SOL    HW121626   5.854   4.054   2.105
 6909SOL    HW221627   5.961   3.977   2.008
 6910SOL     OW21628   0.931   2.430   2.478
 6910SOL    HW121629   0.995   2.475   2.417
 6910SOL    HW221630   0.854   2.491   2.498
 6911SOL     OW21631   2.976   6.636   5.489
 6911SOL    HW121632   3.024   6.552   5.466
 6911SOL    HW221633   2.980   6.699   5.411
 6912SOL     OW21634   3.323   4.064   6.996
 6912SOL    HW121635   3.229   4.097   7.006
 6912SOL    HW221636   3.324   3.987   6.931
 6913SOL     OW21637   4.130   5.776   5.814
 6913SOL    HW121638   4.066   5.770   5.890
 6913SOL    HW221639   4.156   5.684   5.785
 6914SOL     OW21640   6.379   2.328   2.406
 6914SOL    HW121641   6.382   2.347   2.504
 6914SOL    HW221642   6.388   2.413   2.354
 6915SOL     OW21643   0.291   3.324   3.580
 6915SOL    HW121644   0.206   3.338   3.632
 6915SOL    HW221645   0.368   3.358   3.634
 6916SOL     OW21646   4.552   6.327   5.886
 6916SOL    HW121647   4.575   6.361   5.977
 6916SOL    HW221648   4.634   6.322   5.831
 6917SOL     OW21649   3.607   6.276   1.977
 6917SOL    HW121650   3.622   6.314   2.068
 6917SOL    HW221651   3.518   6.308   1.943
 6918SOL     OW21652   1.699   3.447   0.411
 6918SOL    HW121653   1.615   3.415   0.366
 6918SOL    HW221654   1.707   3.403   0.500
 6919SOL     OW21655   6.431   6.386   3.012
 6919SOL    HW121656   6.493   6.373   2.935
 6919SOL    HW221657   6.356   6.320   3.006
 6920SOL     OW21658   6.847   2.239   5.487
 6920SOL    HW121659   6.802   2.322   5.452
 6920SOL    HW221660   6.787   2.161   5.475
 6921SOL     OW21661   3.361   0.167   4.323
 6921SOL    HW121662   3.399   0.088   4.274
 6921SOL    HW221663   3.262   0.162   4.324
 6922SOL     OW21664   3.059   5.131   6.667
 6922SOL    HW121665   3.046   5.061   6.738
 6922SOL    HW221666   3.147   5.176   6.680
 6923SOL     OW21667   5.204   6.789   3.050
 6923SOL    HW121668   5.112   6.755   3.030
 6923SOL    HW221669   5.223   6.869   2.993
 6924SOL     OW21670   3.333   5.519   1.735
 6924SOL    HW121671   3.235   5.532   1.718
 6924SOL    HW221672   3.383   5.601   1.706
 6925SOL     OW21673   5.794   6.767   4.814
 6925SOL    HW121674   5.882   6.814   4.809
 6925SOL    HW221675   5.799   6.692   4.879
 6926SOL     OW21676   2.772   2.343   0.432
 6926SOL    HW121677   2.674   2.347   0.450
 6926SOL    HW221678   2.816   2.284   0.500
 6927SOL     OW21679   3.381   0.307   6.614
 6927SOL    HW121680   3.479   0.300   6.597
 6927SOL    HW221681   3.351   0.231   6.670
 6928SOL     OW21682   3.503   5.659   0.200
 6928SOL    HW121683   3.564   5.693   0.272
 6928SOL    HW221684   3.546   5.673   0.111
 6929SOL     OW21685   4.779   4.684   2.791
 6929SOL    HW121686   4.776   4.642   2.700
 6929SOL    HW221687   4.867   4.730   2.804
 6930SOL     OW21688   0.979   6.189   1.895
 6930SOL    HW121689   1.026   6.175   1.982
 6930SOL    HW221690   0.897   6.246   1.909
 6931SOL     OW21691   3.084   3.261   1.083
 6931SOL    HW121692   3.103   3.237   0.988
 6931SOL    HW221693   3.024   3.192   1.123
 6932SOL     OW21694   4.680   0.203   6.584
 6932SOL    HW121695   4.608   0.138   6.611
 6932SOL    HW221696   4.638   0.284   6.543
 6933SOL     OW21697   2.711   6.012   5.898
 6933SOL    HW121698   2.679   6.104   5.873
 6933SOL    HW221699   2.684   5.948   5.827
 6934SOL     OW21700   5.202   5.337   6.861
 6934SOL    HW121701   5.255   5.252   6.863
 6934SOL    HW221702   5.264   5.415   6.855
 6935SOL     OW21703   3.875   5.991   1.829
 6935SOL    HW121704   3.935   5.951   1.759
 6935SOL    HW221705   3.858   6.087   1.808
 6936SOL     OW21706   1.137   2.058   6.533
 6936SOL    HW121707   1.194   2.122   6.584
 6936SOL    HW221708   1.052   2.041   6.584
 6937SOL     OW21709   5.664   5.142   0.467
 6937SOL    HW121710   5.604   5.184   0.398
 6937SOL    HW221711   5.759   5.147   0.435
 6938SOL     OW21712   3.323   0.506   4.668
 6938SOL    HW121713   3.386   0.473   4.597
 6938SOL    HW221714   3.372   0.564   4.732
 6939SOL     OW21715   5.541   3.058   3.356
 6939SOL    HW121716   5.586   3.057   3.267
 6939SOL    HW221717   5.515   2.964   3.381
 6940SOL     OW21718   2.645   6.472   1.178
 6940SOL    HW121719   2.581   6.481   1.254
 6940SOL    HW221720   2.621   6.392   1.123
 6941SOL     OW21721   3.545   3.098   2.506
 6941SOL    HW121722   3.643   3.110   2.487
 6941SOL    HW221723   3.505   3.038   2.437
 6942SOL     OW21724   6.422   4.863   2.929
 6942SOL    HW121725   6.506   4.900   2.889
 6942SOL    HW221726   6.348   4.929   2.918
 6943SOL     OW21727   4.090   4.838   5.932
 6943SOL    HW121728   4.157   4.902   5.969
 6943SOL    HW221729   4.123   4.802   5.845
 6944SOL     OW21730   0.569   4.671   4.954
 6944SOL    HW121731   0.495   4.729   4.919
 6944SOL    HW221732   0.657   4.710   4.927
 6945SOL     OW21733   4.931   1.945   0.821
 6945SOL    HW121734   4.901   1.851   0.837
 6945SOL    HW221735   4.901   2.004   0.896
 6946SOL     OW21736   5.675   6.088   2.298
 6946SOL    HW121737   5.583   6.059   2.325
 6946SOL    HW221738   5.676   6.108   2.200
 6947SOL     OW21739   6.161   4.008   5.503
 6947SOL    HW121740   6.236   3.958   5.459
 6947SOL    HW221741   6.189   4.101   5.523
 6948SOL     OW21742   6.892   4.044   6.884
 6948SOL    HW121743   6.847   4.132   6.876
 6948SOL    HW221744   6.834   3.973   6.844
 6949SOL     OW21745   3.065   1.292   2.976
 6949SOL    HW121746   3.159   1.260   2.973
 6949SOL    HW221747   3.016   1.260   2.895
 6950SOL     OW21748   1.941   0.962   3.643
 6950SOL    HW121749   1.851   0.936   3.679
 6950SOL    HW221750   1.929   1.005   3.553
 6951SOL     OW21751   1.140   3.620   6.669
 6951SOL    HW121752   1.214   3.597   6.606
 6951SOL    HW221753   1.112   3.537   6.719
 6952SOL     OW21754   4.054   5.943   3.575
 6952SOL    HW121755   4.067   5.893   3.489
 6952SOL    HW221756   4.115   6.022   3.578
 6953SOL     OW21757   0.032   1.003   2.051
 6953SOL    HW121758   0.004   0.910   2.026
 6953SOL    HW221759   6.984   1.040   2.118
 6954SOL     OW21760   6.981   4.234   6.116
 6954SOL    HW121761   6.943   4.313   6.068
 6954SOL    HW221762   7.007   4.262   6.209
 6955SOL     OW21763   4.324   5.712   2.884
 6955SOL    HW121764   4.275   5.791   2.922
 6955SOL    HW221765   4.289   5.692   2.793
 6956SOL     OW21766   5.414   5.273   1.490
 6956SOL    HW121767   5.372   5.224   1.414
 6956SOL    HW221768   5.393   5.227   1.576
 6957SOL     OW21769   5.963   5.005   5.187
 6957SOL    HW121770   6.011   4.918   5.191
 6957SOL    HW221771   5.995   5.065   5.261
 6958SOL     OW21772   3.325   3.644   2.469
 6958SOL    HW121773   3.341   3.550   2.439
 6958SOL    HW221774   3.407   3.680   2.513
 6959SOL     OW21775   1.478   4.522   2.636
 6959SOL    HW121776   1.428   4.568   2.562
 6959SOL    HW221777   1.489   4.585   2.713
 6960SOL     OW21778   5.057   4.837   1.479
 6960SOL    HW121779   5.110   4.754   1.461
 6960SOL    HW221780   5.017   4.871   1.394
 6961SOL     OW21781   4.909   2.724   5.103
 6961SOL    HW121782   4.877   2.649   5.044
 6961SOL    HW221783   4.958   2.686   5.181
 6962SOL     OW21784   2.581   6.107   0.355
 6962SOL    HW121785   2.576   6.205   0.375
 6962SOL    HW221786   2.665   6.086   0.305
 6963SOL     OW21787   0.853   6.451   6.628
 6963SOL    HW121788   0.841   6.534   6.573
 6963SOL    HW221789   0.836   6.473   6.724
 6964SOL     OW21790   1.985   1.668   4.928
 6964SOL    HW121791   2.013   1.763   4.918
 6964SOL    HW221792   2.066   1.610   4.935
 6965SOL     OW21793   2.022   1.292   0.270
 6965SOL    HW121794   1.985   1.249   0.188
 6965SOL    HW221795   2.016   1.391   0.261
 6966SOL     OW21796   1.400   6.617   1.091
 6966SOL    HW121797   1.494   6.607   1.124
 6966SOL    HW221798   1.356   6.693   1.138
 6967SOL     OW21799   3.632   0.156   7.002
 6967SOL    HW121800   3.724   0.187   6.982
 6967SOL    HW221801   3.609   0.078   6.943
 6968SOL     OW21802   3.114   0.170   2.969
 6968SOL    HW121803   3.075   0.113   3.040
 6968SOL    HW221804   3.044   0.192   2.901
 6969SOL     OW21805   1.859   2.740   2.319
 6969SOL    HW121806   1.842   2.642   2.321
 6969SOL    HW221807   1.946   2.759   2.275
 6970SOL     OW21808   3.067   5.790   5.422
 6970SOL    HW121809   3.134   5.770   5.493
 6970SOL    HW221810   3.102   5.759   5.334
 6971SOL     OW21811   6.248   3.645   6.349
 6971SOL    HW121812   6.180   3.576   6.375
 6971SOL    HW221813   6.332   3.631   6.401
 6972SOL     OW21814   5.531   3.865   1.336
 6972SOL    HW121815   5.629   3.848   1.338
 6972SOL    HW221816   5.512   3.957   1.370
 6973SOL     OW21817   0.899   1.487   2.978
 6973SOL    HW121818   0.906   1.511   3.075
 6973SOL    HW221819   0.945   1.400   2.961
 6974SOL     OW21820   4.160   3.583   2.942
 6974SOL    HW121821   4.160   3.533   2.855
 6974SOL    HW221822   4.137   3.679   2.924
 6975SOL     OW21823   2.619   5.403   4.827
 6975SOL    HW121824   2.564   5.365   4.752
 6975SOL    HW221825   2.653   5.328   4.884
 6976SOL     OW21826   4.223   5.388   6.117
 6976SOL    HW121827   4.258   5.414   6.207
 6976SOL    HW221828   4.298   5.387   6.051
 6977SOL     OW21829   4.958   4.557   2.346
 6977SOL    HW121830   4.986   4.463   2.364
 6977SOL    HW221831   4.998   4.588   2.260
 6978SOL     OW21832   0.899   4.089   0.806
 6978SOL    HW121833   0.875   4.180   0.772
 6978SOL    HW221834   0.835   4.062   0.879
 6979SOL     OW21835   1.326   3.600   2.876
 6979SOL    HW121836   1.249   3.548   2.838
 6979SOL    HW221837   1.387   3.628   2.802
 6980SOL     OW21838   2.224   4.811   2.779
 6980SOL    HW121839   2.159   4.885   2.798
 6980SOL    HW221840   2.310   4.829   2.826
 6981SOL     OW21841   4.571   2.827   6.822
 6981SOL    HW121842   4.565   2.847   6.724
 6981SOL    HW221843   4.665   2.839   6.853
 6982SOL     OW21844   6.781   0.419   1.588
 6982SOL    HW121845   6.734   0.385   1.506
 6982SOL    HW221846   6.877   0.390   1.586
 6983SOL     OW21847   6.611   7.009   4.223
 6983SOL    HW121848   6.692   0.048   4.236
 6983SOL    HW221849   6.546   0.039   4.165
 6984SOL     OW21850   1.878   4.206   3.386
 6984SOL    HW121851   1.901   4.280   3.449
 6984SOL    HW221852   1.933   4.214   3.303
 6985SOL     OW21853   5.103   2.891   0.562
 6985SOL    HW121854   5.097   2.976   0.509
 6985SOL    HW221855   5.033   2.892   0.633
 6986SOL     OW21856   3.944   5.251   5.739
 6986SOL    HW121857   3.901   5.161   5.730
 6986SOL    HW221858   3.923   5.289   5.829
 6987SOL     OW21859   6.978   1.006   6.446
 6987SOL    HW121860   6.879   1.002   6.442
 6987SOL    HW221861   7.008   1.100   6.429
 6988SOL     OW21862   2.326   1.216   6.239
 6988SOL    HW121863   2.318   1.298   6.297
 6988SOL    HW221864   2.363   1.242   6.150
 6989SOL     OW21865   0.481   4.242   2.299
 6989SOL    HW121866   0.475   4.270   2.203
 6989SOL    HW221867   0.576   4.226   2.324
 6990SOL     OW21868   3.652   3.998   6.772
 6990SOL    HW121869   3.557   4.001   6.741
 6990SOL    HW221870   3.658   4.030   6.866
 6991SOL     OW21871   5.763   4.031   3.158
 6991SOL    HW121872   5.737   3.948   3.207
 6991SOL    HW221873   5.686   4.094   3.156
 6992SOL     OW21874   1.900   5.186   6.959
 6992SOL    HW121875   1.930   5.144   6.873
 6992SOL    HW221876   1.804   5.164   6.975
 6993SOL     OW21877   4.096   2.341   1.749
 6993SOL    HW121878   4.005   2.317   1.783
 6993SOL    HW221879   4.152   2.258   1.745
 6994SOL     OW21880   2.950   0.938   3.059
 6994SOL    HW121881   2.897   0.880   3.122
 6994SOL    HW221882   2.889   0.973   2.988
 6995SOL     OW21883   0.406   4.119   0.363
 6995SOL    HW121884   0.482   4.093   0.422
 6995SOL    HW221885   0.426   4.090   0.269
 6996SOL     OW21886   0.762   1.259   6.531
 6996SOL    HW121887   0.788   1.262   6.434
 6996SOL    HW221888   0.827   1.313   6.584
 6997SOL     OW21889   6.300   6.442   5.921
 6997SOL    HW121890   6.290   6.540   5.904
 6997SOL    HW221891   6.289   6.424   6.019
 6998SOL     OW21892   0.509   0.239   0.631
 6998SOL    HW121893   0.508   0.338   0.618
 6998SOL    HW221894   0.602   0.205   0.616
 6999SOL     OW21895   6.666   2.596   0.142
 6999SOL    HW121896   6.611   2.676   0.165
 6999SOL    HW221897   6.681   2.594   0.043
 7000SOL     OW21898   0.637   5.256   3.712
 7000SOL    HW121899   0.652   5.158   3.707
 7000SOL    HW221900   0.646   5.287   3.807
 7001SOL     OW21901   0.256   1.379   3.817
 7001SOL    HW121902   0.164   1.418   3.826
 7001SOL    HW221903   0.319   1.449   3.786
 7002SOL     OW21904   0.645   4.844   2.454
 7002SOL    HW121905   0.694   4.862   2.369
 7002SOL    HW221906   0.573   4.777   2.438
 7003SOL     OW21907   0.573   5.174   6.714
 7003SOL    HW121908   0.602   5.227   6.793
 7003SOL    HW221909   0.503   5.226   6.663
 7004SOL     OW21910   1.896   0.192   6.476
 7004SOL    HW121911   1.833   0.133   6.426
 7004SOL    HW221912   1.988   0.181   6.439
 7005SOL     OW21913   1.660   5.417   0.449
 7005SOL    HW121914   1.752   5.378   0.451
 7005SOL    HW221915   1.612   5.384   0.368
 7006SOL     OW21916   0.864   0.793   3.714
 7006SOL    HW121917   0.939   0.742   3.756
 7006SOL    HW221918   0.836   0.867   3.775
 7007SOL     OW21919   1.861   0.206   6.142
 7007SOL    HW121920   1.920   0.286   6.152
 7007SOL    HW221921   1.766   0.235   6.144
 7008SOL     OW21922   5.157   3.017   3.276
 7008SOL    HW121923   5.194   2.926   3.255
 7008SOL    HW221924   5.231   3.083   3.283
 7009SOL     OW21925   5.267   5.999   2.040
 7009SOL    HW121926   5.266   6.058   2.121
 7009SOL    HW221927   5.176   5.961   2.025
 7010SOL     OW21928   5.188   3.163   2.945
 7010SOL    HW121929   5.167   3.082   2.890
 7010SOL    HW221930   5.103   3.199   2.985
 7011SOL     OW21931   2.709   6.874   6.026
 7011SOL    HW121932   2.776   6.922   5.971
 7011SOL    HW221933   2.724   6.894   6.123
 7012SOL     OW21934   0.206   3.638   0.832
 7012SOL    HW121935   0.189   3.576   0.909
 7012SOL    HW221936   0.120   3.681   0.805
 7013SOL     OW21937   3.570   2.748   0.241
 7013SOL    HW121938   3.609   2.663   0.275
 7013SOL    HW221939   3.470   2.738   0.234
 7014SOL     OW21940   6.050   3.170   0.133
 7014SOL    HW121941   6.067   3.091   0.192
 7014SOL    HW221942   6.100   3.159   0.047
 7015SOL     OW21943   6.200   6.326   0.948
 7015SOL    HW121944   6.171   6.295   1.038
 7015SOL    HW221945   6.291   6.366   0.954
 7016SOL     OW21946   3.206   4.959   1.079
 7016SOL    HW121947   3.254   4.898   1.017
 7016SOL    HW221948   3.273   5.016   1.128
 7017SOL     OW21949   5.950   4.426   6.400
 7017SOL    HW121950   5.960   4.481   6.483
 7017SOL    HW221951   5.857   4.436   6.365
 7018SOL     OW21952   5.571   3.631   5.027
 7018SOL    HW121953   5.612   3.630   5.118
 7018SOL    HW221954   5.544   3.725   5.003
 7019SOL     OW21955   3.844   5.355   2.179
 7019SOL    HW121956   3.788   5.434   2.158
 7019SOL    HW221957   3.799   5.272   2.145
 7020SOL     OW21958   0.787   2.156   0.129
 7020SOL    HW121959   0.716   2.205   0.179
 7020SOL    HW221960   0.782   2.179   0.032
 7021SOL     OW21961   1.078   1.739   4.724
 7021SOL    HW121962   0.986   1.710   4.700
 7021SOL    HW221963   1.124   1.666   4.775
 7022SOL     OW21964   2.025   3.864   1.153
 7022SOL    HW121965   1.929   3.844   1.168
 7022SOL    HW221966   2.034   3.937   1.085
 7023SOL     OW21967   0.110   1.740   0.762
 7023SOL    HW121968   0.075   1.749   0.856
 7023SOL    HW221969   0.208   1.757   0.762
 7024SOL     OW21970   3.407   3.858   5.470
 7024SOL    HW121971   3.472   3.933   5.474
 7024SOL    HW221972   3.327   3.886   5.417
 7025SOL     OW21973   3.430   0.800   1.113
 7025SOL    HW121974   3.523   0.839   1.113
 7025SOL    HW221975   3.435   0.702   1.132
 7026SOL     OW21976   2.948   2.292   1.210
 7026SOL    HW121977   3.038   2.251   1.194
 7026SOL    HW221978   2.941   2.321   1.305
 7027SOL     OW21979   3.104   4.824   1.647
 7027SOL    HW121980   3.200   4.819   1.621
 7027SOL    HW221981   3.065   4.732   1.649
 7028SOL     OW21982   3.204   0.234   3.476
 7028SOL    HW121983   3.254   0.277   3.401
 7028SOL    HW221984   3.134   0.298   3.510
 7029SOL     OW21985   3.295   4.150   3.425
 7029SOL    HW121986   3.366   4.133   3.356
 7029SOL    HW221987   3.324   4.226   3.484
 7030SOL     OW21988   6.354   0.005   4.997
 7030SOL    HW121989   6.272   0.060   5.013
 7030SOL    HW221990   6.330   6.941   4.945
 7031SOL     OW21991   5.076   5.337   0.896
 7031SOL    HW121992   5.067   5.352   0.797
 7031SOL    HW221993   5.110   5.244   0.912
 7032SOL     OW21994   4.330   5.056   4.694
 7032SOL    HW121995   4.343   5.069   4.792
 7032SOL    HW221996   4.276   4.974   4.677
 7033SOL     OW21997   2.039   1.796   5.389
 7033SOL    HW121998   1.994   1.879   5.355
 7033SOL    HW221999   2.118   1.775   5.331
 7034SOL     OW22000   6.849   1.764   2.212
 7034SOL    HW122001   6.917   1.716   2.267
 7034SOL    HW222002   6.848   1.727   2.119
 7035SOL     OW22003   2.646   1.971   1.503
 7035SOL    HW122004   2.564   1.982   1.558
 7035SOL    HW222005   2.625   1.991   1.407
 7036SOL     OW22006   6.203   1.866   1.622
 7036SOL    HW122007   6.127   1.921   1.657
 7036SOL    HW222008   6.174   1.818   1.538
 7037SOL     OW22009   1.610   0.413   6.320
 7037SOL    HW122010   1.627   0.335   6.380
 7037SOL    HW222011   1.696   0.461   6.303
 7038SOL     OW22012   0.453   4.574   0.306
 7038SOL    HW122013   0.549   4.565   0.276
 7038SOL    HW222014   0.395   4.517   0.247
 7039SOL     OW22015   6.257   0.287   1.483
 7039SOL    HW122016   6.290   0.204   1.527
 7039SOL    HW222017   6.188   0.263   1.414
 7040SOL     OW22018   5.631   2.950   5.468
 7040SOL    HW122019   5.546   2.939   5.417
 7040SOL    HW222020   5.676   3.035   5.438
 7041SOL     OW22021   1.098   0.521   3.482
 7041SOL    HW122022   1.127   0.430   3.512
 7041SOL    HW222023   1.176   0.572   3.447
 7042SOL     OW22024   5.981   6.330   5.089
 7042SOL    HW122025   5.929   6.248   5.066
 7042SOL    HW222026   5.944   6.371   5.173
 7043SOL     OW22027   2.159   6.112   0.592
 7043SOL    HW122028   2.096   6.189   0.601
 7043SOL    HW222029   2.107   6.028   0.578
 7044SOL     OW22030   4.586   6.411   5.402
 7044SOL    HW122031   4.584   6.482   5.332
 7044SOL    HW222032   4.676   6.410   5.446
 7045SOL     OW22033   5.844   6.727   1.891
 7045SOL    HW122034   5.928   6.676   1.910
 7045SOL    HW222035   5.827   6.792   1.966
 7046SOL     OW22036   2.671   1.343   3.010
 7046SOL    HW122037   2.614   1.381   2.937
 7046SOL    HW222038   2.704   1.418   3.068
 7047SOL     OW22039   1.476   6.935   1.069
 7047SOL    HW122040   1.426   6.889   1.142
 7047SOL    HW222041   1.536   7.005   1.108
 7048SOL     OW22042   0.370   5.954   3.796
 7048SOL    HW122043   0.400   5.991   3.707
 7048SOL    HW222044   0.321   5.868   3.781
 7049SOL     OW22045   3.337   1.245   4.657
 7049SOL    HW122046   3.314   1.189   4.737
 7049SOL    HW222047   3.317   1.341   4.677
 7050SOL     OW22048   4.100   4.170   0.985
 7050SOL    HW122049   4.154   4.097   1.027
 7050SOL    HW222050   4.030   4.200   1.050
 7051SOL     OW22051   1.741   1.359   2.270
 7051SOL    HW122052   1.780   1.425   2.206
 7051SOL    HW222053   1.731   1.401   2.360
 7052SOL     OW22054   5.207   2.572   2.805
 7052SOL    HW122055   5.255   2.624   2.876
 7052SOL    HW222056   5.109   2.570   2.825
 7053SOL     OW22057   1.211   5.025   3.775
 7053SOL    HW122058   1.277   5.089   3.736
 7053SOL    HW222059   1.258   4.963   3.838
 7054SOL     OW22060   5.532   6.955   0.023
 7054SOL    HW122061   5.474   0.008   7.001
 7054SOL    HW222062   5.625   6.989   0.032
 7055SOL     OW22063   2.199   0.110   0.701
 7055SOL    HW122064   2.247   0.165   0.632
 7055SOL    HW222065   2.121   0.163   0.736
 7056SOL     OW22066   6.873   5.541   0.768
 7056SOL    HW122067   6.838   5.630   0.740
 7056SOL    HW222068   6.798   5.484   0.801
 7057SOL     OW22069   3.614   5.625   4.502
 7057SOL    HW122070   3.588   5.700   4.562
 7057SOL    HW222071   3.705   5.591   4.529
 7058SOL     OW22072   6.353   2.346   5.982
 7058SOL    HW122073   6.386   2.397   6.061
 7058SOL    HW222074   6.429   2.297   5.939
 7059SOL     OW22075   1.920   0.525   5.307
 7059SOL    HW122076   1.890   0.431   5.326
 7059SOL    HW222077   2.000   0.546   5.362
 7060SOL     OW22078   3.126   2.340   1.447
 7060SOL    HW122079   3.223   2.319   1.437
 7060SOL    HW222080   3.108   2.371   1.540
 7061SOL     OW22081   2.070   0.933   1.415
 7061SOL    HW122082   2.056   0.874   1.335
 7061SOL    HW222083   2.132   0.888   1.479
 7062SOL     OW22084   3.836   0.857   4.721
 7062SOL    HW122085   3.746   0.845   4.679
 7062SOL    HW222086   3.875   0.944   4.691
 7063SOL     OW22087   0.281   0.970   1.887
 7063SOL    HW122088   0.189   0.934   1.875
 7063SOL    HW222089   0.276   1.069   1.901
 7064SOL     OW22090   2.904   1.217   5.542
 7064SOL    HW122091   2.912   1.157   5.622
 7064SOL    HW222092   2.808   1.246   5.532
 7065SOL     OW22093   3.734   6.463   4.774
 7065SOL    HW122094   3.787   6.379   4.779
 7065SOL    HW222095   3.795   6.541   4.757
 7066SOL     OW22096   3.416   0.891   1.395
 7066SOL    HW122097   3.404   0.826   1.320
 7066SOL    HW222098   3.327   0.926   1.423
 7067SOL     OW22099   2.037   4.379   6.270
 7067SOL    HW122100   2.048   4.463   6.324
 7067SOL    HW222101   1.974   4.318   6.317
 7068SOL     OW22102   5.288   4.611   4.319
 7068SOL    HW122103   5.338   4.524   4.321
 7068SOL    HW222104   5.262   4.637   4.412
 7069SOL     OW22105   4.629   0.723   5.311
 7069SOL    HW122106   4.594   0.810   5.346
 7069SOL    HW222107   4.695   0.740   5.238
 7070SOL     OW22108   0.248   0.938   5.884
 7070SOL    HW122109   0.337   0.955   5.840
 7070SOL    HW222110   0.185   1.011   5.861
 7071SOL     OW22111   4.235   5.601   6.503
 7071SOL    HW122112   4.184   5.681   6.472
 7071SOL    HW222113   4.204   5.576   6.595
 7072SOL     OW22114   0.748   4.016   6.361
 7072SOL    HW122115   0.839   3.974   6.363
 7072SOL    HW222116   0.680   3.951   6.394
 7073SOL     OW22117   4.501   1.086   3.773
 7073SOL    HW122118   4.571   1.025   3.737
 7073SOL    HW222119   4.531   1.124   3.860
 7074SOL     OW22120   6.194   3.589   1.728
 7074SOL    HW122121   6.215   3.661   1.661
 7074SOL    HW222122   6.207   3.624   1.820
 7075SOL     OW22123   2.210   5.383   2.161
 7075SOL    HW122124   2.240   5.301   2.211
 7075SOL    HW222125   2.173   5.450   2.226
 7076SOL     OW22126   5.955   1.927   1.180
 7076SOL    HW122127   6.009   1.864   1.237
 7076SOL    HW222128   5.987   1.922   1.086
 7077SOL     OW22129   3.662   6.202   1.245
 7077SOL    HW122130   3.721   6.223   1.323
 7077SOL    HW222131   3.716   6.156   1.174
 7078SOL     OW22132   6.937   1.513   6.498
 7078SOL    HW122133   6.970   1.599   6.539
 7078SOL    HW222134   6.844   1.527   6.464
 7079SOL     OW22135   1.841   5.389   5.248
 7079SOL    HW122136   1.773   5.372   5.177
 7079SOL    HW222137   1.908   5.315   5.250
 7080SOL     OW22138   4.105   1.590   5.836
 7080SOL    HW122139   4.014   1.580   5.878
 7080SOL    HW222140   4.121   1.686   5.816
 7081SOL     OW22141   2.172   6.565   0.354
 7081SOL    HW122142   2.225   6.563   0.440
 7081SOL    HW222143   2.174   6.658   0.317
 7082SOL     OW22144   0.496   4.580   2.115
 7082SOL    HW122145   0.545   4.646   2.059
 7082SOL    HW222146   0.481   4.617   2.207
 7083SOL     OW22147   5.006   2.930   2.853
 7083SOL    HW122148   4.975   2.947   2.759
 7083SOL    HW222149   4.936   2.961   2.917
 7084SOL     OW22150   1.030   5.038   0.597
 7084SOL    HW122151   0.933   5.017   0.612
 7084SOL    HW222152   1.039   5.131   0.562
 7085SOL     OW22153   0.373   4.242   2.557
 7085SOL    HW122154   0.288   4.189   2.554
 7085SOL    HW222155   0.412   4.247   2.465
 7086SOL     OW22156   4.669   0.808   3.421
 7086SOL    HW122157   4.599   0.755   3.469
 7086SOL    HW222158   4.691   0.890   3.473
 7087SOL     OW22159   5.634   2.808   3.748
 7087SOL    HW122160   5.617   2.761   3.835
 7087SOL    HW222161   5.548   2.821   3.700
 7088SOL     OW22162   5.917   2.849   4.760
 7088SOL    HW122163   5.910   2.784   4.684
 7088SOL    HW222164   5.962   2.805   4.838
 7089SOL     OW22165   3.231   5.864   1.246
 7089SOL    HW122166   3.160   5.818   1.193
 7089SOL    HW222167   3.226   5.962   1.230
 7090SOL     OW22168   4.676   2.964   0.840
 7090SOL    HW122169   4.774   2.957   0.818
 7090SOL    HW222170   4.665   3.015   0.925
 7091SOL     OW22171   6.206   0.457   6.699
 7091SOL    HW122172   6.135   0.524   6.675
 7091SOL    HW222173   6.173   0.365   6.680
 7092SOL     OW22174   4.054   0.244   6.305
 7092SOL    HW122175   4.099   0.302   6.237
 7092SOL    HW222176   4.058   0.149   6.276
 7093SOL     OW22177   3.882   3.290   0.475
 7093SOL    HW122178   3.876   3.201   0.521
 7093SOL    HW222179   3.796   3.307   0.426
 7094SOL     OW22180   4.525   1.039   4.806
 7094SOL    HW122181   4.437   1.029   4.759
 7094SOL    HW222182   4.512   1.027   4.904
 7095SOL     OW22183   2.612   4.592   3.894
 7095SOL    HW122184   2.524   4.568   3.852
 7095SOL    HW222185   2.600   4.600   3.993
 7096SOL     OW22186   6.620   5.808   0.511
 7096SOL    HW122187   6.677   5.849   0.582
 7096SOL    HW222188   6.627   5.862   0.427
 7097SOL     OW22189   4.849   1.891   3.012
 7097SOL    HW122190   4.786   1.929   2.944
 7097SOL    HW222191   4.812   1.903   3.103
 7098SOL     OW22192   0.709   1.229   2.638
 7098SOL    HW122193   0.649   1.257   2.713
 7098SOL    HW222194   0.699   1.292   2.561
 7099SOL     OW22195   3.865   1.995   4.571
 7099SOL    HW122196   3.781   2.030   4.613
 7099SOL    HW222197   3.849   1.902   4.537
 7100SOL     OW22198   0.287   4.291   1.719
 7100SOL    HW122199   0.226   4.346   1.662
 7100SOL    HW222200   0.354   4.244   1.662
 7101SOL     OW22201   2.826   5.442   4.071
 7101SOL    HW122202   2.919   5.464   4.041
 7101SOL    HW222203   2.760   5.483   4.008
 7102SOL     OW22204   5.260   1.285   3.103
 7102SOL    HW122205   5.190   1.348   3.071
 7102SOL    HW222206   5.319   1.332   3.169
 7103SOL     OW22207   5.740   4.144   3.816
 7103SOL    HW122208   5.755   4.045   3.823
 7103SOL    HW222209   5.799   4.190   3.883
 7104SOL     OW22210   5.162   2.867   4.558
 7104SOL    HW122211   5.220   2.843   4.481
 7104SOL    HW222212   5.204   2.941   4.610
 7105SOL     OW22213   3.301   4.117   2.269
 7105SOL    HW122214   3.256   4.072   2.346
 7105SOL    HW222215   3.395   4.139   2.294
 7106SOL     OW22216   2.929   2.233   2.349
 7106SOL    HW122217   2.944   2.288   2.267
 7106SOL    HW222218   2.870   2.155   2.326
 7107SOL     OW22219   3.729   1.146   6.802
 7107SOL    HW122220   3.636   1.126   6.772
 7107SOL    HW222221   3.765   1.070   6.857
 7108SOL     OW22222   3.638   0.063   1.931
 7108SOL    HW122223   3.677   7.005   1.878
 7108SOL    HW222224   3.544   0.041   1.956
 7109SOL     OW22225   3.187   4.738   5.838
 7109SOL    HW122226   3.225   4.682   5.912
 7109SOL    HW222227   3.089   4.723   5.832
 7110SOL     OW22228   2.525   6.077   5.618
 7110SOL    HW122229   2.578   5.995   5.598
 7110SOL    HW222230   2.474   6.105   5.537
 7111SOL     OW22231   6.869   0.961   4.914
 7111SOL    HW122232   6.870   0.874   4.964
 7111SOL    HW222233   6.802   1.022   4.956
 7112SOL     OW22234   6.848   4.862   5.418
 7112SOL    HW122235   6.890   4.823   5.500
 7112SOL    HW222236   6.894   4.948   5.395
 7113SOL     OW22237   3.112   6.871   5.077
 7113SOL    HW122238   3.204   6.862   5.114
 7113SOL    HW222239   3.052   6.909   5.147
 7114SOL     OW22240   5.356   3.978   0.361
 7114SOL    HW122241   5.377   4.074   0.344
 7114SOL    HW222242   5.260   3.961   0.335
 7115SOL     OW22243   4.839   2.849   5.596
 7115SOL    HW122244   4.743   2.823   5.606
 7115SOL    HW222245   4.889   2.825   5.678
 7116SOL     OW22246   6.725   4.985   4.667
 7116SOL    HW122247   6.824   4.996   4.656
 7116SOL    HW222248   6.696   5.024   4.754
 7117SOL     OW22249   4.493   0.343   2.873
 7117SOL    HW122250   4.405   0.386   2.851
 7117SOL    HW222251   4.544   0.403   2.935
 7118SOL     OW22252   4.709   4.182   5.942
 7118SOL    HW122253   4.767   4.104   5.967
 7118SOL    HW222254   4.719   4.253   6.012
 7119SOL     OW22255   3.021   6.462   4.616
 7119SOL    HW122256   3.063   6.506   4.537
 7119SOL    HW222257   2.936   6.416   4.588
 7120SOL     OW22258   4.324   1.596   1.631
 7120SOL    HW122259   4.336   1.507   1.676
 7120SOL    HW222260   4.383   1.601   1.551
 7121SOL     OW22261   0.952   6.098   2.353
 7121SOL    HW122262   0.912   6.121   2.264
 7121SOL    HW222263   0.879   6.075   2.418
 7122SOL     OW22264   3.340   1.951   6.397
 7122SOL    HW122265   3.354   1.870   6.341
 7122SOL    HW222266   3.272   2.011   6.353
 7123SOL     OW22267   4.716   4.543   6.720
 7123SOL    HW122268   4.799   4.532   6.664
 7123SOL    HW222269   4.726   4.623   6.779
 7124SOL     OW22270   2.812   2.890   7.008
 7124SOL    HW122271   2.821   2.949   6.927
 7124SOL    HW222272   2.810   2.795   6.980
 7125SOL     OW22273   0.826   6.690   1.621
 7125SOL    HW122274   0.777   6.616   1.666
 7125SOL    HW222275   0.867   6.657   1.536
 7126SOL     OW22276   4.162   5.103   1.312
 7126SOL    HW122277   4.214   5.023   1.343
 7126SOL    HW222278   4.067   5.076   1.296
 7127SOL     OW22279   2.923   6.376   5.731
 7127SOL    HW122280   2.881   6.466   5.721
 7127SOL    HW222281   2.869   6.320   5.794
 7128SOL     OW22282   3.399   4.239   0.224
 7128SOL    HW122283   3.379   4.172   0.152
 7128SOL    HW222284   3.444   4.193   0.301
 7129SOL     OW22285   6.921   0.557   0.001
 7129SOL    HW122286   6.898   0.524   6.927
 7129SOL    HW222287   6.959   0.649   7.011
 7130SOL     OW22288   3.587   0.512   4.201
 7130SOL    HW122289   3.574   0.491   4.104
 7130SOL    HW222290   3.640   0.596   4.210
 7131SOL     OW22291   2.586   1.565   2.451
 7131SOL    HW122292   2.519   1.634   2.424
 7131SOL    HW222293   2.557   1.475   2.418
 7132SOL     OW22294   5.349   4.351   1.639
 7132SOL    HW122295   5.411   4.345   1.717
 7132SOL    HW222296   5.291   4.432   1.649
 7133SOL     OW22297   4.227   6.010   2.752
 7133SOL    HW122298   4.266   5.952   2.681
 7133SOL    HW222299   4.130   6.025   2.734
 7134SOL     OW22300   4.954   5.089   0.039
 7134SOL    HW122301   4.859   5.099   0.010
 7134SOL    HW222302   4.994   5.009   7.011
 7135SOL     OW22303   1.870   4.497   1.321
 7135SOL    HW122304   1.865   4.467   1.417
 7135SOL    HW222305   1.966   4.510   1.295
 7136SOL     OW22306   1.350   2.734   1.719
 7136SOL    HW122307   1.313   2.642   1.735
 7136SOL    HW222308   1.404   2.734   1.635
 7137SOL     OW22309   2.376   0.695   2.213
 7137SOL    HW122310   2.400   0.766   2.147
 7137SOL    HW222311   2.286   0.714   2.252
 7138SOL     OW22312   6.752   3.113   6.862
 7138SOL    HW122313   6.762   3.184   6.793
 7138SOL    HW222314   6.787   3.146   6.950
 7139SOL     OW22315   6.077   5.459   1.073
 7139SOL    HW122316   6.063   5.417   1.163
 7139SOL    HW222317   6.170   5.495   1.067
 7140SOL     OW22318   0.205   5.179   0.468
 7140SOL    HW122319   0.238   5.150   0.558
 7140SOL    HW222320   0.147   5.260   0.479
 7141SOL     OW22321   3.439   1.259   0.965
 7141SOL    HW122322   3.384   1.202   0.904
 7141SOL    HW222323   3.485   1.330   0.912
 7142SOL     OW22324   4.743   7.013   5.865
 7142SOL    HW122325   4.839   6.985   5.863
 7142SOL    HW222326   4.690   6.952   5.806
 7143SOL     OW22327   3.150   2.978   5.827
 7143SOL    HW122328   3.172   3.072   5.854
 7143SOL    HW222329   3.231   2.921   5.836
 7144SOL     OW22330   6.435   1.114   5.586
 7144SOL    HW122331   6.471   1.207   5.594
 7144SOL    HW222332   6.335   1.117   5.594
 7145SOL     OW22333   6.531   2.559   5.706
 7145SOL    HW122334   6.491   2.639   5.750
 7145SOL    HW222335   6.491   2.547   5.615
 7146SOL     OW22336   6.975   1.646   4.549
 7146SOL    HW122337   6.932   1.702   4.620
 7146SOL    HW222338   7.010   1.562   4.589
 7147SOL     OW22339   6.906   0.022   1.002
 7147SOL    HW122340   6.966   6.961   0.994
 7147SOL    HW222341   6.888   0.041   1.099
 7148SOL     OW22342   5.507   6.589   0.785
 7148SOL    HW122343   5.539   6.549   0.871
 7148SOL    HW222344   5.577   6.575   0.715
 7149SOL     OW22345   5.765   4.286   6.146
 7149SOL    HW122346   5.820   4.204   6.158
 7149SOL    HW222347   5.822   4.360   6.111
 7150SOL     OW22348   3.176   2.354   0.093
 7150SOL    HW122349   3.207   2.345   0.188
 7150SOL    HW222350   3.102   2.288   0.077
 7151SOL     OW22351   5.478   1.767   6.907
 7151SOL    HW122352   5.473   1.842   6.841
 7151SOL    HW222353   5.574   1.746   6.927
 7152SOL     OW22354   5.044   0.018   5.550
 7152SOL    HW122355   5.056   6.988   5.463
 7152SOL    HW222356   4.991   6.979   5.612
 7153SOL     OW22357   4.427   5.863   0.813
 7153SOL    HW122358   4.404   5.920   0.892
 7153SOL    HW222359   4.527   5.854   0.806
 7154SOL     OW22360   5.246   0.802   1.831
 7154SOL    HW122361   5.152   0.779   1.853
 7154SOL    HW222362   5.301   0.802   1.914
 7155SOL     OW22363   2.265   6.869   1.194
 7155SOL    HW122364   2.171   6.878   1.162
 7155SOL    HW222365   2.327   6.871   1.115
 7156SOL     OW22366   6.325   3.558   5.264
 7156SOL    HW122367   6.233   3.597   5.262
 7156SOL    HW222368   6.335   3.495   5.186
 7157SOL     OW22369   6.970   3.333   5.327
 7157SOL    HW122370   0.008   3.262   5.284
 7157SOL    HW222371   6.969   3.319   5.426
 7158SOL     OW22372   5.107   0.394   3.670
 7158SOL    HW122373   5.025   0.448   3.655
 7158SOL    HW222374   5.169   0.405   3.592
 7159SOL     OW22375   0.381   6.166   3.262
 7159SOL    HW122376   0.389   6.205   3.353
 7159SOL    HW222377   0.424   6.075   3.261
 7160SOL     OW22378   5.869   0.070   2.671
 7160SOL    HW122379   5.908   7.001   2.641
 7160SOL    HW222380   5.893   0.142   2.606
 7161SOL     OW22381   3.753   3.644   2.270
 7161SOL    HW122382   3.697   3.649   2.352
 7161SOL    HW222383   3.695   3.641   2.189
 7162SOL     OW22384   0.425   6.381   0.590
 7162SOL    HW122385   0.400   6.287   0.570
 7162SOL    HW222386   0.475   6.420   0.513
 7163SOL     OW22387   6.746   0.037   0.376
 7163SOL    HW122388   6.776   0.081   0.291
 7163SOL    HW222389   6.732   6.957   0.360
 7164SOL     OW22390   1.893   0.242   0.125
 7164SOL    HW122391   1.937   0.262   0.213
 7164SOL    HW222392   1.807   0.292   0.119
 7165SOL     OW22393   4.710   2.079   6.286
 7165SOL    HW122394   4.692   2.175   6.305
 7165SOL    HW222395   4.643   2.022   6.335
 7166SOL     OW22396   6.654   5.773   5.098
 7166SOL    HW122397   6.577   5.831   5.125
 7166SOL    HW222398   6.624   5.710   5.027
 7167SOL     OW22399   0.581   3.263   5.709
 7167SOL    HW122400   0.669   3.217   5.719
 7167SOL    HW222401   0.511   3.196   5.685
 7168SOL     OW22402   1.256   0.727   2.633
 7168SOL    HW122403   1.225   0.685   2.547
 7168SOL    HW222404   1.191   0.706   2.706
 7169SOL     OW22405   1.767   4.393   6.170
 7169SOL    HW122406   1.856   4.354   6.150
 7169SOL    HW222407   1.707   4.383   6.090
 7170SOL     OW22408   3.612   2.069   1.369
 7170SOL    HW122409   3.606   2.033   1.462
 7170SOL    HW222410   3.668   2.152   1.369
 7171SOL     OW22411   0.056   4.651   0.898
 7171SOL    HW122412   0.067   4.633   0.995
 7171SOL    HW222413   0.035   4.565   0.850
 7172SOL     OW22414   1.123   2.390   3.384
 7172SOL    HW122415   1.198   2.402   3.449
 7172SOL    HW222416   1.038   2.424   3.424
 7173SOL     OW22417   3.337   5.509   4.841
 7173SOL    HW122418   3.422   5.559   4.858
 7173SOL    HW222419   3.325   5.439   4.911
 7174SOL     OW22420   6.634   3.655   2.166
 7174SOL    HW122421   6.688   3.647   2.082
 7174SOL    HW222422   6.678   3.603   2.239
 7175SOL     OW22423   6.805   3.321   5.806
 7175SOL    HW122424   6.867   3.314   5.884
 7175SOL    HW222425   6.711   3.317   5.838
 7176SOL     OW22426   0.311   1.252   6.694
 7176SOL    HW122427   0.261   1.172   6.661
 7176SOL    HW222428   0.254   1.302   6.760
 7177SOL     OW22429   1.082   5.426   3.438
 7177SOL    HW122430   1.014   5.417   3.511
 7177SOL    HW222431   1.160   5.366   3.458
 7178SOL     OW22432   1.105   6.270   5.921
 7178SOL    HW122433   1.094   6.199   5.852
 7178SOL    HW222434   1.195   6.313   5.910
 7179SOL     OW22435   4.531   4.686   6.103
 7179SOL    HW122436   4.511   4.752   6.030
 7179SOL    HW222437   4.615   4.714   6.150
 7180SOL     OW22438   0.991   2.753   2.113
 7180SOL    HW122439   0.958   2.663   2.087
 7180SOL    HW222440   0.985   2.815   2.035
 7181SOL     OW22441   3.384   0.614   0.384
 7181SOL    HW122442   3.446   0.535   0.378
 7181SOL    HW222443   3.428   0.686   0.437
 7182SOL     OW22444   2.227   1.125   3.236
 7182SOL    HW122445   2.253   1.030   3.220
 7182SOL    HW222446   2.261   1.182   3.161
 7183SOL     OW22447   1.264   0.040   1.473
 7183SOL    HW122448   1.363   0.048   1.459
 7183SOL    HW222449   1.245   0.035   1.571
 7184SOL     OW22450   0.031   0.907   3.813
 7184SOL    HW122451   0.128   0.928   3.820
 7184SOL    HW222452   0.012   0.821   3.859
 7185SOL     OW22453   4.037   0.533   3.715
 7185SOL    HW122454   3.956   0.547   3.771
 7185SOL    HW222455   4.067   0.438   3.724
 7186SOL     OW22456   6.987   1.498   6.234
 7186SOL    HW122457   6.893   1.508   6.201
 7186SOL    HW222458   6.986   1.487   6.334
 7187SOL     OW22459   3.280   3.445   3.946
 7187SOL    HW122460   3.181   3.431   3.955
 7187SOL    HW222461   3.316   3.480   4.033
 7188SOL     OW22462   5.349   4.871   0.102
 7188SOL    HW122463   5.425   4.817   0.139
 7188SOL    HW222464   5.264   4.820   0.112
 7189SOL     OW22465   7.009   2.341   5.940
 7189SOL    HW122466   6.933   2.301   5.889
 7189SOL    HW222467   0.026   2.274   6.005
 7190SOL     OW22468   6.232   5.752   0.300
 7190SOL    HW122469   6.303   5.683   0.282
 7190SOL    HW222470   6.143   5.714   0.277
 7191SOL     OW22471   6.972   5.244   2.293
 7191SOL    HW122472   6.890   5.253   2.349
 7191SOL    HW222473   6.950   5.263   2.198
 7192SOL     OW22474   2.892   4.007   5.178
 7192SOL    HW122475   2.851   4.019   5.268
 7192SOL    HW222476   2.821   3.978   5.113
 7193SOL     OW22477   3.817   1.313   3.756
 7193SOL    HW122478   3.781   1.239   3.700
 7193SOL    HW222479   3.768   1.397   3.737
 7194SOL     OW22480   3.311   2.207   5.654
 7194SOL    HW122481   3.381   2.241   5.718
 7194SOL    HW222482   3.243   2.154   5.705
 7195SOL     OW22483   0.585   3.595   5.935
 7195SOL    HW122484   0.588   3.691   5.963
 7195SOL    HW222485   0.648   3.581   5.858
 7196SOL     OW22486   3.013   3.523   1.741
 7196SOL    HW122487   3.097   3.563   1.705
 7196SOL    HW222488   2.949   3.596   1.766
 7197SOL     OW22489   3.460   5.119   6.610
 7197SOL    HW122490   3.466   5.218   6.604
 7197SOL    HW222491   3.408   5.094   6.692
 7198SOL     OW22492   1.298   0.405   1.905
 7198SOL    HW122493   1.309   0.322   1.961
 7198SOL    HW222494   1.223   0.392   1.841
 7199SOL     OW22495   6.074   0.922   3.393
 7199SOL    HW122496   6.105   0.835   3.355
 7199SOL    HW222497   6.145   0.960   3.452
 7200SOL     OW22498   1.003   3.137   6.780
 7200SOL    HW122499   1.028   3.233   6.793
 7200SOL    HW222500   0.938   3.110   6.851
 7201SOL     OW22501   6.053   6.267   3.982
 7201SOL    HW122502   6.038   6.195   4.050
 7201SOL    HW222503   6.129   6.241   3.922
 7202SOL     OW22504   4.670   0.579   5.832
 7202SOL    HW122505   4.720   0.645   5.776
 7202SOL    HW222506   4.698   0.588   5.927
 7203SOL     OW22507   0.828   1.885   0.711
 7203SOL    HW122508   0.861   1.978   0.727
 7203SOL    HW222509   0.902   1.820   0.727
 7204SOL     OW22510   5.736   0.857   2.849
 7204SOL    HW122511   5.662   0.865   2.915
 7204SOL    HW222512   5.728   0.930   2.781
 7205SOL     OW22513   3.095   1.328   4.104
 7205SOL    HW122514   3.118   1.329   4.006
 7205SOL    HW222515   3.145   1.402   4.150
 7206SOL     OW22516   2.351   3.169   6.822
 7206SOL    HW122517   2.392   3.258   6.801
 7206SOL    HW222518   2.253   3.172   6.802
 7207SOL     OW22519   1.481   1.162   2.863
 7207SOL    HW122520   1.569   1.120   2.840
 7207SOL    HW222521   1.491   1.261   2.867
 7208SOL     OW22522   3.408   0.359   3.720
 7208SOL    HW122523   3.422   0.432   3.653
 7208SOL    HW222524   3.457   0.277   3.689
 7209SOL     OW22525   3.584   0.934   2.397
 7209SOL    HW122526   3.624   0.977   2.478
 7209SOL    HW222527   3.597   0.835   2.402
 7210SOL     OW22528   3.752   1.482   4.354
 7210SOL    HW122529   3.773   1.409   4.418
 7210SOL    HW222530   3.819   1.481   4.279
 7211SOL     OW22531   3.947   6.235   5.848
 7211SOL    HW122532   3.938   6.201   5.942
 7211SOL    HW222533   3.869   6.204   5.794
 7212SOL     OW22534   0.782   5.547   5.438
 7212SOL    HW122535   0.855   5.615   5.443
 7212SOL    HW222536   0.770   5.505   5.527
 7213SOL     OW22537   4.508   2.942   0.434
 7213SOL    HW122538   4.534   3.039   0.432
 7213SOL    HW222539   4.474   2.919   0.526
 7214SOL     OW22540   6.285   1.200   6.105
 7214SOL    HW122541   6.359   1.190   6.039
 7214SOL    HW222542   6.322   1.226   6.194
 7215SOL     OW22543   6.447   1.578   2.524
 7215SOL    HW122544   6.369   1.542   2.471
 7215SOL    HW222545   6.492   1.650   2.472
 7216SOL     OW22546   5.509   6.749   3.654
 7216SOL    HW122547   5.510   6.784   3.560
 7216SOL    HW222548   5.558   6.813   3.714
 7217SOL     OW22549   1.027   3.071   3.204
 7217SOL    HW122550   1.124   3.047   3.198
 7217SOL    HW222551   0.998   3.067   3.300
 7218SOL     OW22552   6.411   2.525   5.065
 7218SOL    HW122553   6.332   2.503   5.123
 7218SOL    HW222554   6.483   2.564   5.122
 7219SOL     OW22555   2.380   6.123   2.038
 7219SOL    HW122556   2.458   6.158   1.986
 7219SOL    HW222557   2.401   6.131   2.136
 7220SOL     OW22558   6.493   3.998   3.627
 7220SOL    HW122559   6.590   3.977   3.644
 7220SOL    HW222560   6.437   3.950   3.694
 7221SOL     OW22561   4.184   5.082   3.334
 7221SOL    HW122562   4.137   5.067   3.421
 7221SOL    HW222563   4.122   5.060   3.258
 7222SOL     OW22564   7.018   5.897   4.446
 7222SOL    HW122565   0.014   5.962   4.371
 7222SOL    HW222566   0.023   5.805   4.415
 7223SOL     OW22567   6.755   5.809   1.907
 7223SOL    HW122568   6.799   5.817   1.996
 7223SOL    HW222569   6.695   5.729   1.906
 7224SOL     OW22570   4.600   2.187   2.715
 7224SOL    HW122571   4.614   2.188   2.616
 7224SOL    HW222572   4.547   2.267   2.742
 7225SOL     OW22573   0.710   5.999   0.322
 7225SOL    HW122574   0.654   6.063   0.269
 7225SOL    HW222575   0.659   5.914   0.336
 7226SOL     OW22576   5.814   6.277   0.189
 7226SOL    HW122577   5.773   6.234   0.270
 7226SOL    HW222578   5.856   6.364   0.215
 7227SOL     OW22579   1.799   0.920   1.995
 7227SOL    HW122580   1.811   0.988   2.068
 7227SOL    HW222581   1.703   0.917   1.967
 7228SOL     OW22582   5.698   3.044   2.566
 7228SOL    HW122583   5.688   2.948   2.540
 7228SOL    HW222584   5.613   3.077   2.607
 7229SOL     OW22585   6.043   0.088   4.963
 7229SOL    HW122586   5.985   0.166   4.986
 7229SOL    HW222587   6.013   0.048   4.877
 7230SOL     OW22588   2.111   5.190   4.820
 7230SOL    HW122589   2.194   5.231   4.858
 7230SOL    HW222590   2.052   5.159   4.894
 7231SOL     OW22591   3.913   3.618   6.240
 7231SOL    HW122592   3.892   3.716   6.235
 7231SOL    HW222593   3.989   3.604   6.304
 7232SOL     OW22594   4.278   6.090   3.554
 7232SOL    HW122595   4.278   6.180   3.510
 7232SOL    HW222596   4.371   6.055   3.559
 7233SOL     OW22597   0.493   1.431   6.294
 7233SOL    HW122598   0.499   1.463   6.389
 7233SOL    HW222599   0.410   1.376   6.284
 7234SOL     OW22600   5.408   4.768   3.420
 7234SOL    HW122601   5.321   4.813   3.444
 7234SOL    HW222602   5.434   4.705   3.492
 7235SOL     OW22603   6.323   0.746   1.844
 7235SOL    HW122604   6.391   0.679   1.813
 7235SOL    HW222605   6.231   0.709   1.829
 7236SOL     OW22606   1.195   3.761   3.042
 7236SOL    HW122607   1.252   3.710   2.978
 7236SOL    HW222608   1.110   3.710   3.059
 7237SOL     OW22609   5.379   1.691   0.151
 7237SOL    HW122610   5.452   1.633   0.187
 7237SOL    HW222611   5.411   1.738   0.069
 7238SOL     OW22612   4.253   3.412   6.957
 7238SOL    HW122613   4.171   3.466   6.936
 7238SOL    HW222614   4.229   3.315   6.959
 7239SOL     OW22615   5.675   2.500   1.935
 7239SOL    HW122616   5.731   2.542   1.864
 7239SOL    HW222617   5.601   2.447   1.893
 7240SOL     OW22618   0.175   1.413   0.131
 7240SOL    HW122619   0.224   1.384   0.213
 7240SOL    HW222620   0.241   1.428   0.057
 7241SOL     OW22621   1.839   6.664   2.721
 7241SOL    HW122622   1.744   6.684   2.699
 7241SOL    HW222623   1.846   6.645   2.819
 7242SOL     OW22624   6.294   4.711   5.351
 7242SOL    HW122625   6.238   4.776   5.402
 7242SOL    HW222626   6.390   4.724   5.375
 7243SOL     OW22627   5.434   4.678   6.111
 7243SOL    HW122628   5.449   4.705   6.016
 7243SOL    HW222629   5.483   4.593   6.130
 7244SOL     OW22630   6.722   5.765   6.924
 7244SOL    HW122631   6.739   5.714   6.840
 7244SOL    HW222632   6.625   5.761   6.946
 7245SOL     OW22633   1.102   2.980   0.023
 7245SOL    HW122634   1.187   2.968   6.990
 7245SOL    HW222635   1.034   2.915   7.008
 7246SOL     OW22636   3.958   0.076   3.425
 7246SOL    HW122637   3.884   0.021   3.386
 7246SOL    HW222638   3.953   0.073   3.525
 7247SOL     OW22639   3.006   3.898   4.344
 7247SOL    HW122640   2.966   3.898   4.252
 7247SOL    HW222641   3.103   3.923   4.338
 7248SOL     OW22642   2.985   1.612   5.605
 7248SOL    HW122643   3.067   1.649   5.648
 7248SOL    HW222644   2.996   1.614   5.505
 7249SOL     OW22645   3.352   5.719   2.850
 7249SOL    HW122646   3.392   5.807   2.874
 7249SOL    HW222647   3.257   5.716   2.882
 7250SOL     OW22648   5.583   5.244   5.743
 7250SOL    HW122649   5.514   5.299   5.791
 7250SOL    HW222650   5.560   5.240   5.646
 7251SOL     OW22651   1.015   5.386   4.229
 7251SOL    HW122652   1.025   5.483   4.252
 7251SOL    HW222653   1.039   5.330   4.309
 7252SOL     OW22654   4.061   3.674   2.115
 7252SOL    HW122655   4.051   3.588   2.066
 7252SOL    HW222656   4.157   3.702   2.114
 7253SOL     OW22657   2.155   5.263   4.564
 7253SOL    HW122658   2.062   5.295   4.547
 7253SOL    HW222659   2.155   5.202   4.643
 7254SOL     OW22660   6.424   3.818   3.813
 7254SOL    HW122661   6.363   3.751   3.855
 7254SOL    HW222662   6.430   3.898   3.872
 7255SOL     OW22663   4.655   4.047   0.145
 7255SOL    HW122664   4.715   3.997   0.208
 7255SOL    HW222665   4.560   4.041   0.176
 7256SOL     OW22666   3.280   6.977   3.970
 7256SOL    HW122667   3.332   0.041   3.945
 7256SOL    HW222668   3.199   6.970   3.911
 7257SOL     OW22669   0.637   1.350   4.847
 7257SOL    HW122670   0.591   1.413   4.909
 7257SOL    HW222671   0.687   1.402   4.777
 7258SOL     OW22672   6.243   2.749   1.861
 7258SOL    HW122673   6.283   2.721   1.948
 7258SOL    HW222674   6.301   2.716   1.786
 7259SOL     OW22675   1.425   3.741   2.594
 7259SOL    HW122676   1.353   3.801   2.628
 7259SOL    HW222677   1.397   3.701   2.507
 7260SOL     OW22678   6.091   3.169   0.771
 7260SOL    HW122679   6.187   3.146   0.784
 7260SOL    HW222680   6.054   3.209   0.855
 7261SOL     OW22681   6.732   3.825   6.739
 7261SOL    HW122682   6.655   3.803   6.799
 7261SOL    HW222683   6.809   3.766   6.761
 7262SOL     OW22684   4.821   1.347   4.895
 7262SOL    HW122685   4.727   1.363   4.867
 7262SOL    HW222686   4.875   1.430   4.880
 7263SOL     OW22687   6.734   5.316   5.676
 7263SOL    HW122688   6.728   5.371   5.759
 7263SOL    HW222689   6.753   5.377   5.598
 7264SOL     OW22690   5.581   1.604   1.681
 7264SOL    HW122691   5.532   1.594   1.768
 7264SOL    HW222692   5.668   1.650   1.696
 7265SOL     OW22693   3.990   0.711   5.432
 7265SOL    HW122694   4.046   0.794   5.425
 7265SOL    HW222695   3.987   0.681   5.527
 7266SOL     OW22696   0.279   0.580   3.024
 7266SOL    HW122697   0.230   0.655   3.068
 7266SOL    HW222698   0.229   0.494   3.041
 7267SOL     OW22699   6.805   4.146   4.442
 7267SOL    HW122700   6.808   4.156   4.542
 7267SOL    HW222701   6.871   4.209   4.401
 7268SOL     OW22702   6.133   6.702   4.223
 7268SOL    HW122703   6.192   6.688   4.303
 7268SOL    HW222704   6.075   6.621   4.210
 7269SOL     OW22705   2.669   4.683   4.679
 7269SOL    HW122706   2.735   4.696   4.754
 7269SOL    HW222707   2.576   4.682   4.716
 7270SOL     OW22708   0.828   0.392   4.764
 7270SOL    HW122709   0.794   0.372   4.856
 7270SOL    HW222710   0.786   0.477   4.731
 7271SOL     OW22711   0.571   5.000   3.381
 7271SOL    HW122712   0.494   5.031   3.436
 7271SOL    HW222713   0.559   4.903   3.358
 7272SOL     OW22714   6.321   3.885   1.782
 7272SOL    HW122715   6.361   3.944   1.852
 7272SOL    HW222716   6.229   3.917   1.760
 7273SOL     OW22717   0.596   1.481   5.483
 7273SOL    HW122718   0.587   1.412   5.412
 7273SOL    HW222719   0.580   1.572   5.443
 7274SOL     OW22720   0.307   5.087   6.048
 7274SOL    HW122721   0.307   5.186   6.032
 7274SOL    HW222722   0.387   5.046   6.003
 7275SOL     OW22723   0.870   5.854   3.807
 7275SOL    HW122724   0.927   5.840   3.726
 7275SOL    HW222725   0.864   5.768   3.858
 7276SOL     OW22726   4.578   6.066   3.501
 7276SOL    HW122727   4.571   6.122   3.418
 7276SOL    HW222728   4.561   6.123   3.581
 7277SOL     OW22729   4.697   1.087   0.339
 7277SOL    HW122730   4.629   1.014   0.332
 7277SOL    HW222731   4.740   1.101   0.250
 7278SOL     OW22732   3.439   2.949   2.303
 7278SOL    HW122733   3.486   2.891   2.237
 7278SOL    HW222734   3.348   2.971   2.268
 7279SOL     OW22735   3.493   6.776   6.123
 7279SOL    HW122736   3.396   6.753   6.124
 7279SOL    HW222737   3.514   6.838   6.198
 7280SOL     OW22738   4.807   1.750   5.883
 7280SOL    HW122739   4.742   1.791   5.820
 7280SOL    HW222740   4.821   1.811   5.961
 7281SOL     OW22741   5.309   1.281   6.329
 7281SOL    HW122742   5.404   1.279   6.300
 7281SOL    HW222743   5.269   1.370   6.308
 7282SOL     OW22744   5.807   6.109   2.011
 7282SOL    HW122745   5.874   6.159   2.067
 7282SOL    HW222746   5.724   6.164   2.002
 7283SOL     OW22747   2.313   0.948   3.977
 7283SOL    HW122748   2.297   1.025   4.039
 7283SOL    HW222749   2.310   0.980   3.883
 7284SOL     OW22750   0.947   1.857   5.408
 7284SOL    HW122751   1.019   1.830   5.472
 7284SOL    HW222752   0.947   1.957   5.399
 7285SOL     OW22753   5.822   4.791   1.597
 7285SOL    HW122754   5.873   4.847   1.531
 7285SOL    HW222755   5.860   4.698   1.599
 7286SOL     OW22756   2.170   4.311   0.668
 7286SOL    HW122757   2.136   4.220   0.644
 7286SOL    HW222758   2.167   4.370   0.587
 7287SOL     OW22759   5.815   1.369   5.664
 7287SOL    HW122760   5.791   1.451   5.717
 7287SOL    HW222761   5.788   1.287   5.715
 7288SOL     OW22762   2.764   6.842   0.326
 7288SOL    HW122763   2.764   6.831   0.425
 7288SOL    HW222764   2.831   6.910   0.299
 7289SOL     OW22765   5.056   2.242   4.400
 7289SOL    HW122766   4.985   2.312   4.391
 7289SOL    HW222767   5.079   2.230   4.497
 7290SOL     OW22768   2.244   5.878   4.966
 7290SOL    HW122769   2.194   5.793   4.949
 7290SOL    HW222770   2.274   5.881   5.061
 7291SOL     OW22771   3.429   5.023   1.590
 7291SOL    HW122772   3.464   5.079   1.666
 7291SOL    HW222773   3.363   5.076   1.538
 7292SOL     OW22774   3.251   6.876   4.619
 7292SOL    HW122775   3.287   6.843   4.532
 7292SOL    HW222776   3.222   6.798   4.675
 7293SOL     OW22777   1.987   1.781   6.620
 7293SOL    HW122778   1.987   1.832   6.706
 7293SOL    HW222779   1.952   1.839   6.547
 7294SOL     OW22780   4.803   5.774   0.459
 7294SOL    HW122781   4.803   5.731   0.369
 7294SOL    HW222782   4.787   5.873   0.449
 7295SOL     OW22783   5.219   0.295   1.389
 7295SOL    HW122784   5.301   0.347   1.365
 7295SOL    HW222785   5.240   0.234   1.465
 7296SOL     OW22786   4.166   5.096   1.717
 7296SOL    HW122787   4.132   5.118   1.809
 7296SOL    HW222788   4.203   5.178   1.674
 7297SOL     OW22789   5.435   6.716   2.183
 7297SOL    HW122790   5.349   6.735   2.135
 7297SOL    HW222791   5.421   6.725   2.281
 7298SOL     OW22792   6.677   3.652   4.220
 7298SOL    HW122793   6.611   3.579   4.204
 7298SOL    HW222794   6.757   3.639   4.162
 7299SOL     OW22795   5.269   3.716   6.190
 7299SOL    HW122796   5.196   3.685   6.251
 7299SOL    HW222797   5.254   3.678   6.098
 7300SOL     OW22798   4.894   5.396   1.668
 7300SOL    HW122799   4.976   5.453   1.676
 7300SOL    HW222800   4.820   5.439   1.719
 7301SOL     OW22801   6.420   1.325   6.326
 7301SOL    HW122802   6.382   1.283   6.408
 7301SOL    HW222803   6.388   1.419   6.318
 7302SOL     OW22804   5.546   1.031   6.404
 7302SOL    HW122805   5.540   0.995   6.498
 7302SOL    HW222806   5.596   0.967   6.347
 7303SOL     OW22807   3.708   0.689   0.723
 7303SOL    HW122808   3.774   0.664   0.652
 7303SOL    HW222809   3.729   0.780   0.758
 7304SOL     OW22810   3.605   3.567   5.288
 7304SOL    HW122811   3.555   3.562   5.374
 7304SOL    HW222812   3.548   3.612   5.219
 7305SOL     OW22813   5.432   1.538   0.490
 7305SOL    HW122814   5.388   1.452   0.518
 7305SOL    HW222815   5.503   1.562   0.556
 7306SOL     OW22816   4.930   4.872   1.984
 7306SOL    HW122817   4.896   4.803   2.048
 7306SOL    HW222818   4.853   4.911   1.933
 7307SOL     OW22819   4.127   6.627   2.475
 7307SOL    HW122820   4.030   6.626   2.502
 7307SOL    HW222821   4.165   6.536   2.483
 7308SOL     OW22822   6.140   0.893   4.047
 7308SOL    HW122823   6.214   0.930   3.990
 7308SOL    HW222824   6.179   0.829   4.113
 7309SOL     OW22825   4.321   5.396   2.494
 7309SOL    HW122826   4.230   5.385   2.534
 7309SOL    HW222827   4.340   5.494   2.482
 7310SOL     OW22828   2.064   5.714   1.493
 7310SOL    HW122829   2.001   5.640   1.468
 7310SOL    HW222830   2.116   5.687   1.574
 7311SOL     OW22831   2.694   2.142   2.225
 7311SOL    HW122832   2.729   2.226   2.183
 7311SOL    HW222833   2.599   2.156   2.253
 7312SOL     OW22834   0.197   1.998   5.946
 7312SOL    HW122835   0.158   2.050   6.023
 7312SOL    HW222836   0.123   1.967   5.886
 7313SOL     OW22837   3.538   2.450   6.133
 7313SOL    HW122838   3.590   2.403   6.062
 7313SOL    HW222839   3.444   2.416   6.134
 7314SOL     OW22840   1.134   2.604   4.659
 7314SOL    HW122841   1.095   2.633   4.572
 7314SOL    HW222842   1.229   2.578   4.646
 7315SOL     OW22843   0.057   0.759   5.812
 7315SOL    HW122844   0.127   0.804   5.868
 7315SOL    HW222845   0.067   0.786   5.717
 7316SOL     OW22846   3.958   3.394   4.965
 7316SOL    HW122847   3.922   3.342   4.888
 7316SOL    HW222848   3.923   3.356   5.050
 7317SOL     OW22849   3.395   1.213   3.724
 7317SOL    HW122850   3.401   1.153   3.804
 7317SOL    HW222851   3.424   1.162   3.642
 7318SOL     OW22852   1.514   1.714   1.121
 7318SOL    HW122853   1.525   1.726   1.220
 7318SOL    HW222854   1.583   1.767   1.072
 7319SOL     OW22855   0.275   4.010   5.929
 7319SOL    HW122856   0.279   4.086   5.864
 7319SOL    HW222857   0.328   3.933   5.894
 7320SOL     OW22858   6.904   2.473   2.384
 7320SOL    HW122859   6.927   2.507   2.293
 7320SOL    HW222860   6.882   2.376   2.379
 7321SOL     OW22861   2.698   1.397   4.446
 7321SOL    HW122862   2.734   1.329   4.383
 7321SOL    HW222863   2.616   1.362   4.491
 7322SOL     OW22864   0.483   3.407   1.873
 7322SOL    HW122865   0.484   3.355   1.959
 7322SOL    HW222866   0.389   3.409   1.837
 7323SOL     OW22867   2.273   4.191   3.254
 7323SOL    HW122868   2.187   4.146   3.230
 7323SOL    HW222869   2.349   4.128   3.238
 7324SOL     OW22870   5.102   5.540   2.375
 7324SOL    HW122871   5.183   5.482   2.374
 7324SOL    HW222872   5.064   5.544   2.468
 7325SOL     OW22873   3.041   6.288   0.478
 7325SOL    HW122874   3.021   6.323   0.569
 7325SOL    HW222875   3.136   6.308   0.454
 7326SOL     OW22876   2.298   0.803   4.843
 7326SOL    HW122877   2.239   0.865   4.896
 7326SOL    HW222878   2.337   0.734   4.903
 7327SOL     OW22879   1.592   2.851   5.039
 7327SOL    HW122880   1.655   2.778   5.012
 7327SOL    HW222881   1.570   2.907   4.959
 7328SOL     OW22882   2.586   6.779   6.526
 7328SOL    HW122883   2.511   6.715   6.509
 7328SOL    HW222884   2.653   6.737   6.586
 7329SOL     OW22885   4.610   3.548   1.535
 7329SOL    HW122886   4.682   3.612   1.564
 7329SOL    HW222887   4.533   3.553   1.599
 7330SOL     OW22888   4.316   2.107   0.841
 7330SOL    HW122889   4.297   2.036   0.909
 7330SOL    HW222890   4.414   2.128   0.842
 7331SOL     OW22891   5.385   1.221   2.190
 7331SOL    HW122892   5.303   1.207   2.245
 7331SOL    HW222893   5.359   1.233   2.094
 7332SOL     OW22894   3.366   5.223   0.883
 7332SOL    HW122895   3.302   5.301   0.878
 7332SOL    HW222896   3.330   5.147   0.829
 7333SOL     OW22897   0.302   4.696   2.702
 7333SOL    HW122898   0.217   4.665   2.746
 7333SOL    HW222899   0.357   4.617   2.678
 7334SOL     OW22900   3.829   6.831   4.547
 7334SOL    HW122901   3.732   6.812   4.532
 7334SOL    HW222902   3.858   6.793   4.635
 7335SOL     OW22903   2.308   2.698   2.897
 7335SOL    HW122904   2.216   2.660   2.901
 7335SOL    HW222905   2.356   2.661   2.818
 7336SOL     OW22906   1.950   6.279   4.158
 7336SOL    HW122907   1.893   6.324   4.090
 7336SOL    HW222908   1.966   6.340   4.235
 7337SOL     OW22909   4.998   2.264   1.959
 7337SOL    HW122910   5.033   2.357   1.949
 7337SOL    HW222911   4.978   2.247   2.055
 7338SOL     OW22912   6.524   3.127   0.133
 7338SOL    HW122913   6.488   3.216   0.106
 7338SOL    HW222914   6.525   3.066   0.054
 7339SOL     OW22915   1.185   5.609   4.428
 7339SOL    HW122916   1.264   5.662   4.397
 7339SOL    HW222917   1.199   5.581   4.524
 7340SOL     OW22918   2.455   0.007   6.542
 7340SOL    HW122919   2.360   0.006   6.572
 7340SOL    HW222920   2.506   6.954   6.591
 7341SOL     OW22921   6.677   1.762   0.665
 7341SOL    HW122922   6.598   1.776   0.606
 7341SOL    HW222923   6.759   1.748   0.609
 7342SOL     OW22924   0.462   6.485   2.024
 7342SOL    HW122925   0.412   6.555   2.074
 7342SOL    HW222926   0.463   6.400   2.077
 7343SOL     OW22927   5.724   2.853   0.522
 7343SOL    HW122928   5.634   2.818   0.547
 7343SOL    HW222929   5.793   2.810   0.579
 7344SOL     OW22930   1.999   5.994   6.365
 7344SOL    HW122931   2.013   5.913   6.422
 7344SOL    HW222932   1.939   6.058   6.413
 7345SOL     OW22933   3.226   5.700   6.142
 7345SOL    HW122934   3.296   5.771   6.141
 7345SOL    HW222935   3.187   5.693   6.234
 7346SOL     OW22936   4.225   5.101   2.608
 7346SOL    HW122937   4.211   5.005   2.633
 7346SOL    HW222938   4.296   5.106   2.537
 7347SOL     OW22939   6.255   1.308   0.296
 7347SOL    HW122940   6.272   1.364   0.377
 7347SOL    HW222941   6.315   1.228   0.298
 7348SOL     OW22942   6.107   4.534   6.962
 7348SOL    HW122943   6.164   4.551   6.881
 7348SOL    HW222944   6.061   4.446   6.952
 7349SOL     OW22945   3.705   1.696   1.745
 7349SOL    HW122946   3.625   1.714   1.802
 7349SOL    HW222947   3.777   1.761   1.768
 7350SOL     OW22948   3.908   0.892   4.048
 7350SOL    HW122949   3.889   0.837   3.967
 7350SOL    HW222950   3.912   0.989   4.022
 7351SOL     OW22951   2.339   4.333   4.202
 7351SOL    HW122952   2.337   4.266   4.276
 7351SOL    HW222953   2.333   4.286   4.114
 7352SOL     OW22954   6.014   3.884   4.030
 7352SOL    HW122955   6.031   3.935   4.114
 7352SOL    HW222956   6.051   3.792   4.039
 7353SOL     OW22957   6.362   0.712   5.590
 7353SOL    HW122958   6.265   0.727   5.608
 7353SOL    HW222959   6.378   0.618   5.562
 7354SOL     OW22960   0.640   1.575   2.956
 7354SOL    HW122961   0.558   1.531   2.992
 7354SOL    HW222962   0.720   1.517   2.972
 7355SOL     OW22963   3.423   1.645   0.465
 7355SOL    HW122964   3.362   1.618   0.390
 7355SOL    HW222965   3.372   1.643   0.551
 7356SOL     OW22966   3.880   3.900   5.998
 7356SOL    HW122967   3.842   3.826   5.943
 7356SOL    HW222968   3.845   3.988   5.964
 7357SOL     OW22969   5.233   6.595   2.012
 7357SOL    HW122970   5.214   6.688   1.981
 7357SOL    HW222971   5.153   6.560   2.062
 7358SOL     OW22972   5.633   0.800   3.544
 7358SOL    HW122973   5.661   0.747   3.624
 7358SOL    HW222974   5.536   0.824   3.552
 7359SOL     OW22975   4.411   6.822   1.712
 7359SOL    HW122976   4.446   6.914   1.728
 7359SOL    HW222977   4.393   6.777   1.800
 7360SOL     OW22978   2.874   3.554   4.883
 7360SOL    HW122979   2.786   3.562   4.929
 7360SOL    HW222980   2.898   3.458   4.871
 7361SOL     OW22981   6.969   0.552   3.257
 7361SOL    HW122982   6.929   0.479   3.202
 7361SOL    HW222983   6.983   0.633   3.199
 7362SOL     OW22984   3.268   5.765   0.238
 7362SOL    HW122985   3.210   5.684   0.230
 7362SOL    HW222986   3.363   5.736   0.251
 7363SOL     OW22987   4.206   0.849   1.087
 7363SOL    HW122988   4.267   0.774   1.060
 7363SOL    HW222989   4.254   0.911   1.149
 7364SOL     OW22990   5.944   6.528   1.612
 7364SOL    HW122991   6.024   6.468   1.618
 7364SOL    HW222992   5.871   6.493   1.671
 7365SOL     OW22993   4.850   3.624   2.289
 7365SOL    HW122994   4.817   3.706   2.243
 7365SOL    HW222995   4.868   3.645   2.385
 7366SOL     OW22996   1.970   0.183   3.715
 7366SOL    HW122997   1.897   0.246   3.690
 7366SOL    HW222998   1.936   0.089   3.710
 7367SOL     OW22999   4.141   1.073   6.659
 7367SOL    HW123000   4.148   1.101   6.755
 7367SOL    HW223001   4.053   1.104   6.622
 7368SOL     OW23002   3.521   3.145   3.332
 7368SOL    HW123003   3.456   3.206   3.378
 7368SOL    HW223004   3.611   3.156   3.374
 7369SOL     OW23005   5.531   3.188   0.233
 7369SOL    HW123006   5.605   3.218   0.173
 7369SOL    HW223007   5.567   3.174   0.325
 7370SOL     OW23008   1.807   0.970   4.722
 7370SOL    HW123009   1.805   0.994   4.819
 7370SOL    HW223010   1.713   0.967   4.687
 7371SOL     OW23011   3.993   1.040   3.714
 7371SOL    HW123012   4.075   1.092   3.688
 7371SOL    HW223013   3.946   1.008   3.631
 7372SOL     OW23014   5.324   1.192   5.326
 7372SOL    HW123015   5.380   1.213   5.406
 7372SOL    HW223016   5.348   1.253   5.250
 7373SOL     OW23017   6.040   3.187   4.415
 7373SOL    HW123018   6.127   3.165   4.370
 7373SOL    HW223019   6.048   3.168   4.513
 7374SOL     OW23020   0.519   2.044   6.456
 7374SOL    HW123021   0.491   2.082   6.368
 7374SOL    HW223022   0.550   1.950   6.443
 7375SOL     OW23023   1.485   3.675   0.577
 7375SOL    HW123024   1.416   3.746   0.566
 7375SOL    HW223025   1.524   3.652   0.488
 7376SOL     OW23026   6.828   4.050   0.613
 7376SOL    HW123027   6.858   4.088   0.525
 7376SOL    HW223028   6.844   4.116   0.686
 7377SOL     OW23029   2.555   5.735   1.469
 7377SOL    HW123030   2.512   5.700   1.386
 7377SOL    HW223031   2.590   5.659   1.523
 7378SOL     OW23032   1.960   5.096   5.021
 7378SOL    HW123033   2.012   5.011   5.012
 7378SOL    HW223034   1.939   5.113   5.118
 7379SOL     OW23035   4.341   1.578   2.670
 7379SOL    HW123036   4.360   1.658   2.613
 7379SOL    HW223037   4.251   1.541   2.647
 7380SOL     OW23038   5.462   3.248   1.540
 7380SOL    HW123039   5.540   3.205   1.586
 7380SOL    HW223040   5.377   3.214   1.580
 7381SOL     OW23041   3.784   6.878   1.802
 7381SOL    HW123042   3.880   6.876   1.832
 7381SOL    HW223043   3.775   6.830   1.715
 7382SOL     OW23044   6.714   1.791   6.101
 7382SOL    HW123045   6.705   1.691   6.097
 7382SOL    HW223046   6.809   1.817   6.083
 7383SOL     OW23047   2.047   6.629   0.743
 7383SOL    HW123048   1.974   6.561   0.730
 7383SOL    HW223049   2.105   6.601   0.819
 7384SOL     OW23050   6.767   6.603   0.835
 7384SOL    HW123051   6.843   6.651   0.790
 7384SOL    HW223052   6.719   6.667   0.896
 7385SOL     OW23053   6.064   4.852   2.944
 7385SOL    HW123054   5.972   4.814   2.947
 7385SOL    HW223055   6.124   4.789   2.894
 7386SOL     OW23056   5.231   3.580   6.937
 7386SOL    HW123057   5.255   3.554   6.843
 7386SOL    HW223058   5.137   3.551   6.956
 7387SOL     OW23059   6.063   5.757   4.725
 7387SOL    HW123060   6.087   5.777   4.820
 7387SOL    HW223061   6.028   5.664   4.718
 7388SOL     OW23062   2.358   4.312   2.498
 7388SOL    HW123063   2.264   4.280   2.489
 7388SOL    HW223064   2.420   4.234   2.493
 7389SOL     OW23065   6.543   3.000   0.390
 7389SOL    HW123066   6.514   3.017   0.296
 7389SOL    HW223067   6.542   3.086   0.441
 7390SOL     OW23068   2.548   2.544   3.983
 7390SOL    HW123069   2.545   2.495   3.895
 7390SOL    HW223070   2.491   2.626   3.976
 7391SOL     OW23071   3.401   3.845   3.248
 7391SOL    HW123072   3.330   3.784   3.284
 7391SOL    HW223073   3.429   3.814   3.157
 7392SOL     OW23074   2.974   6.956   0.170
 7392SOL    HW123075   3.056   6.990   0.125
 7392SOL    HW223076   3.000   6.910   0.256
 7393SOL     OW23077   4.632   5.583   3.365
 7393SOL    HW123078   4.620   5.654   3.434
 7393SOL    HW223079   4.552   5.523   3.365
 7394SOL     OW23080   2.215   2.045   5.545
 7394SOL    HW123081   2.278   2.027   5.470
 7394SOL    HW223082   2.178   1.958   5.580
 7395SOL     OW23083   2.884   6.063   1.180
 7395SOL    HW123084   2.866   6.063   1.081
 7395SOL    HW223085   2.983   6.061   1.196
 7396SOL     OW23086   1.272   5.023   2.384
 7396SOL    HW123087   1.203   4.980   2.443
 7396SOL    HW223088   1.244   5.116   2.362
 7397SOL     OW23089   6.191   4.898   3.677
 7397SOL    HW123090   6.270   4.848   3.643
 7397SOL    HW223091   6.167   4.971   3.613
 7398SOL     OW23092   3.115   4.825   2.309
 7398SOL    HW123093   3.192   4.768   2.281
 7398SOL    HW223094   3.041   4.817   2.242
 7399SOL     OW23095   5.206   1.463   6.085
 7399SOL    HW123096   5.181   1.434   5.992
 7399SOL    HW223097   5.132   1.519   6.123
 7400SOL     OW23098   4.726   3.737   5.616
 7400SOL    HW123099   4.727   3.824   5.665
 7400SOL    HW223100   4.699   3.664   5.679
 7401SOL     OW23101   1.627   2.388   3.875
 7401SOL    HW123102   1.687   2.370   3.797
 7401SOL    HW223103   1.626   2.308   3.935
 7402SOL     OW23104   3.696   5.441   4.278
 7402SOL    HW123105   3.791   5.448   4.248
 7402SOL    HW223106   3.686   5.489   4.365
 7403SOL     OW23107   2.019   4.269   4.221
 7403SOL    HW123108   2.106   4.227   4.245
 7403SOL    HW223109   1.946   4.201   4.228
 7404SOL     OW23110   2.874   3.902   0.763
 7404SOL    HW123111   2.848   3.902   0.667
 7404SOL    HW223112   2.926   3.819   0.784
 7405SOL     OW23113   3.805   6.768   5.531
 7405SOL    HW123114   3.760   6.833   5.592
 7405SOL    HW223115   3.762   6.678   5.541
 7406SOL     OW23116   0.889   2.307   4.254
 7406SOL    HW123117   0.849   2.397   4.239
 7406SOL    HW223118   0.837   2.258   4.324
 7407SOL     OW23119   1.246   6.229   5.575
 7407SOL    HW123120   1.248   6.237   5.475
 7407SOL    HW223121   1.323   6.279   5.614
 7408SOL     OW23122   4.498   5.750   4.922
 7408SOL    HW123123   4.560   5.675   4.905
 7408SOL    HW223124   4.404   5.715   4.931
 7409SOL     OW23125   6.698   4.173   1.388
 7409SOL    HW123126   6.646   4.232   1.450
 7409SOL    HW223127   6.681   4.077   1.411
 7410SOL     OW23128   6.567   0.556   1.024
 7410SOL    HW123129   6.475   0.572   0.990
 7410SOL    HW223130   6.606   0.476   0.977
 7411SOL     OW23131   3.148   1.844   4.794
 7411SOL    HW123132   3.095   1.771   4.751
 7411SOL    HW223133   3.145   1.926   4.736
 7412SOL     OW23134   3.903   6.792   0.543
 7412SOL    HW123135   3.840   6.864   0.516
 7412SOL    HW223136   3.954   6.760   0.463
 7413SOL     OW23137   4.767   1.031   3.579
 7413SOL    HW123138   4.813   1.073   3.501
 7413SOL    HW223139   4.809   1.063   3.664
 7414SOL     OW23140   2.813   0.772   3.865
 7414SOL    HW123141   2.807   0.674   3.884
 7414SOL    HW223142   2.908   0.801   3.872
 7415SOL     OW23143   3.949   6.984   6.280
 7415SOL    HW123144   3.857   0.003   6.267
 7415SOL    HW223145   3.971   6.922   6.204
 7416SOL     OW23146   1.790   0.639   1.855
 7416SOL    HW123147   1.789   0.727   1.807
 7416SOL    HW223148   1.697   0.601   1.856
 7417SOL     OW23149   0.903   0.766   2.081
 7417SOL    HW123150   0.987   0.719   2.056
 7417SOL    HW223151   0.915   0.864   2.070
 7418SOL     OW23152   1.486   3.923   6.320
 7418SOL    HW123153   1.538   3.981   6.383
 7418SOL    HW223154   1.548   3.862   6.272
 7419SOL     OW23155   0.083   3.355   4.385
 7419SOL    HW123156   0.167   3.400   4.414
 7419SOL    HW223157   0.104   3.289   4.313
 7420SOL     OW23158   0.078   6.333   0.850
 7420SOL    HW123159   0.012   6.300   0.782
 7420SOL    HW223160   0.031   6.347   0.938
 7421SOL     OW23161   5.702   3.827   0.654
 7421SOL    HW123162   5.644   3.797   0.730
 7421SOL    HW223163   5.739   3.917   0.674
 7422SOL     OW23164   5.693   3.152   1.670
 7422SOL    HW123165   5.773   3.175   1.615
 7422SOL    HW223166   5.720   3.090   1.743
 7423SOL     OW23167   4.645   2.741   6.081
 7423SOL    HW123168   4.598   2.698   6.158
 7423SOL    HW223169   4.684   2.829   6.110
 7424SOL     OW23170   0.614   2.360   3.177
 7424SOL    HW123171   0.694   2.383   3.233
 7424SOL    HW223172   0.559   2.290   3.225
 7425SOL     OW23173   5.339   0.744   0.865
 7425SOL    HW123174   5.276   0.760   0.941
 7425SOL    HW223175   5.287   0.732   0.780
 7426SOL     OW23176   2.724   2.865   5.985
 7426SOL    HW123177   2.735   2.874   6.084
 7426SOL    HW223178   2.815   2.857   5.943
 7427SOL     OW23179   2.848   6.923   3.474
 7427SOL    HW123180   2.939   6.939   3.435
 7427SOL    HW223181   2.817   7.006   3.520
 7428SOL     OW23182   3.345   6.880   5.209
 7428SOL    HW123183   3.387   6.862   5.298
 7428SOL    HW223184   3.356   6.977   5.187
 7429SOL     OW23185   0.886   6.982   2.539
 7429SOL    HW123186   0.978   0.003   2.547
 7429SOL    HW223187   0.892   6.883   2.528
 7430SOL     OW23188   6.687   4.895   2.862
 7430SOL    HW123189   6.689   4.840   2.779
 7430SOL    HW223190   6.731   4.983   2.846
 7431SOL     OW23191   1.032   2.023   3.596
 7431SOL    HW123192   0.991   2.029   3.687
 7431SOL    HW223193   0.983   2.084   3.533
 7432SOL     OW23194   1.712   1.001   2.861
 7432SOL    HW123195   1.784   1.004   2.930
 7432SOL    HW223196   1.712   0.911   2.817
 7433SOL     OW23197   2.982   6.829   6.583
 7433SOL    HW123198   2.964   6.927   6.594
 7433SOL    HW223199   3.061   6.816   6.523
 7434SOL     OW23200   4.277   6.887   3.636
 7434SOL    HW123201   4.227   6.837   3.707
 7434SOL    HW223202   4.371   6.855   3.632
 7435SOL     OW23203   4.896   4.434   3.209
 7435SOL    HW123204   4.909   4.516   3.267
 7435SOL    HW223205   4.850   4.460   3.125
 7436SOL     OW23206   5.488   3.235   6.043
 7436SOL    HW123207   5.567   3.189   6.083
 7436SOL    HW223208   5.519   3.299   5.972
 7437SOL     OW23209   3.446   0.557   1.409
 7437SOL    HW123210   3.346   0.562   1.404
 7437SOL    HW223211   3.480   0.630   1.469
 7438SOL     OW23212   2.158   0.159   6.417
 7438SOL    HW123213   2.222   0.226   6.380
 7438SOL    HW223214   2.197   0.116   6.498
 7439SOL     OW23215   0.805   4.958   6.106
 7439SOL    HW123216   0.796   4.890   6.034
 7439SOL    HW223217   0.893   5.004   6.098
 7440SOL     OW23218   5.883   4.328   3.955
 7440SOL    HW123219   5.981   4.336   3.939
 7440SOL    HW223220   5.867   4.275   4.038
 7441SOL     OW23221   4.763   5.970   0.978
 7441SOL    HW123222   4.844   6.020   0.949
 7441SOL    HW223223   4.760   5.965   1.077
 7442SOL     OW23224   5.145   1.046   6.418
 7442SOL    HW123225   5.057   1.024   6.377
 7442SOL    HW223226   5.202   1.095   6.352
 7443SOL     OW23227   0.129   0.319   1.186
 7443SOL    HW123228   0.107   0.262   1.107
 7443SOL    HW223229   0.208   0.376   1.164
 7444SOL     OW23230   1.591   6.390   0.320
 7444SOL    HW123231   1.622   6.460   0.384
 7444SOL    HW223232   1.625   6.412   0.228
 7445SOL     OW23233   3.808   5.637   2.142
 7445SOL    HW123234   3.846   5.640   2.049
 7445SOL    HW223235   3.881   5.615   2.207
 7446SOL     OW23236   5.676   4.925   6.684
 7446SOL    HW123237   5.702   5.020   6.669
 7446SOL    HW223238   5.640   4.914   6.777
 7447SOL     OW23239   0.478   5.204   0.984
 7447SOL    HW123240   0.449   5.287   1.032
 7447SOL    HW223241   0.575   5.210   0.964
 7448SOL     OW23242   4.468   5.281   6.520
 7448SOL    HW123243   4.558   5.241   6.504
 7448SOL    HW223244   4.443   5.340   6.443
 7449SOL     OW23245   6.354   4.321   5.885
 7449SOL    HW123246   6.443   4.285   5.911
 7449SOL    HW223247   6.296   4.247   5.851
 7450SOL     OW23248   5.891   2.226   6.334
 7450SOL    HW123249   5.830   2.270   6.268
 7450SOL    HW223250   5.982   2.268   6.329
 7451SOL     OW23251   4.506   4.455   3.148
 7451SOL    HW123252   4.521   4.379   3.211
 7451SOL    HW223253   4.499   4.540   3.200
 7452SOL     OW23254   6.500   5.488   6.094
 7452SOL    HW123255   6.457   5.480   6.184
 7452SOL    HW223256   6.445   5.438   6.026
 7453SOL     OW23257   3.969   5.908   6.026
 7453SOL    HW123258   3.959   5.856   6.110
 7453SOL    HW223259   4.006   5.998   6.047
 7454SOL     OW23260   3.371   2.220   1.362
 7454SOL    HW123261   3.416   2.284   1.423
 7454SOL    HW223262   3.430   2.140   1.349
 7455SOL     OW23263   6.827   1.110   3.128
 7455SOL    HW123264   6.863   1.054   3.054
 7455SOL    HW223265   6.884   1.192   3.138
 7456SOL     OW23266   2.929   1.900   6.160
 7456SOL    HW123267   2.997   1.836   6.124
 7456SOL    HW223268   2.870   1.932   6.085
 7457SOL     OW23269   1.154   1.112   2.538
 7457SOL    HW123270   1.254   1.122   2.536
 7457SOL    HW223271   1.122   1.079   2.450
 7458SOL     OW23272   1.240   5.424   5.266
 7458SOL    HW123273   1.204   5.383   5.182
 7458SOL    HW223274   1.299   5.358   5.312
 7459SOL     OW23275   5.877   0.074   3.406
 7459SOL    HW123276   5.843   0.159   3.366
 7459SOL    HW223277   5.973   0.085   3.430
 7460SOL     OW23278   1.340   0.361   1.514
 7460SOL    HW123279   1.248   0.400   1.517
 7460SOL    HW223280   1.387   0.379   1.600
 7461SOL     OW23281   1.842   4.502   5.034
 7461SOL    HW123282   1.884   4.579   4.986
 7461SOL    HW223283   1.763   4.469   4.983
 7462SOL     OW23284   1.743   4.260   0.263
 7462SOL    HW123285   1.666   4.316   0.230
 7462SOL    HW223286   1.811   4.251   0.190
 7463SOL     OW23287   5.120   5.075   1.736
 7463SOL    HW123288   5.046   5.102   1.796
 7463SOL    HW223289   5.082   5.038   1.650
 7464SOL     OW23290   6.198   6.132   5.105
 7464SOL    HW123291   6.154   6.044   5.087
 7464SOL    HW223292   6.130   6.205   5.099
 7465SOL     OW23293   1.374   4.241   6.737
 7465SOL    HW123294   1.331   4.329   6.759
 7465SOL    HW223295   1.401   4.240   6.640
 7466SOL     OW23296   0.086   0.222   4.855
 7466SOL    HW123297   0.148   0.299   4.874
 7466SOL    HW223298   7.010   0.256   4.845
 7467SOL     OW23299   0.673   3.699   4.682
 7467SOL    HW123300   0.760   3.659   4.710
 7467SOL    HW223301   0.655   3.676   4.587
 7468SOL     OW23302   5.336   2.515   5.736
 7468SOL    HW123303   5.368   2.582   5.669
 7468SOL    HW223304   5.237   2.504   5.728
 7469SOL     OW23305   0.374   1.786   0.462
 7469SOL    HW123306   0.428   1.752   0.539
 7469SOL    HW223307   0.428   1.853   0.411
 7470SOL     OW23308   5.345   3.299   3.848
 7470SOL    HW123309   5.414   3.242   3.805
 7470SOL    HW223310   5.374   3.321   3.942
 7471SOL     OW23311   3.626   6.969   6.835
 7471SOL    HW123312   3.594   6.935   6.747
 7471SOL    HW223313   3.723   6.989   6.830
 7472SOL     OW23314   0.265   0.023   5.789
 7472SOL    HW123315   0.295   7.000   5.703
 7472SOL    HW223316   0.302   6.987   5.865
 7473SOL     OW23317   3.849   5.717   3.636
 7473SOL    HW123318   3.936   5.751   3.600
 7473SOL    HW223319   3.828   5.629   3.595
 7474SOL     OW23320   5.924   2.009   0.619
 7474SOL    HW123321   5.899   2.102   0.594
 7474SOL    HW223322   6.005   1.981   0.567
 7475SOL     OW23323   4.938   2.955   0.773
 7475SOL    HW123324   4.982   3.036   0.812
 7475SOL    HW223325   4.987   2.873   0.802
 7476SOL     OW23326   2.672   1.069   2.745
 7476SOL    HW123327   2.615   1.094   2.667
 7476SOL    HW223328   2.729   0.990   2.721
 7477SOL     OW23329   2.459   3.577   6.021
 7477SOL    HW123330   2.551   3.539   6.030
 7477SOL    HW223331   2.464   3.671   5.988
 7478SOL     OW23332   0.015   1.952   5.601
 7478SOL    HW123333   7.003   1.915   5.689
 7478SOL    HW223334   6.962   1.937   5.533
 7479SOL     OW23335   4.915   2.807   1.226
 7479SOL    HW123336   4.848   2.829   1.156
 7479SOL    HW223337   4.876   2.823   1.317
 7480SOL     OW23338   3.866   6.038   2.939
 7480SOL    HW123339   3.812   5.956   2.917
 7480SOL    HW223340   3.906   6.075   2.855
 7481SOL     OW23341   0.261   3.725   6.280
 7481SOL    HW123342   0.220   3.804   6.234
 7481SOL    HW223343   0.196   3.688   6.347
 7482SOL     OW23344   5.422   2.158   4.102
 7482SOL    HW123345   5.359   2.203   4.039
 7482SOL    HW223346   5.481   2.095   4.052
 7483SOL     OW23347   4.485   1.756   6.130
 7483SOL    HW123348   4.394   1.716   6.142
 7483SOL    HW223349   4.547   1.717   6.198
 7484SOL     OW23350   3.211   0.539   4.325
 7484SOL    HW123351   3.123   0.514   4.366
 7484SOL    HW223352   3.284   0.493   4.375
 7485SOL     OW23353   3.630   0.278   6.543
 7485SOL    HW123354   3.685   0.285   6.460
 7485SOL    HW223355   3.688   0.297   6.623
 7486SOL     OW23356   4.554   6.897   0.806
 7486SOL    HW123357   4.598   6.850   0.882
 7486SOL    HW223358   4.504   6.831   0.751
 7487SOL     OW23359   3.534   6.415   4.331
 7487SOL    HW123360   3.450   6.399   4.279
 7487SOL    HW223361   3.612   6.380   4.279
 7488SOL     OW23362   1.123   5.641   4.067
 7488SOL    HW123363   1.044   5.622   4.009
 7488SOL    HW223364   1.202   5.588   4.035
 7489SOL     OW23365   5.823   3.151   6.868
 7489SOL    HW123366   5.837   3.084   6.941
 7489SOL    HW223367   5.748   3.212   6.892
 7490SOL     OW23368   1.426   2.694   2.227
 7490SOL    HW123369   1.437   2.600   2.259
 7490SOL    HW223370   1.452   2.700   2.131
 7491SOL     OW23371   4.364   3.864   0.145
 7491SOL    HW123372   4.369   3.810   0.229
 7491SOL    HW223373   4.278   3.846   0.098
 7492SOL     OW23374   1.699   0.687   3.976
 7492SOL    HW123375   1.733   0.727   4.061
 7492SOL    HW223376   1.773   0.638   3.930
 7493SOL     OW23377   6.327   5.022   4.768
 7493SOL    HW123378   6.239   4.976   4.754
 7493SOL    HW223379   6.399   4.972   4.720
 7494SOL     OW23380   6.344   1.348   2.810
 7494SOL    HW123381   6.293   1.429   2.780
 7494SOL    HW223382   6.296   1.266   2.780
 7495SOL     OW23383   1.748   3.159   5.068
 7495SOL    HW123384   1.819   3.187   5.132
 7495SOL    HW223385   1.738   3.060   5.070
 7496SOL     OW23386   6.289   4.016   2.366
 7496SOL    HW123387   6.216   4.072   2.326
 7496SOL    HW223388   6.281   4.019   2.466
 7497SOL     OW23389   6.313   6.986   1.560
 7497SOL    HW123390   6.328   6.988   1.462
 7497SOL    HW223391   6.252   6.910   1.584
 7498SOL     OW23392   2.990   6.578   3.822
 7498SOL    HW123393   3.000   6.671   3.856
 7498SOL    HW223394   2.898   6.566   3.784
 7499SOL     OW23395   3.389   1.325   3.361
 7499SOL    HW123396   3.440   1.302   3.444
 7499SOL    HW223397   3.299   1.360   3.386
 7500SOL     OW23398   4.206   0.801   3.689
 7500SOL    HW123399   4.120   0.752   3.705
 7500SOL    HW223400   4.225   0.860   3.767
 7501SOL     OW23401   6.828   1.813   4.746
 7501SOL    HW123402   6.763   1.889   4.740
 7501SOL    HW223403   6.909   1.842   4.797
 7502SOL     OW23404   4.485   0.854   4.063
 7502SOL    HW123405   4.424   0.898   3.997
 7502SOL    HW223406   4.443   0.853   4.153
 7503SOL     OW23407   1.693   5.625   1.665
 7503SOL    HW123408   1.724   5.718   1.688
 7503SOL    HW223409   1.594   5.620   1.674
 7504SOL     OW23410   5.747   6.737   4.514
 7504SOL    HW123411   5.798   6.656   4.487
 7504SOL    HW223412   5.749   6.747   4.614
 7505SOL     OW23413   0.567   6.274   5.329
 7505SOL    HW123414   0.658   6.316   5.326
 7505SOL    HW223415   0.575   6.177   5.306
 7506SOL     OW23416   3.267   2.127   3.795
 7506SOL    HW123417   3.174   2.164   3.789
 7506SOL    HW223418   3.314   2.138   3.708
 7507SOL     OW23419   6.634   4.399   6.506
 7507SOL    HW123420   6.585   4.485   6.518
 7507SOL    HW223421   6.587   4.326   6.555
 7508SOL     OW23422   2.716   6.285   0.684
 7508SOL    HW123423   2.767   6.202   0.707
 7508SOL    HW223424   2.618   6.266   0.684
 7509SOL     OW23425   6.110   4.176   2.239
 7509SOL    HW123426   6.102   4.276   2.232
 7509SOL    HW223427   6.056   4.133   2.167
 7510SOL     OW23428   3.729   4.114   2.061
 7510SOL    HW123429   3.767   4.092   2.150
 7510SOL    HW223430   3.798   4.157   2.004
 7511SOL     OW23431   4.302   6.001   3.998
 7511SOL    HW123432   4.263   5.975   3.910
 7511SOL    HW223433   4.265   5.941   4.070
 7512SOL     OW23434   4.056   0.869   0.844
 7512SOL    HW123435   4.128   0.893   0.779
 7512SOL    HW223436   4.092   0.873   0.937
 7513SOL     OW23437   1.163   1.148   1.950
 7513SOL    HW123438   1.234   1.111   1.889
 7513SOL    HW223439   1.180   1.246   1.965
 7514SOL     OW23440   6.994   6.788   1.251
 7514SOL    HW123441   0.015   6.714   1.195
 7514SOL    HW223442   6.901   6.763   1.278
 7515SOL     OW23443   0.136   4.522   5.236
 7515SOL    HW123444   0.085   4.471   5.166
 7515SOL    HW223445   0.214   4.467   5.266
 7516SOL     OW23446   1.716   6.453   5.213
 7516SOL    HW123447   1.710   6.470   5.311
 7516SOL    HW223448   1.753   6.361   5.198
 7517SOL     OW23449   0.958   1.611   6.173
 7517SOL    HW123450   0.858   1.610   6.173
 7517SOL    HW223451   0.991   1.618   6.267
 7518SOL     OW23452   4.139   1.967   4.255
 7518SOL    HW123453   4.059   2.027   4.266
 7518SOL    HW223454   4.214   2.001   4.312
 7519SOL     OW23455   3.889   0.075   4.630
 7519SOL    HW123456   3.928   0.145   4.570
 7519SOL    HW223457   3.881   7.007   4.580
 7520SOL     OW23458   2.051   1.565   0.790
 7520SOL    HW123459   2.115   1.489   0.793
 7520SOL    HW223460   2.012   1.573   0.698
 7521SOL     OW23461   4.064   1.518   4.978
 7521SOL    HW123462   4.047   1.602   5.028
 7521SOL    HW223463   4.096   1.447   5.041
 7522SOL     OW23464   1.800   6.844   3.984
 7522SOL    HW123465   1.861   6.767   4.003
 7522SOL    HW223466   1.810   6.913   4.055
 7523SOL     OW23467   5.702   1.040   0.562
 7523SOL    HW123468   5.639   0.970   0.593
 7523SOL    HW223469   5.673   1.129   0.596
 7524SOL     OW23470   0.418   3.712   4.763
 7524SOL    HW123471   0.400   3.763   4.679
 7524SOL    HW223472   0.516   3.690   4.768
 7525SOL     OW23473   3.258   4.740   6.125
 7525SOL    HW123474   3.197   4.662   6.107
 7525SOL    HW223475   3.308   4.724   6.210
 7526SOL     OW23476   2.120   4.001   0.708
 7526SOL    HW123477   2.141   3.904   0.714
 7526SOL    HW223478   2.095   4.035   0.798
 7527SOL     OW23479   2.944   5.322   2.778
 7527SOL    HW123480   2.981   5.283   2.694
 7527SOL    HW223481   3.003   5.298   2.855
 7528SOL     OW23482   6.157   2.224   5.813
 7528SOL    HW123483   6.088   2.220   5.885
 7528SOL    HW223484   6.247   2.240   5.855
 7529SOL     OW23485   6.266   3.337   4.076
 7529SOL    HW123486   6.232   3.356   4.168
 7529SOL    HW223487   6.190   3.336   4.012
 7530SOL     OW23488   0.999   2.846   3.044
 7530SOL    HW123489   1.018   2.921   3.108
 7530SOL    HW223490   1.037   2.761   3.080
 7531SOL     OW23491   3.911   2.081   3.708
 7531SOL    HW123492   3.910   2.133   3.623
 7531SOL    HW223493   4.003   2.047   3.726
 7532SOL     OW23494   4.864   5.997   6.630
 7532SOL    HW123495   4.882   6.032   6.538
 7532SOL    HW223496   4.795   6.053   6.675
 7533SOL     OW23497   4.266   4.447   1.714
 7533SOL    HW123498   4.335   4.496   1.661
 7533SOL    HW223499   4.311   4.379   1.772
 7534SOL     OW23500   4.823   5.727   5.115
 7534SOL    HW123501   4.737   5.751   5.158
 7534SOL    HW223502   4.884   5.806   5.114
 7535SOL     OW23503   0.155   6.518   3.948
 7535SOL    HW123504   0.246   6.531   3.988
 7535SOL    HW223505   0.091   6.584   3.987
 7536SOL     OW23506   6.243   6.149   3.425
 7536SOL    HW123507   6.329   6.176   3.469
 7536SOL    HW223508   6.167   6.197   3.469
 7537SOL     OW23509   1.747   6.389   2.893
 7537SOL    HW123510   1.806   6.351   2.822
 7537SOL    HW223511   1.789   6.472   2.931
 7538SOL     OW23512   0.258   4.583   6.878
 7538SOL    HW123513   0.330   4.589   6.808
 7538SOL    HW223514   0.171   4.609   6.836
 7539SOL     OW23515   6.796   0.171   4.283
 7539SOL    HW123516   6.729   0.245   4.279
 7539SOL    HW223517   6.884   0.203   4.248
 7540SOL     OW23518   5.305   4.569   3.023
 7540SOL    HW123519   5.258   4.545   3.108
 7540SOL    HW223520   5.248   4.544   2.945
 7541SOL     OW23521   2.680   4.119   5.840
 7541SOL    HW123522   2.682   4.217   5.859
 7541SOL    HW223523   2.588   4.092   5.811
 7542SOL     OW23524   5.839   5.776   4.528
 7542SOL    HW123525   5.855   5.692   4.477
 7542SOL    HW223526   5.912   5.788   4.596
 7543SOL     OW23527   2.280   1.200   0.346
 7543SOL    HW123528   2.288   1.133   0.420
 7543SOL    HW223529   2.183   1.211   0.323
 7544SOL     OW23530   6.449   1.262   4.496
 7544SOL    HW123531   6.454   1.356   4.529
 7544SOL    HW223532   6.395   1.207   4.559
 7545SOL     OW23533   1.946   5.471   5.641
 7545SOL    HW123534   1.892   5.388   5.657
 7545SOL    HW223535   1.965   5.516   5.729
 7546SOL     OW23536   2.294   2.657   1.999
 7546SOL    HW123537   2.274   2.720   2.074
 7546SOL    HW223538   2.333   2.708   1.922
 7547SOL     OW23539   4.179   0.080   1.845
 7547SOL    HW123540   4.142   0.002   1.894
 7547SOL    HW223541   4.110   0.116   1.782
 7548SOL     OW23542   2.941   2.497   6.437
 7548SOL    HW123543   3.003   2.422   6.418
 7548SOL    HW223544   2.884   2.515   6.357
 7549SOL     OW23545   5.081   0.548   4.617
 7549SOL    HW123546   5.002   0.495   4.650
 7549SOL    HW223547   5.050   0.640   4.590
 7550SOL     OW23548   2.689   5.766   4.502
 7550SOL    HW123549   2.718   5.670   4.507
 7550SOL    HW223550   2.602   5.777   4.550
 7551SOL     OW23551   6.377   2.738   6.241
 7551SOL    HW123552   6.421   2.814   6.288
 7551SOL    HW223553   6.446   2.682   6.195
 7552SOL     OW23554   2.421   6.384   4.752
 7552SOL    HW123555   2.445   6.288   4.764
 7552SOL    HW223556   2.491   6.430   4.698
 7553SOL     OW23557   6.530   6.300   5.771
 7553SOL    HW123558   6.467   6.338   5.838
 7553SOL    HW223559   6.553   6.370   5.704
 7554SOL     OW23560   4.840   1.549   0.676
 7554SOL    HW123561   4.788   1.590   0.601
 7554SOL    HW223562   4.816   1.593   0.762
 7555SOL     OW23563   4.696   4.840   4.252
 7555SOL    HW123564   4.659   4.786   4.177
 7555SOL    HW223565   4.726   4.779   4.325
 7556SOL     OW23566   1.195   6.193   1.528
 7556SOL    HW123567   1.243   6.151   1.605
 7556SOL    HW223568   1.119   6.248   1.563
 7557SOL     OW23569   4.480   6.825   1.289
 7557SOL    HW123570   4.534   6.877   1.222
 7557SOL    HW223571   4.536   6.750   1.325
 7558SOL     OW23572   0.424   1.981   3.198
 7558SOL    HW123573   0.358   1.920   3.241
 7558SOL    HW223574   0.399   2.076   3.216
 7559SOL     OW23575   2.988   0.954   5.050
 7559SOL    HW123576   2.915   1.017   5.075
 7559SOL    HW223577   2.950   0.863   5.035
 7560SOL     OW23578   1.140   1.271   5.973
 7560SOL    HW123579   1.225   1.298   6.018
 7560SOL    HW223580   1.070   1.340   5.990
 7561SOL     OW23581   5.188   0.918   5.380
 7561SOL    HW123582   5.096   0.908   5.344
 7561SOL    HW223583   5.222   1.010   5.362
 7562SOL     OW23584   2.165   5.730   3.172
 7562SOL    HW123585   2.202   5.655   3.226
 7562SOL    HW223586   2.217   5.739   3.088
 7563SOL     OW23587   3.416   5.975   2.922
 7563SOL    HW123588   3.443   6.058   2.872
 7563SOL    HW223589   3.359   6.001   3.000
 7564SOL     OW23590   4.730   2.019   5.350
 7564SOL    HW123591   4.780   1.933   5.337
 7564SOL    HW223592   4.681   2.041   5.266
 7565SOL     OW23593   6.771   2.968   5.865
 7565SOL    HW123594   6.687   2.925   5.898
 7565SOL    HW223595   6.758   3.000   5.771
 7566SOL     OW23596   4.895   4.565   1.846
 7566SOL    HW123597   4.893   4.664   1.835
 7566SOL    HW223598   4.930   4.543   1.938
 7567SOL     OW23599   1.124   6.995   4.584
 7567SOL    HW123600   1.117   6.900   4.615
 7567SOL    HW223601   1.046   0.029   4.618
 7568SOL     OW23602   6.140   4.169   1.507
 7568SOL    HW123603   6.085   4.122   1.438
 7568SOL    HW223604   6.233   4.132   1.507
 7569SOL     OW23605   4.676   3.805   0.377
 7569SOL    HW123606   4.598   3.844   0.427
 7569SOL    HW223607   4.644   3.730   0.319
 7570SOL     OW23608   1.133   3.483   1.703
 7570SOL    HW123609   1.108   3.449   1.612
 7570SOL    HW223610   1.051   3.492   1.759
 7571SOL     OW23611   4.526   1.395   2.700
 7571SOL    HW123612   4.449   1.458   2.708
 7571SOL    HW223613   4.509   1.315   2.758
 7572SOL     OW23614   4.798   6.840   4.141
 7572SOL    HW123615   4.884   6.821   4.188
 7572SOL    HW223616   4.755   6.921   4.181
 7573SOL     OW23617   4.170   6.783   6.236
 7573SOL    HW123618   4.225   6.713   6.280
 7573SOL    HW223619   4.171   6.768   6.137
 7574SOL     OW23620   0.502   2.408   4.074
 7574SOL    HW123621   0.539   2.332   4.021
 7574SOL    HW223622   0.547   2.493   4.047
 7575SOL     OW23623   6.771   6.672   1.361
 7575SOL    HW123624   6.726   6.715   1.439
 7575SOL    HW223625   6.731   6.581   1.346
 7576SOL     OW23626   4.852   2.529   6.797
 7576SOL    HW123627   4.904   2.489   6.872
 7576SOL    HW223628   4.898   2.612   6.765
 7577SOL     OW23629   0.970   0.385   6.968
 7577SOL    HW123630   0.891   0.409   6.912
 7577SOL    HW223631   0.961   0.426   0.041
 7578SOL     OW23632   6.542   6.481   3.510
 7578SOL    HW123633   6.523   6.545   3.585
 7578SOL    HW223634   6.516   6.522   3.423
 7579SOL     OW23635   0.818   1.918   6.814
 7579SOL    HW123636   0.873   1.904   6.896
 7579SOL    HW223637   0.722   1.926   6.839
 7580SOL     OW23638   2.626   5.519   3.099
 7580SOL    HW123639   2.723   5.535   3.116
 7580SOL    HW223640   2.604   5.544   3.004
 7581SOL     OW23641   6.749   0.089   1.689
 7581SOL    HW123642   6.788   0.144   1.763
 7581SOL    HW223643   6.818   0.026   1.654
 7582SOL     OW23644   2.558   1.735   6.026
 7582SOL    HW123645   2.519   1.791   6.099
 7582SOL    HW223646   2.618   1.666   6.065
 7583SOL     OW23647   5.744   3.285   2.214
 7583SOL    HW123648   5.720   3.370   2.260
 7583SOL    HW223649   5.817   3.239   2.264
 7584SOL     OW23650   0.658   1.131   3.695
 7584SOL    HW123651   0.559   1.142   3.706
 7584SOL    HW223652   0.677   1.072   3.616
 7585SOL     OW23653   1.128   1.630   5.968
 7585SOL    HW123654   1.084   1.574   5.899
 7585SOL    HW223655   1.073   1.632   6.051
 7586SOL     OW23656   1.938   6.597   4.040
 7586SOL    HW123657   2.014   6.576   4.101
 7586SOL    HW223658   1.879   6.517   4.030
 7587SOL     OW23659   4.787   0.229   1.607
 7587SOL    HW123660   4.849   0.166   1.654
 7587SOL    HW223661   4.747   0.292   1.674
 7588SOL     OW23662   2.201   3.039   4.441
 7588SOL    HW123663   2.295   3.008   4.427
 7588SOL    HW223664   2.163   3.072   4.355
 7589SOL     OW23665   0.101   0.484   2.809
 7589SOL    HW123666   0.146   0.425   2.876
 7589SOL    HW223667   0.047   0.428   2.746
 7590SOL     OW23668   6.292   0.992   0.417
 7590SOL    HW123669   6.339   0.904   0.426
 7590SOL    HW223670   6.215   0.983   0.354
 7591SOL     OW23671   2.982   3.907   4.608
 7591SOL    HW123672   2.950   3.985   4.662
 7591SOL    HW223673   2.977   3.930   4.510
 7592SOL     OW23674   0.241   6.298   3.712
 7592SOL    HW123675   0.225   6.275   3.617
 7592SOL    HW223676   0.244   6.398   3.723
 7593SOL     OW23677   0.044   1.166   5.827
 7593SOL    HW123678   0.095   1.230   5.769
 7593SOL    HW223679   6.964   1.173   5.807
 7594SOL     OW23680   6.860   3.763   6.081
 7594SOL    HW123681   6.922   3.773   6.003
 7594SOL    HW223682   6.881   3.833   6.149
 7595SOL     OW23683   0.445   3.449   6.535
 7595SOL    HW123684   0.512   3.523   6.535
 7595SOL    HW223685   0.381   3.462   6.459
 7596SOL     OW23686   2.735   1.484   0.403
 7596SOL    HW123687   2.641   1.498   0.372
 7596SOL    HW223688   2.792   1.462   0.324
 7597SOL     OW23689   2.337   4.951   1.083
 7597SOL    HW123690   2.352   5.021   1.152
 7597SOL    HW223691   2.239   4.947   1.060
 7598SOL     OW23692   5.703   0.968   2.096
 7598SOL    HW123693   5.784   0.935   2.047
 7598SOL    HW223694   5.635   0.998   2.030
 7599SOL     OW23695   2.802   3.556   0.693
 7599SOL    HW123696   2.865   3.619   0.738
 7599SOL    HW223697   2.748   3.507   0.762
 7600SOL     OW23698   0.776   6.941   4.091
 7600SOL    HW123699   0.678   6.961   4.092
 7600SOL    HW223700   0.826   0.004   4.121
 7601SOL     OW23701   2.747   6.651   1.453
 7601SOL    HW123702   2.667   6.707   1.432
 7601SOL    HW223703   2.805   6.643   1.372
 7602SOL     OW23704   1.131   1.491   0.524
 7602SOL    HW123705   1.091   1.426   0.459
 7602SOL    HW223706   1.165   1.442   0.604
 7603SOL     OW23707   4.173   0.978   6.074
 7603SOL    HW123708   4.200   0.983   6.170
 7603SOL    HW223709   4.154   1.071   6.040
 7604SOL     OW23710   1.856   2.463   4.766
 7604SOL    HW123711   1.912   2.506   4.695
 7604SOL    HW223712   1.805   2.533   4.816
 7605SOL     OW23713   2.580   6.270   6.874
 7605SOL    HW123714   2.644   6.346   6.885
 7605SOL    HW223715   2.535   6.277   6.785
 7606SOL     OW23716   0.121   0.574   3.459
 7606SOL    HW123717   0.058   0.579   3.381
 7606SOL    HW223718   0.191   0.505   3.440
 7607SOL     OW23719   1.691   6.106   5.606
 7607SOL    HW123720   1.616   6.055   5.564
 7607SOL    HW223721   1.756   6.043   5.649
 7608SOL     OW23722   0.261   2.271   6.394
 7608SOL    HW123723   0.279   2.357   6.442
 7608SOL    HW223724   0.335   2.253   6.329
 7609SOL     OW23725   3.259   1.072   4.867
 7609SOL    HW123726   3.332   1.026   4.918
 7609SOL    HW223727   3.181   1.086   4.927
 7610SOL     OW23728   4.213   4.819   4.630
 7610SOL    HW123729   4.282   4.752   4.658
 7610SOL    HW223730   4.223   4.840   4.533
 7611SOL     OW23731   4.506   2.484   0.402
 7611SOL    HW123732   4.517   2.549   0.327
 7611SOL    HW223733   4.587   2.488   0.461
 7612SOL     OW23734   3.889   2.094   3.026
 7612SOL    HW123735   3.971   2.152   3.028
 7612SOL    HW223736   3.837   2.113   2.943
 7613SOL     OW23737   0.861   0.519   0.142
 7613SOL    HW123738   0.828   0.610   0.166
 7613SOL    HW223739   0.815   0.451   0.200
 7614SOL     OW23740   5.444   4.609   0.708
 7614SOL    HW123741   5.404   4.682   0.764
 7614SOL    HW223742   5.406   4.615   0.615
 7615SOL     OW23743   6.410   3.276   5.666
 7615SOL    HW123744   6.437   3.320   5.580
 7615SOL    HW223745   6.489   3.272   5.727
 7616SOL     OW23746   0.021   6.710   2.664
 7616SOL    HW123747   0.118   6.717   2.642
 7616SOL    HW223748   0.009   6.647   2.741
 7617SOL     OW23749   6.666   4.035   2.533
 7617SOL    HW123750   6.690   4.012   2.438
 7617SOL    HW223751   6.597   4.107   2.533
 7618SOL     OW23752   2.648   2.615   0.713
 7618SOL    HW123753   2.661   2.618   0.614
 7618SOL    HW223754   2.554   2.588   0.733
 7619SOL     OW23755   1.230   1.132   4.688
 7619SOL    HW123756   1.315   1.084   4.708
 7619SOL    HW223757   1.182   1.152   4.773
 7620SOL     OW23758   3.190   3.442   0.820
 7620SOL    HW123759   3.234   3.422   0.908
 7620SOL    HW223760   3.254   3.421   0.746
 7621SOL     OW23761   5.939   4.503   6.666
 7621SOL    HW123762   5.840   4.495   6.659
 7621SOL    HW223763   5.963   4.547   6.753
 7622SOL     OW23764   3.275   3.677   1.644
 7622SOL    HW123765   3.332   3.696   1.724
 7622SOL    HW223766   3.288   3.751   1.577
 7623SOL     OW23767   5.188   3.964   1.659
 7623SOL    HW123768   5.134   3.941   1.741
 7623SOL    HW223769   5.282   3.985   1.686
 7624SOL     OW23770   0.704   3.498   2.430
 7624SOL    HW123771   0.608   3.508   2.457
 7624SOL    HW223772   0.758   3.474   2.510
 7625SOL     OW23773   5.324   0.435   2.114
 7625SOL    HW123774   5.303   0.515   2.059
 7625SOL    HW223775   5.242   0.406   2.163
 7626SOL     OW23776   4.551   0.217   0.197
 7626SOL    HW123777   4.572   0.148   0.266
 7626SOL    HW223778   4.503   0.174   0.120
 7627SOL     OW23779   4.145   3.003   5.866
 7627SOL    HW123780   4.220   2.943   5.893
 7627SOL    HW223781   4.085   3.019   5.945
 7628SOL     OW23782   2.784   3.035   0.560
 7628SOL    HW123783   2.818   3.122   0.593
 7628SOL    HW223784   2.698   3.049   0.510
 7629SOL     OW23785   6.213   2.430   3.502
 7629SOL    HW123786   6.294   2.401   3.552
 7629SOL    HW223787   6.179   2.517   3.540
 7630SOL     OW23788   1.322   6.080   4.074
 7630SOL    HW123789   1.381   6.040   4.003
 7630SOL    HW223790   1.272   6.008   4.121
 7631SOL     OW23791   1.055   0.762   5.853
 7631SOL    HW123792   0.964   0.795   5.879
 7631SOL    HW223793   1.080   0.801   5.765
 7632SOL     OW23794   4.679   5.650   1.362
 7632SOL    HW123795   4.722   5.732   1.400
 7632SOL    HW223796   4.607   5.618   1.423
 7633SOL     OW23797   5.670   1.042   1.503
 7633SOL    HW123798   5.722   0.960   1.479
 7633SOL    HW223799   5.728   1.123   1.489
 7634SOL     OW23800   0.563   1.882   6.837
 7634SOL    HW123801   0.484   1.921   6.885
 7634SOL    HW223802   0.534   1.800   6.787
 7635SOL     OW23803   1.963   3.221   5.270
 7635SOL    HW123804   1.990   3.303   5.320
 7635SOL    HW223805   2.025   3.146   5.294
 7636SOL     OW23806   0.053   3.643   3.849
 7636SOL    HW123807   0.020   3.737   3.839
 7636SOL    HW223808   0.141   3.643   3.896
 7637SOL     OW23809   0.356   4.501   5.040
 7637SOL    HW123810   0.446   4.518   4.999
 7637SOL    HW223811   0.365   4.435   5.114
 7638SOL     OW23812   0.400   5.989   1.281
 7638SOL    HW123813   0.359   5.941   1.203
 7638SOL    HW223814   0.355   5.961   1.365
 7639SOL     OW23815   1.941   6.897   0.613
 7639SOL    HW123816   1.857   6.947   0.590
 7639SOL    HW223817   1.917   6.806   0.647
 7640SOL     OW23818   3.239   1.193   1.127
 7640SOL    HW123819   3.325   1.220   1.083
 7640SOL    HW223820   3.234   1.093   1.132
 7641SOL     OW23821   0.261   5.080   4.970
 7641SOL    HW123822   0.339   5.084   5.033
 7641SOL    HW223823   0.185   5.132   5.009
 7642SOL     OW23824   5.295   0.918   3.871
 7642SOL    HW123825   5.277   1.016   3.856
 7642SOL    HW223826   5.311   0.874   3.782
 7643SOL     OW23827   5.343   3.517   4.751
 7643SOL    HW123828   5.251   3.484   4.731
 7643SOL    HW223829   5.398   3.513   4.668
 7644SOL     OW23830   5.200   3.990   0.731
 7644SOL    HW123831   5.216   3.987   0.830
 7644SOL    HW223832   5.280   4.032   0.687
 7645SOL     OW23833   4.627   5.013   0.249
 7645SOL    HW123834   4.529   4.995   0.240
 7645SOL    HW223835   4.668   5.022   0.158
 7646SOL     OW23836   6.944   2.261   1.072
 7646SOL    HW123837   6.974   2.173   1.035
 7646SOL    HW223838   0.002   2.302   1.123
 7647SOL     OW23839   0.009   2.094   3.899
 7647SOL    HW123840   6.957   2.026   3.922
 7647SOL    HW223841   7.012   2.177   3.954
 7648SOL     OW23842   2.058   2.524   1.883
 7648SOL    HW123843   2.072   2.475   1.797
 7648SOL    HW223844   2.147   2.543   1.926
 7649SOL     OW23845   4.006   0.520   0.186
 7649SOL    HW123846   3.994   0.469   0.271
 7649SOL    HW223847   4.035   0.613   0.207
 7650SOL     OW23848   3.830   2.433   0.159
 7650SOL    HW123849   3.757   2.405   0.096
 7650SOL    HW223850   3.909   2.373   0.148
 7651SOL     OW23851   3.518   5.483   6.198
 7651SOL    HW123852   3.450   5.472   6.126
 7651SOL    HW223853   3.563   5.572   6.189
 7652SOL     OW23854   1.202   0.954   5.152
 7652SOL    HW123855   1.159   0.870   5.119
 7652SOL    HW223856   1.286   0.931   5.201
 7653SOL     OW23857   2.094   6.807   0.257
 7653SOL    HW123858   2.107   6.837   0.162
 7653SOL    HW223859   2.078   6.886   0.315
 7654SOL     OW23860   6.819   2.198   5.790
 7654SOL    HW123861   6.861   2.235   5.707
 7654SOL    HW223862   6.806   2.099   5.779
 7655SOL     OW23863   3.367   1.847   4.960
 7655SOL    HW123864   3.303   1.823   4.888
 7655SOL    HW223865   3.333   1.812   5.048
 7656SOL     OW23866   5.658   3.940   6.747
 7656SOL    HW123867   5.622   3.877   6.816
 7656SOL    HW223868   5.616   4.030   6.759
 7657SOL     OW23869   0.897   3.906   4.770
 7657SOL    HW123870   0.831   3.843   4.810
 7657SOL    HW223871   0.990   3.873   4.787
 7658SOL     OW23872   2.618   0.754   1.281
 7658SOL    HW123873   2.713   0.784   1.281
 7658SOL    HW223874   2.596   0.714   1.192
 7659SOL     OW23875   5.104   4.947   5.613
 7659SOL    HW123876   5.170   4.890   5.564
 7659SOL    HW223877   5.081   5.027   5.557
 7660SOL     OW23878   6.654   6.458   5.556
 7660SOL    HW123879   6.633   6.539   5.502
 7660SOL    HW223880   6.728   6.478   5.620
 7661SOL     OW23881   2.990   1.034   5.364
 7661SOL    HW123882   3.088   1.051   5.348
 7661SOL    HW223883   2.957   1.097   5.435
 7662SOL     OW23884   0.016   5.897   1.080
 7662SOL    HW123885   6.955   5.850   1.039
 7662SOL    HW223886   7.007   5.936   1.168
 7663SOL     OW23887   0.919   5.674   4.380
 7663SOL    HW123888   0.919   5.763   4.425
 7663SOL    HW223889   1.013   5.645   4.363
 7664SOL     OW23890   4.758   2.184   2.279
 7664SOL    HW123891   4.814   2.103   2.295
 7664SOL    HW223892   4.686   2.189   2.347
 7665SOL     OW23893   3.343   0.847   5.623
 7665SOL    HW123894   3.323   0.931   5.674
 7665SOL    HW223895   3.265   0.824   5.565
 7666SOL     OW23896   5.302   5.294   3.814
 7666SOL    HW123897   5.388   5.272   3.858
 7666SOL    HW223898   5.231   5.308   3.883
 7667SOL     OW23899   4.023   6.207   1.991
 7667SOL    HW123900   3.994   6.192   1.897
 7667SOL    HW223901   4.034   6.119   2.037
 7668SOL     OW23902   1.615   5.812   0.447
 7668SOL    HW123903   1.657   5.894   0.408
 7668SOL    HW223904   1.515   5.818   0.439
 7669SOL     OW23905   2.667   1.693   6.751
 7669SOL    HW123906   2.648   1.614   6.809
 7669SOL    HW223907   2.745   1.744   6.788
 7670SOL     OW23908   0.897   0.534   0.751
 7670SOL    HW123909   0.895   0.437   0.778
 7670SOL    HW223910   0.913   0.590   0.832
 7671SOL     OW23911   2.976   6.996   1.756
 7671SOL    HW123912   2.927   6.999   1.669
 7671SOL    HW223913   2.992   0.072   1.789
 7672SOL     OW23914   5.554   3.646   2.188
 7672SOL    HW123915   5.493   3.646   2.109
 7672SOL    HW223916   5.545   3.558   2.237
 7673SOL     OW23917   1.784   6.814   4.698
 7673SOL    HW123918   1.866   6.860   4.734
 7673SOL    HW223919   1.768   6.730   4.748
 7674SOL     OW23920   3.880   5.546   4.536
 7674SOL    HW123921   3.912   5.605   4.461
 7674SOL    HW223922   3.884   5.597   4.622
 7675SOL     OW23923   4.480   6.504   3.296
 7675SOL    HW123924   4.555   6.570   3.290
 7675SOL    HW223925   4.394   6.549   3.273
 7676SOL     OW23926   3.266   3.006   4.834
 7676SOL    HW123927   3.270   2.930   4.899
 7676SOL    HW223928   3.358   3.025   4.800
 7677SOL     OW23929   6.859   5.131   6.942
 7677SOL    HW123930   6.926   5.129   7.016
 7677SOL    HW223931   6.852   5.040   6.901
 7678SOL     OW23932   3.787   1.447   5.537
 7678SOL    HW123933   3.800   1.423   5.440
 7678SOL    HW223934   3.690   1.464   5.554
 7679SOL     OW23935   2.837   5.226   4.576
 7679SOL    HW123936   2.846   5.237   4.477
 7679SOL    HW223937   2.912   5.275   4.621
 7680SOL     OW23938   2.219   6.970   4.055
 7680SOL    HW123939   2.231   6.923   4.142
 7680SOL    HW223940   2.192   6.905   3.985
 7681SOL     OW23941   1.980   2.323   5.402
 7681SOL    HW123942   2.046   2.288   5.335
 7681SOL    HW223943   2.025   2.389   5.462
 7682SOL     OW23944   3.267   0.873   2.319
 7682SOL    HW123945   3.351   0.917   2.350
 7682SOL    HW223946   3.289   0.803   2.251
 7683SOL     OW23947   0.634   4.622   4.661
 7683SOL    HW123948   0.680   4.691   4.717
 7683SOL    HW223949   0.675   4.532   4.678
 7684SOL     OW23950   5.165   2.786   1.311
 7684SOL    HW123951   5.184   2.711   1.373
 7684SOL    HW223952   5.078   2.770   1.265
 7685SOL     OW23953   2.987   0.355   0.680
 7685SOL    HW123954   3.019   0.420   0.611
 7685SOL    HW223955   2.982   0.263   0.640
 7686SOL     OW23956   0.040   0.231   4.197
 7686SOL    HW123957   0.075   0.236   4.103
 7686SOL    HW223958   0.115   0.251   4.261
 7687SOL     OW23959   4.977   3.290   6.008
 7687SOL    HW123960   4.949   3.228   5.934
 7687SOL    HW223961   5.069   3.265   6.039
 7688SOL     OW23962   5.739   2.875   6.975
 7688SOL    HW123963   5.773   2.782   6.980
 7688SOL    HW223964   5.642   2.874   6.952
 7689SOL     OW23965   5.687   0.404   2.504
 7689SOL    HW123966   5.633   0.453   2.435
 7689SOL    HW223967   5.757   0.465   2.541
 7690SOL     OW23968   5.387   4.870   1.932
 7690SOL    HW123969   5.477   4.904   1.962
 7690SOL    HW223970   5.396   4.824   1.844
 7691SOL     OW23971   5.175   2.997   4.093
 7691SOL    HW123972   5.231   2.926   4.135
 7691SOL    HW223973   5.097   2.955   4.046
 7692SOL     OW23974   2.664   6.495   2.002
 7692SOL    HW123975   2.567   6.518   2.009
 7692SOL    HW223976   2.713   6.571   1.960
 7693SOL     OW23977   2.870   1.541   1.826
 7693SOL    HW123978   2.905   1.621   1.875
 7693SOL    HW223979   2.862   1.563   1.729
 7694SOL     OW23980   4.129   2.486   6.870
 7694SOL    HW123981   4.150   2.493   6.968
 7694SOL    HW223982   4.132   2.577   6.829
 7695SOL     OW23983   5.241   6.744   3.672
 7695SOL    HW123984   5.340   6.734   3.662
 7695SOL    HW223985   5.210   6.823   3.619
 7696SOL     OW23986   2.562   2.278   5.496
 7696SOL    HW123987   2.540   2.289   5.593
 7696SOL    HW223988   2.553   2.366   5.449
 7697SOL     OW23989   5.688   6.479   2.867
 7697SOL    HW123990   5.702   6.471   2.966
 7697SOL    HW223991   5.598   6.519   2.850
 7698SOL     OW23992   6.594   2.585   1.280
 7698SOL    HW123993   6.631   2.549   1.366
 7698SOL    HW223994   6.517   2.646   1.300
 7699SOL     OW23995   4.079   6.691   5.600
 7699SOL    HW123996   3.997   6.720   5.551
 7699SOL    HW223997   4.081   6.591   5.606
 7700SOL     OW23998   6.247   5.415   1.338
 7700SOL    HW123999   6.280   5.407   1.432
 7700SOL    HW224000   6.284   5.498   1.297
 7701SOL     OW24001   2.237   1.689   6.608
 7701SOL    HW124002   2.139   1.711   6.613
 7701SOL    HW224003   2.248   1.599   6.566
 7702SOL     OW24004   5.479   6.628   5.410
 7702SOL    HW124005   5.406   6.559   5.411
 7702SOL    HW224006   5.511   6.641   5.316
 7703SOL     OW24007   0.077   6.392   5.716
 7703SOL    HW124008   0.101   6.320   5.782
 7703SOL    HW224009   0.161   6.435   5.682
 7704SOL     OW24010   1.673   1.755   4.664
 7704SOL    HW124011   1.580   1.739   4.696
 7704SOL    HW224012   1.702   1.847   4.690
 7705SOL     OW24013   0.262   4.281   6.892
 7705SOL    HW124014   0.313   4.341   6.830
 7705SOL    HW224015   0.165   4.284   6.868
 7706SOL     OW24016   3.053   3.649   2.474
 7706SOL    HW124017   3.151   3.634   2.487
 7706SOL    HW224018   3.008   3.562   2.451
 7707SOL     OW24019   0.005   4.326   6.371
 7707SOL    HW124020   0.098   4.358   6.359
 7707SOL    HW224021   6.962   4.404   6.390
 7708SOL     OW24022   0.682   6.957   4.596
 7708SOL    HW124023   0.652   6.918   4.508
 7708SOL    HW224024   0.664   6.892   4.669
 7709SOL     OW24025   6.528   4.453   0.866
 7709SOL    HW124026   6.557   4.549   0.867
 7709SOL    HW224027   6.434   4.447   0.833
 7710SOL     OW24028   6.419   3.101   1.948
 7710SOL    HW124029   6.406   3.200   1.948
 7710SOL    HW224030   6.412   3.066   1.854
 7711SOL     OW24031   0.807   4.461   3.765
 7711SOL    HW124032   0.901   4.464   3.734
 7711SOL    HW224033   0.762   4.379   3.729
 7712SOL     OW24034   0.675   4.885   4.426
 7712SOL    HW124035   0.649   4.790   4.410
 7712SOL    HW224036   0.595   4.944   4.416
 7713SOL     OW24037   0.788   4.938   0.741
 7713SOL    HW124038   0.858   4.884   0.787
 7713SOL    HW224039   0.770   5.021   0.794
 7714SOL     OW24040   6.256   1.716   5.411
 7714SOL    HW124041   6.307   1.661   5.477
 7714SOL    HW224042   6.319   1.761   5.348
 7715SOL     OW24043   3.777   2.913   6.694
 7715SOL    HW124044   3.703   2.879   6.753
 7715SOL    HW224045   3.864   2.874   6.724
 7716SOL     OW24046   1.187   0.159   6.278
 7716SOL    HW124047   1.244   0.098   6.222
 7716SOL    HW224048   1.106   0.186   6.226
 7717SOL     OW24049   0.689   1.588   6.186
 7717SOL    HW124050   0.629   1.511   6.212
 7717SOL    HW224051   0.634   1.658   6.140
 7718SOL     OW24052   0.269   3.367   2.800
 7718SOL    HW124053   0.278   3.272   2.769
 7718SOL    HW224054   0.202   3.372   2.874
 7719SOL     OW24055   2.039   5.777   5.183
 7719SOL    HW124056   2.063   5.858   5.236
 7719SOL    HW224057   2.027   5.699   5.244
 7720SOL     OW24058   4.533   1.550   6.695
 7720SOL    HW124059   4.448   1.586   6.734
 7720SOL    HW224060   4.605   1.619   6.702
 7721SOL     OW24061   5.849   5.665   2.250
 7721SOL    HW124062   5.878   5.633   2.160
 7721SOL    HW224063   5.852   5.589   2.315
 7722SOL     OW24064   0.626   5.970   4.399
 7722SOL    HW124065   0.689   6.006   4.331
 7722SOL    HW224066   0.678   5.929   4.474
 7723SOL     OW24067   4.129   4.310   6.962
 7723SOL    HW124068   4.176   4.363   0.015
 7723SOL    HW224069   4.071   4.371   6.907
 7724SOL     OW24070   1.289   3.747   0.103
 7724SOL    HW124071   1.287   3.648   0.116
 7724SOL    HW224072   1.335   3.768   0.016
 7725SOL     OW24073   5.655   3.955   4.231
 7725SOL    HW124074   5.705   3.900   4.298
 7725SOL    HW224075   5.615   3.895   4.162
 7726SOL     OW24076   2.057   3.181   6.763
 7726SOL    HW124077   2.024   3.190   6.857
 7726SOL    HW224078   2.057   3.270   6.718
 7727SOL     OW24079   5.426   0.814   2.652
 7727SOL    HW124080   5.371   0.843   2.731
 7727SOL    HW224081   5.497   0.750   2.683
 7728SOL     OW24082   2.124   3.470   4.780
 7728SOL    HW124083   2.138   3.515   4.868
 7728SOL    HW224084   2.151   3.374   4.787
 7729SOL     OW24085   0.038   1.139   2.690
 7729SOL    HW124086   7.018   1.198   2.762
 7729SOL    HW224087   0.103   1.075   2.731
 7730SOL     OW24088   5.915   4.622   5.332
 7730SOL    HW124089   5.827   4.603   5.288
 7730SOL    HW224090   5.949   4.539   5.375
 7731SOL     OW24091   6.892   0.332   5.803
 7731SOL    HW124092   6.972   0.356   5.859
 7731SOL    HW224093   6.841   0.415   5.782
 7732SOL     OW24094   4.916   0.958   0.166
 7732SOL    HW124095   4.872   1.001   0.087
 7732SOL    HW224096   4.882   0.864   0.175
 7733SOL     OW24097   6.873   5.650   1.068
 7733SOL    HW124098   6.835   5.673   1.158
 7733SOL    HW224099   6.805   5.597   1.016
 7734SOL     OW24100   3.965   3.802   3.309
 7734SOL    HW124101   3.992   3.707   3.290
 7734SOL    HW224102   4.014   3.835   3.389
 7735SOL     OW24103   1.144   6.089   0.894
 7735SOL    HW124104   1.210   6.075   0.967
 7735SOL    HW224105   1.161   6.023   0.820
 7736SOL     OW24106   1.962   1.950   0.375
 7736SOL    HW124107   2.031   1.879   0.362
 7736SOL    HW224108   1.989   2.033   0.327
 7737SOL     OW24109   4.343   4.305   6.714
 7737SOL    HW124110   4.360   4.287   6.811
 7737SOL    HW224111   4.403   4.379   6.683
 7738SOL     OW24112   1.588   1.108   5.511
 7738SOL    HW124113   1.654   1.040   5.479
 7738SOL    HW224114   1.521   1.064   5.570
 7739SOL     OW24115   1.676   2.524   0.683
 7739SOL    HW124116   1.773   2.501   0.691
 7739SOL    HW224117   1.665   2.598   0.617
 7740SOL     OW24118   2.629   0.835   4.428
 7740SOL    HW124119   2.554   0.852   4.492
 7740SOL    HW224120   2.649   0.737   4.425
 7741SOL     OW24121   6.949   4.037   5.906
 7741SOL    HW124122   7.015   3.963   5.892
 7741SOL    HW224123   6.974   4.090   5.988
 7742SOL     OW24124   4.438   2.481   3.709
 7742SOL    HW124125   4.486   2.550   3.653
 7742SOL    HW224126   4.458   2.498   3.806
 7743SOL     OW24127   3.705   1.091   6.094
 7743SOL    HW124128   3.673   1.185   6.099
 7743SOL    HW224129   3.662   1.045   6.016
 7744SOL     OW24130   0.551   6.901   4.358
 7744SOL    HW124131   0.563   6.950   4.272
 7744SOL    HW224132   0.474   6.838   4.349
 7745SOL     OW24133   2.879   7.007   0.854
 7745SOL    HW124134   2.820   0.070   0.859
 7745SOL    HW224135   2.864   6.960   0.767
 7746SOL     OW24136   0.192   6.613   1.072
 7746SOL    HW124137   0.146   6.536   1.116
 7746SOL    HW224138   0.291   6.602   1.081
 7747SOL     OW24139   0.331   5.100   1.241
 7747SOL    HW124140   0.324   5.077   1.144
 7747SOL    HW224141   0.414   5.154   1.257
 7748SOL     OW24142   4.534   0.913   6.146
 7748SOL    HW124143   4.469   0.840   6.123
 7748SOL    HW224144   4.576   0.946   6.062
 7749SOL     OW24145   3.484   3.093   2.776
 7749SOL    HW124146   3.533   3.013   2.811
 7749SOL    HW224147   3.509   3.108   2.680
 7750SOL     OW24148   4.946   4.975   6.113
 7750SOL    HW124149   5.007   4.912   6.065
 7750SOL    HW224150   4.890   5.024   6.047
 7751SOL     OW24151   6.836   0.872   4.620
 7751SOL    HW124152   6.884   0.950   4.579
 7751SOL    HW224153   6.851   0.871   4.718
 7752SOL     OW24154   6.444   4.786   5.111
 7752SOL    HW124155   6.361   4.776   5.166
 7752SOL    HW224156   6.476   4.880   5.115
 7753SOL     OW24157   2.896   0.715   4.961
 7753SOL    HW124158   2.889   0.633   4.904
 7753SOL    HW224159   2.807   0.761   4.965
 7754SOL     OW24160   5.943   0.788   1.037
 7754SOL    HW124161   6.005   0.777   1.115
 7754SOL    HW224162   5.994   0.777   0.952
 7755SOL     OW24163   1.481   6.367   5.638
 7755SOL    HW124164   1.536   6.437   5.593
 7755SOL    HW224165   1.539   6.291   5.667
 7756SOL     OW24166   4.144   5.755   3.380
 7756SOL    HW124167   4.223   5.788   3.329
 7756SOL    HW224168   4.163   5.664   3.417
 7757SOL     OW24169   3.472   0.433   5.979
 7757SOL    HW124170   3.457   0.429   6.078
 7757SOL    HW224171   3.541   0.502   5.959
 7758SOL     OW24172   2.776   2.556   6.169
 7758SOL    HW124173   2.691   2.609   6.165
 7758SOL    HW224174   2.854   2.618   6.163
 7759SOL     OW24175   1.521   0.732   4.751
 7759SOL    HW124176   1.460   0.658   4.778
 7759SOL    HW224177   1.477   0.820   4.768
 7760SOL     OW24178   5.166   2.399   3.486
 7760SOL    HW124179   5.185   2.302   3.475
 7760SOL    HW224180   5.152   2.441   3.397
 7761SOL     OW24181   4.686   0.881   6.913
 7761SOL    HW124182   4.590   0.897   6.894
 7761SOL    HW224183   4.721   0.955   6.971
 7762SOL     OW24184   1.466   2.711   0.227
 7762SOL    HW124185   1.504   2.803   0.218
 7762SOL    HW224186   1.401   2.694   0.153
 7763SOL     OW24187   2.148   2.349   1.642
 7763SOL    HW124188   2.246   2.334   1.633
 7763SOL    HW224189   2.100   2.262   1.634
 7764SOL     OW24190   3.882   3.383   2.227
 7764SOL    HW124191   3.797   3.334   2.247
 7764SOL    HW224192   3.875   3.478   2.257
 7765SOL     OW24193   6.849   1.589   1.978
 7765SOL    HW124194   6.892   1.609   1.889
 7765SOL    HW224195   6.758   1.552   1.962
 7766SOL     OW24196   6.978   2.982   6.824
 7766SOL    HW124197   6.887   3.023   6.826
 7766SOL    HW224198   0.026   3.049   6.788
 7767SOL     OW24199   5.592   4.023   5.314
 7767SOL    HW124200   5.618   3.927   5.314
 7767SOL    HW224201   5.561   4.049   5.406
 7768SOL     OW24202   3.948   5.269   1.881
 7768SOL    HW124203   3.968   5.177   1.915
 7768SOL    HW224204   3.857   5.297   1.911
 7769SOL     OW24205   5.814   2.150   2.989
 7769SOL    HW124206   5.715   2.161   2.995
 7769SOL    HW224207   5.856   2.237   2.962
 7770SOL     OW24208   3.417   6.110   1.264
 7770SOL    HW124209   3.373   6.149   1.345
 7770SOL    HW224210   3.505   6.156   1.249
 7771SOL     OW24211   1.819   1.301   4.242
 7771SOL    HW124212   1.872   1.348   4.312
 7771SOL    HW224213   1.791   1.367   4.172
 7772SOL     OW24214   5.954   0.772   5.400
 7772SOL    HW124215   5.882   0.727   5.454
 7772SOL    HW224216   5.986   0.711   5.328
 7773SOL     OW24217   3.712   4.596   6.236
 7773SOL    HW124218   3.775   4.605   6.313
 7773SOL    HW224219   3.764   4.602   6.150
 7774SOL     OW24220   4.928   1.758   7.000
 7774SOL    HW124221   5.022   1.792   7.009
 7774SOL    HW224222   4.869   1.807   0.046
 7775SOL     OW24223   1.642   6.831   2.037
 7775SOL    HW124224   1.670   6.922   2.009
 7775SOL    HW224225   1.723   6.772   2.045
 7776SOL     OW24226   3.461   3.678   0.964
 7776SOL    HW124227   3.416   3.610   1.020
 7776SOL    HW224228   3.511   3.742   1.023
 7777SOL     OW24229   0.952   0.028   6.637
 7777SOL    HW124230   0.988   6.986   6.709
 7777SOL    HW224231   0.980   0.123   6.656
 7778SOL     OW24232   4.982   1.732   1.705
 7778SOL    HW124233   4.912   1.671   1.669
 7778SOL    HW224234   4.943   1.824   1.718
 7779SOL     OW24235   4.096   2.656   0.550
 7779SOL    HW124236   4.164   2.623   0.486
 7779SOL    HW224237   4.140   2.719   0.615
 7780SOL     OW24238   1.017   0.112   4.928
 7780SOL    HW124239   0.971   0.143   4.845
 7780SOL    HW224240   1.116   0.116   4.916
 7781SOL     OW24241   1.872   4.866   5.649
 7781SOL    HW124242   1.796   4.920   5.687
 7781SOL    HW224243   1.856   4.769   5.665
 7782SOL     OW24244   4.668   4.590   0.104
 7782SOL    HW124245   4.709   4.644   0.030
 7782SOL    HW224246   4.721   4.507   0.120
 7783SOL     OW24247   2.252   6.347   0.213
 7783SOL    HW124248   2.329   6.311   0.266
 7783SOL    HW224249   2.207   6.419   0.265
 7784SOL     OW24250   6.670   3.507   0.648
 7784SOL    HW124251   6.713   3.501   0.738
 7784SOL    HW224252   6.613   3.589   0.643
 7785SOL     OW24253   1.708   5.298   6.545
 7785SOL    HW124254   1.627   5.350   6.573
 7785SOL    HW224255   1.787   5.359   6.542
 7786SOL     OW24256   3.646   4.219   4.905
 7786SOL    HW124257   3.729   4.176   4.939
 7786SOL    HW224258   3.666   4.268   4.820
 7787SOL     OW24259   2.833   2.444   5.210
 7787SOL    HW124260   2.894   2.379   5.256
 7787SOL    HW224261   2.795   2.401   5.128
 7788SOL     OW24262   0.375   2.231   0.730
 7788SOL    HW124263   0.449   2.274   0.678
 7788SOL    HW224264   0.306   2.196   0.666
 7789SOL     OW24265   2.326   0.151   1.695
 7789SOL    HW124266   2.344   0.143   1.793
 7789SOL    HW224267   2.367   0.236   1.661
 7790SOL     OW24268   6.450   3.485   2.759
 7790SOL    HW124269   6.501   3.531   2.686
 7790SOL    HW224270   6.491   3.508   2.848
 7791SOL     OW24271   0.229   5.016   5.287
 7791SOL    HW124272   0.324   5.027   5.257
 7791SOL    HW224273   0.225   4.946   5.358
 7792SOL     OW24274   1.797   5.440   6.843
 7792SOL    HW124275   1.869   5.411   6.779
 7792SOL    HW224276   1.820   5.530   6.880
 7793SOL     OW24277   1.802   1.298   6.509
 7793SOL    HW124278   1.799   1.240   6.428
 7793SOL    HW224279   1.768   1.389   6.485
 7794SOL     OW24280   5.111   5.380   2.690
 7794SOL    HW124281   5.169   5.363   2.770
 7794SOL    HW224282   5.141   5.321   2.615
 7795SOL     OW24283   1.473   4.260   6.462
 7795SOL    HW124284   1.457   4.285   6.367
 7795SOL    HW224285   1.558   4.207   6.468
 7796SOL     OW24286   4.004   3.928   4.784
 7796SOL    HW124287   4.085   3.986   4.794
 7796SOL    HW224288   4.017   3.843   4.834
 7797SOL     OW24289   1.179   6.877   3.023
 7797SOL    HW124290   1.193   6.970   3.057
 7797SOL    HW224291   1.266   6.827   3.025
 7798SOL     OW24292   4.094   6.139   6.120
 7798SOL    HW124293   4.112   6.236   6.133
 7798SOL    HW224294   4.153   6.103   6.048
 7799SOL     OW24295   6.327   4.968   1.034
 7799SOL    HW124296   6.417   4.941   1.002
 7799SOL    HW224297   6.322   5.068   1.040
 7800SOL     OW24298   0.736   6.141   2.160
 7800SOL    HW124299   0.729   6.210   2.087
 7800SOL    HW224300   0.647   6.132   2.206
 7801SOL     OW24301   4.213   2.146   5.317
 7801SOL    HW124302   4.241   2.062   5.364
 7801SOL    HW224303   4.207   2.128   5.219
 7802SOL     OW24304   5.531   2.345   0.403
 7802SOL    HW124305   5.523   2.270   0.469
 7802SOL    HW224306   5.582   2.313   0.323
 7803SOL     OW24307   3.242   3.927   5.265
 7803SOL    HW124308   3.188   3.990   5.321
 7803SOL    HW224309   3.190   3.902   5.183
 7804SOL     OW24310   4.911   0.910   6.338
 7804SOL    HW124311   4.826   0.961   6.348
 7804SOL    HW224312   4.898   0.815   6.366
 7805SOL     OW24313   5.413   2.743   1.669
 7805SOL    HW124314   5.343   2.743   1.598
 7805SOL    HW224315   5.503   2.733   1.627
 7806SOL     OW24316   4.838   3.252   6.753
 7806SOL    HW124317   4.742   3.280   6.757
 7806SOL    HW224318   4.855   3.204   6.667
 7807SOL     OW24319   0.377   3.093   0.175
 7807SOL    HW124320   0.374   2.996   0.154
 7807SOL    HW224321   0.470   3.119   0.203
 7808SOL     OW24322   0.634   0.673   5.158
 7808SOL    HW124323   0.710   0.658   5.222
 7808SOL    HW224324   0.602   0.767   5.166
 7809SOL     OW24325   1.188   5.397   5.572
 7809SOL    HW124326   1.092   5.401   5.601
 7809SOL    HW224327   1.201   5.456   5.492
 7810SOL     OW24328   2.662   1.216   6.776
 7810SOL    HW124329   2.675   1.265   6.862
 7810SOL    HW224330   2.583   1.255   6.727
 7811SOL     OW24331   0.446   4.880   4.842
 7811SOL    HW124332   0.382   4.925   4.905
 7811SOL    HW224333   0.405   4.875   4.751
 7812SOL     OW24334   0.564   1.938   3.477
 7812SOL    HW124335   0.488   1.872   3.479
 7812SOL    HW224336   0.621   1.920   3.397
 7813SOL     OW24337   6.474   2.340   1.142
 7813SOL    HW124338   6.438   2.309   1.229
 7813SOL    HW224339   6.519   2.429   1.154
 7814SOL     OW24340   1.862   3.377   4.652
 7814SOL    HW124341   1.903   3.347   4.566
 7814SOL    HW224342   1.928   3.433   4.702
 7815SOL     OW24343   0.189   1.692   5.407
 7815SOL    HW124344   0.235   1.773   5.442
 7815SOL    HW224345   0.251   1.640   5.348
 7816SOL     OW24346   0.922   4.813   5.376
 7816SOL    HW124347   0.891   4.832   5.469
 7816SOL    HW224348   1.020   4.792   5.377
 7817SOL     OW24349   5.619   3.403   5.880
 7817SOL    HW124350   5.579   3.487   5.843
 7817SOL    HW224351   5.687   3.368   5.816
 7818SOL     OW24352   5.077   4.125   2.687
 7818SOL    HW124353   5.137   4.161   2.616
 7818SOL    HW224354   5.063   4.027   2.674
 7819SOL     OW24355   0.886   1.184   0.785
 7819SOL    HW124356   0.878   1.284   0.791
 7819SOL    HW224357   0.864   1.155   0.692
 7820SOL     OW24358   2.768   0.171   6.396
 7820SOL    HW124359   2.769   0.071   6.392
 7820SOL    HW224360   2.732   0.200   6.485
 7821SOL     OW24361   3.288   5.010   0.690
 7821SOL    HW124362   3.233   4.964   0.620
 7821SOL    HW224363   3.329   5.092   0.651
 7822SOL     OW24364   2.058   6.532   5.842
 7822SOL    HW124365   2.118   6.468   5.794
 7822SOL    HW224366   2.105   6.568   5.922
 7823SOL     OW24367   1.882   3.880   4.988
 7823SOL    HW124368   1.959   3.872   5.051
 7823SOL    HW224369   1.804   3.828   5.023
 7824SOL     OW24370   0.776   3.393   5.328
 7824SOL    HW124371   0.731   3.380   5.240
 7824SOL    HW224372   0.856   3.334   5.334
 7825SOL     OW24373   3.122   0.777   6.878
 7825SOL    HW124374   3.045   0.741   6.825
 7825SOL    HW224375   3.166   0.701   6.927
 7826SOL     OW24376   0.582   3.435   5.508
 7826SOL    HW124377   0.559   3.350   5.554
 7826SOL    HW224378   0.654   3.418   5.441
 7827SOL     OW24379   5.891   5.283   4.232
 7827SOL    HW124380   5.818   5.221   4.260
 7827SOL    HW224381   5.976   5.258   4.279
 7828SOL     OW24382   0.775   5.113   6.532
 7828SOL    HW124383   0.865   5.156   6.543
 7828SOL    HW224384   0.710   5.158   6.593
 7829SOL     OW24385   4.329   4.970   0.830
 7829SOL    HW124386   4.307   5.041   0.898
 7829SOL    HW224387   4.411   4.920   0.859
 7830SOL     OW24388   2.309   5.569   3.433
 7830SOL    HW124389   2.369   5.612   3.366
 7830SOL    HW224390   2.322   5.612   3.523
 7831SOL     OW24391   1.565   0.220   5.791
 7831SOL    HW124392   1.630   0.153   5.756
 7831SOL    HW224393   1.573   0.226   5.891
 7832SOL     OW24394   6.524   0.895   5.467
 7832SOL    HW124395   6.494   0.982   5.505
 7832SOL    HW224396   6.458   0.824   5.491
 7833SOL     OW24397   0.760   0.633   2.872
 7833SOL    HW124398   0.808   0.670   2.792
 7833SOL    HW224399   0.664   0.618   2.849
 7834SOL     OW24400   6.837   3.184   4.654
 7834SOL    HW124401   6.933   3.201   4.673
 7834SOL    HW224402   6.799   3.262   4.602
 7835SOL     OW24403   4.274   2.248   5.724
 7835SOL    HW124404   4.279   2.314   5.648
 7835SOL    HW224405   4.206   2.178   5.702
 7836SOL     OW24406   3.240   3.813   4.623
 7836SOL    HW124407   3.287   3.893   4.659
 7836SOL    HW224408   3.146   3.838   4.598
 7837SOL     OW24409   1.092   5.524   6.768
 7837SOL    HW124410   1.099   5.496   6.672
 7837SOL    HW224411   1.028   5.600   6.776
 7838SOL     OW24412   4.361   5.359   2.111
 7838SOL    HW124413   4.396   5.386   2.201
 7838SOL    HW224414   4.263   5.338   2.119
 7839SOL     OW24415   6.321   4.550   4.430
 7839SOL    HW124416   6.333   4.598   4.517
 7839SOL    HW224417   6.322   4.451   4.446
 7840SOL     OW24418   2.274   2.730   3.694
 7840SOL    HW124419   2.369   2.728   3.728
 7840SOL    HW224420   2.254   2.821   3.658
 7841SOL     OW24421   3.955   1.881   5.943
 7841SOL    HW124422   3.908   1.844   5.863
 7841SOL    HW224423   4.051   1.897   5.922
 7842SOL     OW24424   0.945   0.675   0.982
 7842SOL    HW124425   1.029   0.728   0.986
 7842SOL    HW224426   0.878   0.715   1.045
 7843SOL     OW24427   6.740   6.623   2.065
 7843SOL    HW124428   6.787   6.600   1.980
 7843SOL    HW224429   6.749   6.548   2.130
 7844SOL     OW24430   4.076   0.291   2.595
 7844SOL    HW124431   4.070   0.193   2.613
 7844SOL    HW224432   4.065   0.341   2.682
 7845SOL     OW24433   6.016   3.220   1.044
 7845SOL    HW124434   6.032   3.273   1.127
 7845SOL    HW224435   5.918   3.198   1.036
 7846SOL     OW24436   0.885   1.033   0.550
 7846SOL    HW124437   0.934   1.017   0.636
 7846SOL    HW224438   0.929   1.107   0.499
 7847SOL     OW24439   5.535   4.435   6.194
 7847SOL    HW124440   5.478   4.382   6.257
 7847SOL    HW224441   5.601   4.374   6.150
 7848SOL     OW24442   4.037   4.692   0.269
 7848SOL    HW124443   3.963   4.659   0.328
 7848SOL    HW224444   4.124   4.682   0.316
 7849SOL     OW24445   4.218   5.256   6.848
 7849SOL    HW124446   4.141   5.192   6.851
 7849SOL    HW224447   4.195   5.338   6.902
 7850SOL     OW24448   0.191   0.496   3.797
 7850SOL    HW124449   0.103   0.448   3.802
 7850SOL    HW224450   0.245   0.476   3.879
 7851SOL     OW24451   0.236   5.051   0.970
 7851SOL    HW124452   0.306   5.121   0.958
 7851SOL    HW224453   0.267   4.966   0.928
 7852SOL     OW24454   0.991   3.275   5.713
 7852SOL    HW124455   1.022   3.317   5.798
 7852SOL    HW224456   1.043   3.314   5.636
 7853SOL     OW24457   4.058   2.892   1.732
 7853SOL    HW124458   3.976   2.890   1.674
 7853SOL    HW224459   4.114   2.971   1.708
 7854SOL     OW24460   4.786   1.317   1.049
 7854SOL    HW124461   4.821   1.358   0.964
 7854SOL    HW224462   4.801   1.218   1.046
 7855SOL     OW24463   5.471   6.371   3.968
 7855SOL    HW124464   5.433   6.461   3.950
 7855SOL    HW224465   5.397   6.305   3.980
 7856SOL     OW24466   2.217   6.346   5.684
 7856SOL    HW124467   2.247   6.259   5.722
 7856SOL    HW224468   2.262   6.360   5.595
 7857SOL     OW24469   6.620   4.702   0.807
 7857SOL    HW124470   6.697   4.727   0.748
 7857SOL    HW224471   6.534   4.734   0.766
 7858SOL     OW24472   0.392   3.776   5.819
 7858SOL    HW124473   0.332   3.736   5.749
 7858SOL    HW224474   0.390   3.718   5.901
 7859SOL     OW24475   5.041   2.292   0.921
 7859SOL    HW124476   5.065   2.233   0.843
 7859SOL    HW224477   4.942   2.308   0.920
 7860SOL     OW24478   2.385   1.441   3.752
 7860SOL    HW124479   2.298   1.458   3.799
 7860SOL    HW224480   2.368   1.410   3.659
 7861SOL     OW24481   1.741   5.927   0.974
 7861SOL    HW124482   1.835   5.959   0.980
 7861SOL    HW224483   1.726   5.854   1.041
 7862SOL     OW24484   1.351   6.768   0.055
 7862SOL    HW124485   1.378   6.863   0.039
 7862SOL    HW224486   1.284   6.764   0.129
 7863SOL     OW24487   1.189   4.387   4.241
 7863SOL    HW124488   1.155   4.294   4.258
 7863SOL    HW224489   1.131   4.432   4.173
 7864SOL     OW24490   2.637   5.805   5.222
 7864SOL    HW124491   2.537   5.807   5.225
 7864SOL    HW224492   2.668   5.716   5.189
 7865SOL     OW24493   5.803   4.643   3.741
 7865SOL    HW124494   5.714   4.642   3.786
 7865SOL    HW224495   5.875   4.651   3.810
 7866SOL     OW24496   1.114   0.977   5.682
 7866SOL    HW124497   1.065   1.037   5.745
 7866SOL    HW224498   1.205   1.015   5.664
 7867SOL     OW24499   4.069   4.810   3.979
 7867SOL    HW124500   3.988   4.794   3.923
 7867SOL    HW224501   4.042   4.832   4.073
 7868SOL     OW24502   3.483   6.457   1.621
 7868SOL    HW124503   3.534   6.456   1.535
 7868SOL    HW224504   3.403   6.516   1.612
 7869SOL     OW24505   5.771   4.962   0.009
 7869SOL    HW124506   5.820   4.880   0.036
 7869SOL    HW224507   5.836   5.027   6.985
 7870SOL     OW24508   6.236   6.501   3.749
 7870SOL    HW124509   6.168   6.543   3.808
 7870SOL    HW224510   6.194   6.479   3.661
 7871SOL     OW24511   4.422   1.333   0.676
 7871SOL    HW124512   4.507   1.328   0.624
 7871SOL    HW224513   4.346   1.299   0.620
 7872SOL     OW24514   0.195   5.198   3.008
 7872SOL    HW124515   0.261   5.185   2.934
 7872SOL    HW224516   0.149   5.286   2.997
 7873SOL     OW24517   4.626   2.281   6.855
 7873SOL    HW124518   4.544   2.330   6.823
 7873SOL    HW224519   4.664   2.330   6.934
 7874SOL     OW24520   6.119   2.501   0.101
 7874SOL    HW124521   6.090   2.590   0.137
 7874SOL    HW224522   6.206   2.475   0.142
 7875SOL     OW24523   6.588   4.681   6.600
 7875SOL    HW124524   6.636   4.713   6.519
 7875SOL    HW224525   6.526   4.752   6.633
 7876SOL     OW24526   1.249   6.298   3.131
 7876SOL    HW124527   1.198   6.286   3.216
 7876SOL    HW224528   1.336   6.343   3.150
 7877SOL     OW24529   0.176   3.125   2.694
 7877SOL    HW124530   0.124   3.081   2.767
 7877SOL    HW224531   0.170   3.070   2.611
 7878SOL     OW24532   3.843   6.877   2.488
 7878SOL    HW124533   3.780   6.929   2.430
 7878SOL    HW224534   3.881   6.937   2.558
 7879SOL     OW24535   3.118   5.762   2.976
 7879SOL    HW124536   3.063   5.703   2.918
 7879SOL    HW224537   3.067   5.784   3.059
 7880SOL     OW24538   1.243   4.822   1.937
 7880SOL    HW124539   1.288   4.745   1.983
 7880SOL    HW224540   1.297   4.905   1.950
 7881SOL     OW24541   4.876   3.502   3.645
 7881SOL    HW124542   4.965   3.475   3.682
 7881SOL    HW224543   4.825   3.421   3.616
 7882SOL     OW24544   0.121   2.734   6.641
 7882SOL    HW124545   0.037   2.723   6.694
 7882SOL    HW224546   0.111   2.811   6.578
 7883SOL     OW24547   0.629   0.201   4.560
 7883SOL    HW124548   0.550   0.196   4.622
 7883SOL    HW224549   0.678   0.114   4.562
 7884SOL     OW24550   1.268   2.958   4.075
 7884SOL    HW124551   1.206   3.008   4.136
 7884SOL    HW224552   1.354   2.941   4.123
 7885SOL     OW24553   6.999   5.682   6.858
 7885SOL    HW124554   6.917   5.652   6.810
 7885SOL    HW224555   0.017   5.606   6.913
 7886SOL     OW24556   4.769   3.979   0.870
 7886SOL    HW124557   4.826   3.976   0.788
 7886SOL    HW224558   4.680   3.938   0.850
 7887SOL     OW24559   4.531   2.688   5.835
 7887SOL    HW124560   4.599   2.698   5.908
 7887SOL    HW224561   4.468   2.614   5.858
 7888SOL     OW24562   4.703   5.936   4.779
 7888SOL    HW124563   4.666   5.997   4.710
 7888SOL    HW224564   4.655   5.949   4.866
 7889SOL     OW24565   6.686   5.239   3.031
 7889SOL    HW124566   6.705   5.141   3.023
 7889SOL    HW224567   6.685   5.265   3.128
 7890SOL     OW24568   1.751   3.114   2.721
 7890SOL    HW124569   1.699   3.030   2.735
 7890SOL    HW224570   1.839   3.091   2.679
 7891SOL     OW24571   0.838   4.541   3.010
 7891SOL    HW124572   0.848   4.445   2.983
 7891SOL    HW224573   0.903   4.562   3.083
 7892SOL     OW24574   2.285   2.012   4.864
 7892SOL    HW124575   2.366   2.071   4.862
 7892SOL    HW224576   2.246   2.008   4.772
 7893SOL     OW24577   5.656   6.494   1.007
 7893SOL    HW124578   5.740   6.539   1.036
 7893SOL    HW224579   5.597   6.479   1.086
 7894SOL     OW24580   2.631   0.394   2.026
 7894SOL    HW124581   2.594   0.355   2.110
 7894SOL    HW224582   2.727   0.418   2.040
 7895SOL     OW24583   0.392   1.074   3.428
 7895SOL    HW124584   0.378   1.098   3.524
 7895SOL    HW224585   0.426   0.980   3.421
 7896SOL     OW24586   3.979   1.620   6.213
 7896SOL    HW124587   3.995   1.575   6.302
 7896SOL    HW224588   3.917   1.697   6.226
 7897SOL     OW24589   3.183   3.047   6.664
 7897SOL    HW124590   3.090   3.041   6.702
 7897SOL    HW224591   3.185   3.112   6.589
 7898SOL     OW24592   5.071   1.159   4.272
 7898SOL    HW124593   5.096   1.066   4.298
 7898SOL    HW224594   5.085   1.220   4.350
 7899SOL     OW24595   4.598   1.191   2.010
 7899SOL    HW124596   4.578   1.249   2.090
 7899SOL    HW224597   4.625   1.249   1.933
 7900SOL     OW24598   1.168   5.862   1.584
 7900SOL    HW124599   1.228   5.812   1.522
 7900SOL    HW224600   1.220   5.932   1.632
 7901SOL     OW24601   5.930   5.044   0.723
 7901SOL    HW124602   5.895   5.095   0.802
 7901SOL    HW224603   5.877   4.961   0.710
 7902SOL     OW24604   5.030   4.691   5.676
 7902SOL    HW124605   5.050   4.789   5.678
 7902SOL    HW224606   5.042   4.655   5.584
 7903SOL     OW24607   0.083   3.217   1.190
 7903SOL    HW124608   0.150   3.178   1.126
 7903SOL    HW224609   0.114   3.200   1.284
 7904SOL     OW24610   5.968   2.382   2.552
 7904SOL    HW124611   6.032   2.390   2.628
 7904SOL    HW224612   5.966   2.288   2.518
 7905SOL     OW24613   1.839   1.532   2.036
 7905SOL    HW124614   1.936   1.521   2.013
 7905SOL    HW224615   1.819   1.629   2.048
 7906SOL     OW24616   0.445   4.388   6.677
 7906SOL    HW124617   0.540   4.394   6.648
 7906SOL    HW224618   0.398   4.318   6.625
 7907SOL     OW24619   0.102   2.963   3.061
 7907SOL    HW124620   0.147   2.889   3.011
 7907SOL    HW224621   0.046   3.016   2.997
 7908SOL     OW24622   0.024   1.892   2.722
 7908SOL    HW124623   0.056   1.978   2.761
 7908SOL    HW224624   0.002   1.828   2.797
 7909SOL     OW24625   4.064   6.499   4.689
 7909SOL    HW124626   4.134   6.436   4.654
 7909SOL    HW224627   4.098   6.544   4.771
 7910SOL     OW24628   6.796   2.627   5.636
 7910SOL    HW124629   6.828   2.606   5.729
 7910SOL    HW224630   6.696   2.618   5.633
 7911SOL     OW24631   0.123   5.253   6.834
 7911SOL    HW124632   0.082   5.213   6.752
 7911SOL    HW224633   0.168   5.338   6.810
 7912SOL     OW24634   6.992   5.100   5.374
 7912SOL    HW124635   0.059   5.073   5.329
 7912SOL    HW224636   7.008   5.179   5.432
 7913SOL     OW24637   1.591   6.116   6.453
 7913SOL    HW124638   1.577   6.132   6.355
 7913SOL    HW224639   1.523   6.051   6.486
 7914SOL     OW24640   6.238   4.497   1.018
 7914SOL    HW124641   6.231   4.594   1.042
 7914SOL    HW224642   6.232   4.488   0.918
 7915SOL     OW24643   2.861   0.895   2.692
 7915SOL    HW124644   2.953   0.929   2.669
 7915SOL    HW224645   2.866   0.798   2.715
 7916SOL     OW24646   4.324   3.959   5.575
 7916SOL    HW124647   4.333   3.925   5.482
 7916SOL    HW224648   4.378   4.043   5.585
 7917SOL     OW24649   3.822   3.609   3.622
 7917SOL    HW124650   3.791   3.579   3.532
 7917SOL    HW224651   3.907   3.564   3.646
 7918SOL     OW24652   6.280   1.975   2.816
 7918SOL    HW124653   6.181   1.956   2.818
 7918SOL    HW224654   6.328   1.895   2.781
 7919SOL     OW24655   5.462   3.981   1.762
 7919SOL    HW124656   5.468   4.076   1.791
 7919SOL    HW224657   5.546   3.955   1.714
 7920SOL     OW24658   6.941   6.719   1.883
 7920SOL    HW124659   6.909   6.771   1.962
 7920SOL    HW224660   0.004   6.665   1.908
 7921SOL     OW24661   2.519   5.901   2.107
 7921SOL    HW124662   2.586   5.974   2.125
 7921SOL    HW224663   2.435   5.941   2.072
 7922SOL     OW24664   0.906   4.885   5.654
 7922SOL    HW124665   0.952   4.811   5.703
 7922SOL    HW224666   0.943   4.973   5.684
 7923SOL     OW24667   0.908   1.879   2.954
 7923SOL    HW124668   0.965   1.824   2.893
 7923SOL    HW224669   0.814   1.845   2.953
 7924SOL     OW24670   2.121   0.764   3.242
 7924SOL    HW124671   2.139   0.684   3.186
 7924SOL    HW224672   2.197   0.829   3.234
 7925SOL     OW24673   0.508   1.314   6.962
 7925SOL    HW124674   0.530   1.284   6.869
 7925SOL    HW224675   0.505   1.235   0.005
 7926SOL     OW24676   3.392   0.268   2.064
 7926SOL    HW124677   3.447   0.314   1.994
 7926SOL    HW224678   3.407   0.169   2.057
 7927SOL     OW24679   4.588   4.539   4.552
 7927SOL    HW124680   4.552   4.496   4.469
 7927SOL    HW224681   4.659   4.605   4.527
 7928SOL     OW24682   0.490   4.423   6.354
 7928SOL    HW124683   0.427   4.467   6.290
 7928SOL    HW224684   0.439   4.367   6.418
 7929SOL     OW24685   3.790   3.983   4.616
 7929SOL    HW124686   3.726   4.016   4.685
 7929SOL    HW224687   3.879   3.966   4.657
 7930SOL     OW24688   4.548   6.788   2.990
 7930SOL    HW124689   4.459   6.745   3.007
 7930SOL    HW224690   4.544   6.885   3.015
 7931SOL     OW24691   3.011   3.705   6.430
 7931SOL    HW124692   2.916   3.692   6.402
 7931SOL    HW224693   3.072   3.656   6.368
 7932SOL     OW24694   3.261   0.475   0.723
 7932SOL    HW124695   3.239   0.556   0.777
 7932SOL    HW224696   3.219   0.481   0.633
 7933SOL     OW24697   1.794   1.167   6.192
 7933SOL    HW124698   1.819   1.107   6.116
 7933SOL    HW224699   1.877   1.208   6.230
 7934SOL     OW24700   3.974   2.314   5.794
 7934SOL    HW124701   3.967   2.384   5.724
 7934SOL    HW224702   4.004   2.228   5.752
 7935SOL     OW24703   4.425   5.645   2.460
 7935SOL    HW124704   4.455   5.733   2.496
 7935SOL    HW224705   4.497   5.607   2.402
 7936SOL     OW24706   4.141   6.323   2.472
 7936SOL    HW124707   4.116   6.244   2.416
 7936SOL    HW224708   4.239   6.323   2.490
 7937SOL     OW24709   5.972   1.496   6.054
 7937SOL    HW124710   5.971   1.514   6.152
 7937SOL    HW224711   5.879   1.483   6.021
 7938SOL     OW24712   6.319   4.911   4.391
 7938SOL    HW124713   6.378   4.862   4.455
 7938SOL    HW224714   6.340   5.009   4.394
 7939SOL     OW24715   0.385   6.564   4.122
 7939SOL    HW124716   0.369   6.491   4.188
 7939SOL    HW224717   0.460   6.538   4.061
 7940SOL     OW24718   1.304   5.960   0.657
 7940SOL    HW124719   1.379   5.998   0.711
 7940SOL    HW224720   1.326   5.966   0.560
 7941SOL     OW24721   0.602   0.629   1.196
 7941SOL    HW124722   0.656   0.711   1.179
 7941SOL    HW224723   0.619   0.597   1.289
 7942SOL     OW24724   1.361   1.091   1.749
 7942SOL    HW124725   1.410   1.165   1.704
 7942SOL    HW224726   1.424   1.014   1.764
 7943SOL     OW24727   6.335   2.043   0.414
 7943SOL    HW124728   6.397   2.040   0.492
 7943SOL    HW224729   6.273   1.965   0.418
 7944SOL     OW24730   6.999   3.871   1.867
 7944SOL    HW124731   0.046   3.946   1.879
 7944SOL    HW224732   6.985   3.824   1.954
 7945SOL     OW24733   5.551   0.368   0.476
 7945SOL    HW124734   5.589   0.347   0.566
 7945SOL    HW224735   5.570   0.463   0.453
 7946SOL     OW24736   2.088   1.721   5.660
 7946SOL    HW124737   2.062   1.759   5.572
 7946SOL    HW224738   2.006   1.704   5.715
 7947SOL     OW24739   4.384   5.457   6.323
 7947SOL    HW124740   4.464   5.511   6.298
 7947SOL    HW224741   4.325   5.511   6.383
 7948SOL     OW24742   0.744   5.299   6.095
 7948SOL    HW124743   0.710   5.327   6.005
 7948SOL    HW224744   0.817   5.362   6.123
 7949SOL     OW24745   6.963   3.924   3.829
 7949SOL    HW124746   6.876   3.902   3.784
 7949SOL    HW224747   6.945   3.963   3.919
 7950SOL     OW24748   3.720   5.036   4.136
 7950SOL    HW124749   3.714   4.955   4.193
 7950SOL    HW224750   3.815   5.052   4.110
 7951SOL     OW24751   2.167   3.716   0.791
 7951SOL    HW124752   2.081   3.665   0.802
 7951SOL    HW224753   2.215   3.719   0.878
 7952SOL     OW24754   5.705   4.582   0.614
 7952SOL    HW124755   5.739   4.673   0.639
 7952SOL    HW224756   5.610   4.573   0.643
 7953SOL     OW24757   1.801   3.397   2.815
 7953SOL    HW124758   1.732   3.345   2.766
 7953SOL    HW224759   1.777   3.494   2.815
 7954SOL     OW24760   4.806   5.051   4.393
 7954SOL    HW124761   4.782   4.965   4.348
 7954SOL    HW224762   4.905   5.063   4.392
 7955SOL     OW24763   2.165   6.181   6.200
 7955SOL    HW124764   2.236   6.131   6.250
 7955SOL    HW224765   2.104   6.225   6.266
 7956SOL     OW24766   6.142   6.615   2.707
 7956SOL    HW124767   6.215   6.551   2.681
 7956SOL    HW224768   6.054   6.567   2.705
 7957SOL     OW24769   1.256   2.189   1.141
 7957SOL    HW124770   1.229   2.260   1.075
 7957SOL    HW224771   1.240   2.221   1.234
 7958SOL     OW24772   2.496   6.073   3.453
 7958SOL    HW124773   2.567   6.087   3.385
 7958SOL    HW224774   2.462   6.162   3.485
 7959SOL     OW24775   5.130   5.542   1.664
 7959SOL    HW124776   5.087   5.630   1.687
 7959SOL    HW224777   5.168   5.502   1.747
 7960SOL     OW24778   1.346   2.565   1.320
 7960SOL    HW124779   1.413   2.584   1.248
 7960SOL    HW224780   1.379   2.601   1.407
 7961SOL     OW24781   0.792   6.385   0.301
 7961SOL    HW124782   0.888   6.384   0.273
 7961SOL    HW224783   0.753   6.295   0.288
 7962SOL     OW24784   1.884   6.469   2.551
 7962SOL    HW124785   1.868   6.553   2.603
 7962SOL    HW224786   1.819   6.464   2.475
 7963SOL     OW24787   0.812   6.453   5.122
 7963SOL    HW124788   0.789   6.542   5.084
 7963SOL    HW224789   0.881   6.409   5.064
 7964SOL     OW24790   6.179   5.587   3.820
 7964SOL    HW124791   6.230   5.647   3.881
 7964SOL    HW224792   6.089   5.627   3.801
 7965SOL     OW24793   4.200   1.943   0.620
 7965SOL    HW124794   4.257   1.978   0.695
 7965SOL    HW224795   4.254   1.942   0.536
 7966SOL     OW24796   6.930   0.049   3.505
 7966SOL    HW124797   6.923   0.149   3.506
 7966SOL    HW224798   7.002   0.020   3.568
 7967SOL     OW24799   3.016   0.368   3.580
 7967SOL    HW124800   3.062   0.455   3.565
 7967SOL    HW224801   2.933   0.383   3.634
 7968SOL     OW24802   2.551   1.026   1.354
 7968SOL    HW124803   2.568   0.928   1.352
 7968SOL    HW224804   2.618   1.073   1.297
 7969SOL     OW24805   3.711   1.159   3.335
 7969SOL    HW124806   3.694   1.161   3.433
 7969SOL    HW224807   3.728   1.252   3.302
 7970SOL     OW24808   0.040   4.873   3.783
 7970SOL    HW124809   6.964   4.909   3.776
 7970SOL    HW224810   0.099   4.924   3.721
 7971SOL     OW24811   3.250   1.822   2.360
 7971SOL    HW124812   3.237   1.919   2.377
 7971SOL    HW224813   3.205   1.796   2.275
 7972SOL     OW24814   6.377   5.225   1.143
 7972SOL    HW124815   6.419   5.171   1.216
 7972SOL    HW224816   6.350   5.314   1.179
 7973SOL     OW24817   4.832   2.273   3.168
 7973SOL    HW124818   4.877   2.196   3.122
 7973SOL    HW224819   4.787   2.240   3.252
 7974SOL     OW24820   5.528   5.970   4.119
 7974SOL    HW124821   5.434   5.985   4.087
 7974SOL    HW224822   5.581   6.054   4.105
 7975SOL     OW24823   2.111   1.094   2.319
 7975SOL    HW124824   2.180   1.135   2.259
 7975SOL    HW224825   2.124   0.995   2.323
 7976SOL     OW24826   1.254   6.741   6.033
 7976SOL    HW124827   1.348   6.756   6.002
 7976SOL    HW224828   1.256   6.689   6.119
 7977SOL     OW24829   5.280   6.298   1.171
 7977SOL    HW124830   5.313   6.228   1.107
 7977SOL    HW224831   5.213   6.257   1.232
 7978SOL     OW24832   3.507   1.843   5.635
 7978SOL    HW124833   3.440   1.797   5.693
 7978SOL    HW224834   3.469   1.930   5.603
 7979SOL     OW24835   4.766   6.252   3.976
 7979SOL    HW124836   4.727   6.336   3.939
 7979SOL    HW224837   4.693   6.187   3.995
 7980SOL     OW24838   2.957   0.611   2.803
 7980SOL    HW124839   3.020   0.633   2.877
 7980SOL    HW224840   2.990   0.532   2.752
 7981SOL     OW24841   0.843   5.821   2.511
 7981SOL    HW124842   0.825   5.914   2.543
 7981SOL    HW224843   0.903   5.774   2.576
 7982SOL     OW24844   6.908   2.272   0.586
 7982SOL    HW124845   6.931   2.368   0.570
 7982SOL    HW224846   6.848   2.240   0.513
 7983SOL     OW24847   4.915   2.644   1.754
 7983SOL    HW124848   4.996   2.639   1.813
 7983SOL    HW224849   4.881   2.551   1.737
 7984SOL     OW24850   6.684   0.754   0.464
 7984SOL    HW124851   6.738   0.837   0.477
 7984SOL    HW224852   6.744   0.679   0.435
 7985SOL     OW24853   1.201   1.370   0.747
 7985SOL    HW124854   1.186   1.272   0.728
 7985SOL    HW224855   1.186   1.388   0.844
 7986SOL     OW24856   4.879   3.449   0.290
 7986SOL    HW124857   4.924   3.474   0.376
 7986SOL    HW224858   4.800   3.508   0.275
 7987SOL     OW24859   1.144   2.799   4.877
 7987SOL    HW124860   1.126   2.715   4.825
 7987SOL    HW224861   1.179   2.774   4.968
 7988SOL     OW24862   2.740   1.434   5.156
 7988SOL    HW124863   2.701   1.406   5.243
 7988SOL    HW224864   2.723   1.531   5.141
 7989SOL     OW24865   3.665   3.571   6.368
 7989SOL    HW124866   3.740   3.596   6.307
 7989SOL    HW224867   3.619   3.490   6.333
 7990SOL     OW24868   2.189   2.890   4.790
 7990SOL    HW124869   2.178   2.966   4.854
 7990SOL    HW224870   2.236   2.815   4.836
 7991SOL     OW24871   2.314   2.424   5.993
 7991SOL    HW124872   2.346   2.416   5.899
 7991SOL    HW224873   2.214   2.424   5.995
 7992SOL     OW24874   2.909   1.733   1.120
 7992SOL    HW124875   2.853   1.693   1.192
 7992SOL    HW224876   2.962   1.661   1.075
 7993SOL     OW24877   2.715   5.840   6.261
 7993SOL    HW124878   2.757   5.833   6.170
 7993SOL    HW224879   2.627   5.888   6.252
 7994SOL     OW24880   5.907   0.959   4.610
 7994SOL    HW124881   5.819   1.000   4.587
 7994SOL    HW224882   5.943   0.911   4.531
 7995SOL     OW24883   3.936   5.219   2.951
 7995SOL    HW124884   4.036   5.219   2.939
 7995SOL    HW224885   3.892   5.189   2.866
 7996SOL     OW24886   4.184   1.290   5.140
 7996SOL    HW124887   4.276   1.328   5.135
 7996SOL    HW224888   4.183   1.200   5.096
 7997SOL     OW24889   5.511   2.477   1.392
 7997SOL    HW124890   5.528   2.565   1.436
 7997SOL    HW224891   5.594   2.420   1.397
 7998SOL     OW24892   6.505   4.602   6.292
 7998SOL    HW124893   6.493   4.503   6.294
 7998SOL    HW224894   6.424   4.644   6.251
 7999SOL     OW24895   2.175   1.291   5.383
 7999SOL    HW124896   2.238   1.366   5.406
 7999SOL    HW224897   2.089   1.303   5.433
 8000SOL     OW24898   5.172   0.507   5.831
 8000SOL    HW124899   5.108   0.432   5.812
 8000SOL    HW224900   5.230   0.522   5.751
 8001SOL     OW24901   2.412   5.408   1.143
 8001SOL    HW124902   2.470   5.396   1.062
 8001SOL    HW224903   2.316   5.402   1.117
 8002SOL     OW24904   5.076   2.415   5.799
 8002SOL    HW124905   5.060   2.477   5.876
 8002SOL    HW224906   5.117   2.330   5.832
 8003SOL     OW24907   4.091   5.440   3.738
 8003SOL    HW124908   4.060   5.535   3.743
 8003SOL    HW224909   4.050   5.387   3.812
 8004SOL     OW24910   1.606   4.214   3.221
 8004SOL    HW124911   1.695   4.169   3.210
 8004SOL    HW224912   1.534   4.156   3.182
 8005SOL     OW24913   1.971   0.650   2.799
 8005SOL    HW124914   1.900   0.714   2.769
 8005SOL    HW224915   2.048   0.702   2.837
 8006SOL     OW24916   3.801   6.254   1.782
 8006SOL    HW124917   3.750   6.243   1.868
 8006SOL    HW224918   3.831   6.349   1.774
 8007SOL     OW24919   0.205   1.205   4.029
 8007SOL    HW124920   0.235   1.253   4.111
 8007SOL    HW224921   0.217   1.264   3.949
 8008SOL     OW24922   5.916   5.216   0.970
 8008SOL    HW124923   5.836   5.171   1.008
 8008SOL    HW224924   5.951   5.283   1.036
 8009SOL     OW24925   6.861   6.794   3.747
 8009SOL    HW124926   6.846   6.784   3.649
 8009SOL    HW224927   6.804   6.869   3.781
 8010SOL     OW24928   2.000   2.362   6.819
 8010SOL    HW124929   1.911   2.331   6.785
 8010SOL    HW224930   2.045   2.417   6.748
 8011SOL     OW24931   2.438   2.901   0.362
 8011SOL    HW124932   2.369   2.921   0.293
 8011SOL    HW224933   2.427   2.806   0.393
 8012SOL     OW24934   2.542   6.914   3.051
 8012SOL    HW124935   2.562   6.927   3.149
 8012SOL    HW224936   2.447   6.883   3.040
 8013SOL     OW24937   6.061   5.470   4.681
 8013SOL    HW124938   6.124   5.401   4.647
 8013SOL    HW224939   5.969   5.430   4.689
 8014SOL     OW24940   2.363   6.636   6.470
 8014SOL    HW124941   2.309   6.565   6.515
 8014SOL    HW224942   2.303   6.691   6.412
 8015SOL     OW24943   1.553   2.385   6.324
 8015SOL    HW124944   1.599   2.441   6.256
 8015SOL    HW224945   1.563   2.289   6.301
 8016SOL     OW24946   4.492   6.103   2.288
 8016SOL    HW124947   4.565   6.171   2.292
 8016SOL    HW224948   4.429   6.116   2.364
 8017SOL     OW24949   6.747   3.586   5.755
 8017SOL    HW124950   6.715   3.610   5.847
 8017SOL    HW224951   6.794   3.498   5.757
 8018SOL     OW24952   5.764   2.978   4.148
 8018SOL    HW124953   5.818   2.939   4.073
 8018SOL    HW224954   5.684   2.920   4.163
 8019SOL     OW24955   2.776   5.036   1.175
 8019SOL    HW124956   2.704   4.990   1.226
 8019SOL    HW224957   2.857   4.978   1.172
 8020SOL     OW24958   5.337   6.560   6.673
 8020SOL    HW124959   5.407   6.594   6.735
 8020SOL    HW224960   5.319   6.630   6.603
 8021SOL     OW24961   6.720   1.060   0.513
 8021SOL    HW124962   6.626   1.094   0.525
 8021SOL    HW224963   6.761   1.105   0.434
 8022SOL     OW24964   4.467   5.223   3.544
 8022SOL    HW124965   4.448   5.251   3.451
 8022SOL    HW224966   4.381   5.201   3.591
 8023SOL     OW24967   6.891   6.079   2.958
 8023SOL    HW124968   6.932   6.122   3.039
 8023SOL    HW224969   6.891   5.979   2.970
 8024SOL     OW24970   4.677   5.514   4.952
 8024SOL    HW124971   4.746   5.579   4.984
 8024SOL    HW224972   4.722   5.429   4.923
 8025SOL     OW24973   3.212   5.991   0.692
 8025SOL    HW124974   3.203   5.981   0.593
 8025SOL    HW224975   3.165   5.916   0.738
 8026SOL     OW24976   2.524   2.612   6.466
 8026SOL    HW124977   2.456   2.682   6.489
 8026SOL    HW224978   2.497   2.565   6.382
 8027SOL     OW24979   4.510   3.377   5.523
 8027SOL    HW124980   4.585   3.438   5.498
 8027SOL    HW224981   4.451   3.423   5.591
 8028SOL     OW24982   5.164   5.423   0.356
 8028SOL    HW124983   5.243   5.482   0.340
 8028SOL    HW224984   5.136   5.380   0.270
 8029SOL     OW24985   2.799   4.622   6.680
 8029SOL    HW124986   2.772   4.602   6.774
 8029SOL    HW224987   2.870   4.557   6.652
 8030SOL     OW24988   6.135   3.376   0.563
 8030SOL    HW124989   6.168   3.470   0.567
 8030SOL    HW224990   6.121   3.342   0.656
 8031SOL     OW24991   3.727   6.603   1.150
 8031SOL    HW124992   3.819   6.603   1.188
 8031SOL    HW224993   3.716   6.679   1.087
 8032SOL     OW24994   4.716   4.529   5.965
 8032SOL    HW124995   4.633   4.582   5.986
 8032SOL    HW224996   4.717   4.508   5.867
 8033SOL     OW24997   5.918   1.858   1.523
 8033SOL    HW124998   5.882   1.841   1.431
 8033SOL    HW224999   5.951   1.953   1.528
 8034SOL     OW25000   6.357   1.864   5.643
 8034SOL    HW125001   6.319   1.795   5.704
 8034SOL    HW225002   6.283   1.910   5.594
 8035SOL     OW25003   5.542   5.704   6.321
 8035SOL    HW125004   5.616   5.678   6.383
 8035SOL    HW225005   5.454   5.692   6.367
 8036SOL     OW25006   1.044   4.475   1.858
 8036SOL    HW125007   1.119   4.448   1.918
 8036SOL    HW225008   0.992   4.394   1.831
 8037SOL     OW25009   2.084   3.232   1.986
 8037SOL    HW125010   2.125   3.319   2.011
 8037SOL    HW225011   2.109   3.209   1.892
 8038SOL     OW25012   5.384   1.646   4.292
 8038SOL    HW125013   5.391   1.728   4.236
 8038SOL    HW225014   5.295   1.645   4.338
 8039SOL     OW25015   2.354   6.026   4.193
 8039SOL    HW125016   2.420   5.952   4.180
 8039SOL    HW225017   2.403   6.112   4.206
 8040SOL     OW25018   5.614   5.937   0.504
 8040SOL    HW125019   5.660   5.858   0.545
 8040SOL    HW225020   5.608   6.011   0.572
 8041SOL     OW25021   3.358   1.783   1.234
 8041SOL    HW125022   3.381   1.820   1.144
 8041SOL    HW225023   3.259   1.783   1.246
 8042SOL     OW25024   2.482   5.108   0.431
 8042SOL    HW125025   2.484   5.062   0.342
 8042SOL    HW225026   2.434   5.195   0.422
 8043SOL     OW25027   2.890   0.829   1.326
 8043SOL    HW125028   2.906   0.836   1.425
 8043SOL    HW225029   2.898   0.733   1.298
 8044SOL     OW25030   3.150   3.584   2.066
 8044SOL    HW125031   3.052   3.569   2.056
 8044SOL    HW225032   3.177   3.664   2.013
 8045SOL     OW25033   6.358   2.767   3.802
 8045SOL    HW125034   6.434   2.704   3.818
 8045SOL    HW225035   6.372   2.850   3.857
 8046SOL     OW25036   0.017   5.351   5.179
 8046SOL    HW125037   0.056   5.337   5.270
 8046SOL    HW225038   6.971   5.428   5.182
 8047SOL     OW25039   2.795   0.067   4.585
 8047SOL    HW125040   2.717   0.046   4.525
 8047SOL    HW225041   2.762   0.091   4.676
 8048SOL     OW25042   5.902   0.863   5.708
 8048SOL    HW125043   5.811   0.827   5.729
 8048SOL    HW225044   5.894   0.942   5.648
 8049SOL     OW25045   1.536   6.984   0.675
 8049SOL    HW125046   1.467   6.925   0.718
 8049SOL    HW225047   1.517   0.062   0.698
 8050SOL     OW25048   0.159   3.252   1.452
 8050SOL    HW125049   0.237   3.288   1.401
 8050SOL    HW225050   0.183   3.246   1.549
 8051SOL     OW25051   2.814   1.624   3.492
 8051SOL    HW125052   2.782   1.558   3.561
 8051SOL    HW225053   2.909   1.648   3.512
 8052SOL     OW25054   3.483   1.948   3.182
 8052SOL    HW125055   3.443   1.905   3.101
 8052SOL    HW225056   3.573   1.986   3.158
 8053SOL     OW25057   4.371   3.501   1.748
 8053SOL    HW125058   4.275   3.526   1.734
 8053SOL    HW225059   4.377   3.404   1.770
 8054SOL     OW25060   4.698   6.541   4.312
 8054SOL    HW125061   4.639   6.572   4.238
 8054SOL    HW225062   4.701   6.610   4.384
 8055SOL     OW25063   0.643   6.963   5.436
 8055SOL    HW125064   0.733   7.004   5.449
 8055SOL    HW225065   0.648   6.892   5.365
 8056SOL     OW25066   4.376   1.238   2.437
 8056SOL    HW125067   4.354   1.262   2.532
 8056SOL    HW225068   4.292   1.239   2.382
 8057SOL     OW25069   3.142   0.228   3.774
 8057SOL    HW125070   3.077   0.245   3.699
 8057SOL    HW225071   3.224   0.285   3.760
 8058SOL     OW25072   2.143   6.769   3.567
 8058SOL    HW125073   2.232   6.808   3.589
 8058SOL    HW225074   2.096   6.826   3.500
 8059SOL     OW25075   2.602   0.895   3.628
 8059SOL    HW125076   2.612   0.822   3.561
 8059SOL    HW225077   2.676   0.889   3.695
 8060SOL     OW25078   0.712   2.942   5.002
 8060SOL    HW125079   0.730   2.850   5.037
 8060SOL    HW225080   0.657   2.993   5.068
 8061SOL     OW25081   6.376   6.474   2.584
 8061SOL    HW125082   6.451   6.539   2.587
 8061SOL    HW225083   6.395   6.404   2.516
 8062SOL     OW25084   1.647   3.462   2.026
 8062SOL    HW125085   1.726   3.516   2.057
 8062SOL    HW225086   1.645   3.462   1.926
 8063SOL     OW25087   2.363   3.109   6.135
 8063SOL    HW125088   2.424   3.105   6.056
 8063SOL    HW225089   2.359   3.020   6.179
 8064SOL     OW25090   6.793   2.393   6.328
 8064SOL    HW125091   6.875   2.422   6.279
 8064SOL    HW225092   6.722   2.370   6.262
 8065SOL     OW25093   4.812   6.998   6.495
 8065SOL    HW125094   4.766   0.066   6.517
 8065SOL    HW225095   4.864   6.967   6.575
 8066SOL     OW25096   1.945   6.829   1.639
 8066SOL    HW125097   2.006   6.907   1.653
 8066SOL    HW225098   1.946   6.771   1.720
 8067SOL     OW25099   4.635   2.595   2.456
 8067SOL    HW125100   4.698   2.518   2.450
 8067SOL    HW225101   4.656   2.649   2.537
 8068SOL     OW25102   6.527   4.826   4.544
 8068SOL    HW125103   6.588   4.905   4.538
 8068SOL    HW225104   6.582   4.743   4.557
 8069SOL     OW25105   1.197   6.196   2.097
 8069SOL    HW125106   1.174   6.239   2.185
 8069SOL    HW225107   1.271   6.248   2.054
 8070SOL     OW25108   3.810   0.486   2.720
 8070SOL    HW125109   3.723   0.445   2.745
 8070SOL    HW225110   3.805   0.521   2.626
 8071SOL     OW25111   4.727   6.048   0.199
 8071SOL    HW125112   4.660   6.001   0.257
 8071SOL    HW225113   4.733   6.001   0.111
 8072SOL     OW25114   4.270   0.765   2.984
 8072SOL    HW125115   4.352   0.727   2.942
 8072SOL    HW225116   4.285   0.777   3.082
 8073SOL     OW25117   4.842   0.704   6.073
 8073SOL    HW125118   4.851   0.803   6.064
 8073SOL    HW225119   4.908   0.671   6.140
 8074SOL     OW25120   3.089   4.156   6.697
 8074SOL    HW125121   3.047   4.075   6.655
 8074SOL    HW225122   3.176   4.175   6.651
 8075SOL     OW25123   6.056   2.262   3.673
 8075SOL    HW125124   6.050   2.334   3.743
 8075SOL    HW225125   6.113   2.294   3.597
 8076SOL     OW25126   4.792   2.992   6.155
 8076SOL    HW125127   4.865   3.060   6.159
 8076SOL    HW225128   4.732   3.012   6.077
 8077SOL     OW25129   1.154   0.160   0.241
 8077SOL    HW125130   1.243   0.179   0.282
 8077SOL    HW225131   1.082   0.185   0.306
 8078SOL     OW25132   5.688   2.785   1.001
 8078SOL    HW125133   5.737   2.823   1.080
 8078SOL    HW225134   5.625   2.714   1.032
 8079SOL     OW25135   1.206   2.501   1.682
 8079SOL    HW125136   1.167   2.409   1.677
 8079SOL    HW225137   1.170   2.557   1.607
 8080SOL     OW25138   4.020   4.961   0.490
 8080SOL    HW125139   4.119   4.949   0.480
 8080SOL    HW225140   3.977   4.964   0.400
 8081SOL     OW25141   5.884   2.147   4.976
 8081SOL    HW125142   5.943   2.067   4.966
 8081SOL    HW225143   5.820   2.152   4.900
 8082SOL     OW25144   6.203   3.567   4.563
 8082SOL    HW125145   6.266   3.491   4.577
 8082SOL    HW225146   6.254   3.653   4.559
 8083SOL     OW25147   6.019   1.890   5.075
 8083SOL    HW125148   6.061   1.800   5.090
 8083SOL    HW225149   5.921   1.884   5.093
 8084SOL     OW25150   6.240   6.740   0.289
 8084SOL    HW125151   6.216   6.696   0.202
 8084SOL    HW225152   6.220   6.678   0.365
 8085SOL     OW25153   5.474   2.537   0.861
 8085SOL    HW125154   5.401   2.470   0.849
 8085SOL    HW225155   5.480   2.562   0.958
 8086SOL     OW25156   2.215   5.704   5.904
 8086SOL    HW125157   2.115   5.714   5.899
 8086SOL    HW225158   2.246   5.648   5.828
 8087SOL     OW25159   2.910   4.492   0.299
 8087SOL    HW125160   2.909   4.497   0.399
 8087SOL    HW225161   3.002   4.467   0.268
 8088SOL     OW25162   4.454   0.960   3.285
 8088SOL    HW125163   4.522   0.891   3.306
 8088SOL    HW225164   4.370   0.942   3.337
 8089SOL     OW25165   6.343   2.874   0.543
 8089SOL    HW125166   6.307   2.791   0.500
 8089SOL    HW225167   6.416   2.912   0.486
 8090SOL     OW25168   4.614   2.308   5.148
 8090SOL    HW125169   4.602   2.209   5.148
 8090SOL    HW225170   4.589   2.345   5.059
 8091SOL     OW25171   1.907   4.190   5.239
 8091SOL    HW125172   1.997   4.156   5.212
 8091SOL    HW225173   1.839   4.165   5.170
 8092SOL     OW25174   6.633   1.785   4.526
 8092SOL    HW125175   6.723   1.754   4.554
 8092SOL    HW225176   6.574   1.705   4.509
 8093SOL     OW25177   5.662   5.280   0.685
 8093SOL    HW125178   5.751   5.293   0.729
 8093SOL    HW225179   5.675   5.235   0.597
 8094SOL     OW25180   0.538   4.058   4.091
 8094SOL    HW125181   0.446   4.055   4.052
 8094SOL    HW225182   0.579   4.147   4.073
 8095SOL     OW25183   6.588   3.354   4.816
 8095SOL    HW125184   6.668   3.295   4.801
 8095SOL    HW225185   6.520   3.337   4.745
 8096SOL     OW25186   4.730   0.096   0.710
 8096SOL    HW125187   4.700   0.190   0.727
 8096SOL    HW225188   4.652   0.034   0.717
 8097SOL     OW25189   4.907   1.661   4.442
 8097SOL    HW125190   4.874   1.614   4.360
 8097SOL    HW225191   5.003   1.641   4.456
 8098SOL     OW25192   2.346   1.436   4.152
 8098SOL    HW125193   2.355   1.528   4.190
 8098SOL    HW225194   2.339   1.441   4.053
 8099SOL     OW25195   3.700   6.215   5.292
 8099SOL    HW125196   3.769   6.166   5.345
 8099SOL    HW225197   3.741   6.254   5.210
 8100SOL     OW25198   6.547   6.218   1.002
 8100SOL    HW125199   6.568   6.124   0.975
 8100SOL    HW225200   6.505   6.217   1.093
 8101SOL     OW25201   0.261   4.821   2.060
 8101SOL    HW125202   0.243   4.794   2.154
 8101SOL    HW225203   0.359   4.837   2.048
 8102SOL     OW25204   6.690   0.611   5.773
 8102SOL    HW125205   6.685   0.574   5.865
 8102SOL    HW225206   6.648   0.701   5.770
 8103SOL     OW25207   2.616   2.435   2.315
 8103SOL    HW125208   2.576   2.525   2.334
 8103SOL    HW225209   2.549   2.364   2.337
 8104SOL     OW25210   3.189   0.007   6.267
 8104SOL    HW125211   3.124   0.031   6.195
 8104SOL    HW225212   3.267   0.069   6.264
 8105SOL     OW25213   1.768   2.706   3.322
 8105SOL    HW125214   1.864   2.726   3.340
 8105SOL    HW225215   1.711   2.775   3.367
 8106SOL     OW25216   0.264   3.614   5.216
 8106SOL    HW125217   0.261   3.630   5.118
 8106SOL    HW225218   0.297   3.696   5.263
 8107SOL     OW25219   1.373   5.615   6.852
 8107SOL    HW125220   1.436   5.674   6.904
 8107SOL    HW225221   1.280   5.627   6.888
 8108SOL     OW25222   2.222   2.978   5.413
 8108SOL    HW125223   2.306   3.031   5.422
 8108SOL    HW225224   2.206   2.958   5.316
 8109SOL     OW25225   0.828   5.191   5.465
 8109SOL    HW125226   0.877   5.110   5.433
 8109SOL    HW225227   0.790   5.240   5.387
 8110SOL     OW25228   1.340   4.956   0.419
 8110SOL    HW125229   1.254   4.927   0.462
 8110SOL    HW225230   1.360   5.050   0.445
 8111SOL     OW25231   2.860   6.169   4.293
 8111SOL    HW125232   2.851   6.070   4.298
 8111SOL    HW225233   2.841   6.209   4.382
 8112SOL     OW25234   4.229   0.904   3.953
 8112SOL    HW125235   4.154   0.969   3.940
 8112SOL    HW225236   4.211   0.851   4.036
 8113SOL     OW25237   2.914   2.844   5.805
 8113SOL    HW125238   2.858   2.874   5.728
 8113SOL    HW225239   2.993   2.905   5.815
 8114SOL     OW25240   2.810   3.372   1.850
 8114SOL    HW125241   2.719   3.376   1.809
 8114SOL    HW225242   2.876   3.421   1.792
 8115SOL     OW25243   3.132   3.079   0.873
 8115SOL    HW125244   3.212   3.027   0.842
 8115SOL    HW225245   3.057   3.015   0.895
 8116SOL     OW25246   5.354   1.396   5.708
 8116SOL    HW125247   5.295   1.345   5.771
 8116SOL    HW225248   5.396   1.333   5.644
 8117SOL     OW25249   3.128   2.071   5.821
 8117SOL    HW125250   3.057   2.142   5.813
 8117SOL    HW225251   3.107   1.996   5.758
 8118SOL     OW25252   1.651   2.108   3.901
 8118SOL    HW125253   1.657   2.031   3.964
 8118SOL    HW225254   1.741   2.128   3.862
 8119SOL     OW25255   1.105   6.448   2.293
 8119SOL    HW125256   1.152   6.535   2.277
 8119SOL    HW225257   1.056   6.453   2.380
 8120SOL     OW25258   4.600   4.403   2.457
 8120SOL    HW125259   4.680   4.458   2.481
 8120SOL    HW225260   4.565   4.433   2.368
 8121SOL     OW25261   6.586   6.348   2.804
 8121SOL    HW125262   6.619   6.254   2.805
 8121SOL    HW225263   6.663   6.411   2.806
 8122SOL     OW25264   6.844   5.715   1.322
 8122SOL    HW125265   6.794   5.653   1.383
 8122SOL    HW225266   6.927   5.747   1.367
 8123SOL     OW25267   1.316   5.319   0.001
 8123SOL    HW125268   1.250   5.306   0.075
 8123SOL    HW225269   1.272   5.362   6.941
 8124SOL     OW25270   1.550   6.271   3.199
 8124SOL    HW125271   1.603   6.355   3.191
 8124SOL    HW225272   1.573   6.209   3.123
 8125SOL     OW25273   5.316   4.854   3.011
 8125SOL    HW125274   5.308   4.755   3.003
 8125SOL    HW225275   5.386   4.877   3.079
 8126SOL     OW25276   6.912   4.774   2.377
 8126SOL    HW125277   6.880   4.707   2.444
 8126SOL    HW225278   6.870   4.757   2.289
 8127SOL     OW25279   4.669   5.310   1.345
 8127SOL    HW125280   4.737   5.379   1.366
 8127SOL    HW225281   4.669   5.240   1.418
 8128SOL     OW25282   3.672   1.731   5.444
 8128SOL    HW125283   3.622   1.776   5.518
 8128SOL    HW225284   3.731   1.661   5.482
 8129SOL     OW25285   4.968   6.327   6.390
 8129SOL    HW125286   4.939   6.369   6.304
 8129SOL    HW225287   4.893   6.331   6.457
 8130SOL     OW25288   0.457   0.150   6.845
 8130SOL    HW125289   0.546   0.147   6.800
 8130SOL    HW225290   0.447   0.072   6.906
 8131SOL     OW25291   2.351   1.278   1.228
 8131SOL    HW125292   2.320   1.348   1.292
 8131SOL    HW225293   2.367   1.193   1.278
 8132SOL     OW25294   5.308   4.345   3.445
 8132SOL    HW125295   5.395   4.393   3.454
 8132SOL    HW225296   5.260   4.376   3.363
 8133SOL     OW25297   0.438   5.634   1.788
 8133SOL    HW125298   0.445   5.710   1.724
 8133SOL    HW225299   0.391   5.665   1.871
 8134SOL     OW25300   1.817   2.547   2.014
 8134SOL    HW125301   1.891   2.526   1.950
 8134SOL    HW225302   1.791   2.643   2.006
 8135SOL     OW25303   3.951   6.409   2.698
 8135SOL    HW125304   4.014   6.381   2.626
 8135SOL    HW225305   3.892   6.483   2.665
 8136SOL     OW25306   1.959   5.968   1.562
 8136SOL    HW125307   1.978   6.053   1.513
 8136SOL    HW225308   2.005   5.892   1.516
 8137SOL     OW25309   3.168   3.588   4.915
 8137SOL    HW125310   3.218   3.568   4.831
 8137SOL    HW225311   3.070   3.581   4.898
 8138SOL     OW25312   4.553   1.266   3.574
 8138SOL    HW125313   4.550   1.190   3.638
 8138SOL    HW225314   4.644   1.307   3.574
 8139SOL     OW25315   1.690   3.223   5.919
 8139SOL    HW125316   1.591   3.228   5.913
 8139SOL    HW225317   1.731   3.296   5.864
 8140SOL     OW25318   4.492   1.154   0.858
 8140SOL    HW125319   4.590   1.137   0.850
 8140SOL    HW225320   4.463   1.217   0.786
 8141SOL     OW25321   6.185   0.920   5.406
 8141SOL    HW125322   6.238   0.889   5.327
 8141SOL    HW225323   6.110   0.857   5.423
 8142SOL     OW25324   2.981   5.825   0.556
 8142SOL    HW125325   3.016   5.771   0.632
 8142SOL    HW225326   2.968   5.767   0.476
 8143SOL     OW25327   5.875   4.722   0.077
 8143SOL    HW125328   5.911   4.640   0.122
 8143SOL    HW225329   5.816   4.695   0.001
 8144SOL     OW25330   1.858   5.388   0.162
 8144SOL    HW125331   1.759   5.405   0.173
 8144SOL    HW225332   1.877   5.364   0.068
 8145SOL     OW25333   5.425   5.636   6.089
 8145SOL    HW125334   5.467   5.679   6.169
 8145SOL    HW225335   5.384   5.549   6.115
 8146SOL     OW25336   6.666   6.407   4.924
 8146SOL    HW125337   6.700   6.353   5.001
 8146SOL    HW225338   6.733   6.478   4.901
 8147SOL     OW25339   2.329   0.628   5.200
 8147SOL    HW125340   2.328   0.537   5.242
 8147SOL    HW225341   2.239   0.647   5.161
 8148SOL     OW25342   5.093   4.962   6.673
 8148SOL    HW125343   5.140   5.007   6.597
 8148SOL    HW225344   5.023   4.900   6.636
 8149SOL     OW25345   1.479   6.840   5.686
 8149SOL    HW125346   1.446   6.923   5.732
 8149SOL    HW225347   1.437   6.833   5.596
 8150SOL     OW25348   0.736   4.070   0.211
 8150SOL    HW125349   0.812   4.036   0.266
 8150SOL    HW225350   0.761   4.158   0.171
 8151SOL     OW25351   5.931   4.689   2.530
 8151SOL    HW125352   5.882   4.622   2.586
 8151SOL    HW225353   5.968   4.761   2.589
 8152SOL     OW25354   5.920   2.043   3.662
 8152SOL    HW125355   5.911   1.988   3.744
 8152SOL    HW225356   5.979   2.122   3.680
 8153SOL     OW25357   0.295   1.549   1.461
 8153SOL    HW125358   0.391   1.577   1.469
 8153SOL    HW225359   0.268   1.549   1.365
 8154SOL     OW25360   1.092   0.493   3.168
 8154SOL    HW125361   1.018   0.470   3.106
 8154SOL    HW225362   1.055   0.517   3.258
 8155SOL     OW25363   1.380   4.696   4.610
 8155SOL    HW125364   1.477   4.692   4.584
 8155SOL    HW225365   1.363   4.633   4.686
 8156SOL     OW25366   1.305   3.878   0.502
 8156SOL    HW125367   1.313   3.977   0.517
 8156SOL    HW225368   1.209   3.851   0.504
 8157SOL     OW25369   6.095   4.889   4.666
 8157SOL    HW125370   6.141   4.847   4.588
 8157SOL    HW225371   6.049   4.973   4.637
 8158SOL     OW25372   5.828   5.257   6.043
 8158SOL    HW125373   5.812   5.304   5.956
 8158SOL    HW225374   5.885   5.315   6.101
 8159SOL     OW25375   2.688   0.118   4.835
 8159SOL    HW125376   2.661   0.030   4.874
 8159SOL    HW225377   2.696   0.186   4.909
 8160SOL     OW25378   5.638   2.541   2.929
 8160SOL    HW125379   5.712   2.475   2.938
 8160SOL    HW225380   5.555   2.505   2.973
 8161SOL     OW25381   6.528   2.712   1.945
 8161SOL    HW125382   6.570   2.669   1.865
 8161SOL    HW225383   6.591   2.779   1.984
 8162SOL     OW25384   1.074   5.836   5.540
 8162SOL    HW125385   1.144   5.906   5.528
 8162SOL    HW225386   1.051   5.796   5.451
 8163SOL     OW25387   3.955   4.501   5.369
 8163SOL    HW125388   3.941   4.590   5.327
 8163SOL    HW225389   3.882   4.483   5.434
 8164SOL     OW25390   5.294   1.956   0.762
 8164SOL    HW125391   5.329   1.896   0.690
 8164SOL    HW225392   5.237   2.028   0.721
 8165SOL     OW25393   0.874   1.960   6.123
 8165SOL    HW125394   0.781   1.953   6.087
 8165SOL    HW225395   0.879   1.919   6.214
 8166SOL     OW25396   2.343   2.169   4.452
 8166SOL    HW125397   2.307   2.228   4.525
 8166SOL    HW225398   2.344   2.220   4.366
 8167SOL     OW25399   2.015   2.401   3.319
 8167SOL    HW125400   2.035   2.303   3.320
 8167SOL    HW225401   1.987   2.431   3.410
 8168SOL     OW25402   1.630   6.148   2.976
 8168SOL    HW125403   1.686   6.225   2.948
 8168SOL    HW225404   1.585   6.108   2.896
 8169SOL     OW25405   4.851   4.198   0.360
 8169SOL    HW125406   4.818   4.224   0.451
 8169SOL    HW225407   4.824   4.268   0.294
 8170SOL     OW25408   0.144   4.372   3.006
 8170SOL    HW125409   0.176   4.465   2.990
 8170SOL    HW225410   0.184   4.311   2.937
 8171SOL     OW25411   1.991   2.094   1.635
 8171SOL    HW125412   2.017   2.057   1.724
 8171SOL    HW225413   1.925   2.033   1.591
 8172SOL     OW25414   1.193   4.158   0.521
 8172SOL    HW125415   1.242   4.246   0.515
 8172SOL    HW225416   1.096   4.173   0.504
 8173SOL     OW25417   5.906   0.026   1.563
 8173SOL    HW125418   5.925   0.044   1.659
 8173SOL    HW225419   5.958   6.963   1.533
 8174SOL     OW25420   2.336   6.608   4.088
 8174SOL    HW125421   2.409   6.676   4.095
 8174SOL    HW225422   2.324   6.581   3.992
 8175SOL     OW25423   0.639   2.430   5.488
 8175SOL    HW125424   0.559   2.374   5.510
 8175SOL    HW225425   0.722   2.386   5.521
 8176SOL     OW25426   2.886   5.229   0.431
 8176SOL    HW125427   2.830   5.172   0.490
 8176SOL    HW225428   2.837   5.313   0.408
 8177SOL     OW25429   2.829   1.293   2.799
 8177SOL    HW125430   2.780   1.314   2.883
 8177SOL    HW225431   2.785   1.216   2.753
 8178SOL     OW25432   2.295   6.337   0.871
 8178SOL    HW125433   2.197   6.354   0.884
 8178SOL    HW225434   2.329   6.279   0.946
 8179SOL     OW25435   6.086   0.155   3.528
 8179SOL    HW125436   6.098   0.083   3.596
 8179SOL    HW225437   6.069   0.242   3.575
 8180SOL     OW25438   5.071   5.359   0.619
 8180SOL    HW125439   4.982   5.314   0.606
 8180SOL    HW225440   5.120   5.363   0.532
 8181SOL     OW25441   6.289   0.712   6.169
 8181SOL    HW125442   6.202   0.723   6.216
 8181SOL    HW225443   6.272   0.704   6.070
 8182SOL     OW25444   3.532   3.533   3.194
 8182SOL    HW125445   3.471   3.461   3.161
 8182SOL    HW225446   3.525   3.613   3.135
 8183SOL     OW25447   0.042   0.174   5.644
 8183SOL    HW125448   0.107   0.108   5.684
 8183SOL    HW225449   6.996   0.204   5.715
 8184SOL     OW25450   0.452   5.975   5.537
 8184SOL    HW125451   0.447   6.067   5.578
 8184SOL    HW225452   0.380   5.918   5.577
 8185SOL     OW25453   0.511   6.018   5.270
 8185SOL    HW125454   0.459   5.991   5.351
 8185SOL    HW225455   0.448   6.028   5.192
 8186SOL     OW25456   1.467   5.635   0.698
 8186SOL    HW125457   1.420   5.723   0.712
 8186SOL    HW225458   1.399   5.562   0.692
 8187SOL     OW25459   1.872   6.418   4.742
 8187SOL    HW125460   1.847   6.389   4.650
 8187SOL    HW225461   1.812   6.373   4.808
 8188SOL     OW25462   2.001   2.801   2.630
 8188SOL    HW125463   1.948   2.810   2.715
 8188SOL    HW225464   2.002   2.705   2.601
 8189SOL     OW25465   6.189   4.762   3.948
 8189SOL    HW125466   6.263   4.805   3.998
 8189SOL    HW225467   6.180   4.805   3.858
 8190SOL     OW25468   6.391   3.996   2.884
 8190SOL    HW125469   6.356   4.013   2.791
 8190SOL    HW225470   6.328   4.035   2.951
 8191SOL     OW25471   4.265   5.197   0.980
 8191SOL    HW125472   4.285   5.289   0.947
 8191SOL    HW225473   4.178   5.167   0.942
 8192SOL     OW25474   0.720   6.152   3.449
 8192SOL    HW125475   0.714   6.053   3.438
 8192SOL    HW225476   0.782   6.173   3.526
 8193SOL     OW25477   0.383   4.972   3.826
 8193SOL    HW125478   0.475   4.974   3.787
 8193SOL    HW225479   0.320   4.931   3.760
 8194SOL     OW25480   5.082   0.304   1.913
 8194SOL    HW125481   5.038   0.350   1.990
 8194SOL    HW225482   5.126   0.372   1.855
 8195SOL     OW25483   6.482   6.663   3.682
 8195SOL    HW125484   6.513   6.758   3.684
 8195SOL    HW225485   6.383   6.661   3.665
 8196SOL     OW25486   4.947   0.561   2.439
 8196SOL    HW125487   4.939   0.462   2.451
 8196SOL    HW225488   4.855   0.600   2.426
 8197SOL     OW25489   4.663   1.592   3.460
 8197SOL    HW125490   4.565   1.576   3.472
 8197SOL    HW225491   4.714   1.511   3.489
 8198SOL     OW25492   1.803   5.722   1.200
 8198SOL    HW125493   1.881   5.701   1.258
 8198SOL    HW225494   1.777   5.640   1.148
 8199SOL     OW25495   5.467   2.153   0.607
 8199SOL    HW125496   5.529   2.170   0.684
 8199SOL    HW225497   5.456   2.054   0.595
 8200SOL     OW25498   5.439   4.244   0.804
 8200SOL    HW125499   5.433   4.148   0.831
 8200SOL    HW225500   5.381   4.299   0.864
 8201SOL     OW25501   5.624   0.126   5.182
 8201SOL    HW125502   5.611   0.195   5.253
 8201SOL    HW225503   5.720   0.098   5.179
 8202SOL     OW25504   1.351   6.039   2.250
 8202SOL    HW125505   1.384   5.945   2.238
 8202SOL    HW225506   1.284   6.061   2.180
 8203SOL     OW25507   1.754   3.262   1.190
 8203SOL    HW125508   1.744   3.350   1.236
 8203SOL    HW225509   1.846   3.225   1.206
 8204SOL     OW25510   1.639   3.358   0.946
 8204SOL    HW125511   1.669   3.449   0.916
 8204SOL    HW225512   1.692   3.331   1.026
 8205SOL     OW25513   0.164   3.665   6.558
 8205SOL    HW125514   0.172   3.606   6.639
 8205SOL    HW225515   0.158   3.760   6.587
 8206SOL     OW25516   3.365   1.275   1.381
 8206SOL    HW125517   3.394   1.250   1.473
 8206SOL    HW225518   3.291   1.214   1.352
 8207SOL     OW25519   3.984   3.809   4.040
 8207SOL    HW125520   3.945   3.901   4.044
 8207SOL    HW225521   4.048   3.797   4.117
 8208SOL     OW25522   2.201   0.328   0.104
 8208SOL    HW125523   2.194   0.356   0.199
 8208SOL    HW225524   2.126   0.368   0.052
 8209SOL     OW25525   5.942   2.333   4.331
 8209SOL    HW125526   5.861   2.325   4.390
 8209SOL    HW225527   5.948   2.252   4.273
 8210SOL     OW25528   1.962   2.695   6.050
 8210SOL    HW125529   2.051   2.736   6.034
 8210SOL    HW225530   1.894   2.736   5.989
 8211SOL     OW25531   4.301   4.352   1.392
 8211SOL    HW125532   4.311   4.359   1.293
 8211SOL    HW225533   4.216   4.305   1.415
 8212SOL     OW25534   2.286   2.374   2.877
 8212SOL    HW125535   2.204   2.399   2.929
 8212SOL    HW225536   2.343   2.312   2.931
 8213SOL     OW25537   6.315   4.474   0.713
 8213SOL    HW125538   6.367   4.518   0.640
 8213SOL    HW225539   6.246   4.414   0.673
 8214SOL     OW25540   4.984   3.649   2.900
 8214SOL    HW125541   4.965   3.600   2.815
 8214SOL    HW225542   4.969   3.747   2.887
 8215SOL     OW25543   3.424   5.456   1.973
 8215SOL    HW125544   3.356   5.389   2.001
 8215SOL    HW225545   3.389   5.508   1.894
 8216SOL     OW25546   5.525   3.526   3.131
 8216SOL    HW125547   5.454   3.468   3.092
 8216SOL    HW225548   5.589   3.554   3.059
 8217SOL     OW25549   2.089   5.860   0.453
 8217SOL    HW125550   2.101   5.920   0.374
 8217SOL    HW225551   2.173   5.807   0.467
 8218SOL     OW25552   5.298   2.116   0.307
 8218SOL    HW125553   5.319   2.195   0.366
 8218SOL    HW225554   5.240   2.052   0.357
 8219SOL     OW25555   5.227   2.064   0.036
 8219SOL    HW125556   5.301   2.051   6.987
 8219SOL    HW225557   5.263   2.112   0.116
 8220SOL     OW25558   4.485   3.766   1.687
 8220SOL    HW125559   4.415   3.694   1.688
 8220SOL    HW225560   4.440   3.855   1.692
 8221SOL     OW25561   5.454   4.212   2.855
 8221SOL    HW125562   5.520   4.286   2.842
 8221SOL    HW225563   5.477   4.136   2.795
 8222SOL     OW25564   6.197   1.278   3.062
 8222SOL    HW125565   6.169   1.338   3.137
 8222SOL    HW225566   6.263   1.211   3.095
 8223SOL     OW25567   0.134   5.118   6.281
 8223SOL    HW125568   0.096   5.040   6.330
 8223SOL    HW225569   0.218   5.092   6.234
 8224SOL     OW25570   0.998   3.587   2.865
 8224SOL    HW125571   0.924   3.652   2.849
 8224SOL    HW225572   1.003   3.566   2.963
 8225SOL     OW25573   4.768   1.144   0.810
 8225SOL    HW125574   4.813   1.061   0.839
 8225SOL    HW225575   4.836   1.212   0.783
 8226SOL     OW25576   3.878   0.243   0.326
 8226SOL    HW125577   3.899   0.163   0.270
 8226SOL    HW225578   3.782   0.269   0.313
 8227SOL     OW25579   6.028   4.013   3.303
 8227SOL    HW125580   6.074   4.102   3.313
 8227SOL    HW225581   5.932   4.028   3.280
 8228SOL     OW25582   6.957   1.562   4.289
 8228SOL    HW125583   0.005   1.570   4.213
 8228SOL    HW225584   6.984   1.624   4.363
 8229SOL     OW25585   4.727   5.731   0.885
 8229SOL    HW125586   4.752   5.815   0.933
 8229SOL    HW225587   4.802   5.704   0.824
 8230SOL     OW25588   5.090   6.976   3.650
 8230SOL    HW125589   4.992   6.968   3.634
 8230SOL    HW225590   5.107   0.031   3.717
 8231SOL     OW25591   4.008   5.704   1.365
 8231SOL    HW125592   3.931   5.731   1.308
 8231SOL    HW225593   4.079   5.662   1.308
 8232SOL     OW25594   2.482   1.867   0.104
 8232SOL    HW125595   2.444   1.896   0.016
 8232SOL    HW225596   2.454   1.930   0.176
 8233SOL     OW25597   0.118   5.398   6.201
 8233SOL    HW125598   0.090   5.422   6.108
 8233SOL    HW225599   0.095   5.302   6.219
 8234SOL     OW25600   2.954   3.290   0.013
 8234SOL    HW125601   2.948   3.334   0.102
 8234SOL    HW225602   3.048   3.259   7.015
 8235SOL     OW25603   4.600   2.561   6.941
 8235SOL    HW125604   4.693   2.559   6.905
 8235SOL    HW225605   4.549   2.635   6.896
 8236SOL     OW25606   6.043   2.490   1.244
 8236SOL    HW125607   6.055   2.524   1.151
 8236SOL    HW225608   6.015   2.394   1.241
 8237SOL     OW25609   3.764   6.519   5.634
 8237SOL    HW125610   3.810   6.436   5.666
 8237SOL    HW225611   3.666   6.513   5.655
 8238SOL     OW25612   1.928   0.905   0.004
 8238SOL    HW125613   2.014   0.925   0.051
 8238SOL    HW225614   1.898   0.813   0.028
 8239SOL     OW25615   5.941   1.095   6.928
 8239SOL    HW125616   5.934   1.004   6.970
 8239SOL    HW225617   5.917   1.165   6.995
 8240SOL     OW25618   4.083   3.296   3.170
 8240SOL    HW125619   4.131   3.376   3.134
 8240SOL    HW225620   4.064   3.232   3.095
 8241SOL     OW25621   4.579   6.404   1.620
 8241SOL    HW125622   4.571   6.322   1.564
 8241SOL    HW225623   4.666   6.449   1.601
 8242SOL     OW25624   0.853   3.786   5.452
 8242SOL    HW125625   0.842   3.804   5.550
 8242SOL    HW225626   0.928   3.722   5.438
 8243SOL     OW25627   0.436   3.376   4.855
 8243SOL    HW125628   0.398   3.306   4.915
 8243SOL    HW225629   0.470   3.452   4.910
 8244SOL     OW25630   2.402   5.392   4.627
 8244SOL    HW125631   2.322   5.332   4.618
 8244SOL    HW225632   2.373   5.481   4.663
 8245SOL     OW25633   4.095   3.780   0.451
 8245SOL    HW125634   4.079   3.842   0.528
 8245SOL    HW225635   4.066   3.824   0.366
 8246SOL     OW25636   4.979   4.002   5.233
 8246SOL    HW125637   4.898   4.051   5.265
 8246SOL    HW225638   4.971   3.906   5.259
 8247SOL     OW25639   1.009   6.630   0.438
 8247SOL    HW125640   1.051   6.637   0.529
 8247SOL    HW225641   0.912   6.606   0.448
 8248SOL     OW25642   0.363   4.797   3.262
 8248SOL    HW125643   0.287   4.742   3.296
 8248SOL    HW225644   0.344   4.827   3.169
 8249SOL     OW25645   0.895   5.391   2.999
 8249SOL    HW125646   0.862   5.412   3.092
 8249SOL    HW225647   0.832   5.328   2.955
 8250SOL     OW25648   3.562   3.818   2.111
 8250SOL    HW125649   3.477   3.851   2.152
 8250SOL    HW225650   3.621   3.896   2.088
 8251SOL     OW25651   5.754   1.341   4.709
 8251SOL    HW125652   5.766   1.361   4.612
 8251SOL    HW225653   5.843   1.349   4.755
 8252SOL     OW25654   1.501   3.670   4.336
 8252SOL    HW125655   1.420   3.612   4.345
 8252SOL    HW225656   1.487   3.735   4.262
 8253SOL     OW25657   2.563   2.994   5.608
 8253SOL    HW125658   2.505   2.915   5.625
 8253SOL    HW225659   2.516   3.058   5.548
 8254SOL     OW25660   4.404   5.802   3.267
 8254SOL    HW125661   4.384   5.899   3.264
 8254SOL    HW225662   4.459   5.781   3.348
 8255SOL     OW25663   4.262   4.854   3.696
 8255SOL    HW125664   4.314   4.833   3.779
 8255SOL    HW225665   4.166   4.867   3.719
 8256SOL     OW25666   5.877   2.639   3.971
 8256SOL    HW125667   5.927   2.608   4.053
 8256SOL    HW225668   5.783   2.662   3.997
 8257SOL     OW25669   5.960   5.004   4.317
 8257SOL    HW125670   6.019   5.048   4.384
 8257SOL    HW225671   5.981   5.038   4.226
 8258SOL     OW25672   5.090   1.584   0.188
 8258SOL    HW125673   5.176   1.607   0.144
 8258SOL    HW225674   5.035   1.527   0.126
 8259SOL     OW25675   4.379   1.038   1.232
 8259SOL    HW125676   4.476   1.023   1.252
 8259SOL    HW225677   4.362   1.135   1.215
 8260SOL     OW25678   3.099   5.688   6.833
 8260SOL    HW125679   3.025   5.678   6.899
 8260SOL    HW225680   3.077   5.761   6.768
 8261SOL     OW25681   5.416   1.136   1.665
 8261SOL    HW125682   5.419   1.211   1.600
 8261SOL    HW225683   5.396   1.050   1.616
 8262SOL     OW25684   0.137   2.356   1.281
 8262SOL    HW125685   0.217   2.369   1.222
 8262SOL    HW225686   0.120   2.439   1.334
 8263SOL     OW25687   5.569   1.456   1.073
 8263SOL    HW125688   5.595   1.376   1.018
 8263SOL    HW225689   5.569   1.431   1.170
 8264SOL     OW25690   1.312   4.439   1.987
 8264SOL    HW125691   1.368   4.493   1.925
 8264SOL    HW225692   1.298   4.490   2.072
 8265SOL     OW25693   1.807   0.738   2.419
 8265SOL    HW125694   1.870   0.808   2.386
 8265SOL    HW225695   1.859   0.659   2.451
 8266SOL     OW25696   2.893   0.484   3.215
 8266SOL    HW125697   2.918   0.560   3.155
 8266SOL    HW225698   2.794   0.482   3.226
 8267SOL     OW25699   6.974   3.680   0.754
 8267SOL    HW125700   6.938   3.710   0.665
 8267SOL    HW225701   6.908   3.620   0.798
 8268SOL     OW25702   3.585   5.817   6.434
 8268SOL    HW125703   3.559   5.910   6.407
 8268SOL    HW225704   3.620   5.768   6.354
 8269SOL     OW25705   6.150   2.122   0.802
 8269SOL    HW125706   6.056   2.107   0.771
 8269SOL    HW225707   6.154   2.204   0.859
 8270SOL     OW25708   3.072   6.573   4.323
 8270SOL    HW125709   3.083   6.518   4.240
 8270SOL    HW225710   3.148   6.638   4.329
 8271SOL     OW25711   6.326   2.282   2.802
 8271SOL    HW125712   6.321   2.183   2.787
 8271SOL    HW225713   6.409   2.318   2.760
 8272SOL     OW25714   3.894   1.138   4.331
 8272SOL    HW125715   3.875   1.163   4.236
 8272SOL    HW225716   3.821   1.079   4.365
 8273SOL     OW25717   2.111   6.684   1.868
 8273SOL    HW125718   2.120   6.603   1.926
 8273SOL    HW225719   2.198   6.703   1.823
 8274SOL     OW25720   5.326   4.126   3.248
 8274SOL    HW125721   5.300   4.206   3.302
 8274SOL    HW225722   5.248   4.096   3.193
 8275SOL     OW25723   5.183   2.364   6.682
 8275SOL    HW125724   5.166   2.347   6.585
 8275SOL    HW225725   5.121   2.309   6.737
 8276SOL     OW25726   0.120   2.041   2.927
 8276SOL    HW125727   0.218   2.036   2.910
 8276SOL    HW225728   0.102   2.025   3.024
 8277SOL     OW25729   6.814   0.969   6.737
 8277SOL    HW125730   6.898   1.020   6.759
 8277SOL    HW225731   6.798   0.971   6.639
 8278SOL     OW25732   1.761   2.312   6.681
 8278SOL    HW125733   1.685   2.328   6.744
 8278SOL    HW225734   1.753   2.373   6.602
 8279SOL     OW25735   0.056   6.077   3.710
 8279SOL    HW125736   0.103   6.164   3.727
 8279SOL    HW225737   0.107   6.024   3.644
 8280SOL     OW25738   3.117   2.352   5.466
 8280SOL    HW125739   3.133   2.328   5.370
 8280SOL    HW225740   3.191   2.315   5.522
 8281SOL     OW25741   4.772   5.489   2.822
 8281SOL    HW125742   4.710   5.429   2.771
 8281SOL    HW225743   4.729   5.579   2.834
 8282SOL     OW25744   5.624   2.580   6.195
 8282SOL    HW125745   5.539   2.588   6.247
 8282SOL    HW225746   5.614   2.628   6.108
 8283SOL     OW25747   2.113   2.099   5.799
 8283SOL    HW125748   2.020   2.129   5.779
 8283SOL    HW225749   2.165   2.092   5.714
 8284SOL     OW25750   6.603   4.175   1.780
 8284SOL    HW125751   6.611   4.269   1.745
 8284SOL    HW225752   6.686   4.124   1.758
 8285SOL     OW25753   4.140   3.367   4.042
 8285SOL    HW125754   4.072   3.308   3.998
 8285SOL    HW225755   4.140   3.457   3.997
 8286SOL     OW25756   0.485   1.774   6.337
 8286SOL    HW125757   0.410   1.712   6.362
 8286SOL    HW225758   0.490   1.781   6.237
 8287SOL     OW25759   1.362   6.227   4.303
 8287SOL    HW125760   1.323   6.164   4.371
 8287SOL    HW225761   1.361   6.183   4.213
 8288SOL     OW25762   3.447   1.619   3.492
 8288SOL    HW125763   3.384   1.598   3.418
 8288SOL    HW225764   3.520   1.679   3.459
 8289SOL     OW25765   6.780   5.609   6.702
 8289SOL    HW125766   6.766   5.518   6.741
 8289SOL    HW225767   6.763   5.605   6.604
 8290SOL     OW25768   6.349   2.350   0.650
 8290SOL    HW125769   6.259   2.338   0.610
 8290SOL    HW225770   6.406   2.271   0.629
 8291SOL     OW25771   4.268   0.345   0.628
 8291SOL    HW125772   4.257   0.255   0.668
 8291SOL    HW225773   4.253   0.415   0.697
 8292SOL     OW25774   3.138   0.364   6.207
 8292SOL    HW125775   3.153   0.460   6.184
 8292SOL    HW225776   3.213   0.333   6.266
 8293SOL     OW25777   5.758   5.363   4.659
 8293SOL    HW125778   5.728   5.357   4.755
 8293SOL    HW225779   5.695   5.421   4.608
 8294SOL     OW25780   5.748   3.083   0.120
 8294SOL    HW125781   5.733   3.011   0.053
 8294SOL    HW225782   5.828   3.061   0.177
 8295SOL     OW25783   4.482   3.534   6.895
 8295SOL    HW125784   4.386   3.506   6.904
 8295SOL    HW225785   4.485   3.631   6.869
 8296SOL     OW25786   1.146   5.019   6.323
 8296SOL    HW125787   1.129   5.117   6.328
 8296SOL    HW225788   1.060   4.969   6.337
 8297SOL     OW25789   1.091   2.847   3.915
 8297SOL    HW125790   1.156   2.864   3.989
 8297SOL    HW225791   1.129   2.881   3.829
 8298SOL     OW25792   5.160   1.596   2.402
 8298SOL    HW125793   5.183   1.601   2.304
 8298SOL    HW225794   5.103   1.516   2.419
 8299SOL     OW25795   6.431   2.273   1.394
 8299SOL    HW125796   6.360   2.305   1.456
 8299SOL    HW225797   6.514   2.327   1.407
 8300SOL     OW25798   0.632   5.160   3.144
 8300SOL    HW125799   0.594   5.252   3.156
 8300SOL    HW225800   0.622   5.109   3.230
 8301SOL     OW25801   3.107   2.740   6.426
 8301SOL    HW125802   3.051   2.818   6.454
 8301SOL    HW225803   3.054   2.656   6.436
 8302SOL     OW25804   6.207   5.689   5.680
 8302SOL    HW125805   6.146   5.712   5.604
 8302SOL    HW225806   6.164   5.715   5.766
 8303SOL     OW25807   6.875   0.498   6.115
 8303SOL    HW125808   6.912   0.438   6.186
 8303SOL    HW225809   6.949   0.537   6.061
 8304SOL     OW25810   6.848   3.165   0.775
 8304SOL    HW125811   6.863   3.111   0.692
 8304SOL    HW225812   6.918   3.237   0.780
 8305SOL     OW25813   3.610   5.202   3.373
 8305SOL    HW125814   3.515   5.182   3.397
 8305SOL    HW225815   3.649   5.124   3.324
 8306SOL     OW25816   1.070   3.020   4.281
 8306SOL    HW125817   0.980   3.017   4.239
 8306SOL    HW225818   1.065   3.071   4.367
 8307SOL     OW25819   3.594   5.324   0.783
 8307SOL    HW125820   3.502   5.299   0.813
 8307SOL    HW225821   3.658   5.313   0.859
 8308SOL     OW25822   3.593   0.466   3.032
 8308SOL    HW125823   3.606   0.387   2.972
 8308SOL    HW225824   3.546   0.539   2.982
 8309SOL     OW25825   5.824   6.826   2.322
 8309SOL    HW125826   5.776   6.890   2.381
 8309SOL    HW225827   5.833   6.865   2.230
 8310SOL     OW25828   6.433   4.160   6.597
 8310SOL    HW125829   6.392   4.142   6.687
 8310SOL    HW225830   6.376   4.118   6.526
 8311SOL     OW25831   6.703   0.965   6.458
 8311SOL    HW125832   6.624   0.981   6.518
 8311SOL    HW225833   6.672   0.928   6.371
 8312SOL     OW25834   5.370   6.576   1.122
 8312SOL    HW125835   5.322   6.493   1.149
 8312SOL    HW225836   5.392   6.572   1.025
 8313SOL     OW25837   3.482   1.193   2.388
 8313SOL    HW125838   3.508   1.101   2.360
 8313SOL    HW225839   3.409   1.226   2.328
 8314SOL     OW25840   0.040   6.020   3.293
 8314SOL    HW125841   6.970   5.988   3.328
 8314SOL    HW225842   0.027   6.102   3.238
 8315SOL     OW25843   4.444   4.539   6.599
 8315SOL    HW125844   4.532   4.586   6.609
 8315SOL    HW225845   4.383   4.594   6.542
 8316SOL     OW25846   3.050   5.885   6.636
 8316SOL    HW125847   2.984   5.843   6.573
 8316SOL    HW225848   3.033   5.983   6.640
 8317SOL     OW25849   2.235   4.193   2.111
 8317SOL    HW125850   2.210   4.120   2.174
 8317SOL    HW225851   2.164   4.264   2.112
 8318SOL     OW25852   3.655   1.148   5.750
 8318SOL    HW125853   3.683   1.231   5.702
 8318SOL    HW225854   3.736   1.092   5.771
 8319SOL     OW25855   3.533   0.436   5.044
 8319SOL    HW125856   3.557   0.533   5.040
 8319SOL    HW225857   3.447   0.425   5.094
 8320SOL     OW25858   4.185   4.840   1.409
 8320SOL    HW125859   4.182   4.814   1.505
 8320SOL    HW225860   4.120   4.784   1.357
 8321SOL     OW25861   0.254   0.837   1.462
 8321SOL    HW125862   0.169   0.883   1.438
 8321SOL    HW225863   0.287   0.786   1.382
 8322SOL     OW25864   5.586   6.602   6.818
 8322SOL    HW125865   5.641   6.685   6.806
 8322SOL    HW225866   5.522   6.616   6.894
 8323SOL     OW25867   1.833   1.269   1.956
 8323SOL    HW125868   1.849   1.359   1.996
 8323SOL    HW225869   1.822   1.202   2.029
 8324SOL     OW25870   6.696   1.312   2.422
 8324SOL    HW125871   6.646   1.346   2.343
 8324SOL    HW225872   6.681   1.373   2.500
 8325SOL     OW25873   3.281   3.961   4.314
 8325SOL    HW125874   3.310   4.040   4.368
 8325SOL    HW225875   3.341   3.951   4.235
 8326SOL     OW25876   4.060   2.865   6.229
 8326SOL    HW125877   3.998   2.790   6.207
 8326SOL    HW225878   4.039   2.943   6.171
 8327SOL     OW25879   5.084   2.330   6.417
 8327SOL    HW125880   5.143   2.317   6.337
 8327SOL    HW225881   4.999   2.373   6.389
 8328SOL     OW25882   2.412   2.647   4.466
 8328SOL    HW125883   2.468   2.573   4.431
 8328SOL    HW225884   2.468   2.708   4.522
 8329SOL     OW25885   0.207   2.309   4.713
 8329SOL    HW125886   0.230   2.308   4.810
 8329SOL    HW225887   0.224   2.219   4.673
 8330SOL     OW25888   2.620   6.668   1.013
 8330SOL    HW125889   2.583   6.744   1.066
 8330SOL    HW225890   2.640   6.591   1.074
 8331SOL     OW25891   2.995   6.875   1.088
 8331SOL    HW125892   2.961   6.905   0.999
 8331SOL    HW225893   3.021   6.778   1.082
 8332SOL     OW25894   4.967   5.816   3.262
 8332SOL    HW125895   4.975   5.767   3.349
 8332SOL    HW225896   4.874   5.803   3.226
 8333SOL     OW25897   1.231   5.259   6.020
 8333SOL    HW125898   1.181   5.345   6.005
 8333SOL    HW225899   1.259   5.253   6.115
 8334SOL     OW25900   6.017   0.430   3.954
 8334SOL    HW125901   5.997   0.520   3.914
 8334SOL    HW225902   6.103   0.434   4.004
 8335SOL     OW25903   5.893   6.718   5.363
 8335SOL    HW125904   5.990   6.737   5.347
 8335SOL    HW225905   5.871   6.625   5.332
 8336SOL     OW25906   0.643   2.180   2.154
 8336SOL    HW125907   0.604   2.206   2.243
 8336SOL    HW225908   0.711   2.108   2.168
 8337SOL     OW25909   0.252   6.020   1.665
 8337SOL    HW125910   0.214   6.106   1.634
 8337SOL    HW225911   0.181   5.949   1.663
 8338SOL     OW25912   2.003   4.765   0.887
 8338SOL    HW125913   1.904   4.763   0.876
 8338SOL    HW225914   2.042   4.680   0.853
 8339SOL     OW25915   5.771   0.717   3.299
 8339SOL    HW125916   5.738   0.759   3.384
 8339SOL    HW225917   5.818   0.632   3.321
 8340SOL     OW25918   4.677   3.323   1.337
 8340SOL    HW125919   4.607   3.281   1.280
 8340SOL    HW225920   4.685   3.420   1.313
 8341SOL     OW25921   2.421   6.893   0.965
 8341SOL    HW125922   2.364   6.841   0.901
 8341SOL    HW225923   2.395   6.990   0.962
 8342SOL     OW25924   4.844   0.090   1.114
 8342SOL    HW125925   4.868   0.116   1.208
 8342SOL    HW225926   4.903   0.015   1.084
 8343SOL     OW25927   1.444   5.230   5.818
 8343SOL    HW125928   1.378   5.235   5.892
 8343SOL    HW225929   1.493   5.143   5.822
 8344SOL     OW25930   3.733   0.050   5.258
 8344SOL    HW125931   3.691   6.976   5.258
 8344SOL    HW225932   3.824   0.045   5.298
 8345SOL     OW25933   6.030   1.664   2.938
 8345SOL    HW125934   5.989   1.573   2.924
 8345SOL    HW225935   6.129   1.655   2.945
 8346SOL     OW25936   3.451   5.386   1.486
 8346SOL    HW125937   3.386   5.422   1.554
 8346SOL    HW225938   3.544   5.403   1.517
 8347SOL     OW25939   3.330   5.309   4.009
 8347SOL    HW125940   3.298   5.227   4.057
 8347SOL    HW225941   3.268   5.331   3.934
 8348SOL     OW25942   1.641   0.569   0.732
 8348SOL    HW125943   1.683   0.641   0.788
 8348SOL    HW225944   1.546   0.593   0.712
 8349SOL     OW25945   6.072   5.229   1.321
 8349SOL    HW125946   6.147   5.291   1.340
 8349SOL    HW225947   6.000   5.241   1.389
 8350SOL     OW25948   6.581   0.371   4.734
 8350SOL    HW125949   6.527   0.292   4.704
 8350SOL    HW225950   6.629   0.411   4.656
 8351SOL     OW25951   2.763   6.661   2.252
 8351SOL    HW125952   2.721   6.607   2.179
 8351SOL    HW225953   2.777   6.603   2.332
 8352SOL     OW25954   6.455   5.979   1.541
 8352SOL    HW125955   6.518   5.959   1.616
 8352SOL    HW225956   6.500   5.958   1.454
 8353SOL     OW25957   0.618   3.979   2.409
 8353SOL    HW125958   0.552   4.023   2.348
 8353SOL    HW225959   0.652   3.895   2.367
 8354SOL     OW25960   2.558   0.458   0.602
 8354SOL    HW125961   2.470   0.479   0.559
 8354SOL    HW225962   2.587   0.366   0.577
 8355SOL     OW25963   3.549   1.384   0.548
 8355SOL    HW125964   3.514   1.475   0.524
 8355SOL    HW225965   3.611   1.353   0.475
 8356SOL     OW25966   2.565   5.656   0.550
 8356SOL    HW125967   2.602   5.749   0.554
 8356SOL    HW225968   2.556   5.621   0.643
 8357SOL     OW25969   4.987   5.962   3.592
 8357SOL    HW125970   5.042   6.039   3.622
 8357SOL    HW225971   4.890   5.987   3.595
 8358SOL     OW25972   2.964   2.273   4.746
 8358SOL    HW125973   2.935   2.225   4.829
 8358SOL    HW225974   2.961   2.371   4.762
 8359SOL     OW25975   4.356   5.095   3.884
 8359SOL    HW125976   4.418   5.034   3.836
 8359SOL    HW225977   4.277   5.116   3.826
 8360SOL     OW25978   4.620   0.507   3.058
 8360SOL    HW125979   4.632   0.438   3.129
 8360SOL    HW225980   4.684   0.582   3.073
 8361SOL     OW25981   1.514   0.674   2.762
 8361SOL    HW125982   1.424   0.708   2.732
 8361SOL    HW225983   1.540   0.595   2.706
 8362SOL     OW25984   2.266   3.129   0.493
 8362SOL    HW125985   2.293   3.083   0.408
 8362SOL    HW225986   2.325   3.098   0.567
 8363SOL     OW25987   6.958   3.323   0.992
 8363SOL    HW125988   0.008   3.277   1.049
 8363SOL    HW225989   6.888   3.257   0.963
 8364SOL     OW25990   6.921   4.694   4.580
 8364SOL    HW125991   6.974   4.758   4.523
 8364SOL    HW225992   6.975   4.669   4.660
 8365SOL     OW25993   0.918   3.727   5.941
 8365SOL    HW125994   0.943   3.747   6.035
 8365SOL    HW225995   0.986   3.667   5.899
 8366SOL     OW25996   2.625   6.982   3.309
 8366SOL    HW125997   2.705   6.966   3.367
 8366SOL    HW225998   2.552   0.005   3.363
 8367SOL     OW25999   5.094   5.897   3.847
 8367SOL    HW126000   5.154   5.907   3.926
 8367SOL    HW226001   5.071   5.800   3.834
 8368SOL     OW26002   3.139   5.701   6.382
 8368SOL    HW126003   3.062   5.666   6.435
 8368SOL    HW226004   3.225   5.670   6.423
 8369SOL     OW26005   2.894   1.604   1.559
 8369SOL    HW126006   2.845   1.601   1.472
 8369SOL    HW226007   2.870   1.688   1.608
 8370SOL     OW26008   1.782   1.681   0.163
 8370SOL    HW126009   1.719   1.665   0.239
 8370SOL    HW226010   1.765   1.771   0.124
 8371SOL     OW26011   2.118   2.520   0.165
 8371SOL    HW126012   2.028   2.512   0.122
 8371SOL    HW226013   2.181   2.454   0.124
 8372SOL     OW26014   6.842   0.594   1.039
 8372SOL    HW126015   6.875   0.530   1.108
 8372SOL    HW226016   6.742   0.597   1.041
 8373SOL     OW26017   1.543   6.581   4.661
 8373SOL    HW126018   1.452   6.540   4.663
 8373SOL    HW226019   1.552   6.646   4.736
 8374SOL     OW26020   6.672   0.794   6.179
 8374SOL    HW126021   6.720   0.854   6.115
 8374SOL    HW226022   6.582   0.831   6.199
 8375SOL     OW26023   3.972   0.798   6.145
 8375SOL    HW126024   4.028   0.868   6.101
 8375SOL    HW226025   3.930   0.835   6.228
 8376SOL     OW26026   4.516   0.490   4.625
 8376SOL    HW126027   4.531   0.492   4.724
 8376SOL    HW226028   4.590   0.439   4.581
 8377SOL     OW26029   5.623   4.798   1.006
 8377SOL    HW126030   5.685   4.720   0.998
 8377SOL    HW226031   5.539   4.778   0.956
 8378SOL     OW26032   5.102   3.364   3.729
 8378SOL    HW126033   5.140   3.447   3.687
 8378SOL    HW226034   5.166   3.329   3.797
 8379SOL     OW26035   4.961   2.465   2.237
 8379SOL    HW126036   4.882   2.486   2.178
 8379SOL    HW226037   4.929   2.431   2.325
 8380SOL     OW26038   5.900   1.884   3.865
 8380SOL    HW126039   5.828   1.866   3.933
 8380SOL    HW226040   5.968   1.812   3.869
 8381SOL     OW26041   2.485   5.396   4.039
 8381SOL    HW126042   2.488   5.397   4.139
 8381SOL    HW226043   2.546   5.466   4.003
 8382SOL     OW26044   0.988   4.260   2.706
 8382SOL    HW126045   0.918   4.191   2.725
 8382SOL    HW226046   1.053   4.224   2.638
 8383SOL     OW26047   3.207   1.096   5.676
 8383SOL    HW126048   3.117   1.053   5.685
 8383SOL    HW226049   3.195   1.193   5.655
 8384SOL     OW26050   0.822   6.612   2.011
 8384SOL    HW126051   0.758   6.683   1.984
 8384SOL    HW226052   0.905   6.619   1.957
 8385SOL     OW26053   4.757   2.353   0.953
 8385SOL    HW126054   4.755   2.446   0.916
 8385SOL    HW226055   4.731   2.355   1.049
 8386SOL     OW26056   0.681   4.038   2.903
 8386SOL    HW126057   0.715   3.944   2.908
 8386SOL    HW226058   0.637   4.053   2.814
 8387SOL     OW26059   0.944   2.114   0.750
 8387SOL    HW126060   1.026   2.102   0.695
 8387SOL    HW226061   0.912   2.208   0.743
 8388SOL     OW26062   1.190   6.501   3.435
 8388SOL    HW126063   1.221   6.538   3.348
 8388SOL    HW226064   1.264   6.507   3.502
 8389SOL     OW26065   5.826   2.646   3.606
 8389SOL    HW126066   5.795   2.615   3.516
 8389SOL    HW226067   5.749   2.685   3.656
 8390SOL     OW26068   5.762   1.315   6.319
 8390SOL    HW126069   5.663   1.311   6.332
 8390SOL    HW226070   5.784   1.388   6.254
 8391SOL     OW26071   6.513   6.909   1.155
 8391SOL    HW126072   6.426   6.907   1.205
 8391SOL    HW226073   6.503   6.959   1.070
 8392SOL     OW26074   3.913   3.052   5.705
 8392SOL    HW126075   4.004   3.059   5.745
 8392SOL    HW226076   3.858   2.987   5.757
 8393SOL     OW26077   5.560   0.108   1.185
 8393SOL    HW126078   5.472   0.060   1.183
 8393SOL    HW226079   5.550   0.194   1.235
 8394SOL     OW26080   5.710   2.725   2.471
 8394SOL    HW126081   5.719   2.626   2.464
 8394SOL    HW226082   5.744   2.768   2.387
 8395SOL     OW26083   2.219   1.203   5.120
 8395SOL    HW126084   2.172   1.278   5.073
 8395SOL    HW226085   2.228   1.225   5.217
 8396SOL     OW26086   5.163   5.283   4.542
 8396SOL    HW126087   5.262   5.278   4.555
 8396SOL    HW226088   5.119   5.208   4.591
 8397SOL     OW26089   6.472   0.349   3.082
 8397SOL    HW126090   6.436   0.288   3.012
 8397SOL    HW226091   6.398   0.403   3.121
 8398SOL     OW26092   5.764   1.873   5.960
 8398SOL    HW126093   5.737   1.965   5.987
 8398SOL    HW226094   5.790   1.873   5.863
 8399SOL     OW26095   0.197   4.528   1.519
 8399SOL    HW126096   0.272   4.493   1.464
 8399SOL    HW226097   0.110   4.500   1.478
 8400SOL     OW26098   1.222   1.418   4.628
 8400SOL    HW126099   1.226   1.319   4.644
 8400SOL    HW226100   1.311   1.450   4.595
 8401SOL     OW26101   2.063   0.536   5.549
 8401SOL    HW126102   2.135   0.575   5.607
 8401SOL    HW226103   1.976   0.581   5.570
 8402SOL     OW26104   3.429   0.550   6.799
 8402SOL    HW126105   3.496   0.594   6.739
 8402SOL    HW226106   3.402   0.613   6.871
 8403SOL     OW26107   5.462   4.759   5.209
 8403SOL    HW126108   5.533   4.707   5.163
 8403SOL    HW226109   5.485   4.856   5.208
 8404SOL     OW26110   0.957   1.413   6.664
 8404SOL    HW126111   0.970   1.486   6.597
 8404SOL    HW226112   1.037   1.409   6.725
 8405SOL     OW26113   4.293   0.013   5.472
 8405SOL    HW126114   4.311   6.940   5.510
 8405SOL    HW226115   4.198   0.018   5.440
 8406SOL     OW26116   5.787   0.362   5.917
 8406SOL    HW126117   5.861   0.421   5.951
 8406SOL    HW226118   5.764   0.295   5.987
 8407SOL     OW26119   4.120   0.216   4.418
 8407SOL    HW126120   4.039   0.251   4.370
 8407SOL    HW226121   4.180   0.292   4.443
 8408SOL     OW26122   4.051   1.665   1.284
 8408SOL    HW126123   4.047   1.574   1.325
 8408SOL    HW226124   4.147   1.690   1.269
 8409SOL     OW26125   4.169   2.116   2.182
 8409SOL    HW126126   4.141   2.140   2.275
 8409SOL    HW226127   4.089   2.117   2.122
 8410SOL     OW26128   0.206   1.807   1.584
 8410SOL    HW126129   0.242   1.714   1.579
 8410SOL    HW226130   0.188   1.842   1.492
 8411SOL     OW26131   0.741   6.614   1.287
 8411SOL    HW126132   0.833   6.602   1.325
 8411SOL    HW226133   0.689   6.529   1.297
 8412SOL     OW26134   2.765   2.255   0.144
 8412SOL    HW126135   2.709   2.320   0.093
 8412SOL    HW226136   2.772   2.284   0.240
 8413SOL     OW26137   3.783   5.262   4.500
 8413SOL    HW126138   3.853   5.334   4.503
 8413SOL    HW226139   3.693   5.303   4.515
 8414SOL     OW26140   1.559   0.155   1.171
 8414SOL    HW126141   1.605   0.217   1.108
 8414SOL    HW226142   1.480   0.200   1.212
 8415SOL     OW26143   3.147   1.485   6.199
 8415SOL    HW126144   3.081   1.472   6.273
 8415SOL    HW226145   3.149   1.404   6.141
 8416SOL     OW26146   0.044   2.380   5.357
 8416SOL    HW126147   6.966   2.409   5.350
 8416SOL    HW226148   0.100   2.454   5.393
 8417SOL     OW26149   1.957   3.674   6.155
 8417SOL    HW126150   1.982   3.722   6.071
 8417SOL    HW226151   2.004   3.716   6.233
 8418SOL     OW26152   0.532   5.931   2.153
 8418SOL    HW126153   0.499   5.983   2.075
 8418SOL    HW226154   0.623   5.894   2.133
 8419SOL     OW26155   4.096   1.698   4.371
 8419SOL    HW126156   4.122   1.782   4.323
 8419SOL    HW226157   4.063   1.631   4.304
 8420SOL     OW26158   3.835   0.732   1.808
 8420SOL    HW126159   3.828   0.691   1.899
 8420SOL    HW226160   3.835   0.832   1.817
 8421SOL     OW26161   4.577   6.841   6.391
 8421SOL    HW126162   4.648   6.906   6.419
 8421SOL    HW226163   4.543   6.866   6.301
 8422SOL     OW26164   5.447   3.003   3.989
 8422SOL    HW126165   5.383   3.054   4.046
 8422SOL    HW226166   5.403   2.920   3.956
 8423SOL     OW26167   6.533   5.300   0.450
 8423SOL    HW126168   6.577   5.380   0.490
 8423SOL    HW226169   6.475   5.256   0.519
 8424SOL     OW26170   3.316   0.289   4.872
 8424SOL    HW126171   3.376   0.360   4.836
 8424SOL    HW226172   3.224   0.301   4.836
 8425SOL     OW26173   3.570   4.129   2.327
 8425SOL    HW126174   3.633   4.141   2.250
 8425SOL    HW226175   3.617   4.081   2.401
 8426SOL     OW26176   3.995   3.054   1.970
 8426SOL    HW126177   4.011   2.973   1.914
 8426SOL    HW226178   4.049   3.131   1.934
 8427SOL     OW26179   4.010   3.496   3.361
 8427SOL    HW126180   4.062   3.480   3.445
 8427SOL    HW226181   4.023   3.418   3.299
 8428SOL     OW26182   5.903   0.131   2.119
 8428SOL    HW126183   5.894   0.149   2.217
 8428SOL    HW226184   6.000   0.128   2.095
 8429SOL     OW26185   2.806   5.808   5.455
 8429SOL    HW126186   2.901   5.817   5.424
 8429SOL    HW226187   2.745   5.817   5.376
 8430SOL     OW26188   5.067   6.916   5.326
 8430SOL    HW126189   5.133   6.925   5.251
 8430SOL    HW226190   4.977   6.944   5.294
 8431SOL     OW26191   1.901   3.657   5.514
 8431SOL    HW126192   1.874   3.645   5.610
 8431SOL    HW226193   1.820   3.649   5.456
 8432SOL     OW26194   6.100   5.042   6.062
 8432SOL    HW126195   6.178   5.083   6.108
 8432SOL    HW226196   6.121   4.948   6.037
 8433SOL     OW26197   5.720   2.051   1.198
 8433SOL    HW126198   5.667   2.024   1.117
 8433SOL    HW226199   5.811   2.010   1.193
 8434SOL     OW26200   2.561   6.144   4.941
 8434SOL    HW126201   2.568   6.079   4.865
 8434SOL    HW226202   2.467   6.177   4.949
 8435SOL     OW26203   5.708   1.964   3.468
 8435SOL    HW126204   5.777   1.959   3.540
 8435SOL    HW226205   5.691   2.059   3.445
 8436SOL     OW26206   2.237   5.864   2.230
 8436SOL    HW126207   2.255   5.809   2.148
 8436SOL    HW226208   2.199   5.952   2.203
 8437SOL     OW26209   0.658   5.562   1.039
 8437SOL    HW126210   0.653   5.529   0.945
 8437SOL    HW226211   0.743   5.614   1.051
 8438SOL     OW26212   0.514   3.866   1.873
 8438SOL    HW126213   0.608   3.856   1.906
 8438SOL    HW226214   0.458   3.792   1.910
 8439SOL     OW26215   6.161   4.515   2.546
 8439SOL    HW126216   6.138   4.435   2.601
 8439SOL    HW226217   6.086   4.581   2.550
 8440SOL     OW26218   1.622   1.905   2.796
 8440SOL    HW126219   1.683   1.920   2.718
 8440SOL    HW226220   1.531   1.941   2.775
 8441SOL     OW26221   0.098   2.202   5.591
 8441SOL    HW126222   0.082   2.103   5.598
 8441SOL    HW226223   0.021   2.245   5.544
 8442SOL     OW26224   3.957   2.219   6.890
 8442SOL    HW126225   4.040   2.258   6.851
 8442SOL    HW226226   3.959   2.228   6.989
 8443SOL     OW26227   1.900   4.581   2.597
 8443SOL    HW126228   1.865   4.637   2.672
 8443SOL    HW226229   1.995   4.556   2.615
 8444SOL     OW26230   5.637   5.375   4.919
 8444SOL    HW126231   5.662   5.293   4.970
 8444SOL    HW226232   5.539   5.374   4.899
 8445SOL     OW26233   4.610   6.673   6.614
 8445SOL    HW126234   4.584   6.728   6.534
 8445SOL    HW226235   4.585   6.577   6.597
 8446SOL     OW26236   6.600   5.385   5.090
 8446SOL    HW126237   6.538   5.454   5.053
 8446SOL    HW226238   6.619   5.316   5.020
 8447SOL     OW26239   4.027   1.135   3.962
 8447SOL    HW126240   4.022   1.136   3.863
 8447SOL    HW226241   3.950   1.187   4.000
 8448SOL     OW26242   3.277   5.908   3.323
 8448SOL    HW126243   3.199   5.855   3.290
 8448SOL    HW226244   3.304   5.975   3.253
 8449SOL     OW26245   1.627   1.849   4.059
 8449SOL    HW126246   1.541   1.854   4.110
 8449SOL    HW226247   1.672   1.761   4.076
 8450SOL     OW26248   6.635   0.357   0.112
 8450SOL    HW126249   6.668   0.434   0.057
 8450SOL    HW226250   6.556   0.315   0.068
 8451SOL     OW26251   3.951   2.490   1.394
 8451SOL    HW126252   3.878   2.425   1.415
 8451SOL    HW226253   3.940   2.523   1.300
 8452SOL     OW26254   5.069   1.238   5.959
 8452SOL    HW126255   5.076   1.246   6.058
 8452SOL    HW226256   5.022   1.318   5.922
 8453SOL     OW26257   6.645   6.950   0.085
 8453SOL    HW126258   6.561   6.955   0.140
 8453SOL    HW226259   6.690   0.021   0.085
 8454SOL     OW26260   5.988   4.699   6.222
 8454SOL    HW126261   5.907   4.749   6.192
 8454SOL    HW226262   5.961   4.610   6.258
 8455SOL     OW26263   6.372   1.139   2.475
 8455SOL    HW126264   6.460   1.149   2.522
 8455SOL    HW226265   6.314   1.076   2.526
 8456SOL     OW26266   0.065   0.360   2.532
 8456SOL    HW126267   0.023   0.277   2.567
 8456SOL    HW226268   0.161   0.344   2.510
 8457SOL     OW26269   6.878   6.595   5.153
 8457SOL    HW126270   6.825   6.679   5.140
 8457SOL    HW226271   6.949   6.590   5.083
 8458SOL     OW26272   1.296   6.474   6.649
 8458SOL    HW126273   1.268   6.525   6.568
 8458SOL    HW226274   1.220   6.418   6.681
 8459SOL     OW26275   1.053   5.833   3.550
 8459SOL    HW126276   1.056   5.801   3.455
 8459SOL    HW226277   1.050   5.933   3.551
 8460SOL     OW26278   4.052   3.841   2.935
 8460SOL    HW126279   4.026   3.871   2.843
 8460SOL    HW226280   4.018   3.908   3.002
 8461SOL     OW26281   6.147   3.461   3.715
 8461SOL    HW126282   6.110   3.508   3.635
 8461SOL    HW226283   6.212   3.391   3.686
 8462SOL     OW26284   2.441   2.670   1.774
 8462SOL    HW126285   2.518   2.610   1.754
 8462SOL    HW226286   2.454   2.758   1.729
 8463SOL     OW26287   5.977   0.572   2.143
 8463SOL    HW126288   5.907   0.616   2.200
 8463SOL    HW226289   5.952   0.580   2.047
 8464SOL     OW26290   6.784   1.530   4.813
 8464SOL    HW126291   6.808   1.626   4.799
 8464SOL    HW226292   6.687   1.524   4.840
 8465SOL     OW26293   1.333   1.869   0.187
 8465SOL    HW126294   1.410   1.823   0.231
 8465SOL    HW226295   1.308   1.951   0.239
 8466SOL     OW26296   0.485   0.222   4.304
 8466SOL    HW126297   0.530   0.216   4.393
 8466SOL    HW226298   0.386   0.216   4.315
 8467SOL     OW26299   3.849   5.321   1.259
 8467SOL    HW126300   3.757   5.339   1.225
 8467SOL    HW226301   3.891   5.247   1.206
 8468SOL     OW26302   3.991   2.223   0.194
 8468SOL    HW126303   4.018   2.270   0.279
 8468SOL    HW226304   4.055   2.148   0.177
 8469SOL     OW26305   3.772   2.018   6.097
 8469SOL    HW126306   3.841   1.981   6.035
 8469SOL    HW226307   3.779   1.970   6.185
 8470SOL     OW26308   1.357   2.947   6.930
 8470SOL    HW126309   1.380   3.001   6.849
 8470SOL    HW226310   1.420   2.869   6.936
 8471SOL     OW26311   4.146   1.878   3.980
 8471SOL    HW126312   4.129   1.910   4.074
 8471SOL    HW226313   4.151   1.778   3.980
 8472SOL     OW26314   1.419   6.663   2.971
 8472SOL    HW126315   1.471   6.748   2.965
 8472SOL    HW226316   1.458   6.595   2.909
 8473SOL     OW26317   6.447   5.733   6.282
 8473SOL    HW126318   6.398   5.748   6.195
 8473SOL    HW226319   6.402   5.660   6.333
 8474SOL     OW26320   3.688   5.383   0.380
 8474SOL    HW126321   3.614   5.449   0.371
 8474SOL    HW226322   3.659   5.307   0.439
 8475SOL     OW26323   4.674   1.992   3.224
 8475SOL    HW126324   4.648   2.053   3.299
 8475SOL    HW226325   4.605   1.998   3.151
 8476SOL     OW26326   4.550   0.401   2.232
 8476SOL    HW126327   4.532   0.321   2.289
 8476SOL    HW226328   4.464   0.439   2.198
 8477SOL     OW26329   2.308   0.115   2.449
 8477SOL    HW126330   2.241   0.189   2.456
 8477SOL    HW226331   2.266   0.030   2.484
 8478SOL     OW26332   1.726   0.447   5.841
 8478SOL    HW126333   1.826   0.448   5.852
 8478SOL    HW226334   1.701   0.380   5.771
 8479SOL     OW26335   5.149   1.093   2.586
 8479SOL    HW126336   5.111   1.002   2.603
 8479SOL    HW226337   5.237   1.084   2.541
 8480SOL     OW26338   1.939   1.613   1.535
 8480SOL    HW126339   1.915   1.663   1.452
 8480SOL    HW226340   1.864   1.551   1.560
 8481SOL     OW26341   4.311   0.102   5.850
 8481SOL    HW126342   4.389   0.162   5.833
 8481SOL    HW226343   4.327   0.014   5.805
 8482SOL     OW26344   0.715   0.466   2.044
 8482SOL    HW126345   0.684   0.559   2.063
 8482SOL    HW226346   0.643   0.416   1.996
 8483SOL     OW26347   5.523   6.543   1.743
 8483SOL    HW126348   5.585   6.495   1.806
 8483SOL    HW226349   5.438   6.566   1.792
 8484SOL     OW26350   0.009   4.321   5.052
 8484SOL    HW126351   0.086   4.300   4.993
 8484SOL    HW226352   6.943   4.324   4.998
 8485SOL     OW26353   2.212   3.331   5.648
 8485SOL    HW126354   2.264   3.408   5.685
 8485SOL    HW226355   2.270   3.279   5.585
 8486SOL     OW26356   4.467   0.681   2.765
 8486SOL    HW126357   4.437   0.762   2.715
 8486SOL    HW226358   4.517   0.621   2.703
 8487SOL     OW26359   4.323   1.574   0.762
 8487SOL    HW126360   4.366   1.485   0.776
 8487SOL    HW226361   4.234   1.561   0.719
 8488SOL     OW26362   5.567   3.677   4.576
 8488SOL    HW126363   5.612   3.684   4.487
 8488SOL    HW226364   5.634   3.650   4.645
 8489SOL     OW26365   3.450   6.176   2.715
 8489SOL    HW126366   3.521   6.121   2.671
 8489SOL    HW226367   3.456   6.271   2.684
 8490SOL     OW26368   3.666   5.421   2.462
 8490SOL    HW126369   3.645   5.325   2.441
 8490SOL    HW226370   3.582   5.474   2.462
 8491SOL     OW26371   0.940   1.239   1.784
 8491SOL    HW126372   0.977   1.305   1.719
 8491SOL    HW226373   1.009   1.170   1.805
 8492SOL     OW26374   5.832   4.292   4.477
 8492SOL    HW126375   5.921   4.305   4.431
 8492SOL    HW226376   5.818   4.366   4.543
 8493SOL     OW26377   3.395   2.682   0.976
 8493SOL    HW126378   3.478   2.710   1.024
 8493SOL    HW226379   3.339   2.626   1.037
 8494SOL     OW26380   3.895   6.144   6.740
 8494SOL    HW126381   3.972   6.090   6.709
 8494SOL    HW226382   3.878   6.126   6.837
 8495SOL     OW26383   0.911   2.459   0.339
 8495SOL    HW126384   0.903   2.559   0.346
 8495SOL    HW226385   0.825   2.417   0.367
 8496SOL     OW26386   0.094   2.124   3.203
 8496SOL    HW126387   0.034   2.045   3.191
 8496SOL    HW226388   0.039   2.204   3.227
 8497SOL     OW26389   5.715   4.618   3.297
 8497SOL    HW126390   5.743   4.680   3.371
 8497SOL    HW226391   5.795   4.568   3.264
 8498SOL     OW26392   6.259   0.883   1.413
 8498SOL    HW126393   6.261   0.797   1.464
 8498SOL    HW226394   6.282   0.959   1.474
 8499SOL     OW26395   1.075   3.870   6.673
 8499SOL    HW126396   1.092   3.773   6.656
 8499SOL    HW226397   0.981   3.882   6.705
 8500SOL     OW26398   3.183   0.314   5.719
 8500SOL    HW126399   3.281   0.298   5.726
 8500SOL    HW226400   3.166   0.395   5.662
 8501SOL     OW26401   2.843   4.378   5.929
 8501SOL    HW126402   2.890   4.383   5.841
 8501SOL    HW226403   2.770   4.447   5.931
 8502SOL     OW26404   1.013   6.670   1.830
 8502SOL    HW126405   1.106   6.656   1.798
 8502SOL    HW226406   0.951   6.677   1.752
 8503SOL     OW26407   3.410   5.807   3.516
 8503SOL    HW126408   3.371   5.848   3.434
 8503SOL    HW226409   3.433   5.711   3.498
 8504SOL     OW26410   1.354   5.432   3.354
 8504SOL    HW126411   1.451   5.424   3.378
 8504SOL    HW226412   1.330   5.529   3.344
 8505SOL     OW26413   4.547   2.516   3.968
 8505SOL    HW126414   4.589   2.603   3.994
 8505SOL    HW226415   4.528   2.462   4.050
 8506SOL     OW26416   1.066   6.417   0.068
 8506SOL    HW126417   1.025   6.397   6.997
 8506SOL    HW226418   1.134   6.490   0.058
 8507SOL     OW26419   1.569   0.080   5.191
 8507SOL    HW126420   1.657   0.042   5.220
 8507SOL    HW226421   1.581   0.127   5.104
 8508SOL     OW26422   0.680   3.055   5.308
 8508SOL    HW126423   0.612   2.984   5.291
 8508SOL    HW226424   0.676   3.123   5.235
 8509SOL     OW26425   5.856   1.676   4.783
 8509SOL    HW126426   5.802   1.754   4.813
 8509SOL    HW226427   5.953   1.697   4.792
 8510SOL     OW26428   5.027   7.011   2.066
 8510SOL    HW126429   5.010   0.061   1.994
 8510SOL    HW226430   4.941   6.977   2.102
 8511SOL     OW26431   6.465   5.634   1.683
 8511SOL    HW126432   6.523   5.625   1.602
 8511SOL    HW226433   6.391   5.700   1.664
 8512SOL     OW26434   3.021   3.171   0.625
 8512SOL    HW126435   3.031   3.143   0.720
 8512SOL    HW226436   3.051   3.097   0.565
 8513SOL     OW26437   0.981   3.183   0.754
 8513SOL    HW126438   0.897   3.233   0.774
 8513SOL    HW226439   1.006   3.198   0.658
 8514SOL     OW26440   2.437   2.404   5.160
 8514SOL    HW126441   2.489   2.457   5.227
 8514SOL    HW226442   2.500   2.363   5.094
 8515SOL     OW26443   2.483   0.321   1.027
 8515SOL    HW126444   2.415   0.258   0.990
 8515SOL    HW226445   2.440   0.380   1.096
 8516SOL     OW26446   5.895   3.213   4.192
 8516SOL    HW126447   5.833   3.138   4.169
 8516SOL    HW226448   5.944   3.191   4.276
 8517SOL     OW26449   1.938   1.688   6.183
 8517SOL    HW126450   1.924   1.753   6.258
 8517SOL    HW226451   1.955   1.738   6.098
 8518SOL     OW26452   5.366   5.283   6.507
 8518SOL    HW126453   5.372   5.294   6.606
 8518SOL    HW226454   5.414   5.200   6.479
 8519SOL     OW26455   0.644   3.332   0.412
 8519SOL    HW126456   0.704   3.361   0.487
 8519SOL    HW226457   0.552   3.316   0.447
 8520SOL     OW26458   3.366   4.046   5.890
 8520SOL    HW126459   3.345   3.969   5.829
 8520SOL    HW226460   3.281   4.090   5.918
 8521SOL     OW26461   1.685   6.731   5.185
 8521SOL    HW126462   1.598   6.751   5.230
 8521SOL    HW226463   1.703   6.633   5.190
 8522SOL     OW26464   1.146   6.756   0.243
 8522SOL    HW126465   1.102   6.709   0.320
 8522SOL    HW226466   1.087   6.831   0.211
 8523SOL     OW26467   3.670   1.890   0.682
 8523SOL    HW126468   3.697   1.985   0.696
 8523SOL    HW226469   3.572   1.885   0.663
 8524SOL     OW26470   2.191   5.697   5.508
 8524SOL    HW126471   2.124   5.648   5.452
 8524SOL    HW226472   2.263   5.633   5.536
 8525SOL     OW26473   6.396   3.383   1.980
 8525SOL    HW126474   6.432   3.439   1.906
 8525SOL    HW226475   6.354   3.442   2.049
 8526SOL     OW26476   0.017   4.308   6.766
 8526SOL    HW126477   0.079   4.370   6.719
 8526SOL    HW226478   6.969   4.360   6.820
 8527SOL     OW26479   2.550   1.163   5.896
 8527SOL    HW126480   2.503   1.247   5.921
 8527SOL    HW226481   2.605   1.130   5.973
 8528SOL     OW26482   5.582   0.617   0.755
 8528SOL    HW126483   5.654   0.626   0.824
 8528SOL    HW226484   5.493   0.630   0.798
 8529SOL     OW26485   0.830   6.363   6.960
 8529SOL    HW126486   0.739   6.384   6.925
 8529SOL    HW226487   0.843   6.409   0.031
 8530SOL     OW26488   3.848   4.060   2.950
 8530SOL    HW126489   3.758   4.102   2.953
 8530SOL    HW226490   3.862   4.017   2.861
 8531SOL     OW26491   6.292   5.210   3.702
 8531SOL    HW126492   6.225   5.181   3.633
 8531SOL    HW226493   6.296   5.310   3.705
 8532SOL     OW26494   3.367   5.677   6.862
 8532SOL    HW126495   3.267   5.680   6.865
 8532SOL    HW226496   3.404   5.741   6.928
 8533SOL     OW26497   2.140   6.409   4.704
 8533SOL    HW126498   2.068   6.429   4.771
 8533SOL    HW226499   2.226   6.390   4.751
 8534SOL     OW26500   1.738   2.203   2.869
 8534SOL    HW126501   1.814   2.203   2.934
 8534SOL    HW226502   1.651   2.197   2.919
 8535SOL     OW26503   5.588   0.490   2.219
 8535SOL    HW126504   5.489   0.476   2.216
 8535SOL    HW226505   5.608   0.588   2.227
 8536SOL     OW26506   1.528   1.046   3.901
 8536SOL    HW126507   1.464   1.070   3.974
 8536SOL    HW226508   1.621   1.053   3.935
 8537SOL     OW26509   6.173   1.423   3.270
 8537SOL    HW126510   6.271   1.436   3.285
 8537SOL    HW226511   6.127   1.512   3.267
 8538SOL     OW26512   1.117   2.389   0.539
 8538SOL    HW126513   1.094   2.419   0.446
 8538SOL    HW226514   1.215   2.394   0.552
 8539SOL     OW26515   5.452   3.040   1.844
 8539SOL    HW126516   5.539   3.065   1.801
 8539SOL    HW226517   5.456   2.945   1.875
 8540SOL     OW26518   4.138   0.680   1.398
 8540SOL    HW126519   4.214   0.633   1.353
 8540SOL    HW226520   4.057   0.675   1.339
 8541SOL     OW26521   2.003   2.528   3.886
 8541SOL    HW126522   2.096   2.512   3.919
 8541SOL    HW226523   1.984   2.626   3.888
 8542SOL     OW26524   3.219   4.619   0.388
 8542SOL    HW126525   3.279   4.691   0.422
 8542SOL    HW226526   3.176   4.649   0.302
 8543SOL     OW26527   2.841   1.954   6.575
 8543SOL    HW126528   2.811   1.988   6.486
 8543SOL    HW226529   2.776   1.982   6.645
 8544SOL     OW26530   6.107   1.761   4.862
 8544SOL    HW126531   6.073   1.839   4.915
 8544SOL    HW226532   6.205   1.771   4.846
 8545SOL     OW26533   4.420   6.561   5.042
 8545SOL    HW126534   4.499   6.548   5.102
 8545SOL    HW226535   4.451   6.561   4.947
 8546SOL     OW26536   4.628   2.646   0.187
 8546SOL    HW126537   4.623   2.608   0.095
 8546SOL    HW226538   4.600   2.742   0.184
 8547SOL     OW26539   1.439   4.594   1.799
 8547SOL    HW126540   1.497   4.656   1.853
 8547SOL    HW226541   1.496   4.541   1.737
 8548SOL     OW26542   6.443   2.272   5.376
 8548SOL    HW126543   6.374   2.229   5.318
 8548SOL    HW226544   6.458   2.216   5.457
 8549SOL     OW26545   5.209   3.351   5.676
 8549SOL    HW126546   5.209   3.382   5.580
 8549SOL    HW226547   5.123   3.377   5.719
 8550SOL     OW26548   1.157   4.447   5.913
 8550SOL    HW126549   1.059   4.429   5.900
 8550SOL    HW226550   1.207   4.360   5.913
 8551SOL     OW26551   2.389   4.276   0.810
 8551SOL    HW126552   2.442   4.353   0.846
 8551SOL    HW226553   2.306   4.310   0.768
 8552SOL     OW26554   3.155   6.662   4.827
 8552SOL    HW126555   3.204   6.716   4.896
 8552SOL    HW226556   3.210   6.582   4.802
 8553SOL     OW26557   6.013   5.321   6.991
 8553SOL    HW126558   6.016   5.267   0.057
 8553SOL    HW226559   6.015   5.419   7.015
 8554SOL     OW26560   5.575   3.742   6.907
 8554SOL    HW126561   5.623   3.719   6.991
 8554SOL    HW226562   5.578   3.665   6.844
 8555SOL     OW26563   2.006   6.810   4.300
 8555SOL    HW126564   2.050   6.737   4.247
 8555SOL    HW226565   1.969   6.771   4.384
 8556SOL     OW26566   6.110   6.953   4.103
 8556SOL    HW126567   6.020   6.943   4.059
 8556SOL    HW226568   6.149   6.862   4.118
 8557SOL     OW26569   6.954   1.207   0.471
 8557SOL    HW126570   6.935   1.295   0.515
 8557SOL    HW226571   0.025   1.172   0.503
 8558SOL     OW26572   1.029   4.703   2.240
 8558SOL    HW126573   0.991   4.788   2.276
 8558SOL    HW226574   1.042   4.713   2.141
 8559SOL     OW26575   0.516   1.789   5.414
 8559SOL    HW126576   0.434   1.829   5.455
 8559SOL    HW226577   0.597   1.838   5.448
 8560SOL     OW26578   6.444   2.484   6.668
 8560SOL    HW126579   6.406   2.399   6.705
 8560SOL    HW226580   6.374   2.532   6.617
 8561SOL     OW26581   4.352   6.290   5.713
 8561SOL    HW126582   4.362   6.195   5.683
 8561SOL    HW226583   4.415   6.308   5.788
 8562SOL     OW26584   3.688   0.349   4.831
 8562SOL    HW126585   3.722   0.422   4.771
 8562SOL    HW226586   3.658   0.389   4.917
 8563SOL     OW26587   2.964   2.983   6.442
 8563SOL    HW126588   3.010   3.048   6.382
 8563SOL    HW226589   2.889   3.028   6.490
 8564SOL     OW26590   0.369   6.283   3.015
 8564SOL    HW126591   0.346   6.248   3.105
 8564SOL    HW226592   0.289   6.279   2.955
 8565SOL     OW26593   3.875   0.673   1.324
 8565SOL    HW126594   3.839   0.612   1.252
 8565SOL    HW226595   3.820   0.756   1.327
 8566SOL     OW26596   1.620   3.802   3.765
 8566SOL    HW126597   1.635   3.879   3.827
 8566SOL    HW226598   1.705   3.781   3.717
 8567SOL     OW26599   5.085   5.907   6.333
 8567SOL    HW126600   5.029   5.988   6.321
 8567SOL    HW226601   5.158   5.906   6.264
 8568SOL     OW26602   5.040   0.423   6.828
 8568SOL    HW126603   5.016   0.357   6.758
 8568SOL    HW226604   5.138   0.443   6.823
 8569SOL     OW26605   4.010   1.078   5.252
 8569SOL    HW126606   3.971   1.022   5.179
 8569SOL    HW226607   4.081   1.137   5.214
 8570SOL     OW26608   0.379   3.180   6.377
 8570SOL    HW126609   0.454   3.245   6.365
 8570SOL    HW226610   0.414   3.094   6.412
 8571SOL     OW26611   0.100   4.691   5.032
 8571SOL    HW126612   0.173   4.652   5.089
 8571SOL    HW226613   0.011   4.663   5.069
 8572SOL     OW26614   2.865   4.949   5.610
 8572SOL    HW126615   2.854   4.875   5.676
 8572SOL    HW226616   2.962   4.974   5.604
 8573SOL     OW26617   3.365   5.985   4.365
 8573SOL    HW126618   3.346   5.888   4.380
 8573SOL    HW226619   3.464   6.001   4.373
 8574SOL     OW26620   0.482   4.390   4.299
 8574SOL    HW126621   0.502   4.326   4.225
 8574SOL    HW226622   0.499   4.345   4.387
 8575SOL     OW26623   3.085   3.643   6.690
 8575SOL    HW126624   3.055   3.670   6.598
 8575SOL    HW226625   3.084   3.544   6.697
 8576SOL     OW26626   1.994   0.277   0.834
 8576SOL    HW126627   2.022   0.373   0.830
 8576SOL    HW226628   1.898   0.269   0.807
 8577SOL     OW26629   6.159   5.698   4.227
 8577SOL    HW126630   6.230   5.765   4.204
 8577SOL    HW226631   6.202   5.608   4.238
 8578SOL     OW26632   4.845   0.431   3.376
 8578SOL    HW126633   4.754   0.400   3.349
 8578SOL    HW226634   4.884   0.486   3.302
 8579SOL     OW26635   0.322   4.991   2.776
 8579SOL    HW126636   0.342   4.929   2.700
 8579SOL    HW226637   0.381   4.969   2.854
 8580SOL     OW26638   2.736   4.971   5.982
 8580SOL    HW126639   2.727   5.066   6.010
 8580SOL    HW226640   2.646   4.932   5.965
 8581SOL     OW26641   3.175   3.020   0.261
 8581SOL    HW126642   3.118   2.973   0.327
 8581SOL    HW226643   3.154   2.987   0.169
 8582SOL     OW26644   4.095   4.555   0.747
 8582SOL    HW126645   4.169   4.553   0.679
 8582SOL    HW226646   4.089   4.646   0.787
 8583SOL     OW26647   5.513   6.621   5.138
 8583SOL    HW126648   5.607   6.593   5.120
 8583SOL    HW226649   5.500   6.717   5.113
 8584SOL     OW26650   0.648   5.454   6.740
 8584SOL    HW126651   0.667   5.394   6.818
 8584SOL    HW226652   0.706   5.535   6.745
 8585SOL     OW26653   1.096   1.706   0.786
 8585SOL    HW126654   1.128   1.783   0.731
 8585SOL    HW226655   1.169   1.678   0.849
 8586SOL     OW26656   4.172   5.173   4.496
 8586SOL    HW126657   4.091   5.116   4.484
 8586SOL    HW226658   4.234   5.129   4.561
 8587SOL     OW26659   6.624   1.606   1.606
 8587SOL    HW126660   6.576   1.679   1.654
 8587SOL    HW226661   6.605   1.518   1.651
 8588SOL     OW26662   3.669   2.323   6.338
 8588SOL    HW126663   3.612   2.358   6.263
 8588SOL    HW226664   3.642   2.366   6.424
 8589SOL     OW26665   2.683   1.623   4.875
 8589SOL    HW126666   2.740   1.586   4.802
 8589SOL    HW226667   2.732   1.696   4.922
 8590SOL     OW26668   5.904   5.405   5.165
 8590SOL    HW126669   5.955   5.464   5.103
 8590SOL    HW226670   5.966   5.366   5.233
 8591SOL     OW26671   0.487   2.545   0.756
 8591SOL    HW126672   0.527   2.620   0.810
 8591SOL    HW226673   0.397   2.523   0.792
 8592SOL     OW26674   6.417   6.024   6.537
 8592SOL    HW126675   6.482   5.997   6.466
 8592SOL    HW226676   6.323   6.011   6.504
 8593SOL     OW26677   0.272   5.886   3.149
 8593SOL    HW126678   0.208   5.923   3.216
 8593SOL    HW226679   0.365   5.897   3.183
 8594SOL     OW26680   3.532   4.082   3.236
 8594SOL    HW126681   3.625   4.052   3.211
 8594SOL    HW226682   3.480   4.003   3.268
 8595SOL     OW26683   1.475   3.139   1.783
 8595SOL    HW126684   1.492   3.101   1.874
 8595SOL    HW226685   1.562   3.162   1.740
 8596SOL     OW26686   6.496   4.086   2.240
 8596SOL    HW126687   6.408   4.066   2.281
 8596SOL    HW226688   6.522   4.181   2.261
 8597SOL     OW26689   2.689   2.047   0.579
 8597SOL    HW126690   2.759   2.032   0.509
 8597SOL    HW226691   2.733   2.058   0.668
 8598SOL     OW26692   5.584   3.511   1.728
 8598SOL    HW126693   5.647   3.485   1.655
 8598SOL    HW226694   5.593   3.448   1.805
 8599SOL     OW26695   0.489   3.047   0.697
 8599SOL    HW126696   0.425   3.118   0.725
 8599SOL    HW226697   0.577   3.089   0.672
 8600SOL     OW26698   6.635   2.616   6.490
 8600SOL    HW126699   6.673   2.566   6.413
 8600SOL    HW226700   6.591   2.552   6.553
 8601SOL     OW26701   0.417   0.292   5.284
 8601SOL    HW126702   0.469   0.242   5.353
 8601SOL    HW226703   0.359   0.227   5.234
 8602SOL     OW26704   1.633   6.499   1.610
 8602SOL    HW126705   1.537   6.470   1.600
 8602SOL    HW226706   1.688   6.420   1.639
 8603SOL     OW26707   4.942   3.283   1.304
 8603SOL    HW126708   4.989   3.231   1.375
 8603SOL    HW226709   4.846   3.293   1.328
 8604SOL     OW26710   5.915   2.538   3.173
 8604SOL    HW126711   5.932   2.636   3.160
 8604SOL    HW226712   5.993   2.496   3.219
 8605SOL     OW26713   3.077   5.814   1.892
 8605SOL    HW126714   3.067   5.735   1.831
 8605SOL    HW226715   3.169   5.813   1.932
 8606SOL     OW26716   3.592   5.430   5.146
 8606SOL    HW126717   3.661   5.431   5.218
 8606SOL    HW226718   3.580   5.523   5.110
 8607SOL     OW26719   3.137   6.299   0.959
 8607SOL    HW126720   3.151   6.296   1.058
 8607SOL    HW226721   3.205   6.242   0.914
 8608SOL     OW26722   6.140   6.809   2.003
 8608SOL    HW126723   6.157   6.730   1.943
 8608SOL    HW226724   6.165   6.785   2.097
 8609SOL     OW26725   4.646   0.601   6.208
 8609SOL    HW126726   4.640   0.650   6.294
 8609SOL    HW226727   4.729   0.629   6.159
 8610SOL     OW26728   0.259   6.614   5.904
 8610SOL    HW126729   0.211   6.682   5.848
 8610SOL    HW226730   0.277   6.532   5.850
 8611SOL     OW26731   1.585   1.896   3.075
 8611SOL    HW126732   1.594   1.876   2.978
 8611SOL    HW226733   1.674   1.924   3.112
 8612SOL     OW26734   5.206   3.209   4.520
 8612SOL    HW126735   5.222   3.178   4.614
 8612SOL    HW226736   5.163   3.299   4.521
 8613SOL     OW26737   1.401   0.821   0.503
 8613SOL    HW126738   1.492   0.854   0.527
 8613SOL    HW226739   1.347   0.895   0.464
 8614SOL     OW26740   1.572   1.698   3.258
 8614SOL    HW126741   1.554   1.752   3.340
 8614SOL    HW226742   1.565   1.757   3.177
 8615SOL     OW26743   4.499   2.017   5.506
 8615SOL    HW126744   4.492   2.092   5.571
 8615SOL    HW226745   4.575   2.033   5.444
 8616SOL     OW26746   0.983   3.127   0.246
 8616SOL    HW126747   0.951   3.202   0.188
 8616SOL    HW226748   1.035   3.062   0.191
 8617SOL     OW26749   5.616   2.252   0.810
 8617SOL    HW126750   5.579   2.341   0.835
 8617SOL    HW226751   5.712   2.263   0.783
 8618SOL     OW26752   4.176   1.187   2.899
 8618SOL    HW126753   4.177   1.254   2.972
 8618SOL    HW226754   4.083   1.152   2.886
 8619SOL     OW26755   3.704   6.341   0.800
 8619SOL    HW126756   3.736   6.248   0.818
 8619SOL    HW226757   3.711   6.395   0.884
 8620SOL     OW26758   6.239   5.857   3.511
 8620SOL    HW126759   6.178   5.801   3.455
 8620SOL    HW226760   6.230   5.953   3.485
 8621SOL     OW26761   5.120   0.836   4.082
 8621SOL    HW126762   5.197   0.869   4.027
 8621SOL    HW226763   5.129   0.871   4.175
 8622SOL     OW26764   4.736   5.237   6.455
 8622SOL    HW126765   4.765   5.330   6.436
 8622SOL    HW226766   4.809   5.173   6.430
 8623SOL     OW26767   6.545   2.364   4.070
 8623SOL    HW126768   6.483   2.360   4.149
 8623SOL    HW226769   6.631   2.319   4.094
 8624SOL     OW26770   6.658   3.512   3.641
 8624SOL    HW126771   6.643   3.539   3.736
 8624SOL    HW226772   6.643   3.590   3.581
 8625SOL     OW26773   3.672   1.436   6.733
 8625SOL    HW126774   3.681   1.344   6.772
 8625SOL    HW226775   3.584   1.442   6.685
 8626SOL     OW26776   2.912   3.437   2.389
 8626SOL    HW126777   2.922   3.400   2.297
 8626SOL    HW226778   2.913   3.361   2.455
 8627SOL     OW26779   2.451   0.535   0.158
 8627SOL    HW126780   2.459   0.634   0.172
 8627SOL    HW226781   2.386   0.518   0.084
 8628SOL     OW26782   6.190   1.371   0.985
 8628SOL    HW126783   6.249   1.291   0.970
 8628SOL    HW226784   6.240   1.440   1.038
 8629SOL     OW26785   1.305   5.421   3.745
 8629SOL    HW126786   1.344   5.359   3.677
 8629SOL    HW226787   1.310   5.515   3.711
 8630SOL     OW26788   5.439   4.988   4.126
 8630SOL    HW126789   5.465   5.080   4.098
 8630SOL    HW226790   5.519   4.928   4.121
 8631SOL     OW26791   4.334   6.349   3.969
 8631SOL    HW126792   4.253   6.365   4.026
 8631SOL    HW226793   4.354   6.251   3.965
 8632SOL     OW26794   3.414   0.161   3.272
 8632SOL    HW126795   3.357   0.242   3.258
 8632SOL    HW226796   3.484   0.181   3.339
 8633SOL     OW26797   6.574   6.651   2.640
 8633SOL    HW126798   6.661   6.652   2.689
 8633SOL    HW226799   6.517   6.726   2.673
 8634SOL     OW26800   6.380   6.224   1.618
 8634SOL    HW126801   6.397   6.139   1.568
 8634SOL    HW226802   6.410   6.214   1.713
 8635SOL     OW26803   6.456   3.405   5.452
 8635SOL    HW126804   6.381   3.410   5.386
 8635SOL    HW226805   6.473   3.496   5.491
 8636SOL     OW26806   5.299   5.099   0.501
 8636SOL    HW126807   5.317   5.172   0.568
 8636SOL    HW226808   5.304   5.137   0.409
 8637SOL     OW26809   1.542   1.246   1.585
 8637SOL    HW126810   1.626   1.192   1.583
 8637SOL    HW226811   1.475   1.205   1.524
 8638SOL     OW26812   5.593   4.764   1.268
 8638SOL    HW126813   5.595   4.857   1.305
 8638SOL    HW226814   5.599   4.768   1.168
 8639SOL     OW26815   6.335   2.422   1.926
 8639SOL    HW126816   6.430   2.422   1.893
 8639SOL    HW226817   6.277   2.467   1.858
 8640SOL     OW26818   4.927   6.222   1.678
 8640SOL    HW126819   5.021   6.194   1.695
 8640SOL    HW226820   4.872   6.207   1.760
 8641SOL     OW26821   4.917   4.308   3.597
 8641SOL    HW126822   5.001   4.326   3.649
 8641SOL    HW226823   4.940   4.263   3.511
 8642SOL     OW26824   4.338   1.857   1.816
 8642SOL    HW126825   4.292   1.805   1.744
 8642SOL    HW226826   4.338   1.805   1.901
 8643SOL     OW26827   4.686   0.412   0.038
 8643SOL    HW126828   4.630   0.348   0.090
 8643SOL    HW226829   4.782   0.403   0.066
 8644SOL     OW26830   6.762   3.311   5.136
 8644SOL    HW126831   6.767   3.386   5.070
 8644SOL    HW226832   6.829   3.327   5.209
 8645SOL     OW26833   6.321   3.734   1.535
 8645SOL    HW126834   6.343   3.756   1.440
 8645SOL    HW226835   6.351   3.808   1.595
 8646SOL     OW26836   4.987   6.147   0.927
 8646SOL    HW126837   5.014   6.173   0.834
 8646SOL    HW226838   5.069   6.130   0.981
 8647SOL     OW26839   4.265   4.611   2.262
 8647SOL    HW126840   4.337   4.558   2.306
 8647SOL    HW226841   4.208   4.550   2.207
 8648SOL     OW26842   5.925   1.372   4.232
 8648SOL    HW126843   5.874   1.413   4.156
 8648SOL    HW226844   6.005   1.324   4.196
 8649SOL     OW26845   6.621   4.779   5.715
 8649SOL    HW126846   6.658   4.687   5.708
 8649SOL    HW226847   6.692   4.841   5.749
 8650SOL     OW26848   0.265   5.186   1.752
 8650SOL    HW126849   0.336   5.241   1.796
 8650SOL    HW226850   0.285   5.089   1.764
 8651SOL     OW26851   4.113   3.234   1.047
 8651SOL    HW126852   4.055   3.274   1.118
 8651SOL    HW226853   4.165   3.158   1.086
 8652SOL     OW26854   1.014   3.490   3.800
 8652SOL    HW126855   1.055   3.442   3.877
 8652SOL    HW226856   1.053   3.582   3.794
 8653SOL     OW26857   5.069   3.030   6.326
 8653SOL    HW126858   5.153   3.081   6.344
 8653SOL    HW226859   5.054   3.023   6.228
 8654SOL     OW26860   0.882   5.632   1.358
 8654SOL    HW126861   0.952   5.638   1.287
 8654SOL    HW226862   0.799   5.679   1.328
 8655SOL     OW26863   6.548   6.931   2.227
 8655SOL    HW126864   6.543   6.845   2.278
 8655SOL    HW226865   6.510   7.005   2.283
 8656SOL     OW26866   6.726   1.874   1.247
 8656SOL    HW126867   6.639   1.916   1.272
 8656SOL    HW226868   6.719   1.834   1.156
 8657SOL     OW26869   2.779   4.672   0.800
 8657SOL    HW126870   2.754   4.740   0.869
 8657SOL    HW226871   2.876   4.649   0.809
 8658SOL     OW26872   1.103   5.484   5.974
 8658SOL    HW126873   1.183   5.519   5.926
 8658SOL    HW226874   1.020   5.524   5.935
 8659SOL     OW26875   3.935   0.125   4.106
 8659SOL    HW126876   4.028   0.158   4.120
 8659SOL    HW226877   3.933   0.025   4.116
 8660SOL     OW26878   5.551   4.720   0.204
 8660SOL    HW126879   5.552   4.638   0.147
 8660SOL    HW226880   5.642   4.737   0.241
 8661SOL     OW26881   6.613   3.445   1.748
 8661SOL    HW126882   6.534   3.471   1.692
 8661SOL    HW226883   6.674   3.386   1.695
 8662SOL     OW26884   0.778   0.300   0.283
 8662SOL    HW126885   0.700   0.238   0.287
 8662SOL    HW226886   0.858   0.257   0.326
 8663SOL     OW26887   2.533   5.741   1.109
 8663SOL    HW126888   2.465   5.705   1.174
 8663SOL    HW226889   2.524   5.841   1.104
 8664SOL     OW26890   4.570   5.199   2.014
 8664SOL    HW126891   4.495   5.252   2.053
 8664SOL    HW226892   4.536   5.146   1.936
 8665SOL     OW26893   5.140   5.558   4.619
 8665SOL    HW126894   5.141   5.523   4.712
 8665SOL    HW226895   5.183   5.492   4.557
 8666SOL     OW26896   6.459   4.495   4.167
 8666SOL    HW126897   6.530   4.565   4.182
 8666SOL    HW226898   6.402   4.489   4.249
 8667SOL     OW26899   5.724   2.519   3.382
 8667SOL    HW126900   5.736   2.421   3.365
 8667SOL    HW226901   5.715   2.566   3.294
 8668SOL     OW26902   3.556   0.803   4.639
 8668SOL    HW126903   3.512   0.781   4.726
 8668SOL    HW226904   3.506   0.877   4.594
 8669SOL     OW26905   4.164   6.907   5.731
 8669SOL    HW126906   4.084   6.958   5.762
 8669SOL    HW226907   4.137   6.843   5.660
 8670SOL     OW26908   4.400   4.744   2.664
 8670SOL    HW126909   4.448   4.687   2.730
 8670SOL    HW226910   4.452   4.828   2.648
 8671SOL     OW26911   6.128   6.185   2.559
 8671SOL    HW126912   6.042   6.217   2.601
 8671SOL    HW226913   6.193   6.160   2.631
 8672SOL     OW26914   3.583   5.235   5.537
 8672SOL    HW126915   3.537   5.164   5.590
 8672SOL    HW226916   3.665   5.266   5.585
 8673SOL     OW26917   4.944   2.461   0.036
 8673SOL    HW126918   5.017   2.522   0.067
 8673SOL    HW226919   4.892   2.428   0.114
 8674SOL     OW26920   0.815   6.975   3.122
 8674SOL    HW126921   0.872   6.893   3.117
 8674SOL    HW226922   0.719   6.949   3.113
 8675SOL     OW26923   2.078   2.331   2.689
 8675SOL    HW126924   2.163   2.329   2.741
 8675SOL    HW226925   2.052   2.425   2.670
 8676SOL     OW26926   4.360   0.818   4.304
 8676SOL    HW126927   4.425   0.759   4.352
 8676SOL    HW226928   4.267   0.783   4.318
 8677SOL     OW26929   1.764   3.926   5.524
 8677SOL    HW126930   1.679   3.931   5.471
 8677SOL    HW226931   1.788   3.831   5.540
 8678SOL     OW26932   1.564   0.996   6.360
 8678SOL    HW126933   1.647   1.051   6.364
 8678SOL    HW226934   1.489   1.051   6.322
 8679SOL     OW26935   5.985   1.702   4.480
 8679SOL    HW126936   6.083   1.689   4.495
 8679SOL    HW226937   5.971   1.757   4.398
 8680SOL     OW26938   0.830   3.433   0.626
 8680SOL    HW126939   0.769   3.478   0.691
 8680SOL    HW226940   0.885   3.503   0.578
 8681SOL     OW26941   4.165   3.621   1.437
 8681SOL    HW126942   4.128   3.626   1.530
 8681SOL    HW226943   4.241   3.557   1.435
 8682SOL     OW26944   1.051   5.285   2.765
 8682SOL    HW126945   0.991   5.344   2.820
 8682SOL    HW226946   1.001   5.253   2.684
 8683SOL     OW26947   5.087   2.747   6.182
 8683SOL    HW126948   5.140   2.754   6.267
 8683SOL    HW226949   5.003   2.695   6.199
 8684SOL     OW26950   6.935   2.524   4.268
 8684SOL    HW126951   6.863   2.566   4.323
 8684SOL    HW226952   6.980   2.595   4.214
 8685SOL     OW26953   0.474   1.332   5.678
 8685SOL    HW126954   0.518   1.390   5.610
 8685SOL    HW226955   0.375   1.338   5.670
 8686SOL     OW26956   6.548   1.744   3.628
 8686SOL    HW126957   6.479   1.673   3.643
 8686SOL    HW226958   6.528   1.823   3.684
 8687SOL     OW26959   3.931   0.862   2.622
 8687SOL    HW126960   3.957   0.836   2.716
 8687SOL    HW226961   3.834   0.886   2.620
 8688SOL     OW26962   1.326   0.184   2.075
 8688SOL    HW126963   1.374   0.097   2.069
 8688SOL    HW226964   1.232   0.169   2.105
 8689SOL     OW26965   4.937   4.903   0.845
 8689SOL    HW126966   4.985   4.980   0.802
 8689SOL    HW226967   4.978   4.817   0.816
 8690SOL     OW26968   1.237   0.895   3.315
 8690SOL    HW126969   1.258   0.957   3.390
 8690SOL    HW226970   1.235   0.947   3.229
 8691SOL     OW26971   5.577   1.691   0.671
 8691SOL    HW126972   5.554   1.674   0.767
 8691SOL    HW226973   5.530   1.773   0.639
 8692SOL     OW26974   1.751   1.515   3.618
 8692SOL    HW126975   1.781   1.434   3.567
 8692SOL    HW226976   1.652   1.526   3.608
 8693SOL     OW26977   5.574   2.298   6.817
 8693SOL    HW126978   5.576   2.336   6.725
 8693SOL    HW226979   5.493   2.332   6.866
 8694SOL     OW26980   3.623   6.739   6.978
 8694SOL    HW126981   3.630   6.825   6.927
 8694SOL    HW226982   3.624   6.758   0.058
 8695SOL     OW26983   4.704   4.159   5.271
 8695SOL    HW126984   4.667   4.067   5.266
 8695SOL    HW226985   4.632   4.226   5.251
 8696SOL     OW26986   1.855   5.086   1.126
 8696SOL    HW126987   1.780   5.152   1.130
 8696SOL    HW226988   1.844   5.017   1.197
 8697SOL     OW26989   4.941   5.079   6.373
 8697SOL    HW126990   5.031   5.103   6.408
 8697SOL    HW226991   4.950   5.010   6.301
 8698SOL     OW26992   6.087   6.152   4.450
 8698SOL    HW126993   6.122   6.080   4.511
 8698SOL    HW226994   6.118   6.241   4.482
 8699SOL     OW26995   1.276   1.828   5.161
 8699SOL    HW126996   1.223   1.847   5.078
 8699SOL    HW226997   1.335   1.749   5.144
 8700SOL     OW26998   2.919   2.247   5.863
 8700SOL    HW126999   2.903   2.293   5.776
 8700SOL    HW227000   2.883   2.303   5.937
 8701SOL     OW27001   1.231   1.778   3.583
 8701SOL    HW127002   1.182   1.856   3.623
 8701SOL    HW227003   1.171   1.698   3.582
 8702SOL     OW27004   5.395   5.785   6.673
 8702SOL    HW127005   5.378   5.691   6.645
 8702SOL    HW227006   5.416   5.788   6.771
 8703SOL     OW27007   1.169   5.669   1.157
 8703SOL    HW127008   1.167   5.712   1.247
 8703SOL    HW227009   1.253   5.696   1.110
 8704SOL     OW27010   0.222   4.128   2.155
 8704SOL    HW127011   0.304   4.183   2.142
 8704SOL    HW227012   0.248   4.036   2.185
 8705SOL     OW27013   5.009   6.733   4.316
 8705SOL    HW127014   5.108   6.740   4.329
 8705SOL    HW227015   4.963   6.735   4.404
 8706SOL     OW27016   5.037   1.529   5.848
 8706SOL    HW127017   5.088   1.607   5.812
 8706SOL    HW227018   4.954   1.562   5.892
 8707SOL     OW27019   4.926   2.074   6.026
 8707SOL    HW127020   4.869   2.114   5.954
 8707SOL    HW227021   4.874   2.072   6.112
 8708SOL     OW27022   3.973   1.834   0.737
 8708SOL    HW127023   4.051   1.861   0.682
 8708SOL    HW227024   3.968   1.891   0.819
 8709SOL     OW27025   5.953   3.287   0.374
 8709SOL    HW127026   6.019   3.271   0.301
 8709SOL    HW227027   5.998   3.337   0.448
 8710SOL     OW27028   6.376   3.092   3.944
 8710SOL    HW127029   6.385   3.108   3.846
 8710SOL    HW227030   6.339   3.174   3.988
 8711SOL     OW27031   0.714   1.854   4.103
 8711SOL    HW127032   0.653   1.902   4.040
 8711SOL    HW227033   0.672   1.768   4.131
 8712SOL     OW27034   3.921   1.264   6.605
 8712SOL    HW127035   3.873   1.302   6.684
 8712SOL    HW227036   3.857   1.211   6.550
 8713SOL     OW27037   5.622   4.810   2.849
 8713SOL    HW127038   5.707   4.808   2.902
 8713SOL    HW227039   5.572   4.725   2.864
 8714SOL     OW27040   1.874   1.693   4.488
 8714SOL    HW127041   1.953   1.741   4.527
 8714SOL    HW227042   1.794   1.710   4.545
 8715SOL     OW27043   5.927   1.102   2.487
 8715SOL    HW127044   5.976   1.184   2.514
 8715SOL    HW227045   5.847   1.090   2.546
 8716SOL     OW27046   0.692   0.987   1.712
 8716SOL    HW127047   0.677   1.028   1.803
 8716SOL    HW227048   0.606   0.990   1.660
 8717SOL     OW27049   4.276   3.569   0.432
 8717SOL    HW127050   4.224   3.493   0.470
 8717SOL    HW227051   4.218   3.651   0.430
 8718SOL     OW27052   0.263   2.747   5.794
 8718SOL    HW127053   0.168   2.768   5.815
 8718SOL    HW227054   0.271   2.649   5.773
 8719SOL     OW27055   6.138   0.953   5.857
 8719SOL    HW127056   6.199   0.874   5.865
 8719SOL    HW227057   6.054   0.925   5.811
 8720SOL     OW27058   4.632   3.548   5.797
 8720SOL    HW127059   4.665   3.482   5.865
 8720SOL    HW227060   4.565   3.608   5.840
 8721SOL     OW27061   6.980   0.687   4.922
 8721SOL    HW127062   6.947   0.638   4.842
 8721SOL    HW227063   6.911   0.685   4.994
 8722SOL     OW27064   2.909   3.030   1.171
 8722SOL    HW127065   2.814   3.058   1.189
 8722SOL    HW227066   2.914   2.985   1.082
 8723SOL     OW27067   0.382   5.145   0.248
 8723SOL    HW127068   0.324   5.144   0.329
 8723SOL    HW227069   0.327   5.125   0.167
 8724SOL     OW27070   5.504   6.009   6.264
 8724SOL    HW127071   5.536   5.924   6.305
 8724SOL    HW227072   5.454   6.062   6.334
 8725SOL     OW27073   2.021   6.241   1.483
 8725SOL    HW127074   1.972   6.256   1.397
 8725SOL    HW227075   2.076   6.322   1.504
 8726SOL     OW27076   6.660   0.296   1.359
 8726SOL    HW127077   6.584   0.264   1.302
 8726SOL    HW227078   6.725   0.221   1.374
 8727SOL     OW27079   6.129   6.369   1.297
 8727SOL    HW127080   6.163   6.461   1.276
 8727SOL    HW227081   6.129   6.355   1.395
 8728SOL     OW27082   2.376   6.455   5.484
 8728SOL    HW127083   2.470   6.471   5.454
 8728SOL    HW227084   2.321   6.538   5.467
 8729SOL     OW27085   5.354   6.139   4.701
 8729SOL    HW127086   5.391   6.171   4.613
 8729SOL    HW227087   5.423   6.085   4.748
 8730SOL     OW27088   6.791   6.370   0.955
 8730SOL    HW127089   6.713   6.309   0.967
 8730SOL    HW227090   6.771   6.437   0.884
 8731SOL     OW27091   0.564   1.815   2.368
 8731SOL    HW127092   0.486   1.874   2.350
 8731SOL    HW227093   0.536   1.740   2.428
 8732SOL     OW27094   6.270   5.921   1.914
 8732SOL    HW127095   6.281   5.866   1.831
 8732SOL    HW227096   6.296   6.016   1.895
 8733SOL     OW27097   6.715   6.986   1.373
 8733SOL    HW127098   6.722   6.906   1.432
 8733SOL    HW227099   6.652   6.967   1.298
 8734SOL     OW27100   6.998   5.637   0.347
 8734SOL    HW127101   7.014   5.560   0.409
 8734SOL    HW227102   0.045   5.633   0.271
 8735SOL     OW27103   6.973   2.815   6.260
 8735SOL    HW127104   6.879   2.822   6.292
 8735SOL    HW227105   6.998   2.899   6.210
 8736SOL     OW27106   0.083   4.654   6.028
 8736SOL    HW127107   0.153   4.584   6.017
 8736SOL    HW227108   0.117   4.741   5.994
 8737SOL     OW27109   3.766   6.484   6.691
 8737SOL    HW127110   3.759   6.395   6.647
 8737SOL    HW227111   3.775   6.556   6.622
 8738SOL     OW27112   0.622   3.805   5.242
 8738SOL    HW127113   0.527   3.803   5.274
 8738SOL    HW227114   0.682   3.776   5.316
 8739SOL     OW27115   1.025   3.617   5.606
 8739SOL    HW127116   1.081   3.604   5.688
 8739SOL    HW227117   1.028   3.534   5.551
 8740SOL     OW27118   1.219   6.574   1.336
 8740SOL    HW127119   1.217   6.673   1.324
 8740SOL    HW227120   1.217   6.530   1.246
 8741SOL     OW27121   1.753   3.940   2.063
 8741SOL    HW127122   1.707   3.958   1.976
 8741SOL    HW227123   1.848   3.968   2.057
 8742SOL     OW27124   4.845   6.319   2.066
 8742SOL    HW127125   4.927   6.374   2.079
 8742SOL    HW227126   4.790   6.321   2.149
 8743SOL     OW27127   2.357   4.990   3.448
 8743SOL    HW127128   2.261   4.968   3.464
 8743SOL    HW227129   2.415   4.933   3.506
 8744SOL     OW27130   3.464   3.596   5.503
 8744SOL    HW127131   3.453   3.692   5.476
 8744SOL    HW227132   3.374   3.552   5.502
 8745SOL     OW27133   6.321   1.577   6.796
 8745SOL    HW127134   6.363   1.491   6.769
 8745SOL    HW227135   6.235   1.559   6.844
 8746SOL     OW27136   5.335   4.219   5.006
 8746SOL    HW127137   5.328   4.156   4.928
 8746SOL    HW227138   5.291   4.306   4.982
 8747SOL     OW27139   0.824   2.589   4.224
 8747SOL    HW127140   0.756   2.576   4.296
 8747SOL    HW227141   0.779   2.591   4.135
 8748SOL     OW27142   2.872   0.087   0.454
 8748SOL    HW127143   2.962   0.119   0.424
 8748SOL    HW227144   2.884   0.016   0.524
 8749SOL     OW27145   3.871   1.718   3.786
 8749SOL    HW127146   3.878   1.654   3.862
 8749SOL    HW227147   3.939   1.791   3.797
 8750SOL     OW27148   1.814   0.674   5.584
 8750SOL    HW127149   1.732   0.709   5.628
 8750SOL    HW227150   1.790   0.597   5.525
 8751SOL     OW27151   2.071   6.943   3.364
 8751SOL    HW127152   2.120   7.000   3.299
 8751SOL    HW227153   1.972   6.959   3.355
 8752SOL     OW27154   2.521   1.613   5.737
 8752SOL    HW127155   2.606   1.581   5.696
 8752SOL    HW227156   2.539   1.654   5.826
 8753SOL     OW27157   6.056   1.278   4.878
 8753SOL    HW127158   6.083   1.194   4.830
 8753SOL    HW227159   6.035   1.256   4.973
 8754SOL     OW27160   1.961   0.885   5.267
 8754SOL    HW127161   1.996   0.911   5.357
 8754SOL    HW227162   2.021   0.817   5.226
 8755SOL     OW27163   2.194   2.371   1.008
 8755SOL    HW127164   2.186   2.298   1.076
 8755SOL    HW227165   2.114   2.431   1.014
 8756SOL     OW27166   1.921   3.822   4.315
 8756SOL    HW127167   1.976   3.828   4.398
 8756SOL    HW227168   1.928   3.908   4.264
 8757SOL     OW27169   3.908   6.056   4.108
 8757SOL    HW127170   3.861   5.987   4.163
 8757SOL    HW227171   3.917   6.023   4.014
 8758SOL     OW27172   5.043   6.485   2.184
 8758SOL    HW127173   5.010   6.548   2.253
 8758SOL    HW227174   5.097   6.413   2.228
 8759SOL     OW27175   5.151   0.992   5.669
 8759SOL    HW127176   5.098   0.951   5.594
 8759SOL    HW227177   5.141   0.936   5.751
 8760SOL     OW27178   1.802   3.188   3.533
 8760SOL    HW127179   1.850   3.212   3.617
 8760SOL    HW227180   1.849   3.229   3.455
 8761SOL     OW27181   5.351   6.047   1.604
 8761SOL    HW127182   5.357   5.969   1.665
 8761SOL    HW227183   5.345   6.015   1.509
 8762SOL     OW27184   0.867   3.883   0.616
 8762SOL    HW127185   0.847   3.931   0.701
 8762SOL    HW227186   0.892   3.788   0.636
 8763SOL     OW27187   6.800   6.005   6.470
 8763SOL    HW127188   6.715   6.012   6.418
 8763SOL    HW227189   6.784   6.033   6.565
 8764SOL     OW27190   3.874   2.093   5.518
 8764SOL    HW127191   3.839   2.030   5.449
 8764SOL    HW227192   3.798   2.138   5.564
 8765SOL     OW27193   6.868   0.364   4.847
 8765SOL    HW127194   6.866   0.343   4.945
 8765SOL    HW227195   6.802   0.436   4.827
 8766SOL     OW27196   2.106   4.738   2.326
 8766SOL    HW127197   2.118   4.809   2.396
 8766SOL    HW227198   2.120   4.779   2.236
 8767SOL     OW27199   4.913   1.304   5.560
 8767SOL    HW127200   4.916   1.389   5.613
 8767SOL    HW227201   4.857   1.237   5.607
 8768SOL     OW27202   0.755   3.921   7.002
 8768SOL    HW127203   0.835   3.874   0.021
 8768SOL    HW227204   0.733   4.000   0.041
 8769SOL     OW27205   1.825   0.973   5.724
 8769SOL    HW127206   1.791   0.957   5.817
 8769SOL    HW227207   1.788   1.059   5.689
 8770SOL     OW27208   5.459   1.323   3.297
 8770SOL    HW127209   5.531   1.263   3.262
 8770SOL    HW227210   5.500   1.402   3.343
 8771SOL     OW27211   2.600   2.531   5.347
 8771SOL    HW127212   2.608   2.629   5.329
 8771SOL    HW227213   2.685   2.486   5.321
 8772SOL     OW27214   5.886   6.307   6.872
 8772SOL    HW127215   5.789   6.329   6.863
 8772SOL    HW227216   5.897   6.211   6.898
 8773SOL     OW27217   2.971   1.717   2.931
 8773SOL    HW127218   3.060   1.672   2.922
 8773SOL    HW227219   2.910   1.683   2.859
 8774SOL     OW27220   1.596   0.480   0.471
 8774SOL    HW127221   1.633   0.512   0.558
 8774SOL    HW227222   1.504   0.518   0.457
 8775SOL     OW27223   6.464   6.421   3.892
 8775SOL    HW127224   6.374   6.444   3.855
 8775SOL    HW227225   6.502   6.500   3.938
 8776SOL     OW27226   3.324   3.555   4.685
 8776SOL    HW127227   3.424   3.547   4.686
 8776SOL    HW227228   3.298   3.645   4.650
 8777SOL     OW27229   6.239   5.893   2.401
 8777SOL    HW127230   6.155   5.920   2.354
 8777SOL    HW227231   6.313   5.883   2.335
 8778SOL     OW27232   1.422   2.511   2.962
 8778SOL    HW127233   1.411   2.451   2.883
 8778SOL    HW227234   1.495   2.476   3.020
 8779SOL     OW27235   1.377   4.675   0.689
 8779SOL    HW127236   1.425   4.762   0.680
 8779SOL    HW227237   1.429   4.615   0.750
 8780SOL     OW27238   2.071   5.866   4.401
 8780SOL    HW127239   2.065   5.959   4.366
 8780SOL    HW227240   2.029   5.803   4.336
 8781SOL     OW27241   0.836   2.191   2.783
 8781SOL    HW127242   0.909   2.235   2.835
 8781SOL    HW227243   0.849   2.208   2.685
 8782SOL     OW27244   5.072   1.439   3.401
 8782SOL    HW127245   5.016   1.522   3.408
 8782SOL    HW227246   5.086   1.417   3.305
 8783SOL     OW27247   6.095   2.858   5.983
 8783SOL    HW127248   6.038   2.849   5.902
 8783SOL    HW227249   6.164   2.785   5.984
 8784SOL     OW27250   5.559   4.494   5.720
 8784SOL    HW127251   5.530   4.581   5.760
 8784SOL    HW227252   5.511   4.479   5.634
 8785SOL     OW27253   5.366   4.269   6.327
 8785SOL    HW127254   5.367   4.209   6.407
 8785SOL    HW227255   5.322   4.223   6.250
 8786SOL     OW27256   1.438   6.434   0.619
 8786SOL    HW127257   1.500   6.448   0.542
 8786SOL    HW227258   1.473   6.360   0.677
 8787SOL     OW27259   1.225   2.591   0.079
 8787SOL    HW127260   1.167   2.509   0.083
 8787SOL    HW227261   1.194   2.651   0.005
 8788SOL     OW27262   1.438   2.012   5.412
 8788SOL    HW127263   1.371   1.952   5.368
 8788SOL    HW227264   1.485   2.066   5.342
 8789SOL     OW27265   0.753   0.730   0.262
 8789SOL    HW127266   0.681   0.676   0.307
 8789SOL    HW227267   0.711   0.808   0.215
 8790SOL     OW27268   4.258   1.972   6.791
 8790SOL    HW127269   4.215   1.901   6.847
 8790SOL    HW227270   4.356   1.977   6.813
 8791SOL     OW27271   4.768   6.066   5.495
 8791SOL    HW127272   4.847   6.017   5.458
 8791SOL    HW227273   4.717   6.108   5.420
 8792SOL     OW27274   5.551   6.826   2.641
 8792SOL    HW127275   5.583   6.914   2.674
 8792SOL    HW227276   5.629   6.765   2.624
 8793SOL     OW27277   1.309   4.695   3.316
 8793SOL    HW127278   1.377   4.763   3.290
 8793SOL    HW227279   1.234   4.695   3.249
 8794SOL     OW27280   2.696   5.849   2.864
 8794SOL    HW127281   2.677   5.751   2.867
 8794SOL    HW227282   2.726   5.874   2.772
 8795SOL     OW27283   2.355   5.806   5.203
 8795SOL    HW127284   2.348   5.712   5.237
 8795SOL    HW227285   2.291   5.864   5.253
 8796SOL     OW27286   5.718   2.528   5.549
 8796SOL    HW127287   5.778   2.608   5.559
 8796SOL    HW227288   5.626   2.559   5.523
 8797SOL     OW27289   1.029   6.053   6.706
 8797SOL    HW127290   1.067   5.995   6.778
 8797SOL    HW227291   0.977   5.996   6.642
 8798SOL     OW27292   3.402   3.309   5.762
 8798SOL    HW127293   3.463   3.230   5.752
 8798SOL    HW227294   3.454   3.393   5.751
 8799SOL     OW27295   3.244   0.348   3.185
 8799SOL    HW127296   3.208   0.440   3.174
 8799SOL    HW227297   3.205   0.288   3.115
 8800SOL     OW27298   4.663   4.598   0.595
 8800SOL    HW127299   4.646   4.611   0.497
 8800SOL    HW227300   4.679   4.686   0.639
 8801SOL     OW27301   3.232   6.380   5.932
 8801SOL    HW127302   3.152   6.340   5.977
 8801SOL    HW227303   3.219   6.380   5.833
 8802SOL     OW27304   2.296   6.261   1.810
 8802SOL    HW127305   2.312   6.213   1.897
 8802SOL    HW227306   2.250   6.198   1.746
 8803SOL     OW27307   4.166   5.998   1.228
 8803SOL    HW127308   4.150   5.900   1.215
 8803SOL    HW227309   4.224   6.013   1.308
 8804SOL     OW27310   2.723   1.182   1.167
 8804SOL    HW127311   2.822   1.187   1.177
 8804SOL    HW227312   2.687   1.275   1.157
 8805SOL     OW27313   0.301   0.381   3.306
 8805SOL    HW127314   0.379   0.330   3.342
 8805SOL    HW227315   0.299   0.374   3.207
 8806SOL     OW27316   1.648   5.090   0.460
 8806SOL    HW127317   1.681   5.137   0.542
 8806SOL    HW227318   1.726   5.053   0.409
 8807SOL     OW27319   2.109   5.913   6.704
 8807SOL    HW127320   2.122   5.878   6.611
 8807SOL    HW227321   2.178   5.874   6.764
 8808SOL     OW27322   5.860   1.917   0.866
 8808SOL    HW127323   5.777   1.963   0.896
 8808SOL    HW227324   5.892   1.957   0.780
 8809SOL     OW27325   6.181   4.375   0.323
 8809SOL    HW127326   6.126   4.454   0.295
 8809SOL    HW227327   6.269   4.378   0.276
 8810SOL     OW27328   5.180   1.741   4.032
 8810SOL    HW127329   5.253   1.704   3.975
 8810SOL    HW227330   5.218   1.806   4.097
 8811SOL     OW27331   1.535   1.341   3.440
 8811SOL    HW127332   1.600   1.387   3.379
 8811SOL    HW227333   1.496   1.407   3.504
 8812SOL     OW27334   2.476   1.116   0.156
 8812SOL    HW127335   2.436   1.137   0.244
 8812SOL    HW227336   2.417   1.150   0.083
 8813SOL     OW27337   1.319   6.027   1.119
 8813SOL    HW127338   1.338   6.111   1.170
 8813SOL    HW227339   1.274   5.962   1.180
 8814SOL     OW27340   5.218   6.611   6.085
 8814SOL    HW127341   5.162   6.628   6.166
 8814SOL    HW227342   5.315   6.615   6.109
 8815SOL     OW27343   6.161   5.766   3.146
 8815SOL    HW127344   6.112   5.733   3.227
 8815SOL    HW227345   6.180   5.864   3.155
 8816SOL     OW27346   0.806   5.689   1.874
 8816SOL    HW127347   0.866   5.769   1.879
 8816SOL    HW227348   0.739   5.693   1.948
 8817SOL     OW27349   2.179   4.298   5.327
 8817SOL    HW127350   2.126   4.382   5.325
 8817SOL    HW227351   2.197   4.267   5.233
 8818SOL     OW27352   6.760   4.484   4.940
 8818SOL    HW127353   6.765   4.575   4.899
 8818SOL    HW227354   6.692   4.483   5.013
 8819SOL     OW27355   6.338   0.109   4.151
 8819SOL    HW127356   6.364   0.115   4.247
 8819SOL    HW227357   6.271   0.037   4.139
 8820SOL     OW27358   0.651   2.710   3.226
 8820SOL    HW127359   0.565   2.734   3.272
 8820SOL    HW227360   0.642   2.725   3.128
 8821SOL     OW27361   1.440   0.028   6.225
 8821SOL    HW127362   1.482   0.113   6.256
 8821SOL    HW227363   1.494   6.968   6.256
 8822SOL     OW27364   0.832   2.188   3.418
 8822SOL    HW127365   0.827   2.095   3.383
 8822SOL    HW227366   0.868   2.248   3.346
 8823SOL     OW27367   2.157   4.830   1.852
 8823SOL    HW127368   2.109   4.893   1.913
 8823SOL    HW227369   2.091   4.787   1.791
 8824SOL     OW27370   4.354   4.247   0.834
 8824SOL    HW127371   4.261   4.249   0.870
 8824SOL    HW227372   4.420   4.243   0.909
 8825SOL     OW27373   1.911   2.771   0.941
 8825SOL    HW127374   1.815   2.778   0.915
 8825SOL    HW227375   1.935   2.846   1.002
 8826SOL     OW27376   5.645   0.324   0.728
 8826SOL    HW127377   5.652   0.424   0.728
 8826SOL    HW227378   5.674   0.288   0.817
 8827SOL     OW27379   6.625   1.682   3.015
 8827SOL    HW127380   6.577   1.768   2.996
 8827SOL    HW227381   6.558   1.610   3.035
 8828SOL     OW27382   1.604   6.197   3.467
 8828SOL    HW127383   1.601   6.098   3.478
 8828SOL    HW227384   1.554   6.223   3.384
 8829SOL     OW27385   1.709   1.095   1.038
 8829SOL    HW127386   1.631   1.037   1.015
 8829SOL    HW227387   1.765   1.051   1.108
 8830SOL     OW27388   1.501   1.415   0.133
 8830SOL    HW127389   1.567   1.340   0.122
 8830SOL    HW227390   1.541   1.500   0.097
 8831SOL     OW27391   0.297   1.242   1.870
 8831SOL    HW127392   0.200   1.261   1.854
 8831SOL    HW227393   0.339   1.319   1.917
 8832SOL     OW27394   6.628   0.958   2.235
 8832SOL    HW127395   6.624   0.912   2.324
 8832SOL    HW227396   6.588   0.898   2.165
 8833SOL     OW27397   1.134   4.895   2.654
 8833SOL    HW127398   1.074   4.836   2.708
 8833SOL    HW227399   1.140   4.985   2.697
 8834SOL     OW27400   6.268   4.225   3.739
 8834SOL    HW127401   6.194   4.235   3.672
 8834SOL    HW227402   6.356   4.235   3.693
 8835SOL     OW27403   0.344   0.765   0.057
 8835SOL    HW127404   0.386   0.696   0.116
 8835SOL    HW227405   0.416   0.823   0.019
 8836SOL     OW27406   4.861   1.885   2.259
 8836SOL    HW127407   4.876   1.829   2.340
 8836SOL    HW227408   4.949   1.906   2.217
 8837SOL     OW27409   0.371   2.529   1.901
 8837SOL    HW127410   0.354   2.624   1.928
 8837SOL    HW227411   0.467   2.519   1.874
 8838SOL     OW27412   1.824   6.020   3.930
 8838SOL    HW127413   1.857   6.031   4.024
 8838SOL    HW227414   1.878   6.079   3.869
 8839SOL     OW27415   5.252   5.989   4.087
 8839SOL    HW127416   5.220   6.083   4.098
 8839SOL    HW227417   5.248   5.941   4.175
 8840SOL     OW27418   4.285   0.474   2.155
 8840SOL    HW127419   4.245   0.389   2.123
 8840SOL    HW227420   4.231   0.551   2.121
 8841SOL     OW27421   2.942   6.970   4.221
 8841SOL    HW127422   2.887   7.017   4.151
 8841SOL    HW227423   2.923   6.872   4.218
 8842SOL     OW27424   1.449   2.274   1.952
 8842SOL    HW127425   1.400   2.359   1.970
 8842SOL    HW227426   1.542   2.281   1.990
 8843SOL     OW27427   0.324   3.232   4.223
 8843SOL    HW127428   0.291   3.290   4.149
 8843SOL    HW227429   0.363   3.148   4.185
 8844SOL     OW27430   5.995   1.538   6.328
 8844SOL    HW127431   6.038   1.467   6.384
 8844SOL    HW227432   6.063   1.609   6.306
 8845SOL     OW27433   5.117   3.254   6.830
 8845SOL    HW127434   5.036   3.196   6.834
 8845SOL    HW227435   5.133   3.296   6.919
 8846SOL     OW27436   3.284   4.914   3.610
 8846SOL    HW127437   3.198   4.881   3.647
 8846SOL    HW227438   3.276   4.923   3.510
 8847SOL     OW27439   1.018   1.235   2.988
 8847SOL    HW127440   0.995   1.214   2.893
 8847SOL    HW227441   0.947   1.200   3.049
 8848SOL     OW27442   0.926   0.990   3.416
 8848SOL    HW127443   0.939   0.948   3.327
 8848SOL    HW227444   0.845   0.951   3.460
 8849SOL     OW27445   2.783   6.683   1.837
 8849SOL    HW127446   2.740   6.725   1.757
 8849SOL    HW227447   2.875   6.720   1.849
 8850SOL     OW27448   2.826   2.625   6.894
 8850SOL    HW127449   2.836   2.615   6.795
 8850SOL    HW227450   2.747   2.573   6.925
 8851SOL     OW27451   1.839   3.612   2.120
 8851SOL    HW127452   1.922   3.606   2.175
 8851SOL    HW227453   1.811   3.708   2.112
 8852SOL     OW27454   0.473   2.032   4.648
 8852SOL    HW127455   0.515   2.121   4.633
 8852SOL    HW227456   0.384   2.029   4.604
 8853SOL     OW27457   4.647   0.442   1.737
 8853SOL    HW127458   4.694   0.439   1.825
 8853SOL    HW227459   4.550   0.463   1.752
 8854SOL     OW27460   0.527   2.919   4.793
 8854SOL    HW127461   0.598   2.935   4.861
 8854SOL    HW227462   0.529   2.824   4.764
 8855SOL     OW27463   5.242   4.628   1.435
 8855SOL    HW127464   5.306   4.590   1.368
 8855SOL    HW227465   5.170   4.561   1.455
 8856SOL     OW27466   6.298   0.692   5.901
 8856SOL    HW127467   6.397   0.698   5.889
 8856SOL    HW227468   6.252   0.698   5.813
 8857SOL     OW27469   6.924   1.893   6.541
 8857SOL    HW127470   6.849   1.917   6.603
 8857SOL    HW227471   7.011   1.914   6.585
 8858SOL     OW27472   6.408   5.906   4.898
 8858SOL    HW127473   6.494   5.894   4.848
 8858SOL    HW227474   6.406   5.998   4.938
 8859SOL     OW27475   0.766   5.835   3.278
 8859SOL    HW127476   0.851   5.886   3.267
 8859SOL    HW227477   0.748   5.782   3.195
 8860SOL     OW27478   6.839   3.109   2.302
 8860SOL    HW127479   6.921   3.059   2.273
 8860SOL    HW227480   6.832   3.106   2.401
 8861SOL     OW27481   3.470   2.747   1.736
 8861SOL    HW127482   3.535   2.803   1.684
 8861SOL    HW227483   3.465   2.781   1.830
 8862SOL     OW27484   4.428   4.652   4.741
 8862SOL    HW127485   4.396   4.580   4.803
 8862SOL    HW227486   4.472   4.610   4.662
 8863SOL     OW27487   0.961   4.099   2.180
 8863SOL    HW127488   1.057   4.128   2.189
 8863SOL    HW227489   0.956   4.000   2.182
 8864SOL     OW27490   6.435   1.848   5.251
 8864SOL    HW127491   6.413   1.809   5.162
 8864SOL    HW227492   6.432   1.948   5.245
 8865SOL     OW27493   3.115   1.964   0.665
 8865SOL    HW127494   3.038   1.911   0.701
 8865SOL    HW227495   3.081   2.031   0.599
 8866SOL     OW27496   5.750   6.937   2.064
 8866SOL    HW127497   5.800   0.005   2.074
 8866SOL    HW227498   5.677   6.949   1.996
 8867SOL     OW27499   6.077   3.080   2.904
 8867SOL    HW127500   6.091   3.178   2.915
 8867SOL    HW227501   6.012   3.064   2.829
 8868SOL     OW27502   0.060   3.264   3.949
 8868SOL    HW127503   0.157   3.276   3.972
 8868SOL    HW227504   0.043   3.294   3.856
 8869SOL     OW27505   4.719   0.095   3.554
 8869SOL    HW127506   4.759   0.085   3.645
 8869SOL    HW227507   4.647   0.165   3.557
 8870SOL     OW27508   1.130   0.821   1.740
 8870SOL    HW127509   1.176   0.910   1.749
 8870SOL    HW227510   1.047   0.831   1.685
 8871SOL     OW27511   0.140   6.999   1.255
 8871SOL    HW127512   0.090   6.915   1.277
 8871SOL    HW227513   0.165   6.998   1.158
 8872SOL     OW27514   0.007   4.316   3.697
 8872SOL    HW127515   0.066   4.270   3.629
 8872SOL    HW227516   6.935   4.333   3.656
 8873SOL     OW27517   2.387   1.256   3.027
 8873SOL    HW127518   2.387   1.351   2.997
 8873SOL    HW227519   2.451   1.245   3.104
 8874SOL     OW27520   2.881   6.047   0.669
 8874SOL    HW127521   2.942   5.969   0.686
 8874SOL    HW227522   2.932   6.119   0.622
 8875SOL     OW27523   6.163   3.304   4.832
 8875SOL    HW127524   6.079   3.302   4.777
 8875SOL    HW227525   6.183   3.211   4.865
 8876SOL     OW27526   4.281   0.946   0.668
 8876SOL    HW127527   4.241   1.035   0.690
 8876SOL    HW227528   4.379   0.948   0.685
 8877SOL     OW27529   0.732   4.831   1.103
 8877SOL    HW127530   0.789   4.793   1.176
 8877SOL    HW227531   0.638   4.841   1.136
 8878SOL     OW27532   5.236   3.176   1.675
 8878SOL    HW127533   5.306   3.118   1.718
 8878SOL    HW227534   5.172   3.209   1.744
 8879SOL     OW27535   6.870   4.307   3.461
 8879SOL    HW127536   6.776   4.305   3.497
 8879SOL    HW227537   6.873   4.258   3.374
 8880SOL     OW27538   4.167   2.220   3.036
 8880SOL    HW127539   4.198   2.292   2.973
 8880SOL    HW227540   4.201   2.241   3.128
 8881SOL     OW27541   3.517   5.019   2.393
 8881SOL    HW127542   3.433   4.982   2.432
 8881SOL    HW227543   3.501   5.044   2.298
 8882SOL     OW27544   4.143   0.762   0.231
 8882SOL    HW127545   4.141   0.839   0.168
 8882SOL    HW227546   4.234   0.718   0.228
 8883SOL     OW27547   6.847   6.509   2.725
 8883SOL    HW127548   6.899   6.554   2.798
 8883SOL    HW227549   6.887   6.419   2.706
 8884SOL     OW27550   3.961   2.535   5.649
 8884SOL    HW127551   3.923   2.557   5.559
 8884SOL    HW227552   3.996   2.618   5.692
 8885SOL     OW27553   5.567   5.514   0.799
 8885SOL    HW127554   5.595   5.429   0.753
 8885SOL    HW227555   5.501   5.563   0.743
 8886SOL     OW27556   4.785   6.735   7.004
 8886SOL    HW127557   4.838   6.733   0.071
 8886SOL    HW227558   4.727   6.653   6.999
 8887SOL     OW27559   3.610   0.129   1.390
 8887SOL    HW127560   3.558   0.209   1.361
 8887SOL    HW227561   3.675   0.156   1.462
 8888SOL     OW27562   3.485   2.062   2.437
 8888SOL    HW127563   3.439   2.073   2.526
 8888SOL    HW227564   3.416   2.050   2.366
 8889SOL     OW27565   1.495   4.927   0.212
 8889SOL    HW127566   1.576   4.984   0.197
 8889SOL    HW227567   1.455   4.949   0.301
 8890SOL     OW27568   1.224   5.961   0.010
 8890SOL    HW127569   1.223   6.045   0.063
 8890SOL    HW227570   1.283   5.973   6.948
 8891SOL     OW27571   6.344   3.856   5.357
 8891SOL    HW127572   6.356   3.757   5.368
 8891SOL    HW227573   6.405   3.905   5.419
 8892SOL     OW27574   2.509   5.147   4.531
 8892SOL    HW127575   2.592   5.151   4.475
 8892SOL    HW227576   2.487   5.239   4.564
 8893SOL     OW27577   0.623   4.692   5.602
 8893SOL    HW127578   0.714   4.649   5.608
 8893SOL    HW227579   0.633   4.784   5.564
 8894SOL     OW27580   5.251   2.054   1.900
 8894SOL    HW127581   5.285   2.132   1.952
 8894SOL    HW227582   5.240   2.081   1.804
 8895SOL     OW27583   6.534   3.714   0.961
 8895SOL    HW127584   6.472   3.639   0.981
 8895SOL    HW227585   6.495   3.772   0.889
 8896SOL     OW27586   1.085   1.545   3.593
 8896SOL    HW127587   1.146   1.486   3.540
 8896SOL    HW227588   1.068   1.505   3.683
 8897SOL     OW27589   1.691   5.170   4.242
 8897SOL    HW127590   1.786   5.181   4.214
 8897SOL    HW227591   1.678   5.080   4.283
 8898SOL     OW27592   5.487   4.037   2.207
 8898SOL    HW127593   5.428   3.983   2.147
 8898SOL    HW227594   5.432   4.107   2.253
 8899SOL     OW27595   1.945   3.787   2.561
 8899SOL    HW127596   1.993   3.702   2.586
 8899SOL    HW227597   1.957   3.805   2.464
 8900SOL     OW27598   4.298   1.721   4.637
 8900SOL    HW127599   4.232   1.738   4.564
 8900SOL    HW227600   4.390   1.716   4.599
 8901SOL     OW27601   1.651   5.352   5.022
 8901SOL    HW127602   1.611   5.435   5.062
 8901SOL    HW227603   1.618   5.342   4.928
 8902SOL     OW27604   0.520   4.954   6.904
 8902SOL    HW127605   0.545   5.016   6.830
 8902SOL    HW227606   0.506   4.862   6.868
 8903SOL     OW27607   1.050   0.388   5.068
 8903SOL    HW127608   1.137   0.427   5.039
 8903SOL    HW227609   1.044   0.293   5.037
 8904SOL     OW27610   0.443   0.825   3.442
 8904SOL    HW127611   0.452   0.777   3.355
 8904SOL    HW227612   0.386   0.771   3.504
 8905SOL     OW27613   1.992   4.277   1.835
 8905SOL    HW127614   1.974   4.309   1.928
 8905SOL    HW227615   2.077   4.317   1.801
 8906SOL     OW27616   6.143   0.187   6.659
 8906SOL    HW127617   6.138   0.129   6.578
 8906SOL    HW227618   6.053   0.190   6.703
 8907SOL     OW27619   2.921   3.294   5.159
 8907SOL    HW127620   2.986   3.252   5.096
 8907SOL    HW227621   2.859   3.224   5.195
 8908SOL     OW27622   1.688   4.917   6.272
 8908SOL    HW127623   1.623   4.855   6.316
 8908SOL    HW227624   1.755   4.864   6.220
 8909SOL     OW27625   2.106   5.619   1.775
 8909SOL    HW127626   2.044   5.545   1.800
 8909SOL    HW227627   2.198   5.583   1.761
 8910SOL     OW27628   1.100   1.340   3.795
 8910SOL    HW127629   1.136   1.322   3.887
 8910SOL    HW227630   1.142   1.276   3.730
 8911SOL     OW27631   5.473   2.764   4.672
 8911SOL    HW127632   5.555   2.767   4.615
 8911SOL    HW227633   5.392   2.775   4.614
 8912SOL     OW27634   3.563   2.897   3.554
 8912SOL    HW127635   3.502   2.916   3.630
 8912SOL    HW227636   3.593   2.982   3.512
 8913SOL     OW27637   5.349   5.670   1.282
 8913SOL    HW127638   5.312   5.613   1.355
 8913SOL    HW227639   5.345   5.621   1.195
 8914SOL     OW27640   4.956   5.558   5.357
 8914SOL    HW127641   4.902   5.584   5.437
 8914SOL    HW227642   4.928   5.613   5.279
 8915SOL     OW27643   2.169   1.059   3.707
 8915SOL    HW127644   2.207   1.116   3.634
 8915SOL    HW227645   2.082   1.020   3.676
 8916SOL     OW27646   5.625   1.334   2.250
 8916SOL    HW127647   5.547   1.279   2.280
 8916SOL    HW227648   5.702   1.274   2.227
 8917SOL     OW27649   5.446   1.894   0.532
 8917SOL    HW127650   5.393   1.830   0.477
 8917SOL    HW227651   5.525   1.926   0.481
 8918SOL     OW27652   0.952   3.427   2.266
 8918SOL    HW127653   0.883   3.486   2.308
 8918SOL    HW227654   0.991   3.366   2.336
 8919SOL     OW27655   6.298   2.688   2.500
 8919SOL    HW127656   6.309   2.739   2.586
 8919SOL    HW227657   6.382   2.697   2.446
 8920SOL     OW27658   1.238   1.618   0.227
 8920SOL    HW127659   1.254   1.610   0.326
 8920SOL    HW227660   1.257   1.712   0.198
 8921SOL     OW27661   0.798   3.211   1.529
 8921SOL    HW127662   0.872   3.276   1.513
 8921SOL    HW227663   0.771   3.216   1.625
 8922SOL     OW27664   3.293   4.945   3.341
 8922SOL    HW127665   3.378   4.914   3.298
 8922SOL    HW227666   3.227   4.969   3.270
 8923SOL     OW27667   2.574   1.158   3.550
 8923SOL    HW127668   2.620   1.224   3.609
 8923SOL    HW227669   2.590   1.066   3.584
 8924SOL     OW27670   6.107   5.199   4.417
 8924SOL    HW127671   6.204   5.193   4.442
 8924SOL    HW227672   6.051   5.206   4.499
 8925SOL     OW27673   0.514   0.114   3.830
 8925SOL    HW127674   0.453   0.164   3.769
 8925SOL    HW227675   0.557   0.039   3.780
 8926SOL     OW27676   5.820   1.284   0.095
 8926SOL    HW127677   5.763   1.350   0.047
 8926SOL    HW227678   5.783   1.269   0.187
 8927SOL     OW27679   1.528   0.818   6.574
 8927SOL    HW127680   1.518   0.724   6.542
 8927SOL    HW227681   1.547   0.878   6.496
 8928SOL     OW27682   1.813   0.038   5.743
 8928SOL    HW127683   1.843   6.986   5.678
 8928SOL    HW227684   1.870   0.033   5.826
 8929SOL     OW27685   0.096   1.751   3.641
 8929SOL    HW127686   0.104   1.706   3.730
 8929SOL    HW227687   0.042   1.835   3.651
 8930SOL     OW27688   2.076   5.183   3.812
 8930SOL    HW127689   2.035   5.245   3.879
 8930SOL    HW227690   2.079   5.090   3.850
 8931SOL     OW27691   4.376   3.453   0.190
 8931SOL    HW127692   4.333   3.492   0.272
 8931SOL    HW227693   4.336   3.495   0.109
 8932SOL     OW27694   1.018   4.035   3.333
 8932SOL    HW127695   1.027   4.037   3.234
 8932SOL    HW227696   1.019   3.941   3.366
 8933SOL     OW27697   4.584   1.865   6.429
 8933SOL    HW127698   4.619   1.778   6.395
 8933SOL    HW227699   4.485   1.859   6.440
 8934SOL     OW27700   2.277   5.730   2.934
 8934SOL    HW127701   2.359   5.787   2.939
 8934SOL    HW227702   2.210   5.771   2.873
 8935SOL     OW27703   6.568   5.117   0.047
 8935SOL    HW127704   6.584   5.020   0.068
 8935SOL    HW227705   6.656   5.163   0.035
 8936SOL     OW27706   3.990   2.956   0.868
 8936SOL    HW127707   3.902   2.995   0.897
 8936SOL    HW227708   4.026   2.898   0.942
 8937SOL     OW27709   0.887   0.510   6.146
 8937SOL    HW127710   0.945   0.554   6.215
 8937SOL    HW227711   0.833   0.580   6.099
 8938SOL     OW27712   4.564   6.018   2.034
 8938SOL    HW127713   4.545   6.000   2.131
 8938SOL    HW227714   4.491   6.075   1.996
 8939SOL     OW27715   5.485   2.081   4.841
 8939SOL    HW127716   5.567   2.118   4.796
 8939SOL    HW227717   5.444   2.152   4.898
 8940SOL     OW27718   6.200   0.053   2.561
 8940SOL    HW127719   6.253   0.129   2.597
 8940SOL    HW227720   6.202   0.053   2.461
 8941SOL     OW27721   4.005   1.468   6.434
 8941SOL    HW127722   4.020   1.556   6.479
 8941SOL    HW227723   3.936   1.416   6.484
 8942SOL     OW27724   0.989   2.307   5.171
 8942SOL    HW127725   0.948   2.326   5.081
 8942SOL    HW227726   1.088   2.306   5.163
 8943SOL     OW27727   5.121   3.738   0.911
 8943SOL    HW127728   5.163   3.712   0.824
 8943SOL    HW227729   5.152   3.830   0.937
 8944SOL     OW27730   4.285   5.604   1.304
 8944SOL    HW127731   4.351   5.635   1.235
 8944SOL    HW227732   4.247   5.516   1.276
 8945SOL     OW27733   2.005   1.373   3.772
 8945SOL    HW127734   2.029   1.460   3.816
 8945SOL    HW227735   2.007   1.300   3.840
 8946SOL     OW27736   4.327   0.476   4.410
 8946SOL    HW127737   4.247   0.517   4.454
 8946SOL    HW227738   4.398   0.460   4.478
 8947SOL     OW27739   3.753   3.999   5.281
 8947SOL    HW127740   3.804   4.080   5.251
 8947SOL    HW227741   3.666   3.995   5.232
 8948SOL     OW27742   5.771   5.163   3.085
 8948SOL    HW127743   5.795   5.233   3.152
 8948SOL    HW227744   5.830   5.171   3.005
 8949SOL     OW27745   1.828   5.255   5.935
 8949SOL    HW127746   1.865   5.318   6.003
 8949SOL    HW227747   1.744   5.293   5.896
 8950SOL     OW27748   4.973   2.476   4.671
 8950SOL    HW127749   4.946   2.568   4.697
 8950SOL    HW227750   4.935   2.410   4.737
 8951SOL     OW27751   2.646   2.048   5.369
 8951SOL    HW127752   2.611   1.968   5.417
 8951SOL    HW227753   2.607   2.131   5.409
 8952SOL     OW27754   6.354   6.825   3.232
 8952SOL    HW127755   6.409   6.884   3.172
 8952SOL    HW227756   6.265   6.809   3.189
 8953SOL     OW27757   2.101   5.027   6.125
 8953SOL    HW127758   2.049   4.990   6.201
 8953SOL    HW227759   2.127   5.122   6.146
 8954SOL     OW27760   2.649   6.495   5.404
 8954SOL    HW127761   2.695   6.523   5.319
 8954SOL    HW227762   2.707   6.430   5.453
 8955SOL     OW27763   6.323   3.814   4.609
 8955SOL    HW127764   6.394   3.803   4.539
 8955SOL    HW227765   6.296   3.910   4.615
 8956SOL     OW27766   1.245   0.895   4.843
 8956SOL    HW127767   1.174   0.965   4.856
 8956SOL    HW227768   1.240   0.861   4.749
 8957SOL     OW27769   2.594   6.234   1.918
 8957SOL    HW127770   2.656   6.157   1.936
 8957SOL    HW227771   2.641   6.319   1.939
 8958SOL     OW27772   2.680   0.025   4.312
 8958SOL    HW127773   2.685   0.124   4.322
 8958SOL    HW227774   2.772   7.004   4.312
 8959SOL     OW27775   3.415   5.764   0.572
 8959SOL    HW127776   3.374   5.727   0.488
 8959SOL    HW227777   3.419   5.863   0.566
 8960SOL     OW27778   3.631   5.871   0.816
 8960SOL    HW127779   3.561   5.911   0.875
 8960SOL    HW227780   3.633   5.772   0.829
 8961SOL     OW27781   1.145   3.044   3.686
 8961SOL    HW127782   1.162   3.108   3.760
 8961SOL    HW227783   1.209   2.968   3.692
 8962SOL     OW27784   4.870   0.513   3.639
 8962SOL    HW127785   4.893   0.609   3.629
 8962SOL    HW227786   4.866   0.470   3.548
 8963SOL     OW27787   0.395   1.140   3.694
 8963SOL    HW127788   0.326   1.207   3.721
 8963SOL    HW227789   0.390   1.061   3.755
 8964SOL     OW27790   6.850   3.148   3.146
 8964SOL    HW127791   6.756   3.153   3.113
 8964SOL    HW227792   6.850   3.125   3.244
 8965SOL     OW27793   1.773   4.970   1.617
 8965SOL    HW127794   1.789   4.876   1.646
 8965SOL    HW227795   1.822   4.988   1.532
 8966SOL     OW27796   3.760   2.084   5.032
 8966SOL    HW127797   3.807   2.036   4.958
 8966SOL    HW227798   3.662   2.088   5.012
 8967SOL     OW27799   5.032   6.552   0.961
 8967SOL    HW127800   5.043   6.625   1.028
 8967SOL    HW227801   4.991   6.472   1.004
 8968SOL     OW27802   5.171   4.220   2.916
 8968SOL    HW127803   5.269   4.211   2.897
 8968SOL    HW227804   5.119   4.180   2.841
 8969SOL     OW27805   6.383   0.382   4.493
 8969SOL    HW127806   6.306   0.437   4.525
 8969SOL    HW227807   6.469   0.424   4.524
 8970SOL     OW27808   3.088   2.058   1.487
 8970SOL    HW127809   3.109   2.154   1.470
 8970SOL    HW227810   3.173   2.005   1.482
 8971SOL     OW27811   4.209   6.295   2.817
 8971SOL    HW127812   4.112   6.309   2.797
 8971SOL    HW227813   4.235   6.202   2.789
 8972SOL     OW27814   5.077   0.229   4.880
 8972SOL    HW127815   5.049   0.133   4.878
 8972SOL    HW227816   5.146   0.245   4.809
 8973SOL     OW27817   1.869   5.071   6.687
 8973SOL    HW127818   1.909   5.080   6.596
 8973SOL    HW227819   1.769   5.072   6.680
 8974SOL     OW27820   0.646   2.787   3.728
 8974SOL    HW127821   0.731   2.782   3.782
 8974SOL    HW227822   0.630   2.700   3.683
 8975SOL     OW27823   3.693   0.675   6.426
 8975SOL    HW127824   3.718   0.621   6.345
 8975SOL    HW227825   3.596   0.698   6.421
 8976SOL     OW27826   1.530   5.333   4.037
 8976SOL    HW127827   1.598   5.336   4.111
 8976SOL    HW227828   1.568   5.282   3.960
 8977SOL     OW27829   5.601   1.360   6.619
 8977SOL    HW127830   5.689   1.325   6.651
 8977SOL    HW227831   5.532   1.289   6.629
 8978SOL     OW27832   5.856   4.628   1.083
 8978SOL    HW127833   5.861   4.608   1.181
 8978SOL    HW227834   5.846   4.543   1.032
 8979SOL     OW27835   1.131   4.443   5.033
 8979SOL    HW127836   1.139   4.394   4.946
 8979SOL    HW227837   1.068   4.394   5.093
 8980SOL     OW27838   4.017   3.160   4.434
 8980SOL    HW127839   4.064   3.241   4.398
 8980SOL    HW227840   3.982   3.106   4.357
 8981SOL     OW27841   2.698   1.735   5.180
 8981SOL    HW127842   2.769   1.796   5.144
 8981SOL    HW227843   2.664   1.772   5.267
 8982SOL     OW27844   3.480   4.270   0.657
 8982SOL    HW127845   3.384   4.247   0.666
 8982SOL    HW227846   3.525   4.263   0.746
 8983SOL     OW27847   4.852   4.718   1.092
 8983SOL    HW127848   4.825   4.746   1.000
 8983SOL    HW227849   4.773   4.683   1.141
 8984SOL     OW27850   1.537   6.721   3.823
 8984SOL    HW127851   1.552   6.773   3.907
 8984SOL    HW227852   1.452   6.751   3.780
 8985SOL     OW27853   3.023   3.487   6.168
 8985SOL    HW127854   3.013   3.469   6.070
 8985SOL    HW227855   3.105   3.542   6.184
 8986SOL     OW27856   3.524   6.462   2.585
 8986SOL    HW127857   3.589   6.441   2.512
 8986SOL    HW227858   3.574   6.497   2.664
 8987SOL     OW27859   5.424   6.413   2.066
 8987SOL    HW127860   5.518   6.441   2.082
 8987SOL    HW227861   5.366   6.494   2.052
 8988SOL     OW27862   0.808   4.759   4.825
 8988SOL    HW127863   0.838   4.852   4.801
 8988SOL    HW227864   0.888   4.699   4.828
 8989SOL     OW27865   2.750   2.624   6.622
 8989SOL    HW127866   2.808   2.554   6.580
 8989SOL    HW227867   2.668   2.636   6.567
 8990SOL     OW27868   6.964   5.128   3.145
 8990SOL    HW127869   6.979   5.222   3.176
 8990SOL    HW227870   0.021   5.100   3.085
 8991SOL     OW27871   1.566   2.173   5.255
 8991SOL    HW127872   1.647   2.142   5.205
 8991SOL    HW227873   1.590   2.254   5.309
 8992SOL     OW27874   6.964   2.266   1.593
 8992SOL    HW127875   6.943   2.184   1.646
 8992SOL    HW227876   7.016   2.242   1.512
 8993SOL     OW27877   3.955   2.156   0.664
 8993SOL    HW127878   3.903   2.157   0.749
 8993SOL    HW227879   3.927   2.077   0.609
 8994SOL     OW27880   1.590   5.494   2.541
 8994SOL    HW127881   1.524   5.419   2.548
 8994SOL    HW227882   1.665   5.478   2.605
 8995SOL     OW27883   0.526   0.274   1.449
 8995SOL    HW127884   0.575   0.190   1.472
 8995SOL    HW227885   0.434   0.251   1.415
 8996SOL     OW27886   4.101   6.418   5.690
 8996SOL    HW127887   4.198   6.392   5.681
 8996SOL    HW227888   4.051   6.344   5.733
 8997SOL     OW27889   6.261   0.299   4.897
 8997SOL    HW127890   6.294   0.246   4.819
 8997SOL    HW227891   6.180   0.254   4.935
 8998SOL     OW27892   0.079   3.647   4.269
 8998SOL    HW127893   7.017   3.621   4.213
 8998SOL    HW227894   0.111   3.567   4.320
 8999SOL     OW27895   4.155   6.739   5.954
 8999SOL    HW127896   4.154   6.811   5.885
 8999SOL    HW227897   4.071   6.684   5.946
 9000SOL     OW27898   1.608   3.975   1.101
 9000SOL    HW127899   1.589   4.032   1.181
 9000SOL    HW227900   1.543   3.898   1.099
 9001SOL     OW27901   0.899   5.742   1.075
 9001SOL    HW127902   0.989   5.699   1.076
 9001SOL    HW227903   0.885   5.789   0.988
 9002SOL     OW27904   0.459   4.773   6.141
 9002SOL    HW127905   0.538   4.713   6.151
 9002SOL    HW227906   0.458   4.812   6.049
 9003SOL     OW27907   5.471   0.076   0.786
 9003SOL    HW127908   5.454   0.174   0.795
 9003SOL    HW227909   5.547   0.061   0.723
 9004SOL     OW27910   5.538   4.757   1.551
 9004SOL    HW127911   5.517   4.740   1.455
 9004SOL    HW227912   5.637   4.765   1.563
 9005SOL     OW27913   5.536   0.687   5.482
 9005SOL    HW127914   5.629   0.651   5.485
 9005SOL    HW227915   5.501   0.682   5.388
 9006SOL     OW27916   4.063   5.596   0.485
 9006SOL    HW127917   4.157   5.607   0.452
 9006SOL    HW227918   4.003   5.662   0.440
 9007SOL     OW27919   1.376   0.955   2.973
 9007SOL    HW127920   1.446   0.900   3.018
 9007SOL    HW227921   1.418   1.035   2.930
 9008SOL     OW27922   0.326   5.760   1.993
 9008SOL    HW127923   0.364   5.851   2.008
 9008SOL    HW227924   0.342   5.703   2.073
 9009SOL     OW27925   3.720   6.532   1.853
 9009SOL    HW127926   3.644   6.469   1.870
 9009SOL    HW227927   3.691   6.602   1.786
 9010SOL     OW27928   1.618   5.746   4.639
 9010SOL    HW127929   1.586   5.829   4.686
 9010SOL    HW227930   1.567   5.667   4.672
 9011SOL     OW27931   2.232   2.187   2.224
 9011SOL    HW127932   2.231   2.287   2.228
 9011SOL    HW227933   2.242   2.157   2.130
 9012SOL     OW27934   2.246   6.161   6.688
 9012SOL    HW127935   2.285   6.120   6.606
 9012SOL    HW227936   2.257   6.099   6.765
 9013SOL     OW27937   1.953   0.204   4.688
 9013SOL    HW127938   1.856   0.222   4.672
 9013SOL    HW227939   2.004   0.220   4.604
 9014SOL     OW27940   5.605   3.169   3.834
 9014SOL    HW127941   5.569   3.150   3.743
 9014SOL    HW227942   5.554   3.117   3.902
 9015SOL     OW27943   4.549   0.329   6.234
 9015SOL    HW127944   4.588   0.417   6.208
 9015SOL    HW227945   4.461   0.317   6.189
 9016SOL     OW27946   4.707   5.391   5.696
 9016SOL    HW127947   4.790   5.357   5.740
 9016SOL    HW227948   4.637   5.319   5.698
 9017SOL     OW27949   3.661   6.802   5.250
 9017SOL    HW127950   3.655   6.722   5.191
 9017SOL    HW227951   3.703   6.776   5.337
 9018SOL     OW27952   3.572   4.569   0.299
 9018SOL    HW127953   3.509   4.564   0.377
 9018SOL    HW227954   3.641   4.497   0.309
 9019SOL     OW27955   0.587   3.302   3.766
 9019SOL    HW127956   0.686   3.296   3.776
 9019SOL    HW227957   0.563   3.386   3.717
 9020SOL     OW27958   4.907   4.381   2.764
 9020SOL    HW127959   4.844   4.400   2.838
 9020SOL    HW227960   4.941   4.288   2.772
 9021SOL     OW27961   0.310   1.292   4.267
 9021SOL    HW127962   0.255   1.252   4.340
 9021SOL    HW227963   0.326   1.389   4.286
 9022SOL     OW27964   4.134   3.878   6.313
 9022SOL    HW127965   4.065   3.915   6.250
 9022SOL    HW227966   4.223   3.875   6.266
 9023SOL     OW27967   6.753   4.719   0.201
 9023SOL    HW127968   6.808   4.769   0.268
 9023SOL    HW227969   6.659   4.753   0.204
 9024SOL     OW27970   2.201   5.534   6.582
 9024SOL    HW127971   2.286   5.576   6.613
 9024SOL    HW227972   2.211   5.506   6.486
 9025SOL     OW27973   1.073   6.002   1.342
 9025SOL    HW127974   1.050   5.928   1.405
 9025SOL    HW227975   1.110   6.079   1.394
 9026SOL     OW27976   5.198   1.282   0.884
 9026SOL    HW127977   5.181   1.365   0.938
 9026SOL    HW227978   5.215   1.205   0.945
 9027SOL     OW27979   0.906   4.133   3.556
 9027SOL    HW127980   0.954   4.096   3.635
 9027SOL    HW227981   0.947   4.098   3.472
 9028SOL     OW27982   3.258   4.801   6.439
 9028SOL    HW127983   3.350   4.767   6.421
 9028SOL    HW227984   3.250   4.827   6.536
 9029SOL     OW27985   4.206   6.819   4.023
 9029SOL    HW127986   4.264   6.894   3.990
 9029SOL    HW227987   4.254   6.732   4.012
 9030SOL     OW27988   3.275   2.076   2.221
 9030SOL    HW127989   3.338   2.085   2.143
 9030SOL    HW227990   3.181   2.085   2.188
 9031SOL     OW27991   4.738   6.761   4.497
 9031SOL    HW127992   4.727   6.750   4.596
 9031SOL    HW227993   4.696   6.847   4.468
 9032SOL     OW27994   5.448   2.331   1.803
 9032SOL    HW127995   5.358   2.323   1.762
 9032SOL    HW227996   5.448   2.285   1.893
 9033SOL     OW27997   0.562   6.632   3.086
 9033SOL    HW127998   0.637   6.629   3.020
 9033SOL    HW227999   0.550   6.541   3.127
 9034SOL     OW28000   4.679   0.072   4.205
 9034SOL    HW128001   4.590   0.104   4.172
 9034SOL    HW228002   4.668   0.036   4.298
 9035SOL     OW28003   2.950   5.583   6.545
 9035SOL    HW128004   2.929   5.485   6.539
 9035SOL    HW228005   2.865   5.634   6.558
 9036SOL     OW28006   0.985   4.310   5.274
 9036SOL    HW128007   0.960   4.228   5.325
 9036SOL    HW228008   0.908   4.373   5.272
 9037SOL     OW28009   6.880   0.855   2.380
 9037SOL    HW128010   6.874   0.821   2.286
 9037SOL    HW228011   6.789   0.856   2.421
 9038SOL     OW28012   3.960   3.616   5.577
 9038SOL    HW128013   3.945   3.548   5.505
 9038SOL    HW228014   3.976   3.706   5.536
 9039SOL     OW28015   4.414   6.594   6.304
 9039SOL    HW128016   4.384   6.555   6.391
 9039SOL    HW228017   4.481   6.667   6.321
 9040SOL     OW28018   1.742   2.239   1.740
 9040SOL    HW128019   1.840   2.249   1.724
 9040SOL    HW228020   1.726   2.232   1.839
 9041SOL     OW28021   6.196   2.005   3.161
 9041SOL    HW128022   6.109   1.984   3.117
 9041SOL    HW228023   6.254   2.056   3.097
 9042SOL     OW28024   4.384   5.595   0.453
 9042SOL    HW128025   4.462   5.629   0.506
 9042SOL    HW228026   4.395   5.622   0.357
 9043SOL     OW28027   2.709   2.598   1.235
 9043SOL    HW128028   2.649   2.562   1.163
 9043SOL    HW228029   2.731   2.526   1.300
 9044SOL     OW28030   0.979   0.829   0.347
 9044SOL    HW128031   0.942   0.908   0.395
 9044SOL    HW228032   0.904   0.776   0.307
 9045SOL     OW28033   4.224   0.952   3.461
 9045SOL    HW128034   4.223   0.906   3.549
 9045SOL    HW228035   4.147   1.016   3.456
 9046SOL     OW28036   3.472   2.964   1.952
 9046SOL    HW128037   3.542   3.020   1.908
 9046SOL    HW228038   3.514   2.883   1.992
 9047SOL     OW28039   1.410   4.539   6.269
 9047SOL    HW128040   1.375   4.597   6.197
 9047SOL    HW228041   1.430   4.448   6.232
 9048SOL     OW28042   6.838   1.495   5.757
 9048SOL    HW128043   6.906   1.505   5.684
 9048SOL    HW228044   6.799   1.403   5.753
 9049SOL     OW28045   2.254   6.672   5.365
 9049SOL    HW128046   2.273   6.692   5.269
 9049SOL    HW228047   2.259   6.757   5.418
 9050SOL     OW28048   0.773   4.415   0.496
 9050SOL    HW128049   0.838   4.405   0.571
 9050SOL    HW228050   0.800   4.492   0.439
 9051SOL     OW28051   2.185   1.199   1.936
 9051SOL    HW128052   2.203   1.237   2.027
 9051SOL    HW228053   2.126   1.119   1.945
 9052SOL     OW28054   1.895   3.204   6.341
 9052SOL    HW128055   1.954   3.252   6.277
 9052SOL    HW228056   1.909   3.239   6.433
 9053SOL     OW28057   1.143   0.626   6.661
 9053SOL    HW128058   1.230   0.604   6.616
 9053SOL    HW228059   1.089   0.684   6.600
 9054SOL     OW28060   1.687   5.729   3.043
 9054SOL    HW128061   1.605   5.781   3.019
 9054SOL    HW228062   1.667   5.631   3.036
 9055SOL     OW28063   0.405   2.842   5.560
 9055SOL    HW128064   0.375   2.794   5.643
 9055SOL    HW228065   0.468   2.784   5.509
 9056SOL     OW28066   6.222   2.493   3.951
 9056SOL    HW128067   6.194   2.399   3.970
 9056SOL    HW228068   6.151   2.540   3.899
 9057SOL     OW28069   4.680   2.013   4.000
 9057SOL    HW128070   4.587   2.049   3.987
 9057SOL    HW228071   4.730   2.073   4.062
 9058SOL     OW28072   2.604   0.487   5.841
 9058SOL    HW128073   2.548   0.546   5.899
 9058SOL    HW228074   2.587   0.391   5.865
 9059SOL     OW28075   1.296   2.157   3.303
 9059SOL    HW128076   1.299   2.116   3.394
 9059SOL    HW228077   1.225   2.227   3.300
 9060SOL     OW28078   4.775   3.310   5.241
 9060SOL    HW128079   4.733   3.400   5.246
 9060SOL    HW228080   4.837   3.306   5.162
 9061SOL     OW28081   2.016   5.018   2.805
 9061SOL    HW128082   2.064   5.094   2.763
 9061SOL    HW228083   1.918   5.027   2.789
 9062SOL     OW28084   1.767   6.253   1.617
 9062SOL    HW128085   1.771   6.181   1.686
 9062SOL    HW228086   1.858   6.268   1.579
 9063SOL     OW28087   2.838   1.903   2.196
 9063SOL    HW128088   2.904   1.955   2.142
 9063SOL    HW228089   2.772   1.966   2.237
 9064SOL     OW28090   5.394   4.089   6.987
 9064SOL    HW128091   5.364   3.999   6.956
 9064SOL    HW228092   5.391   4.093   0.069
 9065SOL     OW28093   3.188   0.910   1.145
 9065SOL    HW128094   3.117   0.886   1.079
 9065SOL    HW228095   3.273   0.864   1.120
 9066SOL     OW28096   5.264   6.848   6.875
 9066SOL    HW128097   5.286   6.775   6.940
 9066SOL    HW228098   5.206   6.916   6.921
 9067SOL     OW28099   1.531   0.547   1.813
 9067SOL    HW128100   1.437   0.557   1.846
 9067SOL    HW228101   1.570   0.464   1.853
 9068SOL     OW28102   1.695   6.024   6.787
 9068SOL    HW128103   1.787   6.057   6.808
 9068SOL    HW228104   1.627   6.086   6.826
 9069SOL     OW28105   1.354   2.171   6.075
 9069SOL    HW128106   1.339   2.270   6.083
 9069SOL    HW228107   1.360   2.146   5.979
 9070SOL     OW28108   1.333   4.616   3.887
 9070SOL    HW128109   1.358   4.680   3.814
 9070SOL    HW228110   1.331   4.665   3.975
 9071SOL     OW28111   4.956   6.021   0.327
 9071SOL    HW128112   5.034   6.033   0.265
 9071SOL    HW228113   4.874   6.057   0.283
 9072SOL     OW28114   4.981   4.647   0.335
 9072SOL    HW128115   4.947   4.740   0.349
 9072SOL    HW228116   5.003   4.606   0.424
 9073SOL     OW28117   2.377   0.709   0.882
 9073SOL    HW128118   2.350   0.803   0.902
 9073SOL    HW228119   2.353   0.650   0.960
 9074SOL     OW28120   0.385   0.506   2.266
 9074SOL    HW128121   0.435   0.568   2.327
 9074SOL    HW228122   0.415   0.412   2.282
 9075SOL     OW28123   0.028   0.320   1.593
 9075SOL    HW128124   0.027   0.223   1.570
 9075SOL    HW228125   0.064   0.373   1.516
 9076SOL     OW28126   1.163   1.940   4.902
 9076SOL    HW128127   1.252   1.985   4.907
 9076SOL    HW228128   1.161   1.879   4.822
 9077SOL     OW28129   5.809   6.387   1.801
 9077SOL    HW128130   5.734   6.343   1.850
 9077SOL    HW228131   5.877   6.419   1.867
 9078SOL     OW28132   4.553   2.904   5.588
 9078SOL    HW128133   4.537   2.997   5.622
 9078SOL    HW228134   4.529   2.900   5.491
 9079SOL     OW28135   3.600   0.578   5.430
 9079SOL    HW128136   3.649   0.516   5.368
 9079SOL    HW228137   3.507   0.592   5.396
 9080SOL     OW28138   4.625   1.292   6.705
 9080SOL    HW128139   4.700   1.282   6.770
 9080SOL    HW228140   4.589   1.386   6.711
 9081SOL     OW28141   5.460   6.784   3.396
 9081SOL    HW128142   5.449   6.705   3.335
 9081SOL    HW228143   5.484   6.865   3.342
 9082SOL     OW28144   2.663   0.506   2.541
 9082SOL    HW128145   2.717   0.426   2.514
 9082SOL    HW228146   2.627   0.551   2.459
 9083SOL     OW28147   4.666   4.524   3.881
 9083SOL    HW128148   4.761   4.554   3.871
 9083SOL    HW228149   4.663   4.443   3.941
 9084SOL     OW28150   4.043   3.754   2.643
 9084SOL    HW128151   4.027   3.763   2.545
 9084SOL    HW228152   4.071   3.660   2.663
 9085SOL     OW28153   0.826   2.937   0.556
 9085SOL    HW128154   0.839   2.904   0.649
 9085SOL    HW228155   0.818   2.859   0.494
 9086SOL     OW28156   6.843   3.544   6.922
 9086SOL    HW128157   6.838   3.553   6.823
 9086SOL    HW228158   6.924   3.491   6.947
 9087SOL     OW28159   5.303   3.247   2.563
 9087SOL    HW128160   5.210   3.211   2.557
 9087SOL    HW228161   5.339   3.260   2.471
 9088SOL     OW28162   5.690   5.665   1.560
 9088SOL    HW128163   5.633   5.594   1.601
 9088SOL    HW228164   5.679   5.663   1.460
 9089SOL     OW28165   4.067   0.950   5.485
 9089SOL    HW128166   4.066   1.012   5.564
 9089SOL    HW228167   4.017   0.992   5.410
 9090SOL     OW28168   6.016   1.717   3.314
 9090SOL    HW128169   6.008   1.714   3.414
 9090SOL    HW228170   5.932   1.754   3.275
 9091SOL     OW28171   3.816   2.881   5.895
 9091SOL    HW128172   3.840   2.822   5.971
 9091SOL    HW228173   3.717   2.892   5.891
 9092SOL     OW28174   6.962   3.382   6.299
 9092SOL    HW128175   6.938   3.464   6.350
 9092SOL    HW228176   0.011   3.328   6.352
 9093SOL     OW28177   1.840   6.634   4.914
 9093SOL    HW128178   1.921   6.686   4.941
 9093SOL    HW228179   1.868   6.556   4.858
 9094SOL     OW28180   1.533   3.627   0.882
 9094SOL    HW128181   1.434   3.614   0.896
 9094SOL    HW228182   1.550   3.657   0.789
 9095SOL     OW28183   0.151   6.782   6.243
 9095SOL    HW128184   0.134   6.837   6.161
 9095SOL    HW228185   0.095   6.817   6.319
 9096SOL     OW28186   5.925   5.110   3.904
 9096SOL    HW128187   5.914   5.208   3.920
 9096SOL    HW228188   6.020   5.085   3.922
 9097SOL     OW28189   1.327   2.591   6.054
 9097SOL    HW128190   1.283   2.604   6.142
 9097SOL    HW228191   1.345   2.680   6.012
 9098SOL     OW28192   2.354   4.535   3.829
 9098SOL    HW128193   2.289   4.601   3.791
 9098SOL    HW228194   2.306   4.473   3.890
 9099SOL     OW28195   2.564   1.488   6.872
 9099SOL    HW128196   2.481   1.538   6.895
 9099SOL    HW228197   2.571   1.406   6.929
 9100SOL     OW28198   1.821   4.938   4.131
 9100SOL    HW128199   1.891   4.978   4.190
 9100SOL    HW228200   1.755   4.887   4.186
 9101SOL     OW28201   0.299   2.252   0.385
 9101SOL    HW128202   0.236   2.268   0.308
 9101SOL    HW228203   0.333   2.340   0.419
 9102SOL     OW28204   3.932   1.304   3.099
 9102SOL    HW128205   4.024   1.283   3.132
 9102SOL    HW228206   3.871   1.228   3.120
 9103SOL     OW28207   6.369   0.624   1.497
 9103SOL    HW128208   6.419   0.626   1.584
 9103SOL    HW228209   6.425   0.583   1.426
 9104SOL     OW28210   6.277   2.106   6.174
 9104SOL    HW128211   6.284   2.203   6.150
 9104SOL    HW228212   6.183   2.074   6.158
 9105SOL     OW28213   3.031   0.662   6.426
 9105SOL    HW128214   2.971   0.582   6.417
 9105SOL    HW228215   3.125   0.631   6.441
 9106SOL     OW28216   2.375   3.155   6.406
 9106SOL    HW128217   2.341   3.163   6.313
 9106SOL    HW228218   2.329   3.222   6.464
 9107SOL     OW28219   3.288   1.048   0.822
 9107SOL    HW128220   3.329   0.972   0.870
 9107SOL    HW228221   3.338   1.065   0.737
 9108SOL     OW28222   6.692   5.852   5.736
 9108SOL    HW128223   6.737   5.936   5.704
 9108SOL    HW228224   6.605   5.874   5.779
 9109SOL     OW28225   5.641   4.206   2.468
 9109SOL    HW128226   5.622   4.167   2.378
 9109SOL    HW228227   5.593   4.293   2.478
 9110SOL     OW28228   0.997   6.570   2.884
 9110SOL    HW128229   1.088   6.528   2.892
 9110SOL    HW228230   0.980   6.627   2.964
 9111SOL     OW28231   3.726   2.375   5.373
 9111SOL    HW128232   3.725   2.452   5.310
 9111SOL    HW228233   3.633   2.343   5.389
 9112SOL     OW28234   0.426   5.206   2.486
 9112SOL    HW128235   0.525   5.218   2.480
 9112SOL    HW228236   0.401   5.115   2.453
 9113SOL     OW28237   6.137   0.407   4.614
 9113SOL    HW128238   6.119   0.505   4.604
 9113SOL    HW228239   6.067   0.356   4.565
 9114SOL     OW28240   1.298   0.653   6.239
 9114SOL    HW128241   1.307   0.586   6.313
 9114SOL    HW228242   1.202   0.680   6.230
 9115SOL     OW28243   5.233   4.122   5.290
 9115SOL    HW128244   5.158   4.063   5.260
 9115SOL    HW228245   5.301   4.129   5.218
 9116SOL     OW28246   0.842   6.810   3.858
 9116SOL    HW128247   0.914   6.743   3.876
 9116SOL    HW228248   0.822   6.861   3.942
 9117SOL     OW28249   1.662   6.681   0.173
 9117SOL    HW128250   1.729   6.611   0.149
 9117SOL    HW228251   1.604   6.700   0.094
 9118SOL     OW28252   6.612   4.388   1.556
 9118SOL    HW128253   6.519   4.406   1.526
 9118SOL    HW228254   6.675   4.453   1.515
 9119SOL     OW28255   3.630   0.970   1.128
 9119SOL    HW128256   3.597   1.058   1.163
 9119SOL    HW228257   3.711   0.942   1.180
 9120SOL     OW28258   6.617   4.010   4.638
 9120SOL    HW128259   6.521   3.997   4.614
 9120SOL    HW228260   6.638   3.960   4.722
 9121SOL     OW28261   4.066   0.766   4.248
 9121SOL    HW128262   3.995   0.790   4.182
 9121SOL    HW228263   4.047   0.811   4.336
 9122SOL     OW28264   0.255   1.970   2.212
 9122SOL    HW128265   0.210   2.044   2.162
 9122SOL    HW228266   0.258   1.888   2.155
 9123SOL     OW28267   0.711   6.232   4.596
 9123SOL    HW128268   0.630   6.190   4.553
 9123SOL    HW228269   0.682   6.297   4.666
 9124SOL     OW28270   4.246   5.770   0.616
 9124SOL    HW128271   4.338   5.791   0.649
 9124SOL    HW228272   4.238   5.672   0.597
 9125SOL     OW28273   5.241   6.686   1.460
 9125SOL    HW128274   5.273   6.632   1.538
 9125SOL    HW228275   5.145   6.711   1.474
 9126SOL     OW28276   4.097   4.785   0.908
 9126SOL    HW128277   4.038   4.856   0.946
 9126SOL    HW228278   4.184   4.826   0.880
 9127SOL     OW28279   6.067   4.295   5.165
 9127SOL    HW128280   6.006   4.218   5.182
 9127SOL    HW228281   6.113   4.321   5.250
 9128SOL     OW28282   5.808   3.784   6.208
 9128SOL    HW128283   5.777   3.804   6.301
 9128SOL    HW228284   5.729   3.767   6.149
 9129SOL     OW28285   6.940   2.696   0.870
 9129SOL    HW128286   6.898   2.772   0.820
 9129SOL    HW228287   0.021   2.701   0.863
 9130SOL     OW28288   3.161   3.392   5.679
 9130SOL    HW128289   3.250   3.357   5.710
 9130SOL    HW228290   3.169   3.425   5.585
 9131SOL     OW28291   5.915   2.570   0.625
 9131SOL    HW128292   5.816   2.562   0.613
 9131SOL    HW228293   5.935   2.632   0.701
 9132SOL     OW28294   1.301   4.157   3.631
 9132SOL    HW128295   1.264   4.187   3.543
 9132SOL    HW228296   1.364   4.081   3.616
 9133SOL     OW28297   5.069   0.257   0.934
 9133SOL    HW128298   5.079   0.288   0.839
 9133SOL    HW228299   5.063   0.158   0.936
 9134SOL     OW28300   4.789   4.728   6.898
 9134SOL    HW128301   4.869   4.788   6.888
 9134SOL    HW228302   4.710   4.771   6.856
 9135SOL     OW28303   6.431   5.550   2.311
 9135SOL    HW128304   6.387   5.512   2.230
 9135SOL    HW228305   6.528   5.565   2.294
 9136SOL     OW28306   0.925   5.350   6.915
 9136SOL    HW128307   0.975   5.422   6.867
 9136SOL    HW228308   0.925   5.369   7.013
 9137SOL     OW28309   5.376   5.426   5.823
 9137SOL    HW128310   5.414   5.440   5.914
 9137SOL    HW228311   5.280   5.399   5.831
 9138SOL     OW28312   1.815   4.389   6.742
 9138SOL    HW128313   1.753   4.439   6.681
 9138SOL    HW228314   1.763   4.317   6.789
 9139SOL     OW28315   0.298   0.161   1.355
 9139SOL    HW128316   0.247   0.081   1.322
 9139SOL    HW228317   0.256   0.244   1.319
 9140SOL     OW28318   1.656   4.339   2.281
 9140SOL    HW128319   1.558   4.345   2.302
 9140SOL    HW228320   1.668   4.305   2.188
 9141SOL     OW28321   0.469   5.825   4.624
 9141SOL    HW128322   0.474   5.901   4.688
 9141SOL    HW228323   0.496   5.855   4.533
 9142SOL     OW28324   1.460   4.718   3.648
 9142SOL    HW128325   1.426   4.669   3.568
 9142SOL    HW228326   1.520   4.659   3.701
 9143SOL     OW28327   6.185   3.543   2.742
 9143SOL    HW128328   6.282   3.521   2.752
 9143SOL    HW228329   6.173   3.608   2.667
 9144SOL     OW28330   2.809   4.411   5.561
 9144SOL    HW128331   2.712   4.417   5.583
 9144SOL    HW228332   2.837   4.490   5.506
 9145SOL     OW28333   2.483   6.216   6.262
 9145SOL    HW128334   2.502   6.149   6.191
 9145SOL    HW228335   2.505   6.308   6.228
 9146SOL     OW28336   6.347   2.122   4.613
 9146SOL    HW128337   6.283   2.123   4.537
 9146SOL    HW228338   6.437   2.152   4.582
 9147SOL     OW28339   4.209   0.612   6.187
 9147SOL    HW128340   4.133   0.675   6.171
 9147SOL    HW228341   4.294   0.654   6.156
 9148SOL     OW28342   4.101   5.609   2.317
 9148SOL    HW128343   4.139   5.632   2.227
 9148SOL    HW228344   4.144   5.667   2.387
 9149SOL     OW28345   0.380   4.361   1.370
 9149SOL    HW128346   0.374   4.270   1.411
 9149SOL    HW228347   0.361   4.354   1.272
 9150SOL     OW28348   3.074   4.164   0.025
 9150SOL    HW128349   3.067   4.067   0.045
 9150SOL    HW228350   3.000   4.191   6.981
 9151SOL     OW28351   2.188   2.999   3.675
 9151SOL    HW128352   2.093   2.975   3.653
 9151SOL    HW228353   2.223   3.062   3.607
 9152SOL     OW28354   1.985   5.009   2.019
 9152SOL    HW128355   1.934   5.073   1.961
 9152SOL    HW228356   1.940   5.002   2.108
 9153SOL     OW28357   0.224   3.659   0.210
 9153SOL    HW128358   0.278   3.577   0.194
 9153SOL    HW228359   0.127   3.640   0.193
 9154SOL     OW28360   4.392   5.470   3.350
 9154SOL    HW128361   4.381   5.512   3.261
 9154SOL    HW228362   4.308   5.483   3.404
 9155SOL     OW28363   1.190   6.086   2.500
 9155SOL    HW128364   1.106   6.104   2.447
 9155SOL    HW228365   1.266   6.072   2.437
 9156SOL     OW28366   6.921   4.148   5.563
 9156SOL    HW128367   6.854   4.075   5.578
 9156SOL    HW228368   6.903   4.190   5.474
 9157SOL     OW28369   1.961   4.452   5.261
 9157SOL    HW128370   1.937   4.356   5.276
 9157SOL    HW228371   1.922   4.484   5.175
 9158SOL     OW28372   0.070   3.200   4.712
 9158SOL    HW128373   0.106   3.190   4.804
 9158SOL    HW228374   0.067   3.111   4.667
 9159SOL     OW28375   2.033   1.139   3.922
 9159SOL    HW128376   2.074   1.104   3.837
 9159SOL    HW228377   1.944   1.094   3.936
 9160SOL     OW28378   0.477   3.576   6.203
 9160SOL    HW128379   0.409   3.641   6.235
 9160SOL    HW228380   0.517   3.609   6.118
 9161SOL     OW28381   5.490   2.881   2.923
 9161SOL    HW128382   5.410   2.824   2.943
 9161SOL    HW228383   5.533   2.850   2.838
 9162SOL     OW28384   4.460   1.965   2.112
 9162SOL    HW128385   4.430   2.044   2.058
 9162SOL    HW228386   4.398   1.888   2.095
 9163SOL     OW28387   1.887   3.365   3.356
 9163SOL    HW128388   1.869   3.372   3.258
 9163SOL    HW228389   1.978   3.400   3.377
 9164SOL     OW28390   3.166   0.019   0.804
 9164SOL    HW128391   3.221   0.085   0.856
 9164SOL    HW228392   3.077   0.008   0.849
 9165SOL     OW28393   5.818   0.961   6.544
 9165SOL    HW128394   5.772   0.921   6.465
 9165SOL    HW228395   5.854   1.051   6.520
 9166SOL     OW28396   4.115   6.211   1.692
 9166SOL    HW128397   4.162   6.227   1.606
 9166SOL    HW228398   4.101   6.299   1.739
 9167SOL     OW28399   1.246   1.859   4.508
 9167SOL    HW128400   1.218   1.812   4.425
 9167SOL    HW228401   1.191   1.826   4.585
 9168SOL     OW28402   6.464   6.163   5.023
 9168SOL    HW128403   6.381   6.160   5.079
 9168SOL    HW228404   6.449   6.221   4.943
 9169SOL     OW28405   6.150   5.833   7.009
 9169SOL    HW128406   6.083   5.838   0.065
 9169SOL    HW228407   6.116   5.882   6.929
 9170SOL     OW28408   2.227   1.091   5.922
 9170SOL    HW128409   2.253   1.168   5.865
 9170SOL    HW228410   2.152   1.117   5.982
 9171SOL     OW28411   4.380   5.315   0.386
 9171SOL    HW128412   4.285   5.286   0.399
 9171SOL    HW228413   4.391   5.407   0.424
 9172SOL     OW28414   4.645   1.429   5.638
 9172SOL    HW128415   4.573   1.498   5.653
 9172SOL    HW228416   4.663   1.420   5.541
 9173SOL     OW28417   5.946   4.067   5.267
 9173SOL    HW128418   5.913   4.101   5.356
 9173SOL    HW228419   6.046   4.065   5.267
 9174SOL     OW28420   5.818   4.364   6.955
 9174SOL    HW128421   5.761   4.323   0.008
 9174SOL    HW228422   5.850   4.294   6.892
 9175SOL     OW28423   2.309   1.316   1.740
 9175SOL    HW128424   2.368   1.259   1.683
 9175SOL    HW228425   2.263   1.258   1.808
 9176SOL     OW28426   1.567   0.767   2.291
 9176SOL    HW128427   1.661   0.755   2.323
 9176SOL    HW228428   1.538   0.685   2.242
 9177SOL     OW28429   0.496   5.726   3.529
 9177SOL    HW128430   0.587   5.726   3.571
 9177SOL    HW228431   0.471   5.633   3.502
 9178SOL     OW28432   1.382   3.326   1.035
 9178SOL    HW128433   1.335   3.414   1.038
 9178SOL    HW228434   1.472   3.338   0.992
 9179SOL     OW28435   4.047   5.019   3.108
 9179SOL    HW128436   3.969   5.055   3.057
 9179SOL    HW228437   4.115   4.982   3.044
 9180SOL     OW28438   0.522   0.843   4.754
 9180SOL    HW128439   0.459   0.775   4.792
 9180SOL    HW228440   0.477   0.892   4.679
 9181SOL     OW28441   2.541   1.950   3.390
 9181SOL    HW128442   2.633   1.984   3.409
 9181SOL    HW228443   2.528   1.942   3.291
 9182SOL     OW28444   6.625   1.955   2.658
 9182SOL    HW128445   6.724   1.963   2.666
 9182SOL    HW228446   6.593   2.007   2.579
 9183SOL     OW28447   2.352   1.519   5.398
 9183SOL    HW128448   2.331   1.593   5.462
 9183SOL    HW228449   2.349   1.554   5.304
 9184SOL     OW28450   2.978   5.326   1.579
 9184SOL    HW128451   2.960   5.362   1.488
 9184SOL    HW228452   3.030   5.241   1.573
 9185SOL     OW28453   1.004   1.065   5.324
 9185SOL    HW128454   1.053   1.027   5.245
 9185SOL    HW228455   1.070   1.095   5.392
 9186SOL     OW28456   5.488   6.555   6.143
 9186SOL    HW128457   5.556   6.598   6.083
 9186SOL    HW228458   5.521   6.466   6.173
 9187SOL     OW28459   5.255   3.029   1.032
 9187SOL    HW128460   5.236   3.065   0.941
 9187SOL    HW228461   5.185   3.060   1.096
 9188SOL     OW28462   1.221   0.550   2.402
 9188SOL    HW128463   1.138   0.505   2.371
 9188SOL    HW228464   1.239   0.631   2.345
 9189SOL     OW28465   2.898   0.987   6.114
 9189SOL    HW128466   2.988   1.030   6.122
 9189SOL    HW228467   2.909   0.889   6.098
 9190SOL     OW28468   3.795   0.911   5.761
 9190SOL    HW128469   3.881   0.862   5.775
 9190SOL    HW228470   3.751   0.878   5.677
 9191SOL     OW28471   5.852   0.073   1.260
 9191SOL    HW128472   5.755   0.090   1.242
 9191SOL    HW228473   5.868   0.071   1.359
 9192SOL     OW28474   5.260   4.353   4.707
 9192SOL    HW128475   5.264   4.257   4.734
 9192SOL    HW228476   5.190   4.365   4.637
 9193SOL     OW28477   4.111   3.486   2.688
 9193SOL    HW128478   4.029   3.432   2.704
 9193SOL    HW228479   4.158   3.453   2.606
 9194SOL     OW28480   3.411   4.904   3.082
 9194SOL    HW128481   3.449   4.814   3.062
 9194SOL    HW228482   3.356   4.936   3.005
 9195SOL     OW28483   0.852   3.300   3.722
 9195SOL    HW128484   0.910   3.236   3.671
 9195SOL    HW228485   0.904   3.381   3.746
 9196SOL     OW28486   5.419   5.402   3.147
 9196SOL    HW128487   5.324   5.379   3.129
 9196SOL    HW228488   5.466   5.323   3.185
 9197SOL     OW28489   4.589   2.125   0.113
 9197SOL    HW128490   4.562   2.052   0.176
 9197SOL    HW228491   4.528   2.203   0.124
 9198SOL     OW28492   6.269   3.139   5.147
 9198SOL    HW128493   6.231   3.208   5.209
 9198SOL    HW228494   6.365   3.159   5.129
 9199SOL     OW28495   0.823   3.915   6.730
 9199SOL    HW128496   0.733   3.908   6.686
 9199SOL    HW228497   0.812   3.948   6.824
 9200SOL     OW28498   4.801   6.113   1.905
 9200SOL    HW128499   4.710   6.078   1.929
 9200SOL    HW228500   4.820   6.195   1.958
 9201SOL     OW28501   0.214   2.966   2.486
 9201SOL    HW128502   0.174   2.946   2.397
 9201SOL    HW228503   0.305   3.005   2.473
 9202SOL     OW28504   1.791   6.393   3.962
 9202SOL    HW128505   1.693   6.393   3.978
 9202SOL    HW228506   1.809   6.420   3.867
 9203SOL     OW28507   5.411   1.976   1.174
 9203SOL    HW128508   5.375   1.961   1.267
 9203SOL    HW228509   5.343   1.946   1.107
 9204SOL     OW28510   5.018   4.290   2.371
 9204SOL    HW128511   5.074   4.230   2.314
 9204SOL    HW228512   4.943   4.238   2.410
 9205SOL     OW28513   4.323   2.152   1.519
 9205SOL    HW128514   4.324   2.166   1.618
 9205SOL    HW228515   4.237   2.187   1.481
 9206SOL     OW28516   0.027   6.089   5.337
 9206SOL    HW128517   7.014   6.124   5.249
 9206SOL    HW228518   0.036   5.990   5.333
 9207SOL     OW28519   5.251   6.168   0.206
 9207SOL    HW128520   5.256   6.260   0.246
 9207SOL    HW228521   5.289   6.102   0.270
 9208SOL     OW28522   5.241   4.541   1.823
 9208SOL    HW128523   5.329   4.572   1.787
 9208SOL    HW228524   5.171   4.609   1.801
 9209SOL     OW28525   4.736   0.442   4.370
 9209SOL    HW128526   4.773   0.533   4.353
 9209SOL    HW228527   4.810   0.376   4.377
 9210SOL     OW28528   1.049   6.891   6.855
 9210SOL    HW128529   1.125   6.842   6.812
 9210SOL    HW228530   1.070   6.906   6.952
 9211SOL     OW28531   5.020   1.664   6.458
 9211SOL    HW128532   5.027   1.729   6.534
 9211SOL    HW228533   5.092   1.684   6.391
 9212SOL     OW28534   6.040   3.465   6.356
 9212SOL    HW128535   6.038   3.378   6.307
 9212SOL    HW228536   5.965   3.467   6.422
 9213SOL     OW28537   6.761   5.836   2.277
 9213SOL    HW128538   6.748   5.877   2.367
 9213SOL    HW228539   6.732   5.741   2.279
 9214SOL     OW28540   2.271   1.411   6.443
 9214SOL    HW128541   2.321   1.366   6.517
 9214SOL    HW228542   2.181   1.368   6.433
 9215SOL     OW28543   0.196   4.195   3.503
 9215SOL    HW128544   0.268   4.242   3.451
 9215SOL    HW228545   0.148   4.131   3.442
 9216SOL     OW28546   2.152   6.790   3.866
 9216SOL    HW128547   2.223   6.839   3.814
 9216SOL    HW228548   2.177   6.693   3.871
 9217SOL     OW28549   3.371   2.518   7.015
 9217SOL    HW128550   3.369   2.592   0.065
 9217SOL    HW228551   3.296   2.454   0.016
 9218SOL     OW28552   4.352   5.990   5.588
 9218SOL    HW128553   4.337   5.964   5.683
 9218SOL    HW228554   4.449   5.980   5.566
 9219SOL     OW28555   3.588   2.677   6.251
 9219SOL    HW128556   3.509   2.699   6.307
 9219SOL    HW228557   3.571   2.594   6.199
 9220SOL     OW28558   0.911   0.183   3.689
 9220SOL    HW128559   0.813   0.199   3.704
 9220SOL    HW228560   0.940   0.233   3.607
 9221SOL     OW28561   2.644   1.504   1.998
 9221SOL    HW128562   2.636   1.412   2.037
 9221SOL    HW228563   2.724   1.507   1.938
 9222SOL     OW28564   2.110   5.915   3.443
 9222SOL    HW128565   2.130   6.011   3.426
 9222SOL    HW228566   2.135   5.861   3.363
 9223SOL     OW28567   6.198   2.477   4.483
 9223SOL    HW128568   6.107   2.437   4.474
 9223SOL    HW228569   6.229   2.468   4.578
 9224SOL     OW28570   1.751   5.177   2.524
 9224SOL    HW128571   1.660   5.163   2.486
 9224SOL    HW228572   1.791   5.260   2.484
 9225SOL     OW28573   0.407   5.328   5.907
 9225SOL    HW128574   0.506   5.317   5.922
 9225SOL    HW228575   0.381   5.277   5.825
 9226SOL     OW28576   0.888   0.133   4.676
 9226SOL    HW128577   0.834   0.215   4.697
 9226SOL    HW228578   0.860   0.098   4.586
 9227SOL     OW28579   3.882   3.716   0.084
 9227SOL    HW128580   3.874   3.726   7.003
 9227SOL    HW228581   3.943   3.640   0.106
 9228SOL     OW28582   3.789   3.367   5.205
 9228SOL    HW128583   3.719   3.434   5.230
 9228SOL    HW228584   3.746   3.292   5.155
 9229SOL     OW28585   0.285   5.121   0.707
 9229SOL    HW128586   0.217   5.111   0.780
 9229SOL    HW228587   0.293   5.035   0.656
 9230SOL     OW28588   3.697   0.047   6.226
 9230SOL    HW128589   3.607   0.030   6.266
 9230SOL    HW228590   3.689   0.053   6.127
 9231SOL     OW28591   5.794   6.552   1.373
 9231SOL    HW128592   5.835   6.535   1.463
 9231SOL    HW228593   5.710   6.604   1.384
 9232SOL     OW28594   1.124   5.146   2.043
 9232SOL    HW128595   1.065   5.167   1.965
 9232SOL    HW228596   1.212   5.111   2.010
 9233SOL     OW28597   1.179   0.308   5.757
 9233SOL    HW128598   1.161   0.370   5.833
 9233SOL    HW228599   1.105   0.314   5.689
 9234SOL     OW28600   3.512   4.349   6.229
 9234SOL    HW128601   3.603   4.390   6.241
 9234SOL    HW228602   3.454   4.377   6.305
 9235SOL     OW28603   2.447   2.127   2.926
 9235SOL    HW128604   2.479   2.159   3.014
 9235SOL    HW228605   2.505   2.164   2.853
 9236SOL     OW28606   2.122   3.782   6.662
 9236SOL    HW128607   2.129   3.881   6.673
 9236SOL    HW228608   2.029   3.758   6.633
 9237SOL     OW28609   6.529   5.476   3.795
 9237SOL    HW128610   6.580   5.410   3.739
 9237SOL    HW228611   6.589   5.512   3.867
 9238SOL     OW28612   1.298   2.477   5.192
 9238SOL    HW128613   1.352   2.489   5.276
 9238SOL    HW228614   1.357   2.446   5.118
 9239SOL     OW28615   1.640   5.449   6.263
 9239SOL    HW128616   1.650   5.504   6.346
 9239SOL    HW228617   1.580   5.371   6.281
 9240SOL     OW28618   3.670   1.518   4.932
 9240SOL    HW128619   3.703   1.606   4.965
 9240SOL    HW228620   3.574   1.526   4.905
 9241SOL     OW28621   5.626   6.175   0.032
 9241SOL    HW128622   5.612   6.236   6.972
 9241SOL    HW228623   5.703   6.207   0.086
 9242SOL     OW28624   2.510   2.511   0.291
 9242SOL    HW128625   2.604   2.539   0.311
 9242SOL    HW228626   2.448   2.553   0.358
 9243SOL     OW28627   2.351   0.393   0.364
 9243SOL    HW128628   2.396   0.406   0.276
 9243SOL    HW228629   2.372   0.302   0.399
 9244SOL     OW28630   2.803   6.447   6.927
 9244SOL    HW128631   2.797   6.546   6.920
 9244SOL    HW228632   2.793   6.420   0.005
 9245SOL     OW28633   0.463   4.570   2.985
 9245SOL    HW128634   0.367   4.595   2.991
 9245SOL    HW228635   0.471   4.479   2.945
 9246SOL     OW28636   5.099   0.029   0.229
 9246SOL    HW128637   5.083   0.100   0.299
 9246SOL    HW228638   5.197   0.008   0.225
 9247SOL     OW28639   3.384   6.735   2.861
 9247SOL    HW128640   3.366   6.833   2.871
 9247SOL    HW228641   3.298   6.687   2.843
 9248SOL     OW28642   2.683   0.249   0.020
 9248SOL    HW128643   2.764   0.208   6.996
 9248SOL    HW228644   2.710   0.333   0.068
 9249SOL     OW28645   3.906   0.588   0.556
 9249SOL    HW128646   3.961   0.507   0.579
 9249SOL    HW228647   3.968   0.662   0.529
 9250SOL     OW28648   0.561   3.768   2.767
 9250SOL    HW128649   0.507   3.708   2.708
 9250SOL    HW228650   0.554   3.862   2.735
 9251SOL     OW28651   4.410   1.887   1.479
 9251SOL    HW128652   4.510   1.883   1.471
 9251SOL    HW228653   4.383   1.980   1.505
 9252SOL     OW28654   5.435   1.602   4.912
 9252SOL    HW128655   5.495   1.590   4.991
 9252SOL    HW228656   5.381   1.519   4.898
 9253SOL     OW28657   2.271   4.807   3.666
 9253SOL    HW128658   2.270   4.792   3.567
 9253SOL    HW228659   2.365   4.817   3.697
 9254SOL     OW28660   7.004   5.995   2.411
 9254SOL    HW128661   6.911   6.032   2.403
 9254SOL    HW228662   0.009   5.984   2.508
 9255SOL     OW28663   6.806   3.337   1.314
 9255SOL    HW128664   6.756   3.321   1.229
 9255SOL    HW228665   6.896   3.293   1.308
 9256SOL     OW28666   2.638   6.288   0.980
 9256SOL    HW128667   2.605   6.202   0.941
 9256SOL    HW228668   2.680   6.343   0.908
 9257SOL     OW28669   6.444   6.288   4.796
 9257SOL    HW128670   6.507   6.354   4.836
 9257SOL    HW228671   6.469   6.273   4.700
 9258SOL     OW28672   5.356   4.673   2.723
 9258SOL    HW128673   5.373   4.751   2.783
 9258SOL    HW228674   5.275   4.624   2.755
 9259SOL     OW28675   1.040   2.736   6.607
 9259SOL    HW128676   1.000   2.666   6.549
 9259SOL    HW228677   1.004   2.826   6.581
 9260SOL     OW28678   5.292   4.546   4.910
 9260SOL    HW128679   5.241   4.504   4.835
 9260SOL    HW228680   5.389   4.523   4.902
 9261SOL     OW28681   1.457   3.382   1.375
 9261SOL    HW128682   1.538   3.438   1.355
 9261SOL    HW228683   1.442   3.380   1.474
 9262SOL     OW28684   0.557   6.511   6.207
 9262SOL    HW128685   0.607   6.545   6.127
 9262SOL    HW228686   0.600   6.427   6.240
 9263SOL     OW28687   2.614   4.716   2.963
 9263SOL    HW128688   2.597   4.623   2.996
 9263SOL    HW228689   2.623   4.714   2.863
 9264SOL     OW28690   5.094   3.553   5.976
 9264SOL    HW128691   5.034   3.625   6.011
 9264SOL    HW228692   5.048   3.464   5.985
 9265SOL     OW28693   4.751   0.162   2.101
 9265SOL    HW128694   4.767   0.072   2.141
 9265SOL    HW228695   4.673   0.157   2.038
 9266SOL     OW28696   0.529   4.582   1.394
 9266SOL    HW128697   0.486   4.626   1.315
 9266SOL    HW228698   0.485   4.494   1.411
 9267SOL     OW28699   6.997   1.370   3.758
 9267SOL    HW128700   6.933   1.426   3.811
 9267SOL    HW228701   6.982   1.274   3.779
 9268SOL     OW28702   0.540   1.226   0.979
 9268SOL    HW128703   0.476   1.222   0.903
 9268SOL    HW228704   0.525   1.310   1.031
 9269SOL     OW28705   3.379   6.826   0.732
 9269SOL    HW128706   3.339   6.742   0.697
 9269SOL    HW228707   3.341   6.847   0.822
 9270SOL     OW28708   2.144   0.988   4.982
 9270SOL    HW128709   2.045   0.989   4.996
 9270SOL    HW228710   2.187   1.055   5.042
 9271SOL     OW28711   1.853   4.567   5.655
 9271SOL    HW128712   1.912   4.486   5.645
 9271SOL    HW228713   1.797   4.576   5.573
 9272SOL     OW28714   7.012   6.502   5.397
 9272SOL    HW128715   6.958   6.529   5.317
 9272SOL    HW228716   6.979   6.414   5.432
 9273SOL     OW28717   6.370   3.640   3.593
 9273SOL    HW128718   6.381   3.545   3.624
 9273SOL    HW228719   6.370   3.701   3.672
 9274SOL     OW28720   6.797   3.191   0.250
 9274SOL    HW128721   6.866   3.181   0.178
 9274SOL    HW228722   6.706   3.179   0.210
 9275SOL     OW28723   5.072   1.920   0.274
 9275SOL    HW128724   5.078   1.821   0.272
 9275SOL    HW228725   5.146   1.959   0.219
 9276SOL     OW28726   1.844   3.730   6.875
 9276SOL    HW128727   1.783   3.688   6.808
 9276SOL    HW228728   1.814   3.706   6.967
 9277SOL     OW28729   3.794   5.700   2.518
 9277SOL    HW128730   3.719   5.741   2.466
 9277SOL    HW228731   3.783   5.601   2.520
 9278SOL     OW28732   0.995   0.311   5.516
 9278SOL    HW128733   1.000   0.220   5.475
 9278SOL    HW228734   0.901   0.332   5.540
 9279SOL     OW28735   3.506   5.968   1.487
 9279SOL    HW128736   3.518   6.056   1.533
 9279SOL    HW228737   3.475   5.984   1.393
 9280SOL     OW28738   1.248   4.960   1.184
 9280SOL    HW128739   1.230   4.966   1.282
 9280SOL    HW228740   1.167   4.925   1.137
 9281SOL     OW28741   1.411   5.688   1.018
 9281SOL    HW128742   1.480   5.624   1.051
 9281SOL    HW228743   1.456   5.763   0.970
 9282SOL     OW28744   2.049   0.379   4.931
 9282SOL    HW128745   1.993   0.344   4.857
 9282SOL    HW228746   1.996   0.381   5.016
 9283SOL     OW28747   4.932   5.430   6.792
 9283SOL    HW128748   4.958   5.519   6.755
 9283SOL    HW228749   5.013   5.377   6.815
 9284SOL     OW28750   4.597   6.378   1.128
 9284SOL    HW128751   4.600   6.323   1.044
 9284SOL    HW228752   4.503   6.410   1.143
 9285SOL     OW28753   6.863   5.907   3.458
 9285SOL    HW128754   6.803   5.932   3.534
 9285SOL    HW228755   6.856   5.809   3.441
 9286SOL     OW28756   4.887   6.423   1.486
 9286SOL    HW128757   4.907   6.364   1.565
 9286SOL    HW228758   4.940   6.391   1.408
 9287SOL     OW28759   4.744   4.276   0.613
 9287SOL    HW128760   4.657   4.279   0.565
 9287SOL    HW228761   4.731   4.310   0.707
 9288SOL     OW28762   3.882   1.382   2.674
 9288SOL    HW128763   3.909   1.309   2.736
 9288SOL    HW228764   3.823   1.345   2.602
 9289SOL     OW28765   4.230   5.849   2.452
 9289SOL    HW128766   4.316   5.834   2.403
 9289SOL    HW228767   4.227   5.791   2.533
 9290SOL     OW28768   5.090   1.447   3.729
 9290SOL    HW128769   5.153   1.393   3.785
 9290SOL    HW228770   5.112   1.435   3.632
 9291SOL     OW28771   0.748   4.229   5.622
 9291SOL    HW128772   0.760   4.327   5.607
 9291SOL    HW228773   0.838   4.185   5.629
 9292SOL     OW28774   1.561   2.074   6.607
 9292SOL    HW128775   1.484   2.043   6.663
 9292SOL    HW228776   1.595   2.161   6.641
 9293SOL     OW28777   4.793   1.108   5.046
 9293SOL    HW128778   4.833   1.182   4.992
 9293SOL    HW228779   4.709   1.141   5.090
 9294SOL     OW28780   5.166   6.038   5.688
 9294SOL    HW128781   5.123   5.960   5.643
 9294SOL    HW228782   5.137   6.042   5.784
 9295SOL     OW28783   6.638   0.599   3.065
 9295SOL    HW128784   6.578   0.519   3.064
 9295SOL    HW228785   6.597   0.673   3.011
 9296SOL     OW28786   1.501   3.885   5.421
 9296SOL    HW128787   1.529   3.906   5.328
 9296SOL    HW228788   1.423   3.942   5.447
 9297SOL     OW28789   6.879   5.499   2.055
 9297SOL    HW128790   6.895   5.403   2.031
 9297SOL    HW228791   6.846   5.548   1.974
 9298SOL     OW28792   0.305   4.491   6.014
 9298SOL    HW128793   0.322   4.541   5.929
 9298SOL    HW228794   0.377   4.423   6.028
 9299SOL     OW28795   3.000   2.230   3.830
 9299SOL    HW128796   2.957   2.295   3.893
 9299SOL    HW228797   2.947   2.146   3.827
 9300SOL     OW28798   2.312   5.502   5.673
 9300SOL    HW128799   2.259   5.444   5.735
 9300SOL    HW228800   2.403   5.464   5.661
 9301SOL     OW28801   0.547   3.683   4.187
 9301SOL    HW128802   0.592   3.758   4.236
 9301SOL    HW228803   0.564   3.597   4.236
 9302SOL     OW28804   3.191   5.310   3.756
 9302SOL    HW128805   3.093   5.313   3.771
 9302SOL    HW228806   3.225   5.401   3.733
 9303SOL     OW28807   2.359   4.651   0.099
 9303SOL    HW128808   2.291   4.646   0.025
 9303SOL    HW228809   2.402   4.562   0.111
 9304SOL     OW28810   5.881   5.814   6.120
 9304SOL    HW128811   5.787   5.845   6.113
 9304SOL    HW228812   5.917   5.796   6.028
 9305SOL     OW28813   1.834   1.627   1.269
 9305SOL    HW128814   1.883   1.551   1.312
 9305SOL    HW228815   1.848   1.625   1.170
 9306SOL     OW28816   6.784   6.233   4.516
 9306SOL    HW128817   6.732   6.208   4.434
 9306SOL    HW228818   6.864   6.287   4.489
 9307SOL     OW28819   2.088   4.064   0.980
 9307SOL    HW128820   2.166   4.098   1.032
 9307SOL    HW228821   2.004   4.101   1.019
 9308SOL     OW28822   2.447   3.723   1.311
 9308SOL    HW128823   2.368   3.781   1.333
 9308SOL    HW228824   2.451   3.709   1.212
 9309SOL     OW28825   4.217   5.282   5.670
 9309SOL    HW128826   4.124   5.299   5.703
 9309SOL    HW228827   4.219   5.195   5.620
 9310SOL     OW28828   6.889   6.295   6.107
 9310SOL    HW128829   6.832   6.376   6.118
 9310SOL    HW228830   6.975   6.321   6.063
 9311SOL     OW28831   5.918   4.442   0.199
 9311SOL    HW128832   5.866   4.400   0.273
 9311SOL    HW228833   5.890   4.402   0.112
 9312SOL     OW28834   5.982   3.380   4.012
 9312SOL    HW128835   5.958   3.314   4.084
 9312SOL    HW228836   5.933   3.356   3.928
 9313SOL     OW28837   0.243   0.544   2.019
 9313SOL    HW128838   0.262   0.544   2.117
 9313SOL    HW228839   0.311   0.602   1.973
 9314SOL     OW28840   5.302   4.853   1.219
 9314SOL    HW128841   5.206   4.830   1.204
 9314SOL    HW228842   5.332   4.819   1.308
 9315SOL     OW28843   6.307   5.351   5.896
 9315SOL    HW128844   6.253   5.267   5.902
 9315SOL    HW228845   6.335   5.366   5.801
 9316SOL     OW28846   5.396   6.208   0.753
 9316SOL    HW128847   5.297   6.199   0.750
 9316SOL    HW228848   5.429   6.248   0.667
 9317SOL     OW28849   2.484   6.199   3.019
 9317SOL    HW128850   2.555   6.267   3.000
 9317SOL    HW228851   2.433   6.228   3.100
 9318SOL     OW28852   3.293   6.832   3.583
 9318SOL    HW128853   3.301   6.772   3.662
 9318SOL    HW228854   3.276   6.777   3.501
 9319SOL     OW28855   3.635   2.045   0.412
 9319SOL    HW128856   3.599   2.136   0.395
 9319SOL    HW228857   3.648   1.997   0.326
 9320SOL     OW28858   6.486   6.496   0.391
 9320SOL    HW128859   6.578   6.508   0.427
 9320SOL    HW228860   6.473   6.557   0.312
 9321SOL     OW28861   0.850   2.705   3.889
 9321SOL    HW128862   0.885   2.612   3.878
 9321SOL    HW228863   0.926   2.766   3.914
 9322SOL     OW28864   5.264   3.226   0.152
 9322SOL    HW128865   5.341   3.241   0.214
 9322SOL    HW228866   5.286   3.151   0.090
 9323SOL     OW28867   0.728   2.066   5.081
 9323SOL    HW128868   0.706   2.096   5.174
 9323SOL    HW228869   0.802   1.999   5.083
 9324SOL     OW28870   0.660   4.265   0.838
 9324SOL    HW128871   0.602   4.346   0.844
 9324SOL    HW228872   0.626   4.205   0.765
 9325SOL     OW28873   1.087   4.736   3.151
 9325SOL    HW128874   1.017   4.797   3.116
 9325SOL    HW228875   1.124   4.681   3.075
 9326SOL     OW28876   4.559   4.807   1.659
 9326SOL    HW128877   4.506   4.737   1.611
 9326SOL    HW228878   4.656   4.785   1.654
 9327SOL     OW28879   2.262   1.440   3.228
 9327SOL    HW128880   2.314   1.466   3.148
 9327SOL    HW228881   2.177   1.395   3.200
 9328SOL     OW28882   1.240   6.624   3.219
 9328SOL    HW128883   1.281   6.630   3.128
 9328SOL    HW228884   1.257   6.708   3.269
 9329SOL     OW28885   1.943   4.788   6.285
 9329SOL    HW128886   1.885   4.753   6.358
 9329SOL    HW228887   2.000   4.714   6.249
 9330SOL     OW28888   0.374   6.720   0.862
 9330SOL    HW128889   0.339   6.747   0.951
 9330SOL    HW228890   0.302   6.672   0.811
 9331SOL     OW28891   1.976   4.949   4.718
 9331SOL    HW128892   2.054   4.998   4.756
 9331SOL    HW228893   1.943   4.997   4.636
 9332SOL     OW28894   6.311   4.998   0.315
 9332SOL    HW128895   6.258   5.080   0.292
 9332SOL    HW228896   6.262   4.945   0.384
 9333SOL     OW28897   1.559   4.883   0.636
 9333SOL    HW128898   1.557   4.950   0.709
 9333SOL    HW228899   1.539   4.928   0.548
 9334SOL     OW28900   6.955   5.060   0.158
 9334SOL    HW128901   7.012   4.989   0.199
 9334SOL    HW228902   6.914   5.115   0.230
 9335SOL     OW28903   0.123   3.514   1.078
 9335SOL    HW128904   0.048   3.451   1.059
 9335SOL    HW228905   0.093   3.583   1.144
 9336SOL     OW28906   4.138   5.986   5.017
 9336SOL    HW128907   4.205   6.048   5.058
 9336SOL    HW228908   4.183   5.902   4.988
 9337SOL     OW28909   3.332   1.531   4.695
 9337SOL    HW128910   3.394   1.600   4.658
 9337SOL    HW228911   3.237   1.555   4.674
 9338SOL     OW28912   4.871   6.542   0.722
 9338SOL    HW128913   4.930   6.570   0.798
 9338SOL    HW228914   4.821   6.459   0.747
 9339SOL     OW28915   6.848   3.540   5.017
 9339SOL    HW128916   6.752   3.566   5.004
 9339SOL    HW228917   6.898   3.616   5.058
 9340SOL     OW28918   2.387   4.616   2.064
 9340SOL    HW128919   2.409   4.591   1.970
 9340SOL    HW228920   2.379   4.534   2.120
 9341SOL     OW28921   6.003   5.513   0.539
 9341SOL    HW128922   6.079   5.463   0.497
 9341SOL    HW228923   5.971   5.463   0.620
 9342SOL     OW28924   2.733   0.227   5.108
 9342SOL    HW128925   2.820   0.276   5.110
 9342SOL    HW228926   2.737   0.149   5.170
 9343SOL     OW28927   5.396   3.496   1.411
 9343SOL    HW128928   5.379   3.586   1.450
 9343SOL    HW228929   5.472   3.452   1.459
 9344SOL     OW28930   5.874   0.310   4.923
 9344SOL    HW128931   5.850   0.320   4.827
 9344SOL    HW228932   5.834   0.385   4.976
 9345SOL     OW28933   0.225   4.434   6.262
 9345SOL    HW128934   0.226   4.523   6.309
 9345SOL    HW228935   0.248   4.447   6.166
 9346SOL     OW28936   4.953   0.461   2.120
 9346SOL    HW128937   4.942   0.465   2.219
 9346SOL    HW228938   4.864   0.455   2.076
 9347SOL     OW28939   4.645   6.815   2.036
 9347SOL    HW128940   4.548   6.794   2.018
 9347SOL    HW228941   4.675   6.887   1.973
 9348SOL     OW28942   2.419   4.989   1.877
 9348SOL    HW128943   2.504   4.951   1.912
 9348SOL    HW228944   2.345   4.923   1.892
 9349SOL     OW28945   6.539   5.921   0.895
 9349SOL    HW128946   6.596   5.842   0.917
 9349SOL    HW228947   6.561   5.953   0.802
 9350SOL     OW28948   6.372   0.050   6.790
 9350SOL    HW128949   6.275   0.074   6.799
 9350SOL    HW228950   6.403   0.072   6.698
 9351SOL     OW28951   4.998   3.816   6.466
 9351SOL    HW128952   4.954   3.900   6.433
 9351SOL    HW228953   4.947   3.782   6.545
 9352SOL     OW28954   2.037   2.211   0.318
 9352SOL    HW128955   1.983   2.289   0.348
 9352SOL    HW228956   2.086   2.235   0.234
 9353SOL     OW28957   1.149   3.077   2.057
 9353SOL    HW128958   1.205   3.060   1.976
 9353SOL    HW228959   1.163   3.004   2.124
 9354SOL     OW28960   5.530   2.211   2.646
 9354SOL    HW128961   5.479   2.296   2.631
 9354SOL    HW228962   5.576   2.184   2.562
 9355SOL     OW28963   0.113   1.688   2.293
 9355SOL    HW128964   0.143   1.677   2.198
 9355SOL    HW228965   0.192   1.677   2.353
 9356SOL     OW28966   4.724   2.730   2.678
 9356SOL    HW128967   4.810   2.679   2.687
 9356SOL    HW228968   4.696   2.765   2.767
 9357SOL     OW28969   2.462   5.118   0.044
 9357SOL    HW128970   2.467   5.019   0.059
 9357SOL    HW228971   2.406   5.160   0.115
 9358SOL     OW28972   5.214   3.428   2.194
 9358SOL    HW128973   5.271   3.352   2.225
 9358SOL    HW228974   5.121   3.416   2.230
 9359SOL     OW28975   4.624   5.597   6.277
 9359SOL    HW128976   4.631   5.667   6.348
 9359SOL    HW228977   4.620   5.641   6.187
 9360SOL     OW28978   1.357   1.312   5.073
 9360SOL    HW128979   1.332   1.271   5.161
 9360SOL    HW228980   1.408   1.245   5.018
 9361SOL     OW28981   2.166   1.197   2.578
 9361SOL    HW128982   2.138   1.181   2.483
 9361SOL    HW228983   2.131   1.286   2.608
 9362SOL     OW28984   2.035   1.532   2.925
 9362SOL    HW128985   2.059   1.499   2.834
 9362SOL    HW228986   1.971   1.609   2.917
 9363SOL     OW28987   1.172   6.378   1.843
 9363SOL    HW128988   1.112   6.301   1.866
 9363SOL    HW228989   1.136   6.461   1.886
 9364SOL     OW28990   5.416   4.218   1.136
 9364SOL    HW128991   5.353   4.280   1.090
 9364SOL    HW228992   5.454   4.153   1.070
 9365SOL     OW28993   1.990   1.071   3.381
 9365SOL    HW128994   2.076   1.064   3.330
 9365SOL    HW228995   1.991   1.155   3.435
 9366SOL     OW28996   3.015   1.704   2.128
 9366SOL    HW128997   2.939   1.766   2.148
 9366SOL    HW228998   3.047   1.721   2.035
 9367SOL     OW28999   5.842   6.637   3.679
 9367SOL    HW129000   5.839   6.737   3.687
 9367SOL    HW229001   5.755   6.605   3.640
 9368SOL     OW29002   5.195   3.131   0.795
 9368SOL    HW129003   5.278   3.129   0.738
 9368SOL    HW229004   5.145   3.216   0.778
 9369SOL     OW29005   0.274   1.329   5.269
 9369SOL    HW129006   0.339   1.405   5.272
 9369SOL    HW229007   0.221   1.334   5.184
 9370SOL     OW29008   5.540   5.596   3.006
 9370SOL    HW129009   5.602   5.553   2.940
 9370SOL    HW229010   5.491   5.525   3.056
 9371SOL     OW29011   1.395   6.793   0.357
 9371SOL    HW129012   1.371   6.790   0.454
 9371SOL    HW229013   1.311   6.789   0.302
 9372SOL     OW29014   5.364   5.592   0.100
 9372SOL    HW129015   5.414   5.623   0.180
 9372SOL    HW229016   5.266   5.602   0.115
 9373SOL     OW29017   5.233   2.587   4.122
 9373SOL    HW129018   5.149   2.599   4.175
 9373SOL    HW229019   5.297   2.530   4.173
 9374SOL     OW29020   5.289   4.291   6.847
 9374SOL    HW129021   5.217   4.250   6.791
 9374SOL    HW229022   5.337   4.219   6.897
 9375SOL     OW29023   6.402   0.828   4.540
 9375SOL    HW129024   6.382   0.907   4.598
 9375SOL    HW229025   6.408   0.746   4.596
 9376SOL     OW29026   2.216   3.216   1.735
 9376SOL    HW129027   2.285   3.198   1.664
 9376SOL    HW229028   2.249   3.288   1.796
 9377SOL     OW29029   6.244   4.932   3.260
 9377SOL    HW129030   6.149   4.904   3.243
 9377SOL    HW229031   6.246   5.029   3.285
 9378SOL     OW29032   3.783   6.109   0.909
 9378SOL    HW129033   3.855   6.074   0.969
 9378SOL    HW229034   3.735   6.032   0.866
 9379SOL     OW29035   5.511   5.257   5.477
 9379SOL    HW129036   5.576   5.183   5.459
 9379SOL    HW229037   5.506   5.317   5.397
 9380SOL     OW29038   5.983   5.800   5.876
 9380SOL    HW129039   5.995   5.899   5.872
 9380SOL    HW229040   5.920   5.771   5.804
 9381SOL     OW29041   1.418   0.701   6.988
 9381SOL    HW129042   1.442   0.770   0.038
 9381SOL    HW229043   1.465   0.722   6.902
 9382SOL     OW29044   5.378   1.524   2.926
 9382SOL    HW129045   5.415   1.591   2.862
 9382SOL    HW229046   5.334   1.450   2.875
 9383SOL     OW29047   6.574   4.997   5.949
 9383SOL    HW129048   6.527   4.983   6.035
 9383SOL    HW229049   6.527   5.069   5.896
 9384SOL     OW29050   4.006   6.714   3.381
 9384SOL    HW129051   4.059   6.789   3.342
 9384SOL    HW229052   3.943   6.678   3.312
 9385SOL     OW29053   3.759   0.754   4.268
 9385SOL    HW129054   3.808   0.804   4.196
 9385SOL    HW229055   3.766   0.805   4.354
 9386SOL     OW29056   4.022   0.258   5.498
 9386SOL    HW129057   3.974   0.182   5.455
 9386SOL    HW229058   4.063   0.228   5.584
 9387SOL     OW29059   4.618   5.633   0.598
 9387SOL    HW129060   4.689   5.651   0.530
 9387SOL    HW229061   4.655   5.646   0.690
 9388SOL     OW29062   6.860   0.157   1.955
 9388SOL    HW129063   6.793   0.205   2.012
 9388SOL    HW229064   6.856   0.059   1.972
 9389SOL     OW29065   3.073   1.240   0.216
 9389SOL    HW129066   3.075   1.151   0.170
 9389SOL    HW229067   3.066   1.227   0.315
 9390SOL     OW29068   3.129   5.524   1.091
 9390SOL    HW129069   3.217   5.567   1.073
 9390SOL    HW229070   3.105   5.463   1.016
 9391SOL     OW29071   6.466   1.543   4.491
 9391SOL    HW129072   6.546   1.516   4.438
 9391SOL    HW229073   6.397   1.584   4.431
 9392SOL     OW29074   0.846   6.649   4.553
 9392SOL    HW129075   0.897   6.591   4.490
 9392SOL    HW229076   0.750   6.653   4.525
 9393SOL     OW29077   4.014   1.796   5.084
 9393SOL    HW129078   3.983   1.816   4.990
 9393SOL    HW229079   3.945   1.830   5.149
 9394SOL     OW29080   6.324   2.115   1.955
 9394SOL    HW129081   6.324   2.205   1.999
 9394SOL    HW229082   6.299   2.045   2.021
 9395SOL     OW29083   2.282   2.877   6.759
 9395SOL    HW129084   2.196   2.838   6.791
 9395SOL    HW229085   2.285   2.974   6.781
 9396SOL     OW29086   0.072   1.143   6.123
 9396SOL    HW129087   0.032   1.060   6.161
 9396SOL    HW229088   0.057   1.146   6.024
 9397SOL     OW29089   2.169   2.210   0.748
 9397SOL    HW129090   2.086   2.178   0.794
 9397SOL    HW229091   2.207   2.288   0.798
 9398SOL     OW29092   2.731   1.606   1.336
 9398SOL    HW129093   2.721   1.532   1.270
 9398SOL    HW229094   2.642   1.645   1.356
 9399SOL     OW29095   0.509   0.317   5.756
 9399SOL    HW129096   0.565   0.256   5.812
 9399SOL    HW229097   0.457   0.378   5.815
 9400SOL     OW29098   4.083   1.750   3.241
 9400SOL    HW129099   4.086   1.656   3.273
 9400SOL    HW229100   4.034   1.807   3.308
 9401SOL     OW29101   4.856   6.809   3.855
 9401SOL    HW129102   4.873   6.904   3.832
 9401SOL    HW229103   4.831   6.801   3.951
 9402SOL     OW29104   2.661   5.377   6.798
 9402SOL    HW129105   2.576   5.325   6.796
 9402SOL    HW229106   2.698   5.385   6.705
 9403SOL     OW29107   5.805   0.047   4.189
 9403SOL    HW129108   5.717   0.011   4.160
 9403SOL    HW229109   5.858   0.073   4.109
 9404SOL     OW29110   1.447   3.794   5.916
 9404SOL    HW129111   1.415   3.766   5.826
 9404SOL    HW229112   1.524   3.858   5.905
 9405SOL     OW29113   0.893   0.543   1.301
 9405SOL    HW129114   0.884   0.563   1.399
 9405SOL    HW229115   0.874   0.625   1.248
 9406SOL     OW29116   6.579   1.050   5.226
 9406SOL    HW129117   6.581   0.973   5.291
 9406SOL    HW229118   6.499   1.107   5.245
 9407SOL     OW29119   3.754   5.648   3.049
 9407SOL    HW129120   3.786   5.570   2.996
 9407SOL    HW229121   3.704   5.617   3.129
 9408SOL     OW29122   3.898   1.952   6.770
 9408SOL    HW129123   3.907   2.037   6.821
 9408SOL    HW229124   3.809   1.910   6.791
 9409SOL     OW29125   6.054   3.542   3.449
 9409SOL    HW129126   6.006   3.456   3.440
 9409SOL    HW229127   5.988   3.617   3.458
 9410SOL     OW29128   4.281   6.756   1.464
 9410SOL    HW129129   4.301   6.789   1.556
 9410SOL    HW229130   4.363   6.763   1.407
 9411SOL     OW29131   4.728   5.561   1.821
 9411SOL    HW129132   4.741   5.539   1.917
 9411SOL    HW229133   4.780   5.644   1.798
 9412SOL     OW29134   6.285   2.994   3.338
 9412SOL    HW129135   6.362   2.934   3.316
 9412SOL    HW229136   6.236   2.958   3.417
 9413SOL     OW29137   3.794   5.234   3.620
 9413SOL    HW129138   3.726   5.243   3.547
 9413SOL    HW229139   3.757   5.177   3.694
 9414SOL     OW29140   2.064   0.250   2.457
 9414SOL    HW129141   2.011   0.165   2.456
 9414SOL    HW229142   2.002   0.328   2.453
 9415SOL     OW29143   2.276   1.262   2.197
 9415SOL    HW129144   2.249   1.346   2.244
 9415SOL    HW229145   2.371   1.241   2.218
 9416SOL     OW29146   1.515   2.625   1.509
 9416SOL    HW129147   1.568   2.559   1.563
 9416SOL    HW229148   1.574   2.701   1.482
 9417SOL     OW29149   1.629   0.245   4.922
 9417SOL    HW129150   1.540   0.289   4.909
 9417SOL    HW229151   1.669   0.224   4.833
 9418SOL     OW29152   4.774   4.211   1.043
 9418SOL    HW129153   4.761   4.145   0.970
 9418SOL    HW229154   4.746   4.170   1.130
 9419SOL     OW29155   2.727   5.343   4.344
 9419SOL    HW129156   2.633   5.378   4.348
 9419SOL    HW229157   2.765   5.361   4.253
 9420SOL     OW29158   1.686   0.870   3.765
 9420SOL    HW129159   1.682   0.799   3.835
 9420SOL    HW229160   1.599   0.920   3.763
 9421SOL     OW29161   1.863   5.122   4.526
 9421SOL    HW129162   1.765   5.105   4.533
 9421SOL    HW229163   1.881   5.220   4.536
 9422SOL     OW29164   4.063   1.126   2.571
 9422SOL    HW129165   4.051   1.027   2.563
 9422SOL    HW229166   4.052   1.152   2.667
 9423SOL     OW29167   4.883   0.392   4.717
 9423SOL    HW129168   4.928   0.354   4.798
 9423SOL    HW229169   4.798   0.342   4.700
 9424SOL     OW29170   3.350   6.118   4.120
 9424SOL    HW129171   3.327   6.215   4.127
 9424SOL    HW229172   3.336   6.074   4.208
 9425SOL     OW29173   0.881   5.367   3.266
 9425SOL    HW129174   0.951   5.398   3.331
 9425SOL    HW229175   0.825   5.296   3.308
 9426SOL     OW29176   3.553   5.605   0.787
 9426SOL    HW129177   3.523   5.654   0.705
 9426SOL    HW229178   3.557   5.507   0.768
 9427SOL     OW29179   3.086   5.042   4.013
 9427SOL    HW129180   2.992   5.027   4.045
 9427SOL    HW229181   3.146   5.058   4.092
 9428SOL     OW29182   4.859   6.345   2.567
 9428SOL    HW129183   4.842   6.410   2.641
 9428SOL    HW229184   4.947   6.364   2.525
 9429SOL     OW29185   0.615   3.435   2.984
 9429SOL    HW129186   0.598   3.472   2.893
 9429SOL    HW229187   0.699   3.380   2.982
 9430SOL     OW29188   5.895   0.123   1.810
 9430SOL    HW129189   5.811   0.164   1.846
 9430SOL    HW229190   5.953   0.094   1.886
 9431SOL     OW29191   6.300   4.117   6.847
 9431SOL    HW129192   6.241   4.053   6.896
 9431SOL    HW229193   6.358   4.165   6.912
 9432SOL     OW29194   6.534   6.774   4.002
 9432SOL    HW129195   6.436   6.753   4.011
 9432SOL    HW229196   6.585   6.690   3.986
 9433SOL     OW29197   2.459   5.700   4.169
 9433SOL    HW129198   2.471   5.643   4.250
 9433SOL    HW229199   2.504   5.788   4.182
 9434SOL     OW29200   5.540   4.186   3.110
 9434SOL    HW129201   5.467   4.160   3.174
 9434SOL    HW229202   5.501   4.203   3.020
 9435SOL     OW29203   2.081   2.299   4.965
 9435SOL    HW129204   2.138   2.284   5.046
 9435SOL    HW229205   2.004   2.235   4.967
 9436SOL     OW29206   2.973   1.845   5.241
 9436SOL    HW129207   2.955   1.915   5.311
 9436SOL    HW229208   3.021   1.888   5.164
 9437SOL     OW29209   0.301   5.557   4.244
 9437SOL    HW129210   0.328   5.468   4.207
 9437SOL    HW229211   0.382   5.610   4.267
 9438SOL     OW29212   0.739   6.512   2.314
 9438SOL    HW129213   0.734   6.531   2.216
 9438SOL    HW229214   0.702   6.421   2.333
 9439SOL     OW29215   1.262   3.591   1.038
 9439SOL    HW129216   1.232   3.587   1.133
 9439SOL    HW229217   1.219   3.669   0.993
 9440SOL     OW29218   3.885   5.676   4.771
 9440SOL    HW129219   3.880   5.655   4.869
 9440SOL    HW229220   3.918   5.770   4.759
 9441SOL     OW29221   1.534   5.559   5.139
 9441SOL    HW129222   1.532   5.515   5.229
 9441SOL    HW229223   1.580   5.648   5.147
 9442SOL     OW29224   0.782   3.791   1.217
 9442SOL    HW129225   0.815   3.715   1.161
 9442SOL    HW229226   0.808   3.878   1.175
 9443SOL     OW29227   1.413   3.089   1.431
 9443SOL    HW129228   1.397   3.174   1.481
 9443SOL    HW229229   1.455   3.110   1.343
 9444SOL     OW29230   1.628   4.400   5.945
 9444SOL    HW129231   1.638   4.309   5.903
 9444SOL    HW229232   1.573   4.458   5.885
 9445SOL     OW29233   6.300   3.200   1.390
 9445SOL    HW129234   6.311   3.174   1.294
 9445SOL    HW229235   6.228   3.145   1.431
 9446SOL     OW29236   5.672   4.241   0.129
 9446SOL    HW129237   5.672   4.254   0.228
 9446SOL    HW229238   5.711   4.152   0.106
 9447SOL     OW29239   5.915   1.850   2.284
 9447SOL    HW129240   5.847   1.784   2.314
 9447SOL    HW229241   6.003   1.804   2.269
 9448SOL     OW29242   6.035   5.905   0.509
 9448SOL    HW129243   6.028   5.907   0.608
 9448SOL    HW229244   6.093   5.829   0.481
 9449SOL     OW29245   6.082   5.263   5.362
 9449SOL    HW129246   6.157   5.330   5.366
 9449SOL    HW229247   6.031   5.266   5.447
 9450SOL     OW29248   2.726   6.104   3.963
 9450SOL    HW129249   2.716   6.009   3.934
 9450SOL    HW229250   2.819   6.119   3.998
 9451SOL     OW29251   4.317   3.523   5.624
 9451SOL    HW129252   4.307   3.597   5.690
 9451SOL    HW229253   4.229   3.505   5.580
 9452SOL     OW29254   3.030   3.694   0.831
 9452SOL    HW129255   3.110   3.754   0.827
 9452SOL    HW229256   3.059   3.601   0.854
 9453SOL     OW29257   2.996   5.180   1.156
 9453SOL    HW129258   2.904   5.151   1.182
 9453SOL    HW229259   3.046   5.101   1.121
 9454SOL     OW29260   2.364   2.035   5.278
 9454SOL    HW129261   2.307   1.959   5.246
 9454SOL    HW229262   2.448   1.999   5.319
 9455SOL     OW29263   1.909   1.864   2.647
 9455SOL    HW129264   1.986   1.851   2.585
 9455SOL    HW229265   1.893   1.962   2.660
 9456SOL     OW29266   0.997   2.923   1.094
 9456SOL    HW129267   1.068   2.874   1.043
 9456SOL    HW229268   1.014   3.022   1.088
 9457SOL     OW29269   6.408   3.351   0.033
 9457SOL    HW129270   6.380   3.369   6.956
 9457SOL    HW229271   6.475   3.419   0.061
 9458SOL     OW29272   0.957   6.188   4.500
 9458SOL    HW129273   0.966   6.150   4.408
 9458SOL    HW229274   0.860   6.193   4.524
 9459SOL     OW29275   4.401   5.955   1.694
 9459SOL    HW129276   4.359   5.935   1.783
 9459SOL    HW229277   4.415   5.869   1.645
 9460SOL     OW29278   1.417   3.241   5.887
 9460SOL    HW129279   1.360   3.312   5.927
 9460SOL    HW229280   1.403   3.239   5.788
 9461SOL     OW29281   1.636   0.435   2.715
 9461SOL    HW129282   1.627   0.458   2.812
 9461SOL    HW229283   1.729   0.403   2.697
 9462SOL     OW29284   0.471   2.790   3.000
 9462SOL    HW129285   0.469   2.885   3.032
 9462SOL    HW229286   0.565   2.764   2.981
 9463SOL     OW29287   6.163   1.991   6.804
 9463SOL    HW129288   6.104   2.036   6.737
 9463SOL    HW229289   6.130   1.898   6.822
 9464SOL     OW29290   4.360   6.765   5.549
 9464SOL    HW129291   4.266   6.731   5.556
 9464SOL    HW229292   4.421   6.707   5.603
 9465SOL     OW29293   5.247   6.274   4.141
 9465SOL    HW129294   5.267   6.232   4.229
 9465SOL    HW229295   5.226   6.371   4.154
 9466SOL     OW29296   3.286   1.531   0.243
 9466SOL    HW129297   3.314   1.435   0.251
 9466SOL    HW229298   3.194   1.536   0.203
 9467SOL     OW29299   1.803   3.105   2.309
 9467SOL    HW129300   1.740   3.181   2.322
 9467SOL    HW229301   1.760   3.019   2.336
 9468SOL     OW29302   0.736   2.651   6.117
 9468SOL    HW129303   0.773   2.741   6.144
 9468SOL    HW229304   0.640   2.661   6.093
 9469SOL     OW29305   6.880   4.580   2.564
 9469SOL    HW129306   6.813   4.587   2.637
 9469SOL    HW229307   6.915   4.486   2.559
 9470SOL     OW29308   6.536   3.386   1.343
 9470SOL    HW129309   6.634   3.365   1.349
 9470SOL    HW229310   6.497   3.387   1.435
 9471SOL     OW29311   0.472   2.662   6.106
 9471SOL    HW129312   0.464   2.752   6.149
 9471SOL    HW229313   0.384   2.614   6.113
 9472SOL     OW29314   6.607   2.211   4.947
 9472SOL    HW129315   6.569   2.274   4.879
 9472SOL    HW229316   6.675   2.258   5.002
 9473SOL     OW29317   3.128   5.558   5.223
 9473SOL    HW129318   3.108   5.590   5.130
 9473SOL    HW229319   3.227   5.564   5.239
 9474SOL     OW29320   2.995   5.086   3.520
 9474SOL    HW129321   2.979   5.176   3.559
 9474SOL    HW229322   3.048   5.030   3.584
 9475SOL     OW29323   1.738   3.160   1.686
 9475SOL    HW129324   1.802   3.200   1.621
 9475SOL    HW229325   1.786   3.139   1.771
 9476SOL     OW29326   2.947   3.529   5.478
 9476SOL    HW129327   2.870   3.470   5.504
 9476SOL    HW229328   2.952   3.534   5.379
 9477SOL     OW29329   0.521   2.105   0.905
 9477SOL    HW129330   0.463   2.102   0.824
 9477SOL    HW229331   0.602   2.161   0.887
 9478SOL     OW29332   5.418   4.081   5.524
 9478SOL    HW129333   5.347   4.090   5.455
 9478SOL    HW229334   5.377   4.067   5.614
 9479SOL     OW29335   5.747   5.634   5.072
 9479SOL    HW129336   5.801   5.552   5.055
 9479SOL    HW229337   5.654   5.609   5.099
 9480SOL     OW29338   6.058   3.856   6.419
 9480SOL    HW129339   6.134   3.808   6.376
 9480SOL    HW229340   5.972   3.816   6.390
 9481SOL     OW29341   6.419   3.218   2.832
 9481SOL    HW129342   6.342   3.176   2.784
 9481SOL    HW229343   6.435   3.310   2.797
 9482SOL     OW29344   4.560   0.145   2.392
 9482SOL    HW129345   4.485   0.131   2.457
 9482SOL    HW229346   4.638   0.187   2.439
 9483SOL     OW29347   1.779   1.680   0.621
 9483SOL    HW129348   1.728   1.669   0.706
 9483SOL    HW229349   1.813   1.774   0.614
 9484SOL     OW29350   5.854   0.894   3.091
 9484SOL    HW129351   5.817   0.869   3.002
 9484SOL    HW229352   5.841   0.818   3.155
 9485SOL     OW29353   1.146   0.088   2.545
 9485SOL    HW129354   1.171   0.181   2.516
 9485SOL    HW229355   1.138   0.086   2.645
 9486SOL     OW29356   2.754   6.345   2.225
 9486SOL    HW129357   2.723   6.395   2.144
 9486SOL    HW229358   2.747   6.247   2.208
 9487SOL     OW29359   3.007   3.612   4.175
 9487SOL    HW129360   3.071   3.616   4.251
 9487SOL    HW229361   3.010   3.699   4.124
 9488SOL     OW29362   0.995   1.520   1.375
 9488SOL    HW129363   1.092   1.529   1.352
 9488SOL    HW229364   0.941   1.580   1.317
 9489SOL     OW29365   2.761   4.172   0.727
 9489SOL    HW129366   2.827   4.247   0.730
 9489SOL    HW229367   2.802   4.089   0.766
 9490SOL     OW29368   4.875   1.480   6.985
 9490SOL    HW129369   4.884   1.579   6.997
 9490SOL    HW229370   4.824   1.441   0.044
 9491SOL     OW29371   6.523   5.133   5.686
 9491SOL    HW129372   6.616   5.164   5.705
 9491SOL    HW229373   6.465   5.212   5.668
 9492SOL     OW29374   2.594   4.330   1.406
 9492SOL    HW129375   2.667   4.316   1.472
 9492SOL    HW229376   2.633   4.357   1.318
 9493SOL     OW29377   5.523   6.474   2.466
 9493SOL    HW129378   5.455   6.536   2.429
 9493SOL    HW229379   5.609   6.483   2.415
 9494SOL     OW29380   3.181   3.233   5.958
 9494SOL    HW129381   3.255   3.295   5.984
 9494SOL    HW229382   3.143   3.262   5.870
 9495SOL     OW29383   5.462   2.384   4.289
 9495SOL    HW129384   5.441   2.348   4.380
 9495SOL    HW229385   5.459   2.310   4.222
 9496SOL     OW29386   6.159   3.955   0.028
 9496SOL    HW129387   6.118   4.033   0.075
 9496SOL    HW229388   6.092   3.881   0.019
 9497SOL     OW29389   0.700   5.708   6.152
 9497SOL    HW129390   0.612   5.662   6.155
 9497SOL    HW229391   0.692   5.792   6.099
 9498SOL     OW29392   3.893   0.026   6.888
 9498SOL    HW129393   3.964   0.032   6.818
 9498SOL    HW229394   3.935   0.010   6.977
 9499SOL     OW29395   4.159   4.162   6.096
 9499SOL    HW129396   4.177   4.095   6.024
 9499SOL    HW229397   4.128   4.248   6.056
 9500SOL     OW29398   5.325   5.772   1.713
 9500SOL    HW129399   5.403   5.712   1.727
 9500SOL    HW229400   5.255   5.751   1.782
 9501SOL     OW29401   3.398   2.036   4.583
 9501SOL    HW129402   3.340   2.054   4.504
 9501SOL    HW229403   3.350   2.063   4.667
 9502SOL     OW29404   3.589   3.230   5.985
 9502SOL    HW129405   3.654   3.297   6.019
 9502SOL    HW229406   3.622   3.191   5.899
 9503SOL     OW29407   1.283   6.704   1.730
 9503SOL    HW129408   1.316   6.630   1.671
 9503SOL    HW229409   1.353   6.774   1.737
 9504SOL     OW29410   0.636   3.067   0.271
 9504SOL    HW129411   0.734   3.050   0.264
 9504SOL    HW229412   0.621   3.153   0.320
 9505SOL     OW29413   4.894   3.029   3.342
 9505SOL    HW129414   4.991   3.012   3.325
 9505SOL    HW229415   4.882   3.072   3.432
 9506SOL     OW29416   0.086   2.072   0.969
 9506SOL    HW129417   0.055   2.086   0.875
 9506SOL    HW229418   0.173   2.023   0.968
 9507SOL     OW29419   1.042   2.076   4.646
 9507SOL    HW129420   1.072   1.993   4.598
 9507SOL    HW229421   1.080   2.076   4.738
 9508SOL     OW29422   4.668   1.610   6.322
 9508SOL    HW129423   4.691   1.571   6.233
 9508SOL    HW229424   4.698   1.549   6.394
 9509SOL     OW29425   3.454   0.148   5.994
 9509SOL    HW129426   3.365   0.102   5.994
 9509SOL    HW229427   3.442   0.245   6.012
 9510SOL     OW29428   6.446   4.449   2.728
 9510SOL    HW129429   6.351   4.422   2.714
 9510SOL    HW229430   6.504   4.403   2.661
 9511SOL     OW29431   2.369   1.136   1.521
 9511SOL    HW129432   2.326   1.061   1.570
 9511SOL    HW229433   2.433   1.100   1.453
 9512SOL     OW29434   1.282   3.415   4.974
 9512SOL    HW129435   1.379   3.414   4.950
 9512SOL    HW229436   1.236   3.336   4.933
 9513SOL     OW29437   2.224   4.112   4.333
 9513SOL    HW129438   2.232   4.055   4.252
 9513SOL    HW229439   2.255   4.061   4.413
 9514SOL     OW29440   2.850   3.114   6.138
 9514SOL    HW129441   2.948   3.115   6.159
 9514SOL    HW229442   2.799   3.084   6.218
 9515SOL     OW29443   2.234   4.997   5.841
 9515SOL    HW129444   2.193   4.907   5.822
 9515SOL    HW229445   2.216   5.022   5.936
 9516SOL     OW29446   5.400   4.460   5.483
 9516SOL    HW129447   5.372   4.372   5.523
 9516SOL    HW229448   5.457   4.443   5.403
 9517SOL     OW29449   0.936   5.111   2.256
 9517SOL    HW129450   1.014   5.117   2.194
 9517SOL    HW229451   0.884   5.197   2.254
 9518SOL     OW29452   0.745   2.966   5.566
 9518SOL    HW129453   0.701   2.988   5.478
 9518SOL    HW229454   0.718   2.874   5.594
 9519SOL     OW29455   3.618   2.904   2.905
 9519SOL    HW129456   3.616   2.906   3.005
 9519SOL    HW229457   3.621   2.809   2.873
 9520SOL     OW29458   5.289   0.805   6.310
 9520SOL    HW129459   5.329   0.856   6.234
 9520SOL    HW229460   5.241   0.868   6.371
 9521SOL     OW29461   3.749   1.278   1.400
 9521SOL    HW129462   3.684   1.262   1.326
 9521SOL    HW229463   3.733   1.369   1.439
 9522SOL     OW29464   3.709   6.503   1.399
 9522SOL    HW129465   3.780   6.433   1.393
 9522SOL    HW229466   3.673   6.523   1.308
 9523SOL     OW29467   2.715   4.736   4.403
 9523SOL    HW129468   2.680   4.712   4.494
 9523SOL    HW229469   2.808   4.771   4.411
 9524SOL     OW29470   2.187   4.264   0.210
 9524SOL    HW129471   2.253   4.231   0.277
 9524SOL    HW229472   2.223   4.250   0.118
 9525SOL     OW29473   2.304   3.403   6.500
 9525SOL    HW129474   2.400   3.393   6.528
 9525SOL    HW229475   2.299   3.464   6.421
 9526SOL     OW29476   5.424   5.469   6.761
 9526SOL    HW129477   5.440   5.374   6.787
 9526SOL    HW229478   5.512   5.518   6.758
 9527SOL     OW29479   4.152   6.976   4.964
 9527SOL    HW129480   4.204   6.945   5.044
 9527SOL    HW229481   4.055   6.959   4.979
 9528SOL     OW29482   4.848   2.624   0.601
 9528SOL    HW129483   4.937   2.606   0.559
 9528SOL    HW229484   4.821   2.718   0.584
 9529SOL     OW29485   5.609   1.069   1.860
 9529SOL    HW129486   5.624   1.161   1.896
 9529SOL    HW229487   5.552   1.075   1.778
 9530SOL     OW29488   1.062   5.406   3.840
 9530SOL    HW129489   1.157   5.422   3.813
 9530SOL    HW229490   1.006   5.395   3.759
 9531SOL     OW29491   3.179   5.363   2.095
 9531SOL    HW129492   3.091   5.370   2.049
 9531SOL    HW229493   3.205   5.453   2.131
 9532SOL     OW29494   6.503   5.022   3.788
 9532SOL    HW129495   6.461   4.932   3.776
 9532SOL    HW229496   6.448   5.091   3.742
 9533SOL     OW29497   1.511   3.985   2.868
 9533SOL    HW129498   1.497   4.067   2.811
 9533SOL    HW229499   1.467   3.999   2.957
 9534SOL     OW29500   4.569   5.568   4.410
 9534SOL    HW129501   4.630   5.634   4.453
 9534SOL    HW229502   4.492   5.548   4.471
 9535SOL     OW29503   0.108   1.410   4.665
 9535SOL    HW129504   0.100   1.368   4.755
 9535SOL    HW229505   0.205   1.413   4.638
 9536SOL     OW29506   3.224   4.120   4.963
 9536SOL    HW129507   3.159   4.187   4.999
 9536SOL    HW229508   3.183   4.029   4.965
 9537SOL     OW29509   6.636   0.974   3.997
 9537SOL    HW129510   6.732   0.969   3.970
 9537SOL    HW229511   6.604   0.883   4.023
 9538SOL     OW29512   5.761   0.247   4.671
 9538SOL    HW129513   5.803   0.227   4.583
 9538SOL    HW229514   5.669   0.208   4.674
 9539SOL     OW29515   3.581   4.140   2.971
 9539SOL    HW129516   3.542   4.154   3.062
 9539SOL    HW229517   3.564   4.222   2.915
 9540SOL     OW29518   4.213   4.711   3.475
 9540SOL    HW129519   4.152   4.649   3.525
 9540SOL    HW229520   4.264   4.768   3.540
 9541SOL     OW29521   1.478   5.912   5.544
 9541SOL    HW129522   1.415   5.952   5.478
 9541SOL    HW229523   1.521   5.831   5.504
 9542SOL     OW29524   6.345   4.307   3.029
 9542SOL    HW129525   6.380   4.349   2.945
 9542SOL    HW229526   6.262   4.255   3.008
 9543SOL     OW29527   2.250   0.649   5.701
 9543SOL    HW129528   2.192   0.730   5.695
 9543SOL    HW229529   2.255   0.618   5.796
 9544SOL     OW29530   6.227   3.734   4.853
 9544SOL    HW129531   6.257   3.643   4.881
 9544SOL    HW229532   6.280   3.763   4.773
 9545SOL     OW29533   6.817   4.420   1.854
 9545SOL    HW129534   6.798   4.497   1.794
 9545SOL    HW229535   6.884   4.360   1.811
 9546SOL     OW29536   2.642   2.827   1.364
 9546SOL    HW129537   2.658   2.742   1.314
 9546SOL    HW229538   2.699   2.828   1.446
 9547SOL     OW29539   4.534   0.291   3.528
 9547SOL    HW129540   4.456   0.240   3.566
 9547SOL    HW229541   4.547   0.375   3.580
 9548SOL     OW29542   0.902   4.924   6.356
 9548SOL    HW129543   0.867   4.957   6.443
 9548SOL    HW229544   0.827   4.919   6.289
 9549SOL     OW29545   4.120   1.858   1.618
 9549SOL    HW129546   4.178   1.915   1.561
 9549SOL    HW229547   4.034   1.840   1.571
 9550SOL     OW29548   6.230   3.271   1.757
 9550SOL    HW129549   6.268   3.183   1.730
 9550SOL    HW229550   6.266   3.298   1.847
 9551SOL     OW29551   5.850   2.725   6.311
 9551SOL    HW129552   5.821   2.783   6.387
 9551SOL    HW229553   5.769   2.692   6.261
 9552SOL     OW29554   2.781   2.077   0.835
 9552SOL    HW129555   2.685   2.106   0.842
 9552SOL    HW229556   2.841   2.151   0.865
 9553SOL     OW29557   5.731   1.460   6.921
 9553SOL    HW129558   5.632   1.467   6.912
 9553SOL    HW229559   5.766   1.397   6.851
 9554SOL     OW29560   3.047   0.848   3.656
 9554SOL    HW129561   3.055   0.922   3.723
 9554SOL    HW229562   2.987   0.876   3.582
 9555SOL     OW29563   0.088   6.612   3.432
 9555SOL    HW129564   0.123   6.608   3.525
 9555SOL    HW229565   0.030   6.692   3.421
 9556SOL     OW29566   2.358   4.714   6.693
 9556SOL    HW129567   2.449   4.756   6.692
 9556SOL    HW229568   2.288   4.785   6.695
 9557SOL     OW29569   5.728   0.617   0.985
 9557SOL    HW129570   5.669   0.549   1.028
 9557SOL    HW229571   5.801   0.643   1.048
 9558SOL     OW29572   4.946   6.381   6.131
 9558SOL    HW129573   5.017   6.428   6.080
 9558SOL    HW229574   4.912   6.303   6.078
 9559SOL     OW29575   1.879   4.491   6.993
 9559SOL    HW129576   1.932   4.574   6.975
 9559SOL    HW229577   1.823   4.470   6.913
 9560SOL     OW29578   2.844   0.301   2.461
 9560SOL    HW129579   2.842   0.223   2.524
 9560SOL    HW229580   2.787   0.281   2.381
 9561SOL     OW29581   0.619   0.509   0.333
 9561SOL    HW129582   0.590   0.529   0.426
 9561SOL    HW229583   0.666   0.421   0.330
 9562SOL     OW29584   2.312   6.186   2.755
 9562SOL    HW129585   2.336   6.195   2.851
 9562SOL    HW229586   2.345   6.098   2.720
 9563SOL     OW29587   1.131   5.756   6.278
 9563SOL    HW129588   1.127   5.813   6.196
 9563SOL    HW229589   1.191   5.678   6.262
 9564SOL     OW29590   1.840   1.314   0.914
 9564SOL    HW129591   1.830   1.304   0.815
 9564SOL    HW229592   1.782   1.247   0.960
 9565SOL     OW29593   2.654   1.613   4.309
 9565SOL    HW129594   2.720   1.678   4.345
 9565SOL    HW229595   2.657   1.529   4.363
 9566SOL     OW29596   3.118   0.498   0.471
 9566SOL    HW129597   3.192   0.561   0.445
 9566SOL    HW229598   3.109   0.427   0.402
 9567SOL     OW29599   6.905   4.209   0.835
 9567SOL    HW129600   6.936   4.123   0.876
 9567SOL    HW229601   6.809   4.225   0.860
 9568SOL     OW29602   4.317   1.856   6.552
 9568SOL    HW129603   4.342   1.907   6.634
 9568SOL    HW229604   4.217   1.856   6.542
 9569SOL     OW29605   5.553   0.180   2.088
 9569SOL    HW129606   5.518   0.271   2.107
 9569SOL    HW229607   5.649   0.174   2.115
 9570SOL     OW29608   0.458   3.483   1.591
 9570SOL    HW129609   0.495   3.396   1.560
 9570SOL    HW229610   0.531   3.537   1.634
 9571SOL     OW29611   1.953   1.191   0.007
 9571SOL    HW129612   1.939   1.235   6.936
 9571SOL    HW229613   1.937   1.093   7.017
 9572SOL     OW29614   2.335   4.507   4.632
 9572SOL    HW129615   2.305   4.422   4.675
 9572SOL    HW229616   2.329   4.498   4.533
 9573SOL     OW29617   6.626   0.381   4.232
 9573SOL    HW129618   6.556   0.418   4.170
 9573SOL    HW229619   6.606   0.411   4.325
 9574SOL     OW29620   4.174   3.116   0.589
 9574SOL    HW129621   4.230   3.064   0.652
 9574SOL    HW229622   4.089   3.066   0.570
 9575SOL     OW29623   5.257   6.873   2.018
 9575SOL    HW129624   5.189   6.935   2.056
 9575SOL    HW229625   5.344   6.920   2.010
 9576SOL     OW29626   0.671   0.554   6.884
 9576SOL    HW129627   0.728   0.507   6.816
 9576SOL    HW229628   0.721   0.634   6.918
 9577SOL     OW29629   6.019   5.428   2.894
 9577SOL    HW129630   6.005   5.485   2.813
 9577SOL    HW229631   6.011   5.331   2.868
 9578SOL     OW29632   1.814   3.378   2.390
 9578SOL    HW129633   1.910   3.362   2.413
 9578SOL    HW229634   1.809   3.428   2.304
 9579SOL     OW29635   5.895   5.914   2.328
 9579SOL    HW129636   5.816   5.973   2.311
 9579SOL    HW229637   5.868   5.818   2.313
 9580SOL     OW29638   4.694   4.263   3.342
 9580SOL    HW129639   4.753   4.322   3.287
 9580SOL    HW229640   4.740   4.175   3.357
 9581SOL     OW29641   5.941   1.715   0.122
 9581SOL    HW129642   5.842   1.709   0.106
 9581SOL    HW229643   5.973   1.628   0.160
 9582SOL     OW29644   5.419   6.409   4.791
 9582SOL    HW129645   5.463   6.407   4.880
 9582SOL    HW229646   5.360   6.329   4.781
 9583SOL     OW29647   3.727   4.999   1.888
 9583SOL    HW129648   3.679   4.912   1.902
 9583SOL    HW229649   3.771   5.000   1.798
 9584SOL     OW29650   2.617   5.170   3.909
 9584SOL    HW129651   2.572   5.236   3.970
 9584SOL    HW229652   2.566   5.162   3.824
 9585SOL     OW29653   4.592   6.172   0.946
 9585SOL    HW129654   4.499   6.138   0.940
 9585SOL    HW229655   4.655   6.097   0.966
 9586SOL     OW29656   3.584   5.501   2.826
 9586SOL    HW129657   3.610   5.595   2.848
 9586SOL    HW229658   3.654   5.438   2.861
 9587SOL     OW29659   3.386   6.124   0.854
 9587SOL    HW129660   3.319   6.066   0.808
 9587SOL    HW229661   3.426   6.074   0.931
 9588SOL     OW29662   6.474   5.630   0.199
 9588SOL    HW129663   6.473   5.628   0.099
 9588SOL    HW229664   6.560   5.671   0.230
 9589SOL     OW29665   2.034   2.768   6.513
 9589SOL    HW129666   1.966   2.786   6.584
 9589SOL    HW229667   1.993   2.782   6.423
 9590SOL     OW29668   6.346   0.294   0.629
 9590SOL    HW129669   6.374   0.301   0.725
 9590SOL    HW229670   6.406   0.229   0.581
 9591SOL     OW29671   4.909   0.840   0.575
 9591SOL    HW129672   4.812   0.864   0.579
 9591SOL    HW229673   4.938   0.834   0.479
 9592SOL     OW29674   2.210   6.645   6.075
 9592SOL    HW129675   2.277   6.710   6.041
 9592SOL    HW229676   2.254   6.581   6.138
 9593SOL     OW29677   1.855   2.080   3.703
 9593SOL    HW129678   1.909   2.164   3.691
 9593SOL    HW229679   1.810   2.056   3.616
 9594SOL     OW29680   6.871   6.216   3.543
 9594SOL    HW129681   6.928   6.228   3.462
 9594SOL    HW229682   6.916   6.154   3.607
 9595SOL     OW29683   0.637   3.070   3.542
 9595SOL    HW129684   0.692   3.053   3.460
 9595SOL    HW229685   0.646   3.166   3.569
 9596SOL     OW29686   0.978   6.771   0.808
 9596SOL    HW129687   1.048   6.702   0.825
 9596SOL    HW229688   0.893   6.727   0.779
 9597SOL     OW29689   1.256   3.685   1.853
 9597SOL    HW129690   1.278   3.618   1.924
 9597SOL    HW229691   1.191   3.645   1.788
 9598SOL     OW29692   2.196   3.990   4.087
 9598SOL    HW129693   2.243   3.925   4.027
 9598SOL    HW229694   2.184   4.077   4.039
 9599SOL     OW29695   3.986   6.636   4.424
 9599SOL    HW129696   3.935   6.715   4.458
 9599SOL    HW229697   3.995   6.569   4.498
 9600SOL     OW29698   3.713   1.539   1.541
 9600SOL    HW129699   3.685   1.602   1.468
 9600SOL    HW229700   3.695   1.582   1.629
 9601SOL     OW29701   1.266   3.498   0.640
 9601SOL    HW129702   1.285   3.400   0.648
 9601SOL    HW229703   1.353   3.548   0.636
 9602SOL     OW29704   4.124   4.982   5.115
 9602SOL    HW129705   4.059   5.052   5.085
 9602SOL    HW229706   4.074   4.900   5.143
 9603SOL     OW29707   4.951   6.825   5.685
 9603SOL    HW129708   4.998   6.769   5.617
 9603SOL    HW229709   4.901   6.766   5.748
 9604SOL     OW29710   5.345   6.477   0.339
 9604SOL    HW129711   5.259   6.512   0.303
 9604SOL    HW229712   5.395   6.551   0.383
 9605SOL     OW29713   5.812   5.625   1.813
 9605SOL    HW129714   5.747   5.621   1.737
 9605SOL    HW229715   5.823   5.721   1.841
 9606SOL     OW29716   1.595   1.001   6.979
 9606SOL    HW129717   1.554   0.940   0.029
 9606SOL    HW229718   1.622   0.948   6.898
 9607SOL     OW29719   2.290   2.135   5.997
 9607SOL    HW129720   2.216   2.108   5.935
 9607SOL    HW229721   2.281   2.232   6.019
 9608SOL     OW29722   5.979   2.870   4.253
 9608SOL    HW129723   6.060   2.901   4.204
 9608SOL    HW229724   5.902   2.931   4.234
 9609SOL     OW29725   4.417   2.912   6.453
 9609SOL    HW129726   4.445   2.901   6.358
 9609SOL    HW229727   4.355   2.837   6.479
 9610SOL     OW29728   0.527   4.920   2.984
 9610SOL    HW129729   0.594   4.987   3.014
 9610SOL    HW229730   0.444   4.928   3.039
 9611SOL     OW29731   2.169   0.513   0.489
 9611SOL    HW129732   2.242   0.467   0.438
 9611SOL    HW229733   2.200   0.603   0.518
 9612SOL     OW29734   0.015   2.703   4.075
 9612SOL    HW129735   6.946   2.721   4.028
 9612SOL    HW229736   0.090   2.724   4.013
 9613SOL     OW29737   5.841   5.396   3.231
 9613SOL    HW129738   5.795   5.449   3.301
 9613SOL    HW229739   5.931   5.434   3.212
 9614SOL     OW29740   4.789   2.205   3.659
 9614SOL    HW129741   4.784   2.291   3.709
 9614SOL    HW229742   4.885   2.178   3.648
 9615SOL     OW29743   1.912   4.450   1.012
 9615SOL    HW129744   1.884   4.445   1.108
 9615SOL    HW229745   1.876   4.371   0.962
 9616SOL     OW29746   3.933   3.331   6.733
 9616SOL    HW129747   3.891   3.413   6.694
 9616SOL    HW229748   3.862   3.275   6.777
 9617SOL     OW29749   1.859   2.551   2.882
 9617SOL    HW129750   1.847   2.644   2.847
 9617SOL    HW229751   1.816   2.486   2.820
 9618SOL     OW29752   2.403   1.686   1.288
 9618SOL    HW129753   2.362   1.776   1.304
 9618SOL    HW229754   2.380   1.625   1.364
 9619SOL     OW29755   2.453   0.567   6.263
 9619SOL    HW129756   2.501   0.615   6.190
 9619SOL    HW229757   2.514   0.557   6.342
 9620SOL     OW29758   5.709   1.305   5.413
 9620SOL    HW129759   5.738   1.337   5.503
 9620SOL    HW229760   5.734   1.373   5.344
 9621SOL     OW29761   1.845   3.464   3.118
 9621SOL    HW129762   1.779   3.532   3.088
 9621SOL    HW229763   1.938   3.500   3.107
 9622SOL     OW29764   5.458   6.859   0.930
 9622SOL    HW129765   5.485   6.797   0.856
 9622SOL    HW229766   5.440   6.949   0.892
 9623SOL     OW29767   2.248   3.646   6.312
 9623SOL    HW129768   2.182   3.717   6.336
 9623SOL    HW229769   2.272   3.655   6.216
 9624SOL     OW29770   6.533   3.068   4.354
 9624SOL    HW129771   6.544   3.168   4.347
 9624SOL    HW229772   6.515   3.043   4.449
 9625SOL     OW29773   5.932   5.622   1.277
 9625SOL    HW129774   5.836   5.634   1.253
 9625SOL    HW229775   5.984   5.594   1.196
 9626SOL     OW29776   3.632   6.693   0.275
 9626SOL    HW129777   3.641   6.749   0.357
 9626SOL    HW229778   3.681   6.606   0.289
 9627SOL     OW29779   1.626   6.616   6.894
 9627SOL    HW129780   1.603   6.696   6.838
 9627SOL    HW229781   1.557   6.545   6.881
 9628SOL     OW29782   3.191   6.966   2.572
 9628SOL    HW129783   3.112   6.905   2.568
 9628SOL    HW229784   3.186   0.015   2.498
 9629SOL     OW29785   2.275   0.107   0.957
 9629SOL    HW129786   2.247   0.096   0.861
 9629SOL    HW229787   2.201   0.150   1.008
 9630SOL     OW29788   6.540   1.986   6.557
 9630SOL    HW129789   6.629   1.952   6.589
 9630SOL    HW229790   6.527   1.961   6.461
 9631SOL     OW29791   5.968   6.099   0.051
 9631SOL    HW129792   5.919   6.174   0.096
 9631SOL    HW229793   5.933   6.012   0.087
 9632SOL     OW29794   0.809   5.885   2.093
 9632SOL    HW129795   0.902   5.863   2.123
 9632SOL    HW229796   0.793   5.983   2.104
 9633SOL     OW29797   6.950   5.028   6.120
 9633SOL    HW129798   0.017   5.076   6.142
 9633SOL    HW229799   6.950   4.937   6.162
 9634SOL     OW29800   1.124   6.092   6.139
 9634SOL    HW129801   1.111   6.164   6.071
 9634SOL    HW229802   1.083   6.119   6.225
 9635SOL     OW29803   0.830   5.780   5.666
 9635SOL    HW129804   0.822   5.757   5.763
 9635SOL    HW229805   0.927   5.789   5.642
 9636SOL     OW29806   4.183   1.226   6.880
 9636SOL    HW129807   4.098   1.264   6.916
 9636SOL    HW229808   4.207   1.273   6.795
 9637SOL     OW29809   2.192   0.925   0.159
 9637SOL    HW129810   2.245   1.008   0.143
 9637SOL    HW229811   2.163   0.922   0.255
 9638SOL     OW29812   6.699   2.214   6.601
 9638SOL    HW129813   6.640   2.145   6.559
 9638SOL    HW229814   6.692   2.300   6.549
 9639SOL     OW29815   3.858   0.841   2.234
 9639SOL    HW129816   3.938   0.811   2.286
 9639SOL    HW229817   3.776   0.796   2.270
 9640SOL     OW29818   1.619   1.924   2.175
 9640SOL    HW129819   1.595   1.994   2.243
 9640SOL    HW229820   1.551   1.851   2.178
 9641SOL     OW29821   5.813   5.676   6.982
 9641SOL    HW129822   5.755   5.716   0.035
 9641SOL    HW229823   5.763   5.673   6.895
 9642SOL     OW29824   3.740   0.433   3.493
 9642SOL    HW129825   3.811   0.490   3.536
 9642SOL    HW229826   3.650   0.467   3.520
 9643SOL     OW29827   4.120   4.839   2.690
 9643SOL    HW129828   4.190   4.768   2.675
 9643SOL    HW229829   4.144   4.892   2.770
 9644SOL     OW29830   3.078   1.988   0.205
 9644SOL    HW129831   3.173   1.998   0.236
 9644SOL    HW229832   3.058   2.060   0.138
 9645SOL     OW29833   3.191   5.199   5.240
 9645SOL    HW129834   3.122   5.167   5.175
 9645SOL    HW229835   3.250   5.123   5.267
 9646SOL     OW29836   4.182   5.169   4.198
 9646SOL    HW129837   4.281   5.153   4.189
 9646SOL    HW229838   4.157   5.167   4.295
 9647SOL     OW29839   6.566   3.015   6.171
 9647SOL    HW129840   6.617   2.951   6.228
 9647SOL    HW229841   6.625   3.091   6.143
 9648SOL     OW29842   4.042   3.932   0.681
 9648SOL    HW129843   4.000   4.018   0.654
 9648SOL    HW229844   4.005   3.903   0.770
 9649SOL     OW29845   2.351   5.302   1.923
 9649SOL    HW129846   2.358   5.203   1.907
 9649SOL    HW229847   2.291   5.319   2.001
 9650SOL     OW29848   0.585   6.860   0.728
 9650SOL    HW129849   0.502   6.823   0.769
 9650SOL    HW229850   0.648   6.889   0.800
 9651SOL     OW29851   0.812   1.866   6.398
 9651SOL    HW129852   0.836   1.836   6.490
 9651SOL    HW229853   0.713   1.868   6.388
 9652SOL     OW29854   0.563   5.039   2.186
 9652SOL    HW129855   0.540   5.136   2.177
 9652SOL    HW229856   0.497   4.995   2.246
 9653SOL     OW29857   6.364   6.373   4.135
 9653SOL    HW129858   6.384   6.358   4.039
 9653SOL    HW229859   6.422   6.447   4.171
 9654SOL     OW29860   2.145   2.924   2.975
 9654SOL    HW129861   2.132   3.015   2.935
 9654SOL    HW229862   2.215   2.875   2.922
 9655SOL     OW29863   6.342   1.734   6.540
 9655SOL    HW129864   6.304   1.713   6.631
 9655SOL    HW229865   6.413   1.803   6.549
 9656SOL     OW29866   2.941   1.418   3.218
 9656SOL    HW129867   2.878   1.487   3.182
 9656SOL    HW229868   2.946   1.341   3.155
 9657SOL     OW29869   0.266   6.785   4.833
 9657SOL    HW129870   0.254   6.779   4.734
 9657SOL    HW229871   0.240   6.876   4.865
 9658SOL     OW29872   5.296   2.035   3.056
 9658SOL    HW129873   5.200   2.043   3.031
 9658SOL    HW229874   5.321   1.938   3.061
 9659SOL     OW29875   1.372   4.862   6.975
 9659SOL    HW129876   1.403   4.866   0.052
 9659SOL    HW229877   1.445   4.893   6.915
 9660SOL     OW29878   0.988   5.344   0.560
 9660SOL    HW129879   0.906   5.341   0.503
 9660SOL    HW229880   0.963   5.372   0.653
 9661SOL     OW29881   4.238   6.861   1.141
 9661SOL    HW129882   4.294   6.793   1.093
 9661SOL    HW229883   4.241   6.842   1.239
 9662SOL     OW29884   5.053   1.298   4.504
 9662SOL    HW129885   4.960   1.262   4.497
 9662SOL    HW229886   5.095   1.266   4.588
 9663SOL     OW29887   2.314   6.276   3.210
 9663SOL    HW129888   2.254   6.274   3.290
 9663SOL    HW229889   2.378   6.352   3.218
 9664SOL     OW29890   2.368   5.549   1.755
 9664SOL    HW129891   2.460   5.565   1.719
 9664SOL    HW229892   2.362   5.456   1.792
 9665SOL     OW29893   5.040   4.139   4.032
 9665SOL    HW129894   5.015   4.202   4.106
 9665SOL    HW229895   4.970   4.068   4.024
 9666SOL     OW29896   5.167   4.793   4.887
 9666SOL    HW129897   5.086   4.770   4.941
 9666SOL    HW229898   5.223   4.711   4.875
 9667SOL     OW29899   3.280   2.993   3.384
 9667SOL    HW129900   3.361   2.951   3.425
 9667SOL    HW229901   3.267   2.958   3.291
 9668SOL     OW29902   0.744   1.064   5.428
 9668SOL    HW129903   0.841   1.049   5.409
 9668SOL    HW229904   0.723   1.161   5.424
 9669SOL     OW29905   1.606   6.269   6.983
 9669SOL    HW129906   1.600   6.301   6.889
 9669SOL    HW229907   1.701   6.248   7.006
 9670SOL     OW29908   5.772   4.824   6.163
 9670SOL    HW129909   5.819   4.912   6.162
 9670SOL    HW229910   5.706   4.821   6.088
 9671SOL     OW29911   6.893   0.400   6.785
 9671SOL    HW129912   6.830   0.410   6.708
 9671SOL    HW229913   6.934   0.309   6.783
 9672SOL     OW29914   1.479   6.490   4.998
 9672SOL    HW129915   1.380   6.475   5.007
 9672SOL    HW229916   1.524   6.469   5.084
 9673SOL     OW29917   2.170   2.854   6.032
 9673SOL    HW129918   2.165   2.952   6.010
 9673SOL    HW229919   2.243   2.839   6.099
 9674SOL     OW29920   2.761   6.963   2.298
 9674SOL    HW129921   2.754   6.867   2.269
 9674SOL    HW229922   2.799   7.017   2.224
 9675SOL     OW29923   0.336   2.070   2.616
 9675SOL    HW129924   0.302   1.976   2.617
 9675SOL    HW229925   0.356   2.100   2.709
 9676SOL     OW29926   0.243   2.612   4.801
 9676SOL    HW129927   0.341   2.621   4.818
 9676SOL    HW229928   0.222   2.643   4.708
 9677SOL     OW29929   1.449   3.511   5.487
 9677SOL    HW129930   1.498   3.434   5.444
 9677SOL    HW229931   1.353   3.507   5.461
 9678SOL     OW29932   3.627   3.212   3.057
 9678SOL    HW129933   3.575   3.201   3.142
 9678SOL    HW229934   3.593   3.148   2.989
 9679SOL     OW29935   0.420   3.574   1.199
 9679SOL    HW129936   0.365   3.524   1.132
 9679SOL    HW229937   0.428   3.670   1.170
 9680SOL     OW29938   4.931   4.693   3.288
 9680SOL    HW129939   4.986   4.769   3.252
 9680SOL    HW229940   4.851   4.729   3.335
 9681SOL     OW29941   1.063   0.448   4.322
 9681SOL    HW129942   1.101   0.391   4.395
 9681SOL    HW229943   0.973   0.413   4.296
 9682SOL     OW29944   0.230   4.930   3.055
 9682SOL    HW129945   0.225   5.030   3.062
 9682SOL    HW229946   0.160   4.898   2.992
 9683SOL     OW29947   5.120   6.555   5.835
 9683SOL    HW129948   5.137   6.590   5.927
 9683SOL    HW229949   5.199   6.573   5.777
 9684SOL     OW29950   0.932   4.703   3.505
 9684SOL    HW129951   0.984   4.691   3.590
 9684SOL    HW229952   0.982   4.764   3.444
 9685SOL     OW29953   2.188   2.109   6.715
 9685SOL    HW129954   2.111   2.154   6.669
 9685SOL    HW229955   2.152   2.037   6.775
 9686SOL     OW29956   5.411   1.852   1.836
 9686SOL    HW129957   5.508   1.864   1.817
 9686SOL    HW229958   5.372   1.939   1.869
 9687SOL     OW29959   3.810   1.353   4.671
 9687SOL    HW129960   3.894   1.407   4.664
 9687SOL    HW229961   3.743   1.402   4.727
 9688SOL     OW29962   6.530   1.866   4.137
 9688SOL    HW129963   6.573   1.908   4.057
 9688SOL    HW229964   6.479   1.935   4.189
 9689SOL     OW29965   1.946   5.678   5.824
 9689SOL    HW129966   1.941   5.757   5.764
 9689SOL    HW229967   1.910   5.702   5.914
 9690SOL     OW29968   6.097   3.763   0.472
 9690SOL    HW129969   6.057   3.678   0.437
 9690SOL    HW229970   6.068   3.776   0.567
 9691SOL     OW29971   1.184   4.512   0.821
 9691SOL    HW129972   1.236   4.427   0.825
 9691SOL    HW229973   1.228   4.575   0.757
 9692SOL     OW29974   3.130   5.722   0.792
 9692SOL    HW129975   3.220   5.712   0.835
 9692SOL    HW229976   3.060   5.691   0.855
 9693SOL     OW29977   6.034   5.703   1.542
 9693SOL    HW129978   5.973   5.782   1.529
 9693SOL    HW229979   6.070   5.674   1.453
 9694SOL     OW29980   1.319   2.157   0.720
 9694SOL    HW129981   1.378   2.131   0.796
 9694SOL    HW229982   1.371   2.155   0.635
 9695SOL     OW29983   6.869   4.461   0.499
 9695SOL    HW129984   6.913   4.372   0.485
 9695SOL    HW229985   6.928   4.533   0.461
 9696SOL     OW29986   3.640   4.535   0.654
 9696SOL    HW129987   3.583   4.455   0.672
 9696SOL    HW229988   3.724   4.529   0.708
 9697SOL     OW29989   0.624   5.930   6.008
 9697SOL    HW129990   0.658   6.024   5.995
 9697SOL    HW229991   0.544   5.916   5.950
 9698SOL     OW29992   4.543   1.191   5.137
 9698SOL    HW129993   4.520   1.232   5.225
 9698SOL    HW229994   4.525   1.093   5.140
 9699SOL     OW29995   2.308   2.513   6.863
 9699SOL    HW129996   2.285   2.594   6.918
 9699SOL    HW229997   2.251   2.511   6.781
 9700SOL     OW29998   3.625   3.792   3.453
 9700SOL    HW129999   3.694   3.725   3.427
 9700SOL    HW230000   3.566   3.812   3.374
 9701SOL     OW30001   4.815   4.365   4.624
 9701SOL    HW130002   4.812   4.282   4.680
 9701SOL    HW230003   4.722   4.391   4.598
 9702SOL     OW30004   5.131   0.229   0.442
 9702SOL    HW130005   5.230   0.224   0.453
 9702SOL    HW230006   5.087   0.173   0.513
 9703SOL     OW30007   2.712   5.858   3.864
 9703SOL    HW130008   2.774   5.786   3.833
 9703SOL    HW230009   2.657   5.890   3.787
 9704SOL     OW30010   2.885   1.421   3.685
 9704SOL    HW130011   2.877   1.520   3.700
 9704SOL    HW230012   2.805   1.375   3.725
 9705SOL     OW30013   3.720   3.954   0.708
 9705SOL    HW130014   3.746   3.870   0.756
 9705SOL    HW230015   3.621   3.966   0.714
 9706SOL     OW30016   6.816   2.707   3.909
 9706SOL    HW130017   6.810   2.802   3.941
 9706SOL    HW230018   6.757   2.696   3.828
 9707SOL     OW30019   2.431   4.944   3.003
 9707SOL    HW130020   2.355   4.914   3.060
 9707SOL    HW230021   2.487   4.865   2.978
 9708SOL     OW30022   1.411   1.709   2.252
 9708SOL    HW130023   1.411   1.611   2.231
 9708SOL    HW230024   1.426   1.723   2.350
 9709SOL     OW30025   1.667   5.461   2.983
 9709SOL    HW130026   1.755   5.420   3.007
 9709SOL    HW230027   1.595   5.394   2.994
 9710SOL     OW30028   0.619   0.426   4.140
 9710SOL    HW130029   0.716   0.448   4.134
 9710SOL    HW230030   0.605   0.353   4.207
 9711SOL     OW30031   1.765   3.108   6.633
 9711SOL    HW130032   1.706   3.124   6.553
 9711SOL    HW230033   1.831   3.183   6.641
 9712SOL     OW30034   4.898   3.577   4.629
 9712SOL    HW130035   4.887   3.566   4.531
 9712SOL    HW230036   4.809   3.571   4.674
 9713SOL     OW30037   6.836   5.410   2.485
 9713SOL    HW130038   6.770   5.460   2.540
 9713SOL    HW230039   6.916   5.387   2.541
 9714SOL     OW30040   1.897   2.118   2.663
 9714SOL    HW130041   1.830   2.154   2.729
 9714SOL    HW230042   1.970   2.185   2.649
 9715SOL     OW30043   6.410   5.395   5.622
 9715SOL    HW130044   6.338   5.400   5.552
 9715SOL    HW230045   6.484   5.457   5.598
 9716SOL     OW30046   3.796   1.468   5.825
 9716SOL    HW130047   3.767   1.474   5.730
 9716SOL    HW230048   3.883   1.418   5.830
 9717SOL     OW30049   5.554   5.804   3.345
 9717SOL    HW130050   5.536   5.902   3.337
 9717SOL    HW230051   5.496   5.755   3.280
 9718SOL     OW30052   4.743   3.245   1.655
 9718SOL    HW130053   4.689   3.169   1.692
 9718SOL    HW230054   4.700   3.280   1.572
 9719SOL     OW30055   0.213   1.500   0.634
 9719SOL    HW130056   0.202   1.520   0.536
 9719SOL    HW230057   0.147   1.555   0.686
 9720SOL     OW30058   1.001   0.268   0.438
 9720SOL    HW130059   0.988   0.366   0.451
 9720SOL    HW230060   1.009   0.224   0.528
 9721SOL     OW30061   6.887   2.871   3.377
 9721SOL    HW130062   6.854   2.779   3.354
 9721SOL    HW230063   6.976   2.885   3.333
 9722SOL     OW30064   6.885   0.230   4.587
 9722SOL    HW130065   6.869   0.131   4.593
 9722SOL    HW230066   6.850   0.275   4.669
 9723SOL     OW30067   6.921   1.147   3.843
 9723SOL    HW130068   6.946   1.053   3.820
 9723SOL    HW230069   6.939   1.164   3.940
 9724SOL     OW30070   3.630   2.739   1.105
 9724SOL    HW130071   3.653   2.681   1.184
 9724SOL    HW230072   3.700   2.728   1.034
 9725SOL     OW30073   4.010   3.360   5.881
 9725SOL    HW130074   4.087   3.296   5.872
 9725SOL    HW230075   3.998   3.409   5.794
 9726SOL     OW30076   5.683   5.752   4.071
 9726SOL    HW130077   5.758   5.732   4.135
 9726SOL    HW230078   5.629   5.829   4.105
 9727SOL     OW30079   1.827   0.643   0.090
 9727SOL    HW130080   1.822   0.618   7.011
 9727SOL    HW230081   1.920   0.632   0.123
 9728SOL     OW30082   3.313   6.003   6.635
 9728SOL    HW130083   3.266   6.091   6.632
 9728SOL    HW230084   3.247   5.931   6.656
 9729SOL     OW30085   3.006   5.064   2.328
 9729SOL    HW130086   2.924   5.021   2.290
 9729SOL    HW230087   3.081   4.997   2.331
 9730SOL     OW30088   5.820   3.289   3.015
 9730SOL    HW130089   5.796   3.228   3.091
 9730SOL    HW230090   5.756   3.273   2.939
 9731SOL     OW30091   5.356   5.298   1.161
 9731SOL    HW130092   5.305   5.229   1.213
 9731SOL    HW230093   5.305   5.384   1.163
 9732SOL     OW30094   5.708   6.176   4.089
 9732SOL    HW130095   5.706   6.276   4.087
 9732SOL    HW230096   5.786   6.145   4.143
 9733SOL     OW30097   5.292   4.689   5.861
 9733SOL    HW130098   5.241   4.732   5.936
 9733SOL    HW230099   5.253   4.718   5.774
 9734SOL     OW30100   5.841   1.913   5.691
 9734SOL    HW130101   5.832   1.976   5.614
 9734SOL    HW230102   5.937   1.910   5.720
 9735SOL     OW30103   3.118   4.489   0.625
 9735SOL    HW130104   3.167   4.408   0.657
 9735SOL    HW230105   3.156   4.517   0.537
 9736SOL     OW30106   3.240   1.920   1.764
 9736SOL    HW130107   3.243   1.908   1.665
 9736SOL    HW230108   3.192   2.005   1.786
 9737SOL     OW30109   4.414   2.253   4.421
 9737SOL    HW130110   4.445   2.164   4.388
 9737SOL    HW230111   4.326   2.243   4.468
 9738SOL     OW30112   2.873   0.935   2.206
 9738SOL    HW130113   2.933   0.991   2.148
 9738SOL    HW230114   2.800   0.895   2.150
 9739SOL     OW30115   5.876   4.536   1.613
 9739SOL    HW130116   5.804   4.488   1.562
 9739SOL    HW230117   5.863   4.522   1.711
 9740SOL     OW30118   6.669   3.839   2.861
 9740SOL    HW130119   6.745   3.892   2.899
 9740SOL    HW230120   6.587   3.897   2.855
 9741SOL     OW30121   3.887   1.318   2.011
 9741SOL    HW130122   3.870   1.394   2.073
 9741SOL    HW230123   3.918   1.238   2.063
 9742SOL     OW30124   4.546   1.790   3.803
 9742SOL    HW130125   4.548   1.883   3.768
 9742SOL    HW230126   4.611   1.781   3.879
 9743SOL     OW30127   1.121   1.782   5.611
 9743SOL    HW130128   1.147   1.851   5.678
 9743SOL    HW230129   1.202   1.749   5.564
 9744SOL     OW30130   2.441   0.524   1.892
 9744SOL    HW130131   2.510   0.472   1.942
 9744SOL    HW230132   2.479   0.555   1.804
 9745SOL     OW30133   0.764   0.975   4.857
 9745SOL    HW130134   0.685   0.915   4.843
 9745SOL    HW230135   0.831   0.928   4.914
 9746SOL     OW30136   6.730   0.647   3.839
 9746SOL    HW130137   6.689   0.563   3.804
 9746SOL    HW230138   6.680   0.726   3.803
 9747SOL     OW30139   0.308   0.479   6.472
 9747SOL    HW130140   0.298   0.380   6.472
 9747SOL    HW230141   0.295   0.514   6.565
 9748SOL     OW30142   1.024   4.527   4.064
 9748SOL    HW130143   1.017   4.550   3.967
 9748SOL    HW230144   0.946   4.568   4.112
 9749SOL     OW30145   0.416   4.996   4.105
 9749SOL    HW130146   0.496   5.054   4.091
 9749SOL    HW230147   0.379   4.967   4.016
 9750SOL     OW30148   3.062   5.248   2.556
 9750SOL    HW130149   3.036   5.209   2.467
 9750SOL    HW230150   3.161   5.253   2.562
 9751SOL     OW30151   1.348   2.591   0.850
 9751SOL    HW130152   1.356   2.661   0.779
 9751SOL    HW230153   1.416   2.608   0.921
 9752SOL     OW30154   4.165   0.820   5.861
 9752SOL    HW130155   4.147   0.886   5.934
 9752SOL    HW230156   4.253   0.840   5.818
 9753SOL     OW30157   0.114   6.589   6.791
 9753SOL    HW130158   0.117   6.551   6.884
 9753SOL    HW230159   0.177   6.538   6.733
 9754SOL     OW30160   0.442   2.880   6.285
 9754SOL    HW130161   0.457   2.959   6.225
 9754SOL    HW230162   0.345   2.855   6.283
 9755SOL     OW30163   3.558   5.539   5.651
 9755SOL    HW130164   3.520   5.541   5.744
 9755SOL    HW230165   3.486   5.515   5.586
 9756SOL     OW30166   5.395   2.556   5.447
 9756SOL    HW130167   5.375   2.460   5.427
 9756SOL    HW230168   5.320   2.614   5.412
 9757SOL     OW30169   6.553   0.855   3.698
 9757SOL    HW130170   6.553   0.861   3.598
 9757SOL    HW230171   6.460   0.870   3.732
 9758SOL     OW30172   3.455   0.698   0.065
 9758SOL    HW130173   3.523   0.632   0.096
 9758SOL    HW230174   3.364   0.658   0.073
 9759SOL     OW30175   3.231   5.756   1.533
 9759SOL    HW130176   3.251   5.808   1.450
 9759SOL    HW230177   3.132   5.739   1.539
 9760SOL     OW30178   5.607   4.807   5.879
 9760SOL    HW130179   5.644   4.896   5.906
 9760SOL    HW230180   5.525   4.820   5.823
 9761SOL     OW30181   5.293   5.267   2.873
 9761SOL    HW130182   5.392   5.254   2.882
 9761SOL    HW230183   5.255   5.296   2.961
 9762SOL     OW30184   3.483   0.704   2.940
 9762SOL    HW130185   3.418   0.712   2.864
 9762SOL    HW230186   3.446   0.750   3.020
 9763SOL     OW30187   1.861   1.778   2.194
 9763SOL    HW130188   1.889   1.791   2.099
 9763SOL    HW230189   1.783   1.837   2.215
 9764SOL     OW30190   1.047   2.557   2.748
 9764SOL    HW130191   1.070   2.588   2.841
 9764SOL    HW230192   1.129   2.558   2.691
 9765SOL     OW30193   0.130   0.782   5.526
 9765SOL    HW130194   0.043   0.787   5.477
 9765SOL    HW230195   0.205   0.796   5.462
 9766SOL     OW30196   2.182   0.546   3.091
 9766SOL    HW130197   2.241   0.517   3.016
 9766SOL    HW230198   2.147   0.466   3.139
 9767SOL     OW30199   5.103   0.302   5.495
 9767SOL    HW130200   5.110   0.319   5.593
 9767SOL    HW230201   5.100   0.204   5.478
 9768SOL     OW30202   4.875   2.449   4.408
 9768SOL    HW130203   4.778   2.448   4.386
 9768SOL    HW230204   4.887   2.469   4.505
 9769SOL     OW30205   0.308   1.918   1.040
 9769SOL    HW130206   0.362   1.840   1.070
 9769SOL    HW230207   0.335   1.999   1.092
 9770SOL     OW30208   0.389   3.118   5.570
 9770SOL    HW130209   0.363   3.127   5.474
 9770SOL    HW230210   0.433   3.029   5.585
 9771SOL     OW30211   3.146   5.532   3.562
 9771SOL    HW130212   3.227   5.559   3.615
 9771SOL    HW230213   3.064   5.566   3.607
 9772SOL     OW30214   6.009   6.602   0.633
 9772SOL    HW130215   6.046   6.575   0.721
 9772SOL    HW230216   6.060   6.557   0.560
 9773SOL     OW30217   4.742   5.161   3.842
 9773SOL    HW130218   4.660   5.215   3.822
 9773SOL    HW230219   4.762   5.101   3.764
 9774SOL     OW30220   6.980   5.057   4.613
 9774SOL    HW130221   6.997   5.155   4.608
 9774SOL    HW230222   6.966   5.020   4.520
 9775SOL     OW30223   2.985   2.207   4.456
 9775SOL    HW130224   2.964   2.224   4.553
 9775SOL    HW230225   2.909   2.158   4.414
 9776SOL     OW30226   0.319   4.542   3.945
 9776SOL    HW130227   0.276   4.605   3.880
 9776SOL    HW230228   0.378   4.593   4.007
 9777SOL     OW30229   4.960   5.586   6.163
 9777SOL    HW130230   4.994   5.501   6.124
 9777SOL    HW230231   4.954   5.656   6.091
 9778SOL     OW30232   3.874   0.507   4.510
 9778SOL    HW130233   3.781   0.531   4.537
 9778SOL    HW230234   3.873   0.457   4.424
 9779SOL     OW30235   3.010   2.025   6.792
 9779SOL    HW130236   2.952   1.995   6.716
 9779SOL    HW230237   3.089   2.075   6.757
 9780SOL     OW30238   2.882   4.389   0.777
 9780SOL    HW130239   2.931   4.439   0.705
 9780SOL    HW230240   2.947   4.362   0.849
 9781SOL     OW30241   1.216   6.697   4.409
 9781SOL    HW130242   1.218   6.601   4.379
 9781SOL    HW230243   1.174   6.703   4.499
 9782SOL     OW30244   5.857   0.150   0.506
 9782SOL    HW130245   5.824   0.208   0.431
 9782SOL    HW230246   5.930   0.197   0.556
 9783SOL     OW30247   6.238   0.451   3.410
 9783SOL    HW130248   6.285   0.364   3.396
 9783SOL    HW230249   6.266   0.516   3.339
 9784SOL     OW30250   5.885   0.479   4.383
 9784SOL    HW130251   5.809   0.466   4.319
 9784SOL    HW230252   5.851   0.523   4.466
 9785SOL     OW30253   0.762   2.967   1.455
 9785SOL    HW130254   0.790   3.061   1.472
 9785SOL    HW230255   0.807   2.906   1.520
 9786SOL     OW30256   2.498   6.884   4.686
 9786SOL    HW130257   2.526   6.969   4.640
 9786SOL    HW230258   2.400   6.886   4.701
 9787SOL     OW30259   5.977   4.280   1.188
 9787SOL    HW130260   6.041   4.307   1.116
 9787SOL    HW230261   5.968   4.353   1.255
 9788SOL     OW30262   6.760   0.970   5.644
 9788SOL    HW130263   6.705   0.963   5.561
 9788SOL    HW230264   6.856   0.954   5.621
 9789SOL     OW30265   1.712   4.954   4.869
 9789SOL    HW130266   1.808   4.960   4.842
 9789SOL    HW230267   1.654   4.981   4.792
 9790SOL     OW30268   6.939   1.353   3.464
 9790SOL    HW130269   6.993   1.269   3.463
 9790SOL    HW230270   6.951   1.399   3.552
 9791SOL     OW30271   1.259   2.282   1.412
 9791SOL    HW130272   1.269   2.381   1.407
 9791SOL    HW230273   1.295   2.249   1.499
 9792SOL     OW30274   3.262   5.726   2.213
 9792SOL    HW130275   3.336   5.671   2.175
 9792SOL    HW230276   3.253   5.811   2.161
 9793SOL     OW30277   5.445   6.031   2.453
 9793SOL    HW130278   5.443   5.969   2.532
 9793SOL    HW230279   5.409   6.120   2.480
 9794SOL     OW30280   3.547   2.956   6.498
 9794SOL    HW130281   3.645   2.972   6.513
 9794SOL    HW230282   3.514   2.887   6.562
 9795SOL     OW30283   2.088   5.139   3.555
 9795SOL    HW130284   2.077   5.135   3.655
 9795SOL    HW230285   2.123   5.229   3.529
 9796SOL     OW30286   3.758   4.897   0.561
 9796SOL    HW130287   3.711   4.881   0.474
 9796SOL    HW230288   3.857   4.889   0.546
 9797SOL     OW30289   5.363   3.420   5.380
 9797SOL    HW130290   5.316   3.452   5.298
 9797SOL    HW230291   5.422   3.493   5.415
 9798SOL     OW30292   2.546   1.879   1.791
 9798SOL    HW130293   2.576   1.973   1.797
 9798SOL    HW230294   2.567   1.832   1.877
 9799SOL     OW30295   3.505   3.943   2.640
 9799SOL    HW130296   3.481   4.018   2.702
 9799SOL    HW230297   3.422   3.895   2.612
 9800SOL     OW30298   3.968   5.357   0.407
 9800SOL    HW130299   3.868   5.357   0.407
 9800SOL    HW230300   4.002   5.444   0.443
 9801SOL     OW30301   5.206   5.133   1.313
 9801SOL    HW130302   5.236   5.041   1.289
 9801SOL    HW230303   5.106   5.134   1.320
 9802SOL     OW30304   0.572   5.479   1.497
 9802SOL    HW130305   0.641   5.483   1.570
 9802SOL    HW230306   0.578   5.563   1.442
 9803SOL     OW30307   5.254   0.341   6.332
 9803SOL    HW130308   5.294   0.249   6.334
 9803SOL    HW230309   5.326   0.409   6.347
 9804SOL     OW30310   4.660   5.384   4.091
 9804SOL    HW130311   4.682   5.382   3.993
 9804SOL    HW230312   4.728   5.440   4.139
 9805SOL     OW30313   3.666   3.828   1.077
 9805SOL    HW130314   3.738   3.766   1.046
 9805SOL    HW230315   3.691   3.866   1.166
 9806SOL     OW30316   6.888   1.678   2.590
 9806SOL    HW130317   6.907   1.763   2.542
 9806SOL    HW230318   6.963   1.658   2.654
 9807SOL     OW30319   1.977   3.455   1.376
 9807SOL    HW130320   2.029   3.536   1.402
 9807SOL    HW230321   1.974   3.448   1.277
 9808SOL     OW30322   2.133   1.757   4.058
 9808SOL    HW130323   2.048   1.795   4.024
 9808SOL    HW230324   2.160   1.805   4.142
 9809SOL     OW30325   0.693   1.030   4.363
 9809SOL    HW130326   0.755   0.954   4.344
 9809SOL    HW230327   0.624   1.036   4.291
 9810SOL     OW30328   4.110   1.471   2.558
 9810SOL    HW130329   4.122   1.490   2.461
 9810SOL    HW230330   4.020   1.429   2.573
 9811SOL     OW30331   1.192   0.387   2.803
 9811SOL    HW130332   1.163   0.342   2.888
 9811SOL    HW230333   1.222   0.480   2.823
 9812SOL     OW30334   5.970   3.199   5.762
 9812SOL    HW130335   5.963   3.212   5.861
 9812SOL    HW230336   5.886   3.231   5.718
 9813SOL     OW30337   6.411   3.986   0.173
 9813SOL    HW130338   6.431   3.932   0.255
 9813SOL    HW230339   6.327   3.952   0.131
 9814SOL     OW30340   6.530   1.017   6.011
 9814SOL    HW130341   6.500   1.000   6.105
 9814SOL    HW230342   6.508   0.938   5.955
 9815SOL     OW30343   6.768   4.437   2.115
 9815SOL    HW130344   6.805   4.353   2.156
 9815SOL    HW230345   6.787   4.437   2.017
 9816SOL     OW30346   6.191   1.345   5.482
 9816SOL    HW130347   6.182   1.319   5.578
 9816SOL    HW230348   6.134   1.286   5.425
 9817SOL     OW30349   2.477   0.988   0.476
 9817SOL    HW130350   2.497   0.921   0.404
 9817SOL    HW230351   2.560   1.006   0.528
 9818SOL     OW30352   0.321   6.719   2.135
 9818SOL    HW130353   0.301   6.815   2.117
 9818SOL    HW230354   0.400   6.713   2.196
 9819SOL     OW30355   6.398   1.837   4.656
 9819SOL    HW130356   6.494   1.812   4.640
 9819SOL    HW230357   6.387   1.936   4.647
 9820SOL     OW30358   3.910   1.075   6.280
 9820SOL    HW130359   3.838   1.076   6.210
 9820SOL    HW230360   3.868   1.074   6.371
 9821SOL     OW30361   4.503   3.210   0.198
 9821SOL    HW130362   4.492   3.220   0.297
 9821SOL    HW230363   4.448   3.279   0.151
 9822SOL     OW30364   3.290   5.093   4.195
 9822SOL    HW130365   3.386   5.093   4.225
 9822SOL    HW230366   3.237   5.154   4.254
 9823SOL     OW30367   4.185   6.924   3.408
 9823SOL    HW130368   4.201   6.880   3.496
 9823SOL    HW230369   4.095   6.966   3.407
 9824SOL     OW30370   1.187   5.884   5.085
 9824SOL    HW130371   1.114   5.818   5.072
 9824SOL    HW230372   1.148   5.975   5.101
 9825SOL     OW30373   1.021   6.081   5.181
 9825SOL    HW130374   0.993   6.082   5.277
 9825SOL    HW230375   0.946   6.045   5.125
 9826SOL     OW30376   1.739   5.769   6.681
 9826SOL    HW130377   1.692   5.857   6.682
 9826SOL    HW230378   1.776   5.751   6.772
 9827SOL     OW30379   1.729   4.730   1.285
 9827SOL    HW130380   1.794   4.654   1.294
 9827SOL    HW230381   1.681   4.742   1.372
 9828SOL     OW30382   4.855   2.228   4.125
 9828SOL    HW130383   4.923   2.180   4.180
 9828SOL    HW230384   4.901   2.294   4.066
 9829SOL     OW30385   5.327   4.792   5.576
 9829SOL    HW130386   5.424   4.770   5.583
 9829SOL    HW230387   5.281   4.720   5.524
 9830SOL     OW30388   6.301   1.064   3.521
 9830SOL    HW130389   6.317   1.125   3.599
 9830SOL    HW230390   6.384   1.011   3.503
 9831SOL     OW30391   6.904   5.148   2.023
 9831SOL    HW130392   6.965   5.068   2.025
 9831SOL    HW230393   6.923   5.202   1.941
 9832SOL     OW30394   4.840   6.265   4.894
 9832SOL    HW130395   4.799   6.257   4.803
 9832SOL    HW230396   4.922   6.321   4.889
 9833SOL     OW30397   3.965   3.266   4.703
 9833SOL    HW130398   4.032   3.212   4.652
 9833SOL    HW230399   3.874   3.252   4.664
 9834SOL     OW30400   2.959   5.985   6.016
 9834SOL    HW130401   2.869   6.002   5.978
 9834SOL    HW230402   3.017   5.939   5.948
 9835SOL     OW30403   3.726   3.113   3.924
 9835SOL    HW130404   3.628   3.107   3.904
 9835SOL    HW230405   3.750   3.045   3.994
 9836SOL     OW30406   6.569   3.122   5.068
 9836SOL    HW130407   6.643   3.172   5.112
 9836SOL    HW230408   6.591   3.109   4.971
 9837SOL     OW30409   6.855   0.921   3.580
 9837SOL    HW130410   6.913   0.902   3.659
 9837SOL    HW230411   6.761   0.935   3.610
 9838SOL     OW30412   0.274   5.544   0.878
 9838SOL    HW130413   0.198   5.480   0.866
 9838SOL    HW230414   0.314   5.531   0.969
 9839SOL     OW30415   4.295   6.332   3.436
 9839SOL    HW130416   4.372   6.386   3.402
 9839SOL    HW230417   4.259   6.374   3.519
 9840SOL     OW30418   6.378   1.992   6.959
 9840SOL    HW130419   6.307   1.977   6.890
 9840SOL    HW230420   6.369   1.924   0.015
 9841SOL     OW30421   0.369   6.045   1.947
 9841SOL    HW130422   0.367   6.079   1.853
 9841SOL    HW230423   0.278   6.050   1.987
 9842SOL     OW30424   4.003   0.319   0.561
 9842SOL    HW130425   3.969   0.270   0.481
 9842SOL    HW230426   4.103   0.321   0.560
 9843SOL     OW30427   0.321   0.264   0.391
 9843SOL    HW130428   0.400   0.282   0.450
 9843SOL    HW230429   0.283   0.351   0.359
 9844SOL     OW30430   5.012   0.419   5.054
 9844SOL    HW130431   5.055   0.356   4.989
 9844SOL    HW230432   5.071   0.498   5.068
 9845SOL     OW30433   1.120   3.670   2.199
 9845SOL    HW130434   1.194   3.730   2.170
 9845SOL    HW230435   1.153   3.575   2.201
 9846SOL     OW30436   5.739   2.126   2.399
 9846SOL    HW130437   5.708   2.045   2.351
 9846SOL    HW230438   5.819   2.104   2.454
 9847SOL     OW30439   3.928   4.395   6.795
 9847SOL    HW130440   3.856   4.406   6.863
 9847SOL    HW230441   3.892   4.345   6.716
 9848SOL     OW30442   2.898   4.145   5.472
 9848SOL    HW130443   2.866   4.217   5.533
 9848SOL    HW230444   2.997   4.153   5.459
 9849SOL     OW30445   1.959   2.180   3.046
 9849SOL    HW130446   1.987   2.275   3.062
 9849SOL    HW230447   2.037   2.129   3.008
 9850SOL     OW30448   1.167   0.295   4.512
 9850SOL    HW130449   1.259   0.270   4.543
 9850SOL    HW230450   1.124   0.355   4.579
 9851SOL     OW30451   3.370   5.162   3.540
 9851SOL    HW130452   3.357   5.063   3.535
 9851SOL    HW230453   3.343   5.194   3.631
 9852SOL     OW30454   2.399   6.811   0.149
 9852SOL    HW130455   2.493   6.839   0.129
 9852SOL    HW230456   2.337   6.888   0.134
 9853SOL     OW30457   0.286   4.318   3.774
 9853SOL    HW130458   0.296   4.395   3.837
 9853SOL    HW230459   0.192   4.314   3.740
 9854SOL     OW30460   6.348   3.317   6.762
 9854SOL    HW130461   6.274   3.307   6.696
 9854SOL    HW230462   6.416   3.245   6.748
 9855SOL     OW30463   1.012   5.788   6.965
 9855SOL    HW130464   1.010   5.730   0.028
 9855SOL    HW230465   1.083   5.858   6.975
 9856SOL     OW30466   5.291   3.789   3.207
 9856SOL    HW130467   5.275   3.868   3.266
 9856SOL    HW230468   5.389   3.767   3.207
 9857SOL     OW30469   5.054   0.620   6.245
 9857SOL    HW130470   5.053   0.533   6.293
 9857SOL    HW230471   5.137   0.671   6.269
 9858SOL     OW30472   6.725   5.554   2.273
 9858SOL    HW130473   6.756   5.502   2.353
 9858SOL    HW230474   6.788   5.539   2.197
 9859SOL     OW30475   0.799   4.886   2.229
 9859SOL    HW130476   0.847   4.973   2.234
 9859SOL    HW230477   0.709   4.900   2.189
 9860SOL     OW30478   1.832   3.378   3.808
 9860SOL    HW130479   1.879   3.444   3.866
 9860SOL    HW230480   1.777   3.426   3.739
 9861SOL     OW30481   3.283   1.884   3.942
 9861SOL    HW130482   3.375   1.845   3.933
 9861SOL    HW230483   3.263   1.942   3.864
 9862SOL     OW30484   1.836   2.837   6.713
 9862SOL    HW130485   1.740   2.811   6.704
 9862SOL    HW230486   1.849   2.931   6.680
 9863SOL     OW30487   4.109   6.456   1.992
 9863SOL    HW130488   4.080   6.361   1.998
 9863SOL    HW230489   4.143   6.475   1.900
 9864SOL     OW30490   2.979   6.046   5.416
 9864SOL    HW130491   2.909   6.027   5.347
 9864SOL    HW230492   3.002   5.962   5.465
 9865SOL     OW30493   2.251   5.969   6.000
 9865SOL    HW130494   2.196   5.886   5.987
 9865SOL    HW230495   2.191   6.045   6.024
 9866SOL     OW30496   6.677   5.342   6.376
 9866SOL    HW130497   6.707   5.309   6.287
 9866SOL    HW230498   6.714   5.434   6.392
 9867SOL     OW30499   4.790   1.065   2.392
 9867SOL    HW130500   4.818   1.016   2.309
 9867SOL    HW230501   4.807   1.163   2.381
 9868SOL     OW30502   2.335   4.695   3.133
 9868SOL    HW130503   2.314   4.605   3.095
 9868SOL    HW230504   2.293   4.704   3.223
 9869SOL     OW30505   6.201   2.643   2.993
 9869SOL    HW130506   6.153   2.662   3.078
 9869SOL    HW230507   6.262   2.565   3.006
 9870SOL     OW30508   2.063   2.442   3.022
 9870SOL    HW130509   1.994   2.492   2.969
 9870SOL    HW230510   2.054   2.466   3.119
 9871SOL     OW30511   5.823   5.985   3.080
 9871SOL    HW130512   5.836   5.891   3.111
 9871SOL    HW230513   5.831   6.048   3.157
 9872SOL     OW30514   1.054   6.427   5.611
 9872SOL    HW130515   1.078   6.482   5.692
 9872SOL    HW230516   1.117   6.349   5.605
 9873SOL     OW30517   0.416   0.533   5.121
 9873SOL    HW130518   0.500   0.586   5.129
 9873SOL    HW230519   0.410   0.467   5.195
 9874SOL     OW30520   0.277   1.834   3.443
 9874SOL    HW130521   0.231   1.814   3.530
 9874SOL    HW230522   0.237   1.777   3.371
 9875SOL     OW30523   6.257   5.947   0.829
 9875SOL    HW130524   6.342   5.986   0.793
 9875SOL    HW230525   6.254   5.961   0.928
 9876SOL     OW30526   0.148   0.028   3.659
 9876SOL    HW130527   0.208   6.971   3.688
 9876SOL    HW230528   0.204   0.106   3.629
 9877SOL     OW30529   1.512   6.156   5.128
 9877SOL    HW130530   1.601   6.193   5.154
 9877SOL    HW230531   1.506   6.150   5.028
 9878SOL     OW30532   4.169   2.830   6.991
 9878SOL    HW130533   4.222   2.777   0.038
 9878SOL    HW230534   4.177   2.928   7.013
 9879SOL     OW30535   5.490   6.017   4.392
 9879SOL    HW130536   5.563   6.078   4.423
 9879SOL    HW230537   5.501   5.998   4.295
 9880SOL     OW30538   3.824   1.175   0.987
 9880SOL    HW130539   3.776   1.151   1.071
 9880SOL    HW230540   3.898   1.238   1.007
 9881SOL     OW30541   6.601   0.212   3.369
 9881SOL    HW130542   6.647   0.261   3.443
 9881SOL    HW230543   6.551   0.277   3.312
 9882SOL     OW30544   3.476   3.200   4.449
 9882SOL    HW130545   3.478   3.204   4.349
 9882SOL    HW230546   3.399   3.255   4.482
 9883SOL     OW30547   1.805   5.906   2.870
 9883SOL    HW130548   1.778   5.849   2.947
 9883SOL    HW230549   1.898   5.881   2.840
 9884SOL     OW30550   3.345   2.590   5.326
 9884SOL    HW130551   3.277   2.556   5.261
 9884SOL    HW230552   3.347   2.690   5.323
 9885SOL     OW30553   5.157   2.366   5.483
 9885SOL    HW130554   5.069   2.411   5.467
 9885SOL    HW230555   5.144   2.292   5.549
 9886SOL     OW30556   2.893   6.272   1.349
 9886SOL    HW130557   2.881   6.176   1.324
 9886SOL    HW230558   2.834   6.329   1.293
 9887SOL     OW30559   4.131   0.762   6.782
 9887SOL    HW130560   4.053   0.718   6.827
 9887SOL    HW230561   4.102   0.802   6.695
 9888SOL     OW30562   6.490   6.243   3.653
 9888SOL    HW130563   6.494   6.319   3.588
 9888SOL    HW230564   6.538   6.269   3.737
 9889SOL     OW30565   5.978   6.287   2.170
 9889SOL    HW130566   5.976   6.364   2.233
 9889SOL    HW230567   6.013   6.206   2.218
 9890SOL     OW30568   1.886   3.194   2.972
 9890SOL    HW130569   1.849   3.281   2.939
 9890SOL    HW230570   1.905   3.135   2.893
 9891SOL     OW30571   4.146   6.489   1.726
 9891SOL    HW130572   4.214   6.474   1.654
 9891SOL    HW230573   4.101   6.577   1.712
 9892SOL     OW30574   1.838   6.059   3.168
 9892SOL    HW130575   1.772   6.077   3.095
 9892SOL    HW230576   1.789   6.030   3.250
 9893SOL     OW30577   5.651   4.439   5.294
 9893SOL    HW130578   5.685   4.353   5.334
 9893SOL    HW230579   5.634   4.426   5.197
 9894SOL     OW30580   4.140   3.926   5.910
 9894SOL    HW130581   4.044   3.921   5.939
 9894SOL    HW230582   4.147   3.975   5.823
 9895SOL     OW30583   5.379   2.001   6.112
 9895SOL    HW130584   5.368   1.955   6.024
 9895SOL    HW230585   5.476   2.015   6.131
 9896SOL     OW30586   4.067   3.949   0.241
 9896SOL    HW130587   4.024   3.943   0.151
 9896SOL    HW230588   4.062   4.043   0.275
 9897SOL     OW30589   1.177   1.474   2.766
 9897SOL    HW130590   1.121   1.394   2.748
 9897SOL    HW230591   1.139   1.525   2.843
 9898SOL     OW30592   0.641   5.071   0.329
 9898SOL    HW130593   0.555   5.115   0.306
 9898SOL    HW230594   0.626   5.003   0.401
 9899SOL     OW30595   4.108   5.350   2.232
 9899SOL    HW130596   4.125   5.436   2.280
 9899SOL    HW230597   4.015   5.350   2.196
 9900SOL     OW30598   2.127   4.932   3.931
 9900SOL    HW130599   2.207   4.916   3.988
 9900SOL    HW230600   2.066   4.853   3.936
 9901SOL     OW30601   2.752   1.496   5.654
 9901SOL    HW130602   2.833   1.537   5.614
 9901SOL    HW230603   2.776   1.451   5.740
 9902SOL     OW30604   3.993   4.004   7.002
 9902SOL    HW130605   3.981   3.905   6.987
 9902SOL    HW230606   4.020   4.047   6.916
 9903SOL     OW30607   2.993   1.254   1.202
 9903SOL    HW130608   3.001   1.257   1.301
 9903SOL    HW230609   3.079   1.224   1.162
 9904SOL     OW30610   6.765   6.472   2.278
 9904SOL    HW130611   6.844   6.527   2.303
 9904SOL    HW230612   6.735   6.417   2.357
 9905SOL     OW30613   2.409   6.941   6.279
 9905SOL    HW130614   2.435   6.941   6.376
 9905SOL    HW230615   2.457   7.017   6.233
 9906SOL     OW30616   3.203   4.498   5.959
 9906SOL    HW130617   3.124   4.455   5.917
 9906SOL    HW230618   3.283   4.439   5.948
 9907SOL     OW30619   0.696   6.664   2.845
 9907SOL    HW130620   0.796   6.660   2.839
 9907SOL    HW230621   0.656   6.613   2.769
 9908SOL     OW30622   6.825   2.840   5.203
 9908SOL    HW130623   6.832   2.809   5.298
 9908SOL    HW230624   6.910   2.818   5.154
 9909SOL     OW30625   2.431   6.713   2.683
 9909SOL    HW130626   2.374   6.658   2.744
 9909SOL    HW230627   2.382   6.796   2.658
 9910SOL     OW30628   0.550   5.760   0.376
 9910SOL    HW130629   0.450   5.754   0.378
 9910SOL    HW230630   0.589   5.691   0.436
 9911SOL     OW30631   3.731   4.825   2.443
 9911SOL    HW130632   3.740   4.813   2.344
 9911SOL    HW230633   3.657   4.890   2.462
 9912SOL     OW30634   5.895   6.522   0.268
 9912SOL    HW130635   5.961   6.507   0.341
 9912SOL    HW230636   5.833   6.596   0.293
 9913SOL     OW30637   5.123   2.361   2.997
 9913SOL    HW130638   5.135   2.412   2.912
 9913SOL    HW230639   5.095   2.267   2.975
 9914SOL     OW30640   2.199   5.396   4.063
 9914SOL    HW130641   2.295   5.408   4.037
 9914SOL    HW230642   2.193   5.336   4.143
 9915SOL     OW30643   6.112   4.653   4.255
 9915SOL    HW130644   6.131   4.725   4.188
 9915SOL    HW230645   6.196   4.630   4.304
 9916SOL     OW30646   2.192   3.676   0.492
 9916SOL    HW130647   2.165   3.583   0.470
 9916SOL    HW230648   2.186   3.691   0.591
 9917SOL     OW30649   2.090   3.316   4.356
 9917SOL    HW130650   2.078   3.321   4.257
 9917SOL    HW230651   2.038   3.238   4.392
 9918SOL     OW30652   2.168   0.959   4.567
 9918SOL    HW130653   2.102   0.887   4.586
 9918SOL    HW230654   2.148   1.000   4.478
 9919SOL     OW30655   0.816   5.281   1.381
 9919SOL    HW130656   0.816   5.368   1.332
 9919SOL    HW230657   0.722   5.258   1.407
 9920SOL     OW30658   3.845   0.311   3.194
 9920SOL    HW130659   3.934   0.320   3.239
 9920SOL    HW230660   3.787   0.389   3.219
 9921SOL     OW30661   4.605   0.851   2.254
 9921SOL    HW130662   4.506   0.838   2.266
 9921SOL    HW230663   4.624   0.949   2.243
 9922SOL     OW30664   5.353   2.677   2.126
 9922SOL    HW130665   5.401   2.594   2.154
 9922SOL    HW230666   5.317   2.665   2.033
 9923SOL     OW30667   6.429   0.393   6.562
 9923SOL    HW130668   6.361   0.410   6.633
 9923SOL    HW230669   6.465   0.300   6.572
 9924SOL     OW30670   5.236   1.180   3.820
 9924SOL    HW130671   5.298   1.238   3.767
 9924SOL    HW230672   5.249   1.198   3.917
 9925SOL     OW30673   4.153   2.150   5.031
 9925SOL    HW130674   4.191   2.242   5.035
 9925SOL    HW230675   4.072   2.150   4.973
 9926SOL     OW30676   2.185   1.496   5.831
 9926SOL    HW130677   2.215   1.416   5.779
 9926SOL    HW230678   2.183   1.576   5.771
 9927SOL     OW30679   1.202   3.726   3.567
 9927SOL    HW130680   1.234   3.632   3.571
 9927SOL    HW230681   1.281   3.788   3.561
 9928SOL     OW30682   6.883   2.656   2.156
 9928SOL    HW130683   6.968   2.702   2.132
 9928SOL    HW230684   6.879   2.566   2.113
 9929SOL     OW30685   1.453   5.264   5.548
 9929SOL    HW130686   1.356   5.281   5.532
 9929SOL    HW230687   1.468   5.245   5.645
 9930SOL     OW30688   6.446   5.241   6.469
 9930SOL    HW130689   6.531   5.286   6.440
 9930SOL    HW230690   6.459   5.201   6.560
 9931SOL     OW30691   2.254   4.275   6.971
 9931SOL    HW130692   2.285   4.363   6.936
 9931SOL    HW230693   2.302   4.201   6.923
 9932SOL     OW30694   1.970   2.402   1.390
 9932SOL    HW130695   2.029   2.332   1.350
 9932SOL    HW230696   2.013   2.440   1.471
 9933SOL     OW30697   0.872   1.489   3.395
 9933SOL    HW130698   0.931   1.459   3.469
 9933SOL    HW230699   0.923   1.552   3.336
 9934SOL     OW30700   4.904   0.974   6.033
 9934SOL    HW130701   4.896   0.966   6.132
 9934SOL    HW230702   4.916   1.071   6.009
 9935SOL     OW30703   2.601   3.283   0.604
 9935SOL    HW130704   2.615   3.245   0.513
 9935SOL    HW230705   2.554   3.371   0.596
 9936SOL     OW30706   5.079   6.506   6.807
 9936SOL    HW130707   5.163   6.518   6.754
 9936SOL    HW230708   5.007   6.472   6.747
 9937SOL     OW30709   1.644   6.783   4.215
 9937SOL    HW130710   1.707   6.754   4.143
 9937SOL    HW230711   1.645   6.716   4.289
 9938SOL     OW30712   6.809   1.492   2.970
 9938SOL    HW130713   6.764   1.575   3.004
 9938SOL    HW230714   6.741   1.436   2.922
 9939SOL     OW30715   2.970   3.790   1.474
 9939SOL    HW130716   3.052   3.733   1.486
 9939SOL    HW230717   2.996   3.886   1.481
 9940SOL     OW30718   0.275   1.078   3.164
 9940SOL    HW130719   0.317   1.094   3.253
 9940SOL    HW230720   0.346   1.065   3.095
 9941SOL     OW30721   6.076   3.011   0.544
 9941SOL    HW130722   6.070   3.084   0.612
 9941SOL    HW230723   6.171   2.998   0.517
 9942SOL     OW30724   6.067   5.548   2.657
 9942SOL    HW130725   6.156   5.538   2.614
 9942SOL    HW230726   6.025   5.635   2.627
 9943SOL     OW30727   1.072   4.414   5.592
 9943SOL    HW130728   1.043   4.319   5.606
 9943SOL    HW230729   1.133   4.419   5.513
 9944SOL     OW30730   2.616   5.645   6.920
 9944SOL    HW130731   2.640   5.559   6.875
 9944SOL    HW230732   2.698   5.700   6.933
 9945SOL     OW30733   6.555   3.280   5.921
 9945SOL    HW130734   6.519   3.188   5.931
 9945SOL    HW230735   6.531   3.335   6.001
 9946SOL     OW30736   5.626   2.155   1.949
 9946SOL    HW130737   5.642   2.067   1.905
 9946SOL    HW230738   5.714   2.200   1.965
 9947SOL     OW30739   0.848   0.437   3.037
 9947SOL    HW130740   0.807   0.518   2.996
 9947SOL    HW230741   0.776   0.381   3.078
 9948SOL     OW30742   5.689   0.910   5.305
 9948SOL    HW130743   5.711   0.813   5.295
 9948SOL    HW230744   5.736   0.947   5.385
 9949SOL     OW30745   6.625   3.158   2.991
 9949SOL    HW130746   6.607   3.091   3.063
 9949SOL    HW230747   6.543   3.169   2.934
 9950SOL     OW30748   4.734   5.329   6.136
 9950SOL    HW130749   4.695   5.378   6.058
 9950SOL    HW230750   4.764   5.395   6.205
 9951SOL     OW30751   7.009   2.256   2.877
 9951SOL    HW130752   0.058   2.329   2.892
 9951SOL    HW230753   0.037   2.168   2.886
 9952SOL     OW30754   1.478   4.528   1.432
 9952SOL    HW130755   1.445   4.481   1.350
 9952SOL    HW230756   1.405   4.534   1.499
 9953SOL     OW30757   6.140   4.676   4.877
 9953SOL    HW130758   6.196   4.698   4.797
 9953SOL    HW230759   6.159   4.582   4.906
 9954SOL     OW30760   4.591   1.438   1.505
 9954SOL    HW130761   4.633   1.348   1.494
 9954SOL    HW230762   4.569   1.475   1.415
 9955SOL     OW30763   6.039   4.838   1.037
 9955SOL    HW130764   5.960   4.780   1.018
 9955SOL    HW230765   6.081   4.811   1.123
 9956SOL     OW30766   1.431   3.900   3.596
 9956SOL    HW130767   1.444   3.829   3.526
 9956SOL    HW230768   1.481   3.874   3.679
 9957SOL     OW30769   5.715   6.717   0.309
 9957SOL    HW130770   5.630   6.752   0.347
 9957SOL    HW230771   5.733   6.761   0.221
 9958SOL     OW30772   6.281   6.187   5.866
 9958SOL    HW130773   6.366   6.156   5.823
 9958SOL    HW230774   6.286   6.285   5.883
 9959SOL     OW30775   5.764   5.394   6.853
 9959SOL    HW130776   5.801   5.361   6.766
 9959SOL    HW230777   5.825   5.367   6.928
 9960SOL     OW30778   6.906   0.203   6.478
 9960SOL    HW130779   6.989   0.199   6.534
 9960SOL    HW230780   6.930   0.218   6.383
 9961SOL     OW30781   3.508   0.280   0.594
 9961SOL    HW130782   3.417   0.238   0.594
 9961SOL    HW230783   3.513   0.348   0.668
 9962SOL     OW30784   3.417   0.301   1.278
 9962SOL    HW130785   3.398   0.390   1.319
 9962SOL    HW230786   3.333   0.262   1.241
 9963SOL     OW30787   1.343   0.362   6.716
 9963SOL    HW130788   1.317   0.357   6.813
 9963SOL    HW230789   1.441   0.344   6.707
 9964SOL     OW30790   4.545   5.407   5.474
 9964SOL    HW130791   4.473   5.342   5.452
 9964SOL    HW230792   4.596   5.374   5.554
 9965SOL     OW30793   2.124   4.810   4.460
 9965SOL    HW130794   2.196   4.871   4.494
 9965SOL    HW230795   2.165   4.721   4.437
 9966SOL     OW30796   2.497   5.447   2.190
 9966SOL    HW130797   2.526   5.513   2.120
 9966SOL    HW230798   2.400   5.424   2.176
 9967SOL     OW30799   0.142   0.710   2.649
 9967SOL    HW130800   0.155   0.631   2.709
 9967SOL    HW230801   0.058   0.699   2.596
 9968SOL     OW30802   4.693   6.440   0.024
 9968SOL    HW130803   4.776   6.395   7.011
 9968SOL    HW230804   4.702   6.465   0.120
 9969SOL     OW30805   0.261   6.008   2.855
 9969SOL    HW130806   0.351   6.042   2.886
 9969SOL    HW230807   0.209   5.975   2.934
 9970SOL     OW30808   7.013   3.403   1.803
 9970SOL    HW130809   0.002   3.335   1.730
 9970SOL    HW230810   7.005   3.494   1.764
 9971SOL     OW30811   7.006   5.360   5.467
 9971SOL    HW130812   6.931   5.420   5.440
 9971SOL    HW230813   0.007   5.372   5.564
 9972SOL     OW30814   3.045   4.918   6.056
 9972SOL    HW130815   3.000   4.874   5.978
 9972SOL    HW230816   3.103   4.851   6.102
 9973SOL     OW30817   3.004   2.215   3.103
 9973SOL    HW130818   2.907   2.194   3.114
 9973SOL    HW230819   3.034   2.186   3.012
 9974SOL     OW30820   1.078   2.935   2.773
 9974SOL    HW130821   1.054   2.903   2.864
 9974SOL    HW230822   1.127   2.864   2.724
 9975SOL     OW30823   1.668   3.943   6.832
 9975SOL    HW130824   1.678   4.043   6.832
 9975SOL    HW230825   1.728   3.904   6.902
 9976SOL     OW30826   3.924   6.148   5.464
 9976SOL    HW130827   3.969   6.060   5.450
 9976SOL    HW230828   3.894   6.155   5.560
 9977SOL     OW30829   4.219   0.452   5.434
 9977SOL    HW130830   4.301   0.399   5.454
 9977SOL    HW230831   4.148   0.428   5.500
 9978SOL     OW30832   6.740   2.812   0.414
 9978SOL    HW130833   6.675   2.888   0.420
 9978SOL    HW230834   6.720   2.758   0.332
 9979SOL     OW30835   3.779   4.039   3.773
 9979SOL    HW130836   3.872   4.010   3.748
 9979SOL    HW230837   3.729   4.062   3.689
 9980SOL     OW30838   0.226   0.081   0.182
 9980SOL    HW130839   0.193   0.157   0.126
 9980SOL    HW230840   0.277   0.116   0.261
 9981SOL     OW30841   5.858   1.148   0.361
 9981SOL    HW130842   5.944   1.118   0.320
 9981SOL    HW230843   5.852   1.116   0.455
 9982SOL     OW30844   2.685   2.100   4.485
 9982SOL    HW130845   2.618   2.075   4.414
 9982SOL    HW230846   2.667   2.048   4.568
 9983SOL     OW30847   0.112   2.731   2.149
 9983SOL    HW130848   0.161   2.677   2.218
 9983SOL    HW230849   0.159   2.722   2.061
 9984SOL     OW30850   0.830   4.685   0.903
 9984SOL    HW130851   0.771   4.735   0.966
 9984SOL    HW230852   0.817   4.586   0.917
 9985SOL     OW30853   5.163   4.464   7.001
 9985SOL    HW130854   5.220   4.408   6.941
 9985SOL    HW230855   5.067   4.458   6.971
 9986SOL     OW30856   5.217   4.613   6.513
 9986SOL    HW130857   5.181   4.601   6.606
 9986SOL    HW230858   5.302   4.561   6.504
 9987SOL     OW30859   4.584   2.282   0.643
 9987SOL    HW130860   4.549   2.372   0.667
 9987SOL    HW230861   4.598   2.229   0.727
 9988SOL     OW30862   5.955   6.682   3.445
 9988SOL    HW130863   5.897   6.709   3.368
 9988SOL    HW230864   5.901   6.681   3.529
 9989SOL     OW30865   5.717   5.929   1.593
 9989SOL    HW130866   5.711   5.960   1.498
 9989SOL    HW230867   5.717   5.829   1.595
 9990SOL     OW30868   0.605   5.997   2.788
 9990SOL    HW130869   0.654   6.030   2.869
 9990SOL    HW230870   0.579   5.901   2.803
 9991SOL     OW30871   1.650   4.126   1.560
 9991SOL    HW130872   1.736   4.076   1.548
 9991SOL    HW230873   1.573   4.064   1.546
 9992SOL     OW30874   2.408   5.072   6.489
 9992SOL    HW130875   2.479   5.008   6.460
 9992SOL    HW230876   2.320   5.043   6.451
 9993SOL     OW30877   3.858   6.960   4.972
 9993SOL    HW130878   3.889   0.036   4.956
 9993SOL    HW230879   3.767   6.961   5.014
 9994SOL     OW30880   5.946   5.128   4.680
 9994SOL    HW130881   5.875   5.197   4.666
 9994SOL    HW230882   5.973   5.128   4.777
 9995SOL     OW30883   4.512   1.381   6.288
 9995SOL    HW130884   4.431   1.358   6.342
 9995SOL    HW230885   4.595   1.361   6.341
 9996SOL     OW30886   2.543   4.985   0.927
 9996SOL    HW130887   2.470   4.972   0.994
 9996SOL    HW230888   2.502   5.000   0.837
 9997SOL     OW30889   6.362   0.920   2.977
 9997SOL    HW130890   6.354   0.956   3.070
 9997SOL    HW230891   6.454   0.937   2.942
 9998SOL     OW30892   5.408   3.548   2.793
 9998SOL    HW130893   5.347   3.539   2.714
 9998SOL    HW230894   5.390   3.635   2.839
 9999SOL     OW30895   0.814   6.695   5.016
 9999SOL    HW130896   0.896   6.739   4.980
 9999SOL    HW230897   0.734   6.731   4.968
10000SOL     OW30898   4.687   2.402   1.217
10000SOL    HW130899   4.632   2.395   1.300
10000SOL    HW230900   4.643   2.464   1.152
10001SOL     OW30901   4.010   6.716   1.638
10001SOL    HW130902   4.061   6.755   1.561
10001SOL    HW230903   3.913   6.710   1.615
10002SOL     OW30904   2.095   6.313   2.543
10002SOL    HW130905   2.002   6.349   2.553
10002SOL    HW230906   2.099   6.220   2.580
10003SOL     OW30907   1.240   0.757   2.220
10003SOL    HW130908   1.330   0.777   2.181
10003SOL    HW230909   1.179   0.727   2.147
10004SOL     OW30910   6.914   3.463   3.515
10004SOL    HW130911   6.816   3.457   3.534
10004SOL    HW230912   6.939   3.559   3.502
10005SOL     OW30913   2.486   5.373   2.711
10005SOL    HW130914   2.576   5.354   2.671
10005SOL    HW230915   2.455   5.293   2.762
10006SOL     OW30916   5.548   1.947   5.659
10006SOL    HW130917   5.575   2.017   5.592
10006SOL    HW230918   5.622   1.934   5.725
10007SOL     OW30919   1.592   5.158   3.816
10007SOL    HW130920   1.646   5.074   3.819
10007SOL    HW230921   1.525   5.152   3.742
10008SOL     OW30922   4.307   0.888   5.615
10008SOL    HW130923   4.213   0.914   5.595
10008SOL    HW230924   4.323   0.795   5.582
10009SOL     OW30925   0.966   5.187   1.836
10009SOL    HW130926   0.990   5.162   1.742
10009SOL    HW230927   0.882   5.139   1.863
10010SOL     OW30928   2.137   4.507   0.875
10010SOL    HW130929   2.063   4.509   0.942
10010SOL    HW230930   2.125   4.430   0.813
10011SOL     OW30931   3.255   3.427   0.150
10011SOL    HW130932   3.303   3.343   0.177
10011SOL    HW230933   3.308   3.473   0.079
10012SOL     OW30934   5.502   2.325   3.666
10012SOL    HW130935   5.520   2.302   3.570
10012SOL    HW230936   5.448   2.253   3.708
10013SOL     OW30937   1.016   6.275   4.939
10013SOL    HW130938   0.939   6.239   4.887
10013SOL    HW230939   1.063   6.200   4.986
10014SOL     OW30940   1.068   1.123   3.620
10014SOL    HW130941   1.011   1.068   3.560
10014SOL    HW230942   1.056   1.092   3.715
10015SOL     OW30943   4.470   0.039   6.631
10015SOL    HW130944   4.447   0.020   6.727
10015SOL    HW230945   4.412   7.001   6.571
10016SOL     OW30946   3.042   1.118   4.437
10016SOL    HW130947   3.101   1.108   4.516
10016SOL    HW230948   2.991   1.033   4.423
10017SOL     OW30949   3.212   1.559   2.881
10017SOL    HW130950   3.228   1.511   2.795
10017SOL    HW230951   3.187   1.493   2.952
10018SOL     OW30952   6.824   4.702   5.152
10018SOL    HW130953   6.760   4.709   5.074
10018SOL    HW230954   6.829   4.790   5.198
10019SOL     OW30955   6.830   1.991   2.435
10019SOL    HW130956   6.790   1.900   2.425
10019SOL    HW230957   6.930   1.984   2.430
10020SOL     OW30958   6.227   0.866   2.142
10020SOL    HW130959   6.310   0.911   2.110
10020SOL    HW230960   6.158   0.936   2.164
10021SOL     OW30961   1.149   3.782   1.541
10021SOL    HW130962   1.051   3.782   1.525
10021SOL    HW230963   1.168   3.820   1.632
10022SOL     OW30964   1.359   6.403   5.925
10022SOL    HW130965   1.390   6.312   5.896
10022SOL    HW230966   1.404   6.428   6.010
10023SOL     OW30967   0.517   1.752   6.062
10023SOL    HW130968   0.510   1.837   6.009
10023SOL    HW230969   0.496   1.674   6.003
10024SOL     OW30970   2.195   4.476   3.383
10024SOL    HW130971   2.295   4.464   3.378
10024SOL    HW230972   2.165   4.465   3.477
10025SOL     OW30973   0.716   2.595   1.392
10025SOL    HW130974   0.760   2.678   1.427
10025SOL    HW230975   0.617   2.609   1.388
10026SOL     OW30976   6.390   1.057   4.928
10026SOL    HW130977   6.359   1.074   5.021
10026SOL    HW230978   6.439   0.970   4.925
10027SOL     OW30979   3.503   1.278   5.252
10027SOL    HW130980   3.421   1.289   5.197
10027SOL    HW230981   3.478   1.256   5.347
10028SOL     OW30982   3.897   0.212   2.336
10028SOL    HW130983   3.981   0.179   2.378
10028SOL    HW230984   3.828   0.139   2.337
10029SOL     OW30985   6.560   4.314   3.805
10029SOL    HW130986   6.632   4.321   3.875
10029SOL    HW230987   6.600   4.333   3.715
10030SOL     OW30988   2.220   0.011   4.368
10030SOL    HW130989   2.209   0.096   4.318
10030SOL    HW230990   2.133   6.980   4.373
10031SOL     OW30991   2.011   6.228   3.731
10031SOL    HW130992   2.104   6.249   3.760
10031SOL    HW230993   1.984   6.292   3.659
10032SOL     OW30994   3.171   5.769   3.970
10032SOL    HW130995   3.258   5.819   3.971
10032SOL    HW230996   3.111   5.809   3.901
10033SOL     OW30997   2.740   1.184   5.007
10033SOL    HW130998   2.646   1.153   5.024
10033SOL    HW230999   2.750   1.278   5.038
10034SOL     OW31000   2.503   1.055   2.176
10034SOL    HW131001   2.463   0.985   2.117
10034SOL    HW231002   2.549   1.010   2.253
10035SOL     OW31003   6.916   3.045   2.887
10035SOL    HW131004   6.867   3.058   2.973
10035SOL    HW231005   6.852   3.015   2.816
10036SOL     OW31006   0.840   0.763   6.902
10036SOL    HW131007   0.928   0.717   6.892
10036SOL    HW231008   0.854   0.862   6.897
10037SOL     OW31009   6.010   6.901   5.798
10037SOL    HW131010   6.004   6.932   5.893
10037SOL    HW231011   6.069   6.963   5.747
10038SOL     OW31012   5.109   6.586   6.316
10038SOL    HW131013   5.125   6.491   6.342
10038SOL    HW231014   5.101   6.642   6.399
10039SOL     OW31015   0.113   5.737   1.741
10039SOL    HW131016   0.193   5.730   1.801
10039SOL    HW231017   0.053   5.810   1.774
10040SOL     OW31018   2.655   0.253   0.328
10040SOL    HW131019   2.692   0.338   0.291
10040SOL    HW231020   2.730   0.193   0.354
10041SOL     OW31021   5.750   5.180   5.115
10041SOL    HW131022   5.779   5.270   5.146
10041SOL    HW231023   5.807   5.110   5.159
10042SOL     OW31024   6.839   0.569   5.540
10042SOL    HW131025   6.783   0.579   5.623
10042SOL    HW231026   6.893   0.485   5.547
10043SOL     OW31027   0.496   0.572   2.858
10043SOL    HW131028   0.416   0.574   2.918
10043SOL    HW231029   0.505   0.660   2.811
10044SOL     OW31030   2.995   2.156   0.011
10044SOL    HW131031   2.904   2.182   0.043
10044SOL    HW231032   2.986   2.100   6.946
10045SOL     OW31033   3.871   6.496   4.240
10045SOL    HW131034   3.919   6.544   4.313
10045SOL    HW231035   3.879   6.548   4.155
10046SOL     OW31036   6.920   2.016   1.800
10046SOL    HW131037   6.868   1.961   1.736
10046SOL    HW231038   7.015   1.985   1.802
10047SOL     OW31039   1.003   2.237   3.182
10047SOL    HW131040   1.028   2.142   3.164
10047SOL    HW231041   1.063   2.275   3.252
10048SOL     OW31042   3.597   2.468   1.687
10048SOL    HW131043   3.604   2.557   1.733
10048SOL    HW231044   3.589   2.396   1.755
10049SOL     OW31045   1.936   6.402   4.436
10049SOL    HW131046   1.846   6.358   4.442
10049SOL    HW231047   1.927   6.499   4.457
10050SOL     OW31048   5.824   1.532   5.007
10050SOL    HW131049   5.807   1.583   4.924
10050SOL    HW231050   5.919   1.544   5.036
10051SOL     OW31051   6.163   2.554   0.512
10051SOL    HW131052   6.070   2.545   0.546
10051SOL    HW231053   6.188   2.473   0.459
10052SOL     OW31054   1.613   4.932   1.054
10052SOL    HW131055   1.678   4.887   0.994
10052SOL    HW231056   1.643   4.924   1.149
10053SOL     OW31057   3.046   6.537   3.275
10053SOL    HW131058   2.976   6.599   3.311
10053SOL    HW231059   3.133   6.556   3.321
10054SOL     OW31060   4.318   5.527   3.862
10054SOL    HW131061   4.229   5.520   3.817
10054SOL    HW231062   4.310   5.497   3.957
10055SOL     OW31063   6.032   3.028   6.677
10055SOL    HW131064   5.943   3.074   6.678
10055SOL    HW231065   6.030   2.951   6.614
10056SOL     OW31066   5.803   4.340   2.133
10056SOL    HW131067   5.808   4.252   2.180
10056SOL    HW231068   5.742   4.401   2.183
10057SOL     OW31069   2.495   2.123   3.602
10057SOL    HW131070   2.559   2.196   3.577
10057SOL    HW231071   2.486   2.060   3.525
10058SOL     OW31072   1.008   5.061   3.617
10058SOL    HW131073   1.090   5.043   3.671
10058SOL    HW231074   1.008   5.003   3.535
10059SOL     OW31075   5.483   0.423   1.343
10059SOL    HW131076   5.522   0.434   1.435
10059SOL    HW231077   5.429   0.505   1.320
10060SOL     OW31078   2.280   2.462   2.236
10060SOL    HW131079   2.304   2.531   2.304
10060SOL    HW231080   2.312   2.491   2.146
10061SOL     OW31081   6.405   1.754   4.994
10061SOL    HW131082   6.387   1.849   4.969
10061SOL    HW231083   6.473   1.715   4.932
10062SOL     OW31084   5.477   5.854   2.685
10062SOL    HW131085   5.407   5.800   2.731
10062SOL    HW231086   5.524   5.911   2.752
10063SOL     OW31087   0.711   2.684   2.480
10063SOL    HW131088   0.667   2.654   2.395
10063SOL    HW231089   0.654   2.754   2.524
10064SOL     OW31090   5.299   5.660   5.476
10064SOL    HW131091   5.319   5.740   5.420
10064SOL    HW231092   5.376   5.595   5.471
10065SOL     OW31093   0.955   6.744   3.101
10065SOL    HW131094   0.962   6.674   3.173
10065SOL    HW231095   1.047   6.777   3.078
10066SOL     OW31096   0.555   0.250   3.361
10066SOL    HW131097   0.595   0.304   3.435
10066SOL    HW231098   0.610   0.261   3.278
10067SOL     OW31099   5.061   6.584   3.590
10067SOL    HW131100   5.075   6.615   3.496
10067SOL    HW231101   5.123   6.634   3.651
10068SOL     OW31102   5.001   3.909   5.847
10068SOL    HW131103   4.980   3.846   5.922
10068SOL    HW231104   4.917   3.935   5.801
10069SOL     OW31105   4.842   1.145   3.807
10069SOL    HW131106   4.841   1.091   3.891
10069SOL    HW231107   4.809   1.237   3.826
10070SOL     OW31108   1.423   6.927   4.454
10070SOL    HW131109   1.395   6.850   4.398
10070SOL    HW231110   1.350   6.950   4.518
10071SOL     OW31111   4.939   4.705   5.067
10071SOL    HW131112   5.006   4.684   5.139
10071SOL    HW231113   4.948   4.639   4.993
10072SOL     OW31114   1.184   6.879   4.039
10072SOL    HW131115   1.157   6.942   3.967
10072SOL    HW231116   1.273   6.906   4.076
10073SOL     OW31117   6.723   5.617   6.422
10073SOL    HW131118   6.635   5.632   6.466
10073SOL    HW231119   6.722   5.654   6.329
10074SOL     OW31120   2.627   7.009   5.666
10074SOL    HW131121   2.559   6.936   5.667
10074SOL    HW231122   2.718   6.969   5.681
10075SOL     OW31123   1.370   2.266   4.034
10075SOL    HW131124   1.371   2.365   4.050
10075SOL    HW231125   1.419   2.220   4.108
10076SOL     OW31126   5.917   0.169   3.975
10076SOL    HW131127   5.826   0.198   3.945
10076SOL    HW231128   5.981   0.245   3.965
10077SOL     OW31129   2.672   1.301   0.025
10077SOL    HW131130   2.736   1.342   0.091
10077SOL    HW231131   2.632   1.219   0.064
10078SOL     OW31132   5.616   6.104   5.525
10078SOL    HW131133   5.561   6.045   5.584
10078SOL    HW231134   5.704   6.123   5.568
10079SOL     OW31135   6.899   2.615   5.898
10079SOL    HW131136   6.949   2.698   5.923
10079SOL    HW231137   6.943   2.535   5.939
10080SOL     OW31138   1.419   2.753   5.485
10080SOL    HW131139   1.415   2.663   5.443
10080SOL    HW231140   1.454   2.819   5.418
10081SOL     OW31141   0.295   1.257   0.324
10081SOL    HW131142   0.390   1.286   0.320
10081SOL    HW231143   0.282   1.175   0.268
10082SOL     OW31144   0.079   0.299   0.573
10082SOL    HW131145   0.155   0.264   0.518
10082SOL    HW231146   7.018   0.239   0.563
10083SOL     OW31147   5.247   1.420   4.771
10083SOL    HW131148   5.167   1.361   4.774
10083SOL    HW231149   5.309   1.389   4.699
10084SOL     OW31150   2.216   1.134   6.667
10084SOL    HW131151   2.272   1.067   6.619
10084SOL    HW231152   2.265   1.221   6.672
10085SOL     OW31153   0.693   5.304   2.476
10085SOL    HW131154   0.699   5.311   2.376
10085SOL    HW231155   0.713   5.394   2.516
10086SOL     OW31156   6.720   3.470   2.387
10086SOL    HW131157   6.687   3.392   2.334
10086SOL    HW231158   6.815   3.454   2.413
10087SOL     OW31159   1.582   0.194   3.966
10087SOL    HW131160   1.511   0.220   4.031
10087SOL    HW231161   1.672   0.219   4.002
10088SOL     OW31162   6.743   0.688   5.084
10088SOL    HW131163   6.660   0.639   5.056
10088SOL    HW231164   6.747   0.691   5.184
10089SOL     OW31165   1.962   2.537   2.557
10089SOL    HW131166   1.880   2.504   2.603
10089SOL    HW231167   1.963   2.504   2.463
10090SOL     OW31168   6.865   4.898   1.750
10090SOL    HW131169   6.933   4.941   1.809
10090SOL    HW231170   6.872   4.799   1.759
10091SOL     OW31171   0.639   2.194   3.979
10091SOL    HW131172   0.724   2.154   3.945
10091SOL    HW231173   0.568   2.183   3.910
10092SOL     OW31174   1.774   2.895   5.243
10092SOL    HW131175   1.781   2.853   5.334
10092SOL    HW231176   1.677   2.901   5.217
10093SOL     OW31177   0.355   5.856   6.429
10093SOL    HW131178   0.285   5.792   6.459
10093SOL    HW231179   0.315   5.924   6.367
10094SOL     OW31180   1.275   1.420   1.971
10094SOL    HW131181   1.285   1.450   2.065
10094SOL    HW231182   1.363   1.387   1.937
10095SOL     OW31183   0.432   1.553   5.869
10095SOL    HW131184   0.462   1.476   5.813
10095SOL    HW231185   0.339   1.581   5.841
10096SOL     OW31186   0.339   5.607   2.221
10096SOL    HW131187   0.274   5.667   2.268
10096SOL    HW231188   0.339   5.517   2.264
10097SOL     OW31189   1.630   2.523   6.099
10097SOL    HW131190   1.656   2.617   6.079
10097SOL    HW231191   1.532   2.512   6.086
10098SOL     OW31192   3.466   5.386   6.559
10098SOL    HW131193   3.531   5.409   6.486
10098SOL    HW231194   3.406   5.465   6.576
10099SOL     OW31195   7.008   4.951   4.918
10099SOL    HW131196   7.013   5.022   4.848
10099SOL    HW231197   0.082   4.922   4.943
10100SOL     OW31198   5.455   0.934   5.546
10100SOL    HW131199   5.356   0.921   5.542
10100SOL    HW231200   5.500   0.868   5.485
10101SOL     OW31201   6.693   4.962   2.551
10101SOL    HW131202   6.604   4.941   2.509
10101SOL    HW231203   6.766   4.947   2.484
10102SOL     OW31204   3.827   0.373   3.957
10102SOL    HW131205   3.735   0.340   3.935
10102SOL    HW231206   3.889   0.295   3.965
10103SOL     OW31207   1.627   1.929   0.331
10103SOL    HW131208   1.719   1.966   0.317
10103SOL    HW231209   1.631   1.830   0.339
10104SOL     OW31210   1.441   6.150   5.868
10104SOL    HW131211   1.436   6.093   5.949
10104SOL    HW231212   1.484   6.099   5.793
10105SOL     OW31213   2.950   0.500   6.965
10105SOL    HW131214   2.935   0.407   7.000
10105SOL    HW231215   2.928   0.566   0.019
10106SOL     OW31216   5.231   5.448   1.425
10106SOL    HW131217   5.186   5.479   1.508
10106SOL    HW231218   5.309   5.389   1.449
10107SOL     OW31219   5.549   0.965   5.801
10107SOL    HW131220   5.530   0.937   5.707
10107SOL    HW231221   5.474   0.936   5.860
10108SOL     OW31222   5.875   6.548   6.692
10108SOL    HW131223   5.892   6.465   6.745
10108SOL    HW231224   5.827   6.523   6.608
10109SOL     OW31225   4.546   5.801   3.524
10109SOL    HW131226   4.586   5.892   3.533
10109SOL    HW231227   4.505   5.774   3.612
10110SOL     OW31228   3.222   1.344   5.498
10110SOL    HW131229   3.238   1.291   5.415
10110SOL    HW231230   3.127   1.377   5.499
10111SOL     OW31231   0.210   2.771   2.921
10111SOL    HW131232   0.300   2.748   2.960
10111SOL    HW231233   0.209   2.749   2.824
10112SOL     OW31234   4.349   3.886   6.153
10112SOL    HW131235   4.423   3.944   6.186
10112SOL    HW231236   4.348   3.885   6.053
10113SOL     OW31237   4.427   6.624   0.722
10113SOL    HW131238   4.393   6.553   0.660
10113SOL    HW231239   4.516   6.657   0.690
10114SOL     OW31240   4.060   1.461   1.608
10114SOL    HW131241   4.150   1.504   1.600
10114SOL    HW231242   3.991   1.530   1.630
10115SOL     OW31243   1.149   1.709   4.003
10115SOL    HW131244   1.095   1.625   3.996
10115SOL    HW231245   1.125   1.757   4.088
10116SOL     OW31246   0.621   0.556   0.638
10116SOL    HW131247   0.718   0.545   0.660
10116SOL    HW231248   0.569   0.565   0.723
10117SOL     OW31249   4.759   0.813   5.738
10117SOL    HW131250   4.776   0.862   5.824
10117SOL    HW231251   4.847   0.791   5.695
10118SOL     OW31252   5.815   4.940   2.220
10118SOL    HW131253   5.863   4.880   2.155
10118SOL    HW231254   5.871   5.020   2.239
10119SOL     OW31255   2.499   0.165   5.933
10119SOL    HW131256   2.558   0.100   5.886
10119SOL    HW231257   2.406   0.160   5.896
10120SOL     OW31258   5.841   3.352   3.728
10120SOL    HW131259   5.869   3.318   3.638
10120SOL    HW231260   5.758   3.304   3.756
10121SOL     OW31261   5.708   4.934   4.081
10121SOL    HW131262   5.754   4.880   4.151
10121SOL    HW231263   5.773   4.958   4.009
10122SOL     OW31264   5.125   3.367   6.580
10122SOL    HW131265   5.131   3.313   6.664
10122SOL    HW231266   5.029   3.378   6.554
10123SOL     OW31267   6.751   6.744   0.406
10123SOL    HW131268   6.740   6.702   0.315
10123SOL    HW231269   6.824   6.696   0.456
10124SOL     OW31270   3.028   4.534   1.058
10124SOL    HW131271   3.049   4.599   1.131
10124SOL    HW231272   3.026   4.583   0.971
10125SOL     OW31273   2.088   0.551   1.033
10125SOL    HW131274   1.993   0.543   1.064
10125SOL    HW231275   2.089   0.563   0.933
10126SOL     OW31276   5.458   5.206   6.857
10126SOL    HW131277   5.470   5.110   6.884
10126SOL    HW231278   5.492   5.266   6.929
10127SOL     OW31279   3.465   4.756   5.413
10127SOL    HW131280   3.402   4.820   5.369
10127SOL    HW231281   3.423   4.720   5.497
10128SOL     OW31282   0.135   2.132   1.426
10128SOL    HW131283   0.135   2.216   1.372
10128SOL    HW231284   0.125   2.053   1.366
10129SOL     OW31285   5.013   2.866   3.635
10129SOL    HW131286   5.106   2.902   3.646
10129SOL    HW231287   4.947   2.938   3.656
10130SOL     OW31288   6.237   5.935   1.354
10130SOL    HW131289   6.139   5.953   1.359
10130SOL    HW231290   6.284   5.985   1.427
10131SOL     OW31291   6.839   0.147   0.044
10131SOL    HW131292   6.929   0.183   0.067
10131SOL    HW231293   6.776   0.222   0.026
10132SOL     OW31294   2.224   6.938   2.673
10132SOL    HW131295   2.176   6.998   2.738
10132SOL    HW231296   2.161   6.868   2.640
10133SOL     OW31297   5.652   4.976   2.435
10133SOL    HW131298   5.580   5.009   2.374
10133SOL    HW231299   5.724   4.933   2.382
10134SOL     OW31300   0.421   1.441   1.992
10134SOL    HW131301   0.521   1.451   1.993
10134SOL    HW231302   0.389   1.423   2.085
10135SOL     OW31303   3.006   6.134   2.825
10135SOL    HW131304   2.988   6.225   2.788
10135SOL    HW231305   3.080   6.091   2.773
10136SOL     OW31306   6.831   0.268   2.344
10136SOL    HW131307   6.896   0.192   2.344
10136SOL    HW231308   6.873   0.349   2.303
10137SOL     OW31309   5.653   5.142   4.292
10137SOL    HW131310   5.630   5.100   4.380
10137SOL    HW231311   5.641   5.074   4.219
10138SOL     OW31312   5.392   2.499   6.388
10138SOL    HW131313   5.340   2.438   6.328
10138SOL    HW231314   5.471   2.450   6.426
10139SOL     OW31315   3.881   3.049   3.048
10139SOL    HW131316   3.830   3.131   3.077
10139SOL    HW231317   3.936   3.071   2.968
10140SOL     OW31318   0.810   5.254   4.704
10140SOL    HW131319   0.755   5.311   4.643
10140SOL    HW231320   0.753   5.178   4.738
10141SOL     OW31321   2.221   0.658   4.082
10141SOL    HW131322   2.298   0.595   4.092
10141SOL    HW231323   2.241   0.724   4.010
10142SOL     OW31324   4.878   6.151   4.197
10142SOL    HW131325   4.874   6.206   4.114
10142SOL    HW231326   4.857   6.055   4.176
10143SOL     OW31327   4.650   5.907   1.479
10143SOL    HW131328   4.742   5.934   1.510
10143SOL    HW231329   4.595   5.882   1.559
10144SOL     OW31330   2.839   4.892   2.966
10144SOL    HW131331   2.774   4.824   2.932
10144SOL    HW231332   2.843   4.887   3.066
10145SOL     OW31333   3.071   6.821   5.885
10145SOL    HW131334   2.979   6.782   5.888
10145SOL    HW231335   3.131   6.772   5.948
10146SOL     OW31336   5.486   4.820   4.369
10146SOL    HW131337   5.461   4.871   4.286
10146SOL    HW231338   5.446   4.729   4.365
10147SOL     OW31339   4.743   5.760   4.574
10147SOL    HW131340   4.795   5.831   4.526
10147SOL    HW231341   4.733   5.786   4.670
10148SOL     OW31342   5.961   5.140   0.196
10148SOL    HW131343   5.978   5.145   0.294
10148SOL    HW231344   5.869   5.174   0.176
10149SOL     OW31345   4.201   3.619   1.148
10149SOL    HW131346   4.237   3.529   1.125
10149SOL    HW231347   4.192   3.628   1.247
10150SOL     OW31348   5.549   4.035   0.970
10150SOL    HW131349   5.633   4.063   1.017
10150SOL    HW231350   5.563   3.946   0.928
10151SOL     OW31351   1.109   6.079   5.734
10151SOL    HW131352   1.072   5.990   5.705
10151SOL    HW231353   1.162   6.119   5.659
10152SOL     OW31354   0.036   5.550   3.921
10152SOL    HW131355   6.992   5.600   3.861
10152SOL    HW231356   7.016   5.459   3.939
10153SOL     OW31357   5.646   6.253   3.757
10153SOL    HW131358   5.741   6.282   3.770
10153SOL    HW231359   5.593   6.271   3.840
10154SOL     OW31360   6.513   5.872   5.324
10154SOL    HW131361   6.597   5.924   5.341
10154SOL    HW231362   6.464   5.860   5.410
10155SOL     OW31363   3.667   1.375   6.087
10155SOL    HW131364   3.719   1.415   6.011
10155SOL    HW231365   3.573   1.408   6.084
10156SOL     OW31366   5.407   0.102   2.311
10156SOL    HW131367   5.378   0.192   2.344
10156SOL    HW231368   5.462   0.113   2.229
10157SOL     OW31369   4.753   0.972   4.641
10157SOL    HW131370   4.715   0.994   4.551
10157SOL    HW231371   4.682   0.984   4.711
10158SOL     OW31372   4.456   3.625   5.976
10158SOL    HW131373   4.384   3.565   6.010
10158SOL    HW231374   4.417   3.692   5.913
10159SOL     OW31375   1.529   1.228   6.595
10159SOL    HW131376   1.628   1.231   6.585
10159SOL    HW231377   1.487   1.288   6.527
10160SOL     OW31378   1.113   5.771   3.292
10160SOL    HW131379   1.071   5.702   3.233
10160SOL    HW231380   1.101   5.862   3.250
10161SOL     OW31381   1.954   6.005   6.090
10161SOL    HW131382   1.997   6.094   6.082
10161SOL    HW231383   1.956   5.976   6.186
10162SOL     OW31384   3.601   2.555   6.866
10162SOL    HW131385   3.659   2.473   6.867
10162SOL    HW231386   3.520   2.539   6.922
10163SOL     OW31387   0.171   2.764   5.424
10163SOL    HW131388   0.075   2.783   5.446
10163SOL    HW231389   0.229   2.830   5.471
10164SOL     OW31390   0.729   2.484   5.010
10164SOL    HW131391   0.788   2.501   4.931
10164SOL    HW231392   0.681   2.397   4.997
10165SOL     OW31393   6.739   2.196   3.464
10165SOL    HW131394   6.807   2.246   3.410
10165SOL    HW231395   6.685   2.137   3.405
10166SOL     OW31396   0.678   1.126   1.949
10166SOL    HW131397   0.665   1.194   1.877
10166SOL    HW231398   0.593   1.114   1.999
10167SOL     OW31399   4.844   0.484   1.162
10167SOL    HW131400   4.783   0.456   1.237
10167SOL    HW231401   4.931   0.434   1.169
10168SOL     OW31402   6.563   4.322   4.480
10168SOL    HW131403   6.617   4.245   4.446
10168SOL    HW231404   6.575   4.330   4.579
10169SOL     OW31405   6.331   4.250   4.364
10169SOL    HW131406   6.345   4.179   4.295
10169SOL    HW231407   6.419   4.274   4.406
10170SOL     OW31408   1.437   3.911   4.871
10170SOL    HW131409   1.400   4.000   4.844
10170SOL    HW231410   1.462   3.859   4.790
10171SOL     OW31411   6.215   3.089   5.701
10171SOL    HW131412   6.281   3.157   5.670
10171SOL    HW231413   6.132   3.136   5.733
10172SOL     OW31414   4.408   1.111   4.247
10172SOL    HW131415   4.367   1.028   4.284
10172SOL    HW231416   4.352   1.190   4.273
10173SOL     OW31417   2.448   2.087   2.622
10173SOL    HW131418   2.398   2.026   2.561
10173SOL    HW231419   2.533   2.044   2.651
10174SOL     OW31420   5.979   4.520   0.649
10174SOL    HW131421   6.020   4.431   0.630
10174SOL    HW231422   5.899   4.534   0.592
10175SOL     OW31423   6.410   2.392   6.293
10175SOL    HW131424   6.414   2.321   6.363
10175SOL    HW231425   6.343   2.461   6.320
10176SOL     OW31426   2.225   3.691   0.221
10176SOL    HW131427   2.136   3.668   0.182
10176SOL    HW231428   2.218   3.690   0.321
10177SOL     OW31429   1.985   0.458   5.905
10177SOL    HW131430   2.052   0.434   5.835
10177SOL    HW231431   2.029   0.460   5.995
10178SOL     OW31432   5.891   2.887   5.281
10178SOL    HW131433   5.843   2.822   5.223
10178SOL    HW231434   5.898   2.850   5.374
10179SOL     OW31435   0.584   3.323   6.248
10179SOL    HW131436   0.531   3.401   6.214
10179SOL    HW231437   0.657   3.301   6.183
10180SOL     OW31438   2.582   6.533   5.802
10180SOL    HW131439   2.486   6.518   5.826
10180SOL    HW231440   2.589   6.611   5.739
10181SOL     OW31441   5.785   3.446   1.509
10181SOL    HW131442   5.786   3.433   1.410
10181SOL    HW231443   5.874   3.423   1.547
10182SOL     OW31444   4.690   1.680   0.474
10182SOL    HW131445   4.724   1.768   0.442
10182SOL    HW231446   4.723   1.607   0.414
10183SOL     OW31447   1.853   1.567   6.740
10183SOL    HW131448   1.896   1.491   6.691
10183SOL    HW231449   1.872   1.652   6.693
10184SOL     OW31450   4.920   0.258   6.644
10184SOL    HW131451   4.963   0.171   6.670
10184SOL    HW231452   4.820   0.246   6.640
10185SOL     OW31453   4.766   1.127   7.013
10185SOL    HW131454   4.816   1.144   6.928
10185SOL    HW231455   4.752   1.213   0.043
10186SOL     OW31456   4.245   1.951   3.137
10186SOL    HW131457   4.183   1.882   3.173
10186SOL    HW231458   4.192   2.030   3.106
10187SOL     OW31459   0.660   2.403   1.973
10187SOL    HW131460   0.658   2.326   2.036
10187SOL    HW231461   0.627   2.375   1.883
10188SOL     OW31462   3.824   4.541   1.102
10188SOL    HW131463   3.908   4.581   1.139
10188SOL    HW231464   3.824   4.443   1.120
10189SOL     OW31465   1.213   6.594   5.779
10189SOL    HW131466   1.204   6.676   5.836
10189SOL    HW231467   1.263   6.524   5.830
10190SOL     OW31468   4.815   2.450   0.301
10190SOL    HW131469   4.780   2.543   0.290
10190SOL    HW231470   4.909   2.453   0.334
10191SOL     OW31471   6.779   4.764   6.447
10191SOL    HW131472   6.779   4.748   6.349
10191SOL    HW231473   6.786   4.862   6.466
10192SOL     OW31474   3.780   1.393   0.327
10192SOL    HW131475   3.739   1.384   0.236
10192SOL    HW231476   3.807   1.488   0.342
10193SOL     OW31477   4.003   4.292   0.444
10193SOL    HW131478   3.978   4.388   0.436
10193SOL    HW231479   3.939   4.246   0.506
10194SOL     OW31480   5.273   2.917   5.594
10194SOL    HW131481   5.176   2.931   5.577
10194SOL    HW231482   5.320   3.005   5.593
10195SOL     OW31483   6.089   3.989   1.715
10195SOL    HW131484   6.000   4.009   1.758
10195SOL    HW231485   6.113   4.063   1.652
10196SOL     OW31486   0.381   1.578   4.800
10196SOL    HW131487   0.382   1.510   4.726
10196SOL    HW231488   0.422   1.538   4.882
10197SOL     OW31489   5.428   0.722   6.943
10197SOL    HW131490   5.380   0.789   7.000
10197SOL    HW231491   5.365   0.648   6.917
10198SOL     OW31492   4.456   7.014   3.378
10198SOL    HW131493   4.469   0.068   3.447
10198SOL    HW231494   4.361   6.985   3.378
10199SOL     OW31495   0.662   2.113   5.358
10199SOL    HW131496   0.682   2.050   5.433
10199SOL    HW231497   0.570   2.097   5.324
10200SOL     OW31498   5.258   1.835   1.613
10200SOL    HW131499   5.276   1.827   1.711
10200SOL    HW231500   5.167   1.798   1.593
10201SOL     OW31501   1.038   3.638   0.625
10201SOL    HW131502   0.987   3.627   0.710
10201SOL    HW231503   1.122   3.585   0.629
10202SOL     OW31504   4.800   0.707   4.311
10202SOL    HW131505   4.797   0.704   4.211
10202SOL    HW231506   4.713   0.743   4.346
10203SOL     OW31507   0.008   2.779   4.886
10203SOL    HW131508   0.045   2.694   4.849
10203SOL    HW231509   0.048   2.796   4.976
10204SOL     OW31510   5.488   5.036   6.485
10204SOL    HW131511   5.534   4.961   6.534
10204SOL    HW231512   5.547   5.067   6.410
10205SOL     OW31513   0.863   1.038   6.416
10205SOL    HW131514   0.959   1.035   6.444
10205SOL    HW231515   0.820   1.119   6.454
10206SOL     OW31516   1.602   0.964   5.135
10206SOL    HW131517   1.599   0.864   5.136
10206SOL    HW231518   1.627   0.998   5.226
10207SOL     OW31519   2.520   2.165   4.871
10207SOL    HW131520   2.561   2.158   4.961
10207SOL    HW231521   2.521   2.260   4.841
10208SOL     OW31522   6.927   6.256   5.542
10208SOL    HW131523   6.966   6.194   5.474
10208SOL    HW231524   7.000   6.295   5.598
10209SOL     OW31525   0.363   6.872   5.990
10209SOL    HW131526   0.350   6.776   5.964
10209SOL    HW231527   0.461   6.892   5.996
10210SOL     OW31528   3.106   0.358   1.520
10210SOL    HW131529   3.127   0.274   1.469
10210SOL    HW231530   3.118   0.437   1.460
10211SOL     OW31531   5.212   5.758   5.886
10211SOL    HW131532   5.247   5.838   5.935
10211SOL    HW231533   5.287   5.694   5.869
10212SOL     OW31534   0.683   0.612   6.532
10212SOL    HW131535   0.616   0.601   6.606
10212SOL    HW231536   0.655   0.557   6.454
10213SOL     OW31537   6.836   2.492   1.199
10213SOL    HW131538   6.843   2.396   1.169
10213SOL    HW231539   6.742   2.512   1.225
10214SOL     OW31540   1.536   2.305   6.844
10214SOL    HW131541   1.536   2.302   6.944
10214SOL    HW231542   1.446   2.332   6.811
10215SOL     OW31543   2.859   3.620   2.086
10215SOL    HW131544   2.844   3.526   2.116
10215SOL    HW231545   2.877   3.678   2.166
10216SOL     OW31546   0.769   6.349   1.947
10216SOL    HW131547   0.714   6.351   1.865
10216SOL    HW231548   0.764   6.438   1.993
10217SOL     OW31549   3.356   1.528   4.989
10217SOL    HW131550   3.348   1.495   4.895
10217SOL    HW231551   3.388   1.622   4.988
10218SOL     OW31552   1.053   3.262   2.460
10218SOL    HW131553   0.983   3.196   2.489
10218SOL    HW231554   1.140   3.215   2.450
10219SOL     OW31555   6.889   5.827   3.003
10219SOL    HW131556   6.818   5.793   3.065
10219SOL    HW231557   6.974   5.776   3.020
10220SOL     OW31558   3.524   3.310   0.426
10220SOL    HW131559   3.562   3.240   0.487
10220SOL    HW231560   3.507   3.270   0.336
10221SOL     OW31561   0.756   5.452   4.117
10221SOL    HW131562   0.845   5.414   4.142
10221SOL    HW231563   0.709   5.484   4.199
10222SOL     OW31564   3.384   3.696   3.579
10222SOL    HW131565   3.356   3.718   3.485
10222SOL    HW231566   3.484   3.703   3.586
10223SOL     OW31567   2.462   6.564   0.782
10223SOL    HW131568   2.409   6.484   0.811
10223SOL    HW231569   2.521   6.594   0.857
10224SOL     OW31570   6.679   4.150   2.904
10224SOL    HW131571   6.746   4.224   2.910
10224SOL    HW231572   6.597   4.183   2.857
10225SOL     OW31573   1.976   3.766   5.855
10225SOL    HW131574   2.028   3.815   5.785
10225SOL    HW231575   1.882   3.755   5.826
10226SOL     OW31576   5.256   4.248   0.176
10226SOL    HW131577   5.281   4.304   0.255
10226SOL    HW231578   5.209   4.304   0.108
10227SOL     OW31579   5.806   3.501   1.208
10227SOL    HW131580   5.830   3.539   1.120
10227SOL    HW231581   5.876   3.436   1.237
10228SOL     OW31582   5.077   0.357   0.680
10228SOL    HW131583   4.989   0.403   0.691
10228SOL    HW231584   5.091   0.333   0.584
10229SOL     OW31585   0.510   2.675   5.039
10229SOL    HW131586   0.513   2.682   4.939
10229SOL    HW231587   0.579   2.609   5.069
10230SOL     OW31588   6.691   6.196   1.401
10230SOL    HW131589   6.729   6.167   1.489
10230SOL    HW231590   6.728   6.138   1.328
10231SOL     OW31591   0.557   4.493   2.605
10231SOL    HW131592   0.653   4.467   2.599
10231SOL    HW231593   0.500   4.413   2.588
10232SOL     OW31594   4.798   4.525   2.564
10232SOL    HW131595   4.809   4.448   2.626
10232SOL    HW231596   4.871   4.524   2.496
10233SOL     OW31597   2.437   4.299   5.441
10233SOL    HW131598   2.475   4.210   5.417
10233SOL    HW231599   2.344   4.307   5.406
10234SOL     OW31600   0.831   1.185   2.335
10234SOL    HW131601   0.839   1.157   2.240
10234SOL    HW231602   0.897   1.135   2.391
10235SOL     OW31603   1.246   1.239   3.142
10235SOL    HW131604   1.326   1.211   3.089
10235SOL    HW231605   1.164   1.232   3.085
10236SOL     OW31606   1.601   6.708   2.552
10236SOL    HW131607   1.636   6.624   2.512
10236SOL    HW231608   1.501   6.708   2.549
10237SOL     OW31609   0.631   3.477   4.370
10237SOL    HW131610   0.606   3.407   4.437
10237SOL    HW231611   0.709   3.445   4.316
10238SOL     OW31612   2.647   6.850   1.653
10238SOL    HW131613   2.565   6.844   1.595
10238SOL    HW231614   2.704   6.926   1.622
10239SOL     OW31615   0.550   1.833   4.804
10239SOL    HW131616   0.520   1.913   4.751
10239SOL    HW231617   0.496   1.753   4.778
10240SOL     OW31618   2.021   6.296   0.876
10240SOL    HW131619   2.010   6.304   0.777
10240SOL    HW231620   1.944   6.340   0.922
10241SOL     OW31621   4.365   3.448   1.375
10241SOL    HW131622   4.362   3.351   1.351
10241SOL    HW231623   4.459   3.473   1.400
10242SOL     OW31624   0.012   2.901   0.443
10242SOL    HW131625   6.949   2.857   0.404
10242SOL    HW231626   0.092   2.841   0.430
10243SOL     OW31627   3.194   6.220   2.114
10243SOL    HW131628   3.134   6.276   2.170
10243SOL    HW231629   3.251   6.278   2.056
10244SOL     OW31630   2.907   5.408   2.041
10244SOL    HW131631   2.889   5.350   1.962
10244SOL    HW231632   2.844   5.386   2.115
10245SOL     OW31633   5.259   4.347   0.965
10245SOL    HW131634   5.166   4.351   0.929
10245SOL    HW231635   5.277   4.429   1.020
10246SOL     OW31636   3.469   3.246   3.860
10246SOL    HW131637   3.399   3.299   3.908
10246SOL    HW231638   3.425   3.173   3.807
10247SOL     OW31639   0.981   3.149   4.499
10247SOL    HW131640   1.041   3.130   4.577
10247SOL    HW231641   0.926   3.231   4.519
10248SOL     OW31642   0.862   0.825   5.075
10248SOL    HW131643   0.949   0.789   5.107
10248SOL    HW231644   0.789   0.759   5.096
10249SOL     OW31645   2.462   5.019   6.182
10249SOL    HW131646   2.444   5.037   6.085
10249SOL    HW231647   2.500   5.101   6.224
10250SOL     OW31648   3.292   2.112   0.837
10250SOL    HW131649   3.256   2.179   0.902
10250SOL    HW231650   3.217   2.060   0.797
10251SOL     OW31651   1.670   0.782   4.493
10251SOL    HW131652   1.588   0.824   4.453
10251SOL    HW231653   1.648   0.747   4.584
10252SOL     OW31654   4.499   4.873   5.891
10252SOL    HW131655   4.414   4.926   5.892
10252SOL    HW231656   4.546   4.888   5.804
10253SOL     OW31657   4.109   6.322   6.600
10253SOL    HW131658   4.133   6.312   6.697
10253SOL    HW231659   4.045   6.250   6.574
10254SOL     OW31660   6.464   1.553   5.592
10254SOL    HW131661   6.428   1.549   5.685
10254SOL    HW231662   6.447   1.465   5.546
10255SOL     OW31663   3.998   4.458   1.691
10255SOL    HW131664   4.097   4.446   1.694
10255SOL    HW231665   3.954   4.386   1.745
10256SOL     OW31666   3.622   1.150   4.650
10256SOL    HW131667   3.537   1.199   4.629
10256SOL    HW231668   3.696   1.217   4.659
10257SOL     OW31669   3.925   5.790   3.215
10257SOL    HW131670   4.010   5.754   3.254
10257SOL    HW231671   3.890   5.725   3.147
10258SOL     OW31672   2.827   1.445   2.409
10258SOL    HW131673   2.748   1.502   2.432
10258SOL    HW231674   2.811   1.351   2.439
10259SOL     OW31675   1.648   3.971   3.992
10259SOL    HW131676   1.580   4.040   3.969
10259SOL    HW231677   1.603   3.891   4.032
10260SOL     OW31678   0.309   0.045   3.083
10260SOL    HW131679   0.287   0.067   2.988
10260SOL    HW231680   0.405   0.017   3.089
10261SOL     OW31681   0.206   4.035   0.697
10261SOL    HW131682   0.139   3.998   0.762
10261SOL    HW231683   0.166   4.036   0.606
10262SOL     OW31684   3.888   0.701   6.914
10262SOL    HW131685   3.810   0.678   6.856
10262SOL    HW231686   3.913   0.622   6.970
10263SOL     OW31687   5.746   0.593   2.792
10263SOL    HW131688   5.784   0.537   2.865
10263SOL    HW231689   5.750   0.689   2.819
10264SOL     OW31690   6.663   0.312   6.334
10264SOL    HW131691   6.711   0.244   6.279
10264SOL    HW231692   6.565   0.309   6.313
10265SOL     OW31693   1.651   1.798   1.361
10265SOL    HW131694   1.725   1.733   1.344
10265SOL    HW231695   1.657   1.831   1.456
10266SOL     OW31696   2.554   3.421   1.721
10266SOL    HW131697   2.550   3.489   1.648
10266SOL    HW231698   2.476   3.432   1.782
10267SOL     OW31699   6.212   0.167   0.270
10267SOL    HW131700   6.198   0.105   0.347
10267SOL    HW231701   6.137   0.232   0.264
10268SOL     OW31702   3.691   5.924   2.082
10268SOL    HW131703   3.756   5.964   2.017
10268SOL    HW231704   3.712   5.827   2.095
10269SOL     OW31705   2.083   1.860   0.804
10269SOL    HW131706   2.169   1.904   0.775
10269SOL    HW231707   2.091   1.761   0.794
10270SOL     OW31708   2.886   0.251   3.346
10270SOL    HW131709   2.931   0.251   3.435
10270SOL    HW231710   2.883   0.345   3.310
10271SOL     OW31711   1.947   1.231   6.762
10271SOL    HW131712   2.033   1.202   6.720
10271SOL    HW231713   1.878   1.245   6.691
10272SOL     OW31714   6.354   0.117   4.434
10272SOL    HW131715   6.256   0.099   4.430
10272SOL    HW231716   6.370   0.216   4.435
10273SOL     OW31717   2.244   5.380   3.607
10273SOL    HW131718   2.267   5.455   3.544
10273SOL    HW231719   2.155   5.398   3.648
10274SOL     OW31720   0.799   4.380   4.661
10274SOL    HW131721   0.835   4.346   4.575
10274SOL    HW231722   0.799   4.307   4.729
10275SOL     OW31723   6.265   1.011   1.815
10275SOL    HW131724   6.308   1.035   1.728
10275SOL    HW231725   6.292   0.918   1.841
10276SOL     OW31726   2.835   5.450   5.223
10276SOL    HW131727   2.925   5.484   5.195
10276SOL    HW231728   2.823   5.466   5.321
10277SOL     OW31729   1.204   5.683   3.711
10277SOL    HW131730   1.151   5.700   3.795
10277SOL    HW231731   1.153   5.718   3.632
10278SOL     OW31732   6.719   6.990   4.743
10278SOL    HW131733   6.654   6.915   4.749
10278SOL    HW231734   6.762   6.990   4.652
10279SOL     OW31735   1.369   5.522   3.989
10279SOL    HW131736   1.345   5.481   3.901
10279SOL    HW231737   1.429   5.459   4.039
10280SOL     OW31738   6.460   4.667   0.463
10280SOL    HW131739   6.458   4.698   0.368
10280SOL    HW231740   6.376   4.695   0.510
10281SOL     OW31741   6.338   1.093   3.208
10281SOL    HW131742   6.428   1.070   3.244
10281SOL    HW231743   6.269   1.074   3.277
10282SOL     OW31744   4.948   3.230   3.551
10282SOL    HW131745   4.999   3.281   3.621
10282SOL    HW231746   4.972   3.264   3.460
10283SOL     OW31747   0.403   2.483   1.175
10283SOL    HW131748   0.491   2.493   1.128
10283SOL    HW231749   0.337   2.548   1.137
10284SOL     OW31750   0.280   4.080   3.993
10284SOL    HW131751   0.196   4.042   4.032
10284SOL    HW231752   0.269   4.093   3.895
10285SOL     OW31753   6.685   6.748   5.931
10285SOL    HW131754   6.774   6.725   5.970
10285SOL    HW231755   6.617   6.756   6.004
10286SOL     OW31756   2.705   1.543   3.191
10286SOL    HW131757   2.709   1.630   3.142
10286SOL    HW231758   2.720   1.559   3.289
10287SOL     OW31759   1.274   5.577   2.618
10287SOL    HW131760   1.318   5.488   2.622
10287SOL    HW231761   1.341   5.646   2.590
10288SOL     OW31762   3.574   5.679   4.880
10288SOL    HW131763   3.619   5.714   4.798
10288SOL    HW231764   3.642   5.660   4.951
10289SOL     OW31765   4.020   6.361   0.167
10289SOL    HW131766   3.984   6.372   0.075
10289SOL    HW231767   4.119   6.371   0.167
10290SOL     OW31768   3.149   3.273   1.856
10290SOL    HW131769   3.208   3.342   1.812
10290SOL    HW231770   3.059   3.313   1.873
10291SOL     OW31771   2.355   1.695   2.330
10291SOL    HW131772   2.355   1.754   2.249
10291SOL    HW231773   2.275   1.634   2.326
10292SOL     OW31774   0.032   6.902   6.019
10292SOL    HW131775   0.093   6.899   5.940
10292SOL    HW231776   6.998   6.987   6.019
10293SOL     OW31777   1.265   3.850   5.218
10293SOL    HW131778   1.343   3.863   5.157
10293SOL    HW231779   1.180   3.856   5.165
10294SOL     OW31780   3.359   0.718   2.555
10294SOL    HW131781   3.304   0.705   2.473
10294SOL    HW231782   3.432   0.650   2.557
10295SOL     OW31783   1.217   1.451   6.779
10295SOL    HW131784   1.242   1.359   6.809
10295SOL    HW231785   1.299   1.504   6.761
10296SOL     OW31786   6.232   1.699   5.814
10296SOL    HW131787   6.306   1.647   5.857
10296SOL    HW231788   6.169   1.637   5.769
10297SOL     OW31789   3.951   1.282   0.504
10297SOL    HW131790   3.900   1.261   0.588
10297SOL    HW231791   3.887   1.303   0.431
10298SOL     OW31792   0.482   2.406   2.396
10298SOL    HW131793   0.516   2.395   2.489
10298SOL    HW231794   0.430   2.324   2.370
10299SOL     OW31795   4.777   0.189   2.597
10299SOL    HW131796   4.778   0.278   2.643
10299SOL    HW231797   4.847   0.130   2.637
10300SOL     OW31798   1.225   3.969   1.326
10300SOL    HW131799   1.222   3.904   1.402
10300SOL    HW231800   1.263   4.056   1.359
10301SOL     OW31801   3.823   0.453   7.006
10301SOL    HW131802   3.880   0.444   0.070
10301SOL    HW231803   3.732   0.415   0.007
10302SOL     OW31804   2.839   6.428   4.862
10302SOL    HW131805   2.740   6.429   4.870
10302SOL    HW231806   2.879   6.389   4.945
10303SOL     OW31807   0.392   5.040   4.447
10303SOL    HW131808   0.338   4.976   4.392
10303SOL    HW231809   0.342   5.065   4.529
10304SOL     OW31810   5.699   6.296   0.823
10304SOL    HW131811   5.679   6.361   0.896
10304SOL    HW231812   5.616   6.276   0.771
10305SOL     OW31813   3.064   3.798   5.842
10305SOL    HW131814   3.039   3.702   5.854
10305SOL    HW231815   2.985   3.850   5.810
10306SOL     OW31816   4.131   0.487   0.885
10306SOL    HW131817   4.087   0.401   0.911
10306SOL    HW231818   4.063   0.559   0.880
10307SOL     OW31819   1.795   0.167   5.506
10307SOL    HW131820   1.742   0.114   5.440
10307SOL    HW231821   1.808   0.113   5.589
10308SOL     OW31822   3.021   4.545   1.611
10308SOL    HW131823   3.117   4.520   1.594
10308SOL    HW231824   2.994   4.512   1.702
10309SOL     OW31825   0.311   0.661   5.721
10309SOL    HW131826   0.255   0.651   5.639
10309SOL    HW231827   0.312   0.758   5.749
10310SOL     OW31828   2.695   3.934   5.470
10310SOL    HW131829   2.731   4.024   5.497
10310SOL    HW231830   2.730   3.864   5.533
10311SOL     OW31831   5.148   5.871   6.800
10311SOL    HW131832   5.232   5.834   6.760
10311SOL    HW231833   5.072   5.809   6.784
10312SOL     OW31834   3.663   6.827   2.074
10312SOL    HW131835   3.723   6.750   2.097
10312SOL    HW231836   3.700   6.876   1.995
10313SOL     OW31837   5.358   6.723   2.448
10313SOL    HW131838   5.422   6.760   2.515
10313SOL    HW231839   5.300   6.796   2.413
10314SOL     OW31840   0.341   0.297   0.860
10314SOL    HW131841   0.384   0.261   0.777
10314SOL    HW231842   0.246   0.266   0.864
10315SOL     OW31843   5.565   5.648   3.576
10315SOL    HW131844   5.544   5.714   3.503
10315SOL    HW231845   5.490   5.583   3.584
10316SOL     OW31846   0.650   1.640   0.020
10316SOL    HW131847   0.722   1.627   6.970
10316SOL    HW231848   0.670   1.721   0.075
10317SOL     OW31849   3.171   5.877   5.091
10317SOL    HW131850   3.262   5.893   5.053
10317SOL    HW231851   3.131   5.796   5.049
10318SOL     OW31852   6.451   0.188   6.989
10318SOL    HW131853   6.379   0.149   0.030
10318SOL    HW231854   6.443   0.149   6.897
10319SOL     OW31855   0.446   4.132   3.691
10319SOL    HW131856   0.389   4.211   3.714
10319SOL    HW231857   0.412   4.089   3.608
10320SOL     OW31858   0.185   0.039   3.327
10320SOL    HW131859   0.223   0.021   3.236
10320SOL    HW231860   0.100   0.090   3.318
10321SOL     OW31861   5.689   3.025   2.182
10321SOL    HW131862   5.605   2.995   2.227
10321SOL    HW231863   5.698   3.124   2.191
10322SOL     OW31864   4.607   4.344   4.896
10322SOL    HW131865   4.585   4.284   4.819
10322SOL    HW231866   4.524   4.391   4.927
10323SOL     OW31867   1.037   4.061   6.057
10323SOL    HW131868   1.103   3.985   6.065
10323SOL    HW231869   1.042   4.117   6.140
10324SOL     OW31870   3.198   3.010   2.202
10324SOL    HW131871   3.144   3.013   2.118
10324SOL    HW231872   3.180   3.092   2.256
10325SOL     OW31873   5.915   5.829   4.275
10325SOL    HW131874   5.869   5.823   4.363
10325SOL    HW231875   5.997   5.772   4.276
10326SOL     OW31876   5.370   3.523   6.553
10326SOL    HW131877   5.429   3.510   6.473
10326SOL    HW231878   5.276   3.497   6.529
10327SOL     OW31879   2.611   5.301   0.187
10327SOL    HW131880   2.566   5.236   0.125
10327SOL    HW231881   2.566   5.390   0.180
10328SOL     OW31882   5.568   2.492   2.227
10328SOL    HW131883   5.626   2.482   2.308
10328SOL    HW231884   5.624   2.489   2.145
10329SOL     OW31885   3.427   1.664   2.480
10329SOL    HW131886   3.378   1.625   2.558
10329SOL    HW231887   3.370   1.734   2.436
10330SOL     OW31888   5.291   0.459   1.730
10330SOL    HW131889   5.328   0.504   1.649
10330SOL    HW231890   5.358   0.462   1.804
10331SOL     OW31891   6.022   6.060   5.871
10331SOL    HW131892   6.104   6.092   5.823
10331SOL    HW231893   6.013   6.109   5.958
10332SOL     OW31894   1.502   1.566   6.237
10332SOL    HW131895   1.510   1.619   6.153
10332SOL    HW231896   1.590   1.566   6.285
10333SOL     OW31897   1.499   3.764   4.639
10333SOL    HW131898   1.453   3.691   4.587
10333SOL    HW231899   1.556   3.818   4.577
10334SOL     OW31900   3.246   1.541   4.117
10334SOL    HW131901   3.258   1.617   4.054
10334SOL    HW231902   3.335   1.515   4.155
10335SOL     OW31903   1.466   2.464   4.976
10335SOL    HW131904   1.442   2.536   4.911
10335SOL    HW231905   1.469   2.376   4.928
10336SOL     OW31906   5.584   0.027   3.019
10336SOL    HW131907   5.535   0.108   2.989
10336SOL    HW231908   5.682   0.038   2.998
10337SOL     OW31909   6.773   5.398   6.888
10337SOL    HW131910   6.779   5.423   6.984
10337SOL    HW231911   6.823   5.312   6.873
10338SOL     OW31912   0.960   6.505   1.427
10338SOL    HW131913   1.046   6.534   1.384
10338SOL    HW231914   0.971   6.414   1.466
10339SOL     OW31915   5.825   2.663   5.884
10339SOL    HW131916   5.792   2.757   5.894
10339SOL    HW231917   5.750   2.604   5.856
10340SOL     OW31918   2.402   4.051   6.044
10340SOL    HW131919   2.461   4.113   5.992
10340SOL    HW231920   2.386   4.088   6.135
10341SOL     OW31921   2.343   4.268   3.518
10341SOL    HW131922   2.299   4.267   3.428
10341SOL    HW231923   2.428   4.320   3.513
10342SOL     OW31924   0.329   0.920   3.813
10342SOL    HW131925   0.334   0.899   3.911
10342SOL    HW231926   0.328   0.835   3.761
10343SOL     OW31927   3.666   5.489   1.630
10343SOL    HW131928   3.752   5.438   1.632
10343SOL    HW231929   3.685   5.585   1.609
10344SOL     OW31930   4.351   6.917   6.897
10344SOL    HW131931   4.438   6.930   6.944
10344SOL    HW231932   4.297   6.849   6.945
10345SOL     OW31933   2.140   3.652   4.207
10345SOL    HW131934   2.049   3.687   4.227
10345SOL    HW231935   2.206   3.696   4.267
10346SOL     OW31936   0.180   6.121   0.018
10346SOL    HW131937   0.130   6.058   6.977
10346SOL    HW231938   0.266   6.146   6.991
10347SOL     OW31939   5.514   1.886   5.112
10347SOL    HW131940   5.415   1.891   5.124
10347SOL    HW231941   5.557   1.962   5.160
10348SOL     OW31942   6.606   4.977   1.049
10348SOL    HW131943   6.646   4.890   1.076
10348SOL    HW231944   6.676   5.049   1.052
10349SOL     OW31945   0.704   6.860   6.286
10349SOL    HW131946   0.685   6.840   6.190
10349SOL    HW231947   0.772   6.796   6.320
10350SOL     OW31948   3.220   0.919   6.416
10350SOL    HW131949   3.145   0.853   6.422
10350SOL    HW231950   3.242   0.953   6.507
10351SOL     OW31951   3.969   5.592   6.392
10351SOL    HW131952   4.029   5.559   6.464
10351SOL    HW231953   3.884   5.539   6.393
10352SOL     OW31954   3.674   4.105   6.449
10352SOL    HW131955   3.657   4.031   6.514
10352SOL    HW231956   3.596   4.111   6.386
10353SOL     OW31957   0.945   2.982   4.870
10353SOL    HW131958   1.016   2.913   4.856
10353SOL    HW231959   0.861   2.938   4.901
10354SOL     OW31960   5.616   1.733   1.202
10354SOL    HW131961   5.544   1.791   1.163
10354SOL    HW231962   5.614   1.741   1.302
10355SOL     OW31963   0.953   4.728   2.756
10355SOL    HW131964   0.873   4.701   2.704
10355SOL    HW231965   1.011   4.648   2.774
10356SOL     OW31966   0.181   2.024   4.636
10356SOL    HW131967   0.164   1.977   4.722
10356SOL    HW231968   0.128   1.981   4.562
10357SOL     OW31969   3.535   2.815   6.824
10357SOL    HW131970   3.450   2.814   6.772
10357SOL    HW231971   3.559   2.722   6.852
10358SOL     OW31972   0.170   1.201   2.272
10358SOL    HW131973   0.093   1.243   2.224
10358SOL    HW231974   0.136   1.133   2.336
10359SOL     OW31975   1.170   1.394   1.047
10359SOL    HW131976   1.139   1.310   1.092
10359SOL    HW231977   1.096   1.462   1.050
10360SOL     OW31978   6.765   4.622   3.047
10360SOL    HW131979   6.756   4.721   3.057
10360SOL    HW231980   6.803   4.583   3.131
10361SOL     OW31981   1.904   4.952   1.371
10361SOL    HW131982   1.896   4.856   1.343
10361SOL    HW231983   2.000   4.973   1.390
10362SOL     OW31984   1.649   4.707   5.261
10362SOL    HW131985   1.677   4.787   5.312
10362SOL    HW231986   1.620   4.734   5.169
10363SOL     OW31987   5.866   6.911   3.640
10363SOL    HW131988   5.954   6.938   3.679
10363SOL    HW231989   5.853   6.957   3.552
10364SOL     OW31990   1.569   4.118   0.817
10364SOL    HW131991   1.609   4.058   0.748
10364SOL    HW231992   1.562   4.069   0.904
10365SOL     OW31993   4.697   5.565   6.985
10365SOL    HW131994   4.625   5.516   0.016
10365SOL    HW231995   4.705   5.529   6.892
10366SOL     OW31996   3.672   6.404   3.863
10366SOL    HW131997   3.674   6.328   3.798
10366SOL    HW231998   3.668   6.369   3.956
10367SOL     OW31999   6.457   1.403   3.399
10367SOL    HW132000   6.530   1.382   3.464
10367SOL    HW232001   6.469   1.350   3.316
10368SOL     OW32002   2.346   0.559   1.133
10368SOL    HW132003   2.255   0.544   1.093
10368SOL    HW232004   2.347   0.644   1.185
10369SOL     OW32005   4.305   2.754   0.234
10369SOL    HW132006   4.292   2.853   0.240
10369SOL    HW232007   4.402   2.732   0.242
10370SOL     OW32008   3.905   0.941   5.041
10370SOL    HW132009   3.927   0.846   5.021
10370SOL    HW232010   3.829   0.971   4.984
10371SOL     OW32011   5.343   6.379   5.457
10371SOL    HW132012   5.346   6.318   5.378
10371SOL    HW232013   5.345   6.326   5.541
10372SOL     OW32014   1.300   0.636   3.355
10372SOL    HW132015   1.398   0.625   3.338
10372SOL    HW232016   1.276   0.733   3.350
10373SOL     OW32017   1.271   5.255   4.982
10373SOL    HW132018   1.299   5.200   5.061
10373SOL    HW232019   1.291   5.204   4.898
10374SOL     OW32020   2.935   1.963   3.807
10374SOL    HW132021   2.839   1.941   3.826
10374SOL    HW232022   2.994   1.911   3.868
10375SOL     OW32023   0.248   2.014   0.535
10375SOL    HW132024   0.281   1.928   0.496
10375SOL    HW232025   0.247   2.084   0.464
10376SOL     OW32026   6.588   0.538   3.557
10376SOL    HW132027   6.659   0.469   3.571
10376SOL    HW232028   6.611   0.593   3.477
10377SOL     OW32029   0.652   6.516   4.356
10377SOL    HW132030   0.560   6.476   4.357
10377SOL    HW232031   0.708   6.469   4.288
10378SOL     OW32032   6.277   6.722   5.987
10378SOL    HW132033   6.282   6.784   5.909
10378SOL    HW232034   6.355   6.738   6.048
10379SOL     OW32035   4.704   1.911   4.360
10379SOL    HW132036   4.716   1.987   4.423
10379SOL    HW232037   4.790   1.894   4.312
10380SOL     OW32038   4.245   1.153   3.760
10380SOL    HW132039   4.244   1.217   3.837
10380SOL    HW232040   4.336   1.112   3.752
10381SOL     OW32041   4.456   5.370   4.984
10381SOL    HW132042   4.410   5.394   4.899
10381SOL    HW232043   4.537   5.428   4.996
10382SOL     OW32044   1.095   5.901   0.269
10382SOL    HW132045   1.066   5.805   0.268
10382SOL    HW232046   1.140   5.923   0.182
10383SOL     OW32047   5.331   2.577   0.315
10383SOL    HW132048   5.384   2.651   0.357
10383SOL    HW232049   5.389   2.498   0.300
10384SOL     OW32050   6.045   0.959   6.726
10384SOL    HW132051   5.976   0.998   6.787
10384SOL    HW232052   6.011   0.961   6.632
10385SOL     OW32053   6.619   2.605   6.871
10385SOL    HW132054   6.527   2.644   6.872
10385SOL    HW232055   6.618   2.520   6.819
10386SOL     OW32056   6.565   1.921   6.293
10386SOL    HW132057   6.593   1.853   6.226
10386SOL    HW232058   6.525   2.000   6.246
10387SOL     OW32059   1.542   3.967   2.235
10387SOL    HW132060   1.626   3.957   2.181
10387SOL    HW232061   1.557   3.931   2.327
10388SOL     OW32062   1.738   4.751   2.421
10388SOL    HW132063   1.784   4.696   2.490
10388SOL    HW232064   1.666   4.806   2.464
10389SOL     OW32065   0.705   5.621   3.692
10389SOL    HW132066   0.617   5.605   3.738
10389SOL    HW232067   0.773   5.648   3.761
10390SOL     OW32068   2.207   3.964   3.495
10390SOL    HW132069   2.192   3.910   3.578
10390SOL    HW232070   2.253   4.050   3.519
10391SOL     OW32071   3.556   6.188   4.935
10391SOL    HW132072   3.548   6.264   5.000
10391SOL    HW232073   3.488   6.200   4.862
10392SOL     OW32074   6.109   5.316   6.587
10392SOL    HW132075   6.123   5.343   6.682
10392SOL    HW232076   6.128   5.393   6.527
10393SOL     OW32077   0.421   0.991   4.534
10393SOL    HW132078   0.348   1.050   4.499
10393SOL    HW232079   0.510   1.035   4.519
10394SOL     OW32080   3.217   6.921   1.229
10394SOL    HW132081   3.172   6.917   1.318
10394SOL    HW232082   3.147   6.920   1.157
10395SOL     OW32083   1.696   1.347   4.514
10395SOL    HW132084   1.650   1.282   4.453
10395SOL    HW232085   1.795   1.330   4.512
10396SOL     OW32086   0.546   7.000   4.928
10396SOL    HW132087   0.525   6.902   4.919
10396SOL    HW232088   0.494   0.034   4.860
10397SOL     OW32089   4.695   1.937   2.788
10397SOL    HW132090   4.692   1.995   2.707
10397SOL    HW232091   4.665   1.845   2.766
10398SOL     OW32092   6.652   3.269   2.232
10398SOL    HW132093   6.661   3.314   2.143
10398SOL    HW232094   6.738   3.222   2.254
10399SOL     OW32095   6.139   2.895   5.156
10399SOL    HW132096   6.178   2.987   5.150
10399SOL    HW232097   6.060   2.897   5.217
10400SOL     OW32098   1.294   4.867   1.682
10400SOL    HW132099   1.261   4.886   1.774
10400SOL    HW232100   1.290   4.769   1.665
10401SOL     OW32101   1.230   5.357   1.062
10401SOL    HW132102   1.235   5.282   0.996
10401SOL    HW232103   1.146   5.348   1.117
10402SOL     OW32104   0.874   2.162   4.825
10402SOL    HW132105   0.914   2.110   4.750
10402SOL    HW232106   0.845   2.100   4.898
10403SOL     OW32107   5.561   0.934   2.435
10403SOL    HW132108   5.591   0.871   2.364
10403SOL    HW232109   5.529   0.882   2.515
10404SOL     OW32110   6.937   0.433   4.399
10404SOL    HW132111   6.998   0.457   4.323
10404SOL    HW232112   6.952   0.338   4.425
10405SOL     OW32113   2.581   6.664   6.998
10405SOL    HW132114   2.510   6.622   6.941
10405SOL    HW232115   2.584   6.618   0.069
10406SOL     OW32116   1.868   6.138   5.385
10406SOL    HW132117   1.807   6.148   5.464
10406SOL    HW232118   1.958   6.176   5.408
10407SOL     OW32119   1.769   1.549   6.398
10407SOL    HW132120   1.736   1.629   6.448
10407SOL    HW232121   1.832   1.577   6.326
10408SOL     OW32122   4.067   6.811   3.043
10408SOL    HW132123   4.009   6.865   2.982
10408SOL    HW232124   4.046   6.714   3.030
10409SOL     OW32125   6.567   4.845   2.096
10409SOL    HW132126   6.502   4.785   2.050
10409SOL    HW232127   6.543   4.854   2.192
10410SOL     OW32128   5.026   5.925   1.215
10410SOL    HW132129   5.023   5.826   1.231
10410SOL    HW232130   4.973   5.972   1.285
10411SOL     OW32131   1.700   4.594   2.191
10411SOL    HW132132   1.724   4.655   2.268
10411SOL    HW232133   1.687   4.501   2.225
10412SOL     OW32134   0.648   2.228   6.635
10412SOL    HW132135   0.618   2.319   6.607
10412SOL    HW232136   0.622   2.161   6.564
10413SOL     OW32137   6.858   1.652   5.240
10413SOL    HW132138   6.865   1.732   5.180
10413SOL    HW232139   6.762   1.630   5.255
10414SOL     OW32140   5.591   5.990   5.211
10414SOL    HW132141   5.594   6.022   5.116
10414SOL    HW232142   5.559   6.063   5.270
10415SOL     OW32143   6.563   5.633   3.177
10415SOL    HW132144   6.552   5.718   3.126
10415SOL    HW232145   6.477   5.611   3.223
10416SOL     OW32146   4.827   0.441   0.681
10416SOL    HW132147   4.773   0.470   0.602
10416SOL    HW232148   4.766   0.423   0.758
10417SOL     OW32149   4.650   4.317   4.049
10417SOL    HW132150   4.690   4.283   3.963
10417SOL    HW232151   4.670   4.252   4.122
10418SOL     OW32152   6.105   3.577   0.222
10418SOL    HW132153   6.172   3.508   0.249
10418SOL    HW232154   6.038   3.536   0.161
10419SOL     OW32155   1.647   0.637   5.005
10419SOL    HW132156   1.580   0.654   4.932
10419SOL    HW232157   1.733   0.682   4.982
10420SOL     OW32158   6.288   4.078   4.583
10420SOL    HW132159   6.245   4.144   4.522
10420SOL    HW232160   6.302   4.120   4.673
10421SOL     OW32161   0.906   3.929   4.318
10421SOL    HW132162   0.949   3.879   4.393
10421SOL    HW232163   0.806   3.924   4.327
10422SOL     OW32164   5.766   3.356   5.663
10422SOL    HW132165   5.733   3.308   5.582
10422SOL    HW232166   5.830   3.429   5.635
10423SOL     OW32167   2.737   5.362   2.604
10423SOL    HW132168   2.813   5.336   2.663
10423SOL    HW232169   2.722   5.290   2.535
10424SOL     OW32170   4.141   0.921   1.940
10424SOL    HW132171   4.226   0.971   1.920
10424SOL    HW232172   4.094   0.899   1.855
10425SOL     OW32173   0.929   3.952   0.349
10425SOL    HW132174   0.968   4.043   0.365
10425SOL    HW232175   0.911   3.908   0.437
10426SOL     OW32176   6.662   2.082   6.951
10426SOL    HW132177   6.567   2.053   6.936
10426SOL    HW232178   6.667   2.181   6.943
10427SOL     OW32179   6.022   0.693   3.871
10427SOL    HW132180   5.998   0.736   3.784
10427SOL    HW232181   6.070   0.759   3.929
10428SOL     OW32182   1.610   6.593   4.406
10428SOL    HW132183   1.541   6.548   4.350
10428SOL    HW232184   1.589   6.580   4.503
10429SOL     OW32185   2.264   4.165   1.418
10429SOL    HW132186   2.316   4.210   1.344
10429SOL    HW232187   2.318   4.165   1.501
10430SOL     OW32188   3.599   0.015   4.657
10430SOL    HW132189   3.521   0.050   4.710
10430SOL    HW232190   3.681   0.066   4.682
10431SOL     OW32191   4.208   2.274   4.099
10431SOL    HW132192   4.161   2.229   4.175
10431SOL    HW232193   4.151   2.270   4.017
10432SOL     OW32194   0.612   4.884   0.539
10432SOL    HW132195   0.664   4.897   0.623
10432SOL    HW232196   0.624   4.790   0.507
10433SOL     OW32197   3.801   6.337   4.443
10433SOL    HW132198   3.816   6.417   4.384
10433SOL    HW232199   3.762   6.367   4.530
10434SOL     OW32200   4.225   1.365   6.628
10434SOL    HW132201   4.294   1.325   6.568
10434SOL    HW232202   4.151   1.404   6.573
10435SOL     OW32203   2.630   1.396   1.634
10435SOL    HW132204   2.588   1.487   1.630
10435SOL    HW232205   2.692   1.385   1.556
10436SOL     OW32206   0.961   3.612   5.253
10436SOL    HW132207   1.016   3.546   5.202
10436SOL    HW232208   0.874   3.570   5.279
10437SOL     OW32209   6.624   6.554   4.572
10437SOL    HW132210   6.650   6.572   4.477
10437SOL    HW232211   6.588   6.461   4.579
10438SOL     OW32212   6.496   5.581   6.566
10438SOL    HW132213   6.449   5.512   6.513
10438SOL    HW232214   6.478   5.567   6.664
10439SOL     OW32215   6.356   5.457   4.345
10439SOL    HW132216   6.422   5.453   4.270
10439SOL    HW232217   6.304   5.371   4.347
10440SOL     OW32218   6.093   2.205   1.172
10440SOL    HW132219   6.052   2.119   1.201
10440SOL    HW232220   6.193   2.194   1.166
10441SOL     OW32221   4.158   2.180   6.609
10441SOL    HW132222   4.175   2.119   6.686
10441SOL    HW232223   4.063   2.171   6.579
10442SOL     OW32224   2.673   0.834   4.983
10442SOL    HW132225   2.623   0.860   5.065
10442SOL    HW232226   2.667   0.908   4.916
10443SOL     OW32227   1.174   0.533   0.184
10443SOL    HW132228   1.134   0.590   0.112
10443SOL    HW232229   1.106   0.467   0.216
10444SOL     OW32230   4.203   5.228   3.626
10444SOL    HW132231   4.111   5.189   3.617
10444SOL    HW232232   4.198   5.315   3.674
10445SOL     OW32233   1.175   3.733   3.885
10445SOL    HW132234   1.135   3.787   3.812
10445SOL    HW232235   1.259   3.690   3.853
10446SOL     OW32236   2.297   4.919   4.904
10446SOL    HW132237   2.349   4.855   4.848
10446SOL    HW232238   2.337   5.011   4.895
10447SOL     OW32239   1.140   2.026   2.873
10447SOL    HW132240   1.051   1.984   2.894
10447SOL    HW232241   1.128   2.125   2.865
10448SOL     OW32242   0.788   5.530   2.630
10448SOL    HW132243   0.880   5.538   2.667
10448SOL    HW232244   0.758   5.619   2.596
10449SOL     OW32245   3.971   4.910   4.791
10449SOL    HW132246   4.057   4.874   4.756
10449SOL    HW232247   3.895   4.874   4.736
10450SOL     OW32248   0.896   2.118   3.855
10450SOL    HW132249   0.982   2.074   3.879
10450SOL    HW232250   0.831   2.050   3.822
10451SOL     OW32251   3.488   1.771   4.369
10451SOL    HW132252   3.481   1.674   4.347
10451SOL    HW232253   3.430   1.823   4.307
10452SOL     OW32254   6.949   2.858   4.555
10452SOL    HW132255   6.949   2.825   4.649
10452SOL    HW232256   6.884   2.806   4.500
10453SOL     OW32257   3.794   4.984   4.443
10453SOL    HW132258   3.818   5.075   4.476
10453SOL    HW232259   3.718   4.948   4.497
10454SOL     OW32260   6.977   1.161   6.823
10454SOL    HW132261   7.016   1.243   6.779
10454SOL    HW232262   6.951   1.183   6.917
10455SOL     OW32263   0.474   6.218   2.310
10455SOL    HW132264   0.384   6.184   2.285
10455SOL    HW232265   0.493   6.193   2.405
10456SOL     OW32266   1.536   5.388   6.783
10456SOL    HW132267   1.467   5.461   6.785
10456SOL    HW232268   1.627   5.427   6.799
10457SOL     OW32269   4.236   1.523   0.373
10457SOL    HW132270   4.302   1.590   0.409
10457SOL    HW232271   4.265   1.431   0.400
10458SOL     OW32272   1.366   6.244   0.376
10458SOL    HW132273   1.441   6.305   0.351
10458SOL    HW232274   1.295   6.297   0.424
10459SOL     OW32275   5.952   6.141   1.631
10459SOL    HW132276   5.879   6.210   1.632
10459SOL    HW232277   5.913   6.051   1.651
10460SOL     OW32278   5.739   0.671   6.784
10460SOL    HW132279   5.651   0.629   6.765
10460SOL    HW232280   5.730   0.771   6.781
10461SOL     OW32281   0.199   3.978   5.541
10461SOL    HW132282   0.203   3.906   5.610
10461SOL    HW232283   0.114   4.030   5.552
10462SOL     OW32284   3.953   3.999   6.708
10462SOL    HW132285   3.956   3.911   6.661
10462SOL    HW232286   3.868   4.046   6.686
10463SOL     OW32287   4.911   2.577   5.966
10463SOL    HW132288   4.924   2.669   5.931
10463SOL    HW232289   4.820   2.544   5.940
10464SOL     OW32290   6.370   4.437   1.792
10464SOL    HW132291   6.439   4.375   1.753
10464SOL    HW232292   6.285   4.429   1.741
10465SOL     OW32293   5.178   4.231   1.444
10465SOL    HW132294   5.211   4.248   1.537
10465SOL    HW232295   5.175   4.133   1.428
10466SOL     OW32296   5.732   3.752   5.329
10466SOL    HW132297   5.826   3.740   5.361
10466SOL    HW232298   5.669   3.709   5.395
10467SOL     OW32299   0.362   2.582   6.938
10467SOL    HW132300   0.431   2.543   6.999
10467SOL    HW232301   0.276   2.534   6.951
10468SOL     OW32302   1.607   3.432   3.990
10468SOL    HW132303   1.697   3.473   3.978
10468SOL    HW232304   1.542   3.477   3.928
10469SOL     OW32305   1.494   1.510   3.960
10469SOL    HW132306   1.441   1.585   3.921
10469SOL    HW232307   1.578   1.547   4.001
10470SOL     OW32308   2.233   3.906   2.102
10470SOL    HW132309   2.169   3.943   2.034
10470SOL    HW232310   2.309   3.862   2.054
10471SOL     OW32311   2.721   4.895   6.946
10471SOL    HW132312   2.661   4.888   6.866
10471SOL    HW232313   2.666   4.921   0.008
10472SOL     OW32314   4.090   5.639   6.139
10472SOL    HW132315   4.114   5.545   6.116
10472SOL    HW232316   4.022   5.639   6.212
10473SOL     OW32317   6.374   5.247   6.924
10473SOL    HW132318   6.291   5.199   6.896
10473SOL    HW232319   6.427   5.188   6.985
10474SOL     OW32320   6.195   6.145   5.378
10474SOL    HW132321   6.274   6.148   5.440
10474SOL    HW232322   6.227   6.144   5.284
10475SOL     OW32323   0.521   5.202   1.460
10475SOL    HW132324   0.543   5.299   1.452
10475SOL    HW232325   0.513   5.177   1.557
10476SOL     OW32326   5.309   6.957   1.233
10476SOL    HW132327   5.239   6.922   1.170
10476SOL    HW232328   5.266   7.008   1.307
10477SOL     OW32329   6.874   5.705   3.746
10477SOL    HW132330   6.833   5.788   3.784
10477SOL    HW232331   6.846   5.696   3.650
10478SOL     OW32332   0.273   0.685   6.257
10478SOL    HW132333   0.272   0.617   6.330
10478SOL    HW232334   0.358   0.677   6.205
10479SOL     OW32335   0.705   3.740   2.286
10479SOL    HW132336   0.677   3.649   2.317
10479SOL    HW232337   0.769   3.731   2.210
10480SOL     OW32338   2.628   0.514   3.195
10480SOL    HW132339   2.566   0.438   3.176
10480SOL    HW232340   2.596   0.596   3.148
10481SOL     OW32341   6.466   1.044   1.204
10481SOL    HW132342   6.455   0.993   1.289
10481SOL    HW232343   6.542   1.006   1.152
10482SOL     OW32344   5.510   3.876   3.990
10482SOL    HW132345   5.461   3.799   3.950
10482SOL    HW232346   5.605   3.876   3.958
10483SOL     OW32347   5.857   0.539   6.997
10483SOL    HW132348   5.826   0.601   6.925
10483SOL    HW232349   5.938   0.490   6.966
10484SOL     OW32350   5.924   0.887   1.937
10484SOL    HW132351   5.977   0.804   1.918
10484SOL    HW232352   5.955   0.961   1.876
10485SOL     OW32353   5.722   3.223   5.423
10485SOL    HW132354   5.714   3.267   5.333
10485SOL    HW232355   5.813   3.183   5.432
10486SOL     OW32356   5.278   2.624   2.389
10486SOL    HW132357   5.242   2.700   2.444
10486SOL    HW232358   5.337   2.660   2.317
10487SOL     OW32359   4.330   0.012   2.537
10487SOL    HW132360   4.344   6.931   2.533
10487SOL    HW232361   4.385   0.050   2.611
10488SOL     OW32362   3.868   4.291   6.539
10488SOL    HW132363   3.799   4.243   6.484
10488SOL    HW232364   3.947   4.313   6.482
10489SOL     OW32365   1.517   4.788   5.031
10489SOL    HW132366   1.439   4.850   5.038
10489SOL    HW232367   1.582   4.823   4.964
10490SOL     OW32368   6.225   0.361   4.112
10490SOL    HW132369   6.209   0.263   4.120
10490SOL    HW232370   6.321   0.379   4.094
10491SOL     OW32371   6.775   5.518   5.514
10491SOL    HW132372   6.731   5.532   5.425
10491SOL    HW232373   6.825   5.601   5.539
10492SOL     OW32374   5.048   4.462   5.854
10492SOL    HW132375   5.077   4.536   5.793
10492SOL    HW232376   5.101   4.380   5.834
10493SOL     OW32377   3.817   1.702   1.100
10493SOL    HW132378   3.885   1.678   1.169
10493SOL    HW232379   3.840   1.658   1.013
10494SOL     OW32380   5.177   1.679   5.664
10494SOL    HW132381   5.083   1.677   5.629
10494SOL    HW232382   5.212   1.585   5.670
10495SOL     OW32383   1.744   6.808   6.520
10495SOL    HW132384   1.841   6.807   6.545
10495SOL    HW232385   1.688   6.818   6.603
10496SOL     OW32386   6.421   0.118   5.254
10496SOL    HW132387   6.428   0.062   5.172
10496SOL    HW232388   6.512   0.137   5.289
10497SOL     OW32389   1.426   1.456   6.486
10497SOL    HW132390   1.434   1.536   6.546
10497SOL    HW232391   1.438   1.484   6.391
10498SOL     OW32392   3.404   5.017   5.962
10498SOL    HW132393   3.364   5.063   6.042
10498SOL    HW232394   3.410   4.919   5.981
10499SOL     OW32395   2.821   6.042   3.024
10499SOL    HW132396   2.886   6.083   2.959
10499SOL    HW232397   2.770   5.969   2.979
10500SOL     OW32398   2.628   2.050   6.754
10500SOL    HW132399   2.555   2.115   6.738
10500SOL    HW232400   2.665   2.063   6.846
10501SOL     OW32401   1.648   3.848   3.187
10501SOL    HW132402   1.592   3.925   3.155
10501SOL    HW232403   1.647   3.776   3.118
10502SOL     OW32404   3.247   5.394   4.613
10502SOL    HW132405   3.165   5.446   4.587
10502SOL    HW232406   3.299   5.447   4.681
10503SOL     OW32407   2.523   3.024   5.930
10503SOL    HW132408   2.538   3.034   5.832
10503SOL    HW232409   2.594   2.966   5.969
10504SOL     OW32410   2.225   3.875   1.350
10504SOL    HW132411   2.261   3.968   1.357
10504SOL    HW232412   2.173   3.865   1.265
10505SOL     OW32413   0.739   6.725   0.596
10505SOL    HW132414   0.667   6.776   0.641
10505SOL    HW232415   0.759   6.641   0.648
10506SOL     OW32416   6.841   4.284   5.311
10506SOL    HW132417   6.905   4.332   5.251
10506SOL    HW232418   6.761   4.255   5.258
10507SOL     OW32419   1.740   0.179   3.420
10507SOL    HW132420   1.696   0.157   3.507
10507SOL    HW232421   1.776   0.096   3.378
10508SOL     OW32422   5.975   4.049   2.822
10508SOL    HW132423   5.955   4.096   2.736
10508SOL    HW232424   5.989   3.952   2.804
10509SOL     OW32425   2.309   0.616   5.961
10509SOL    HW132426   2.279   0.584   6.051
10509SOL    HW232427   2.331   0.714   5.967
10510SOL     OW32428   5.758   0.028   0.156
10510SOL    HW132429   5.835   7.001   0.202
10510SOL    HW232430   5.788   0.115   0.118
10511SOL     OW32431   6.971   2.552   1.583
10511SOL    HW132432   6.948   2.454   1.581
10511SOL    HW232433   6.980   2.585   1.489
10512SOL     OW32434   2.645   0.510   6.501
10512SOL    HW132435   2.731   0.475   6.463
10512SOL    HW232436   2.606   0.442   6.563
10513SOL     OW32437   0.492   1.986   0.311
10513SOL    HW132438   0.467   2.020   0.220
10513SOL    HW232439   0.591   1.993   0.323
10514SOL     OW32440   0.517   3.047   1.828
10514SOL    HW132441   0.590   3.112   1.807
10514SOL    HW232442   0.541   2.957   1.792
10515SOL     OW32443   6.448   3.067   4.642
10515SOL    HW132444   6.402   2.980   4.624
10515SOL    HW232445   6.530   3.050   4.697
10516SOL     OW32446   2.892   6.608   0.824
10516SOL    HW132447   2.880   6.516   0.789
10516SOL    HW232448   2.806   6.641   0.863
10517SOL     OW32449   0.385   2.330   2.811
10517SOL    HW132450   0.447   2.288   2.878
10517SOL    HW232451   0.434   2.347   2.726
10518SOL     OW32452   0.797   6.065   2.604
10518SOL    HW132453   0.834   6.149   2.643
10518SOL    HW232454   0.714   6.040   2.653
10519SOL     OW32455   4.249   3.352   6.059
10519SOL    HW132456   4.159   3.396   6.052
10519SOL    HW232457   4.261   3.317   6.152
10520SOL     OW32458   3.524   5.019   6.349
10520SOL    HW132459   3.432   5.015   6.311
10520SOL    HW232460   3.519   5.042   6.447
10521SOL     OW32461   6.364   5.803   2.132
10521SOL    HW132462   6.315   5.846   2.056
10521SOL    HW232463   6.351   5.704   2.127
10522SOL     OW32464   0.148   0.238   2.092
10522SOL    HW132465   0.144   0.265   1.996
10522SOL    HW232466   0.108   0.310   2.149
10523SOL     OW32467   6.779   6.119   5.715
10523SOL    HW132468   6.697   6.175   5.714
10523SOL    HW232469   6.853   6.168   5.668
10524SOL     OW32470   4.969   0.774   4.523
10524SOL    HW132471   4.915   0.840   4.576
10524SOL    HW232472   4.912   0.735   4.451
10525SOL     OW32473   3.293   6.496   5.105
10525SOL    HW132474   3.392   6.483   5.109
10525SOL    HW232475   3.259   6.471   5.014
10526SOL     OW32476   5.057   6.801   2.619
10526SOL    HW132477   5.101   6.829   2.534
10526SOL    HW232478   5.116   6.735   2.667
10527SOL     OW32479   1.632   2.974   4.439
10527SOL    HW132480   1.578   3.058   4.442
10527SOL    HW232481   1.574   2.896   4.463
10528SOL     OW32482   5.963   5.000   5.525
10528SOL    HW132483   6.051   4.968   5.492
10528SOL    HW232484   5.969   5.097   5.550
10529SOL     OW32485   0.178   5.996   4.168
10529SOL    HW132486   0.156   5.901   4.145
10529SOL    HW232487   0.252   6.028   4.108
10530SOL     OW32488   1.555   1.774   5.287
10530SOL    HW132489   1.602   1.687   5.278
10530SOL    HW232490   1.511   1.779   5.376
10531SOL     OW32491   1.773   1.982   4.771
10531SOL    HW132492   1.754   2.076   4.798
10531SOL    HW232493   1.869   1.974   4.745
10532SOL     OW32494   3.190   3.263   4.947
10532SOL    HW132495   3.181   3.188   4.882
10532SOL    HW232496   3.185   3.350   4.898
10533SOL     OW32497   3.149   1.205   6.435
10533SOL    HW132498   3.115   1.163   6.352
10533SOL    HW232499   3.098   1.170   6.514
10534SOL     OW32500   5.592   5.034   1.339
10534SOL    HW132501   5.584   5.106   1.407
10534SOL    HW232502   5.648   5.066   1.262
10535SOL     OW32503   0.000   0.775   1.687
10535SOL    HW132504   6.921   0.753   1.686
10535SOL    HW232505   0.014   0.863   1.641
10536SOL     OW32506   5.309   5.730   2.879
10536SOL    HW132507   5.365   5.673   2.939
10536SOL    HW232508   5.264   5.801   2.934
10537SOL     OW32509   6.446   5.435   0.793
10537SOL    HW132510   6.440   5.462   0.697
10537SOL    HW232511   6.451   5.335   0.799
10538SOL     OW32512   4.247   3.814   6.933
10538SOL    HW132513   4.194   3.741   6.891
10538SOL    HW232514   4.295   3.866   6.863
10539SOL     OW32515   0.936   3.163   5.434
10539SOL    HW132516   0.967   3.098   5.503
10539SOL    HW232517   0.863   3.121   5.379
10540SOL     OW32518   3.579   0.465   0.165
10540SOL    HW132519   3.597   0.451   0.263
10540SOL    HW232520   3.538   0.382   0.127
10541SOL     OW32521   3.827   2.470   1.137
10541SOL    HW132522   3.800   2.565   1.118
10541SOL    HW232523   3.852   2.425   1.052
10542SOL     OW32524   1.749   2.174   0.153
10542SOL    HW132525   1.667   2.222   0.120
10542SOL    HW232526   1.786   2.222   0.232
10543SOL     OW32527   2.362   0.132   4.851
10543SOL    HW132528   2.319   0.222   4.861
10543SOL    HW232529   2.458   0.144   4.827
10544SOL     OW32530   0.049   2.313   1.863
10544SOL    HW132531   0.113   2.272   1.929
10544SOL    HW232532   0.088   2.307   1.771
10545SOL     OW32533   4.739   1.385   3.086
10545SOL    HW132534   4.660   1.325   3.104
10545SOL    HW232535   4.723   1.474   3.128
10546SOL     OW32536   4.060   1.394   5.362
10546SOL    HW132537   3.966   1.358   5.362
10546SOL    HW232538   4.112   1.351   5.289
10547SOL     OW32539   4.941   6.703   1.527
10547SOL    HW132540   4.887   6.743   1.601
10547SOL    HW232541   4.922   6.604   1.522
10548SOL     OW32542   4.526   4.373   5.262
10548SOL    HW132543   4.487   4.399   5.174
10548SOL    HW232544   4.452   4.355   5.327
10549SOL     OW32545   0.851   1.751   1.286
10549SOL    HW132546   0.862   1.811   1.365
10549SOL    HW232547   0.806   1.801   1.212
10550SOL     OW32548   5.067   6.429   4.733
10550SOL    HW132549   5.094   6.443   4.638
10550SOL    HW232550   5.138   6.464   4.794
10551SOL     OW32551   1.295   2.795   5.756
10551SOL    HW132552   1.321   2.802   5.660
10551SOL    HW232553   1.199   2.768   5.763
10552SOL     OW32554   3.214   2.126   4.780
10552SOL    HW132555   3.233   2.176   4.864
10552SOL    HW232556   3.148   2.177   4.725
10553SOL     OW32557   3.098   5.183   5.919
10553SOL    HW132558   3.064   5.095   5.887
10553SOL    HW232559   3.124   5.176   6.016
10554SOL     OW32560   6.260   4.024   5.871
10554SOL    HW132561   6.335   3.959   5.861
10554SOL    HW232562   6.183   3.996   5.815
10555SOL     OW32563   3.492   2.915   1.290
10555SOL    HW132564   3.567   2.877   1.237
10555SOL    HW232565   3.434   2.971   1.231
10556SOL     OW32566   1.360   3.509   3.605
10556SOL    HW132567   1.386   3.513   3.508
10556SOL    HW232568   1.381   3.418   3.642
10557SOL     OW32569   5.408   1.368   3.689
10557SOL    HW132570   5.496   1.326   3.667
10557SOL    HW232571   5.379   1.427   3.614
10558SOL     OW32572   5.233   6.065   4.986
10558SOL    HW132573   5.146   6.060   5.035
10558SOL    HW232574   5.248   5.979   4.935
10559SOL     OW32575   4.326   2.603   0.945
10559SOL    HW132576   4.271   2.532   0.988
10559SOL    HW232577   4.359   2.571   0.856
10560SOL     OW32578   0.084   2.362   4.405
10560SOL    HW132579   0.052   2.454   4.382
10560SOL    HW232580   0.033   2.327   4.484
10561SOL     OW32581   2.248   4.037   6.465
10561SOL    HW132582   2.243   4.137   6.474
10561SOL    HW232583   2.341   4.010   6.439
10562SOL     OW32584   3.699   1.696   0.401
10562SOL    HW132585   3.599   1.695   0.398
10562SOL    HW232586   3.735   1.731   0.314
10563SOL     OW32587   1.251   2.538   2.556
10563SOL    HW132588   1.348   2.559   2.543
10563SOL    HW232589   1.203   2.541   2.468
10564SOL     OW32590   6.937   2.362   2.107
10564SOL    HW132591   6.881   2.285   2.139
10564SOL    HW232592   6.952   2.353   2.008
10565SOL     OW32593   4.991   1.585   4.871
10565SOL    HW132594   5.017   1.602   4.966
10565SOL    HW232595   5.065   1.612   4.810
10566SOL     OW32596   4.503   5.283   6.926
10566SOL    HW132597   4.570   5.278   6.852
10566SOL    HW232598   4.412   5.263   6.890
10567SOL     OW32599   2.460   5.458   4.347
10567SOL    HW132600   2.363   5.456   4.323
10567SOL    HW232601   2.471   5.443   4.445
10568SOL     OW32602   3.763   1.075   3.059
10568SOL    HW132603   3.715   1.010   3.001
10568SOL    HW232604   3.705   1.099   3.138
10569SOL     OW32605   6.378   2.733   3.393
10569SOL    HW132606   6.400   2.808   3.456
10569SOL    HW232607   6.450   2.664   3.397
10570SOL     OW32608   1.351   4.278   0.861
10570SOL    HW132609   1.281   4.207   0.855
10570SOL    HW232610   1.441   4.239   0.844
10571SOL     OW32611   6.426   6.863   4.528
10571SOL    HW132612   6.436   6.931   4.456
10571SOL    HW232613   6.372   6.902   4.603
10572SOL     OW32614   7.005   3.591   1.455
10572SOL    HW132615   6.963   3.626   1.538
10572SOL    HW232616   6.963   3.503   1.430
10573SOL     OW32617   5.876   4.700   5.889
10573SOL    HW132618   5.885   4.705   5.790
10573SOL    HW232619   5.781   4.715   5.915
10574SOL     OW32620   0.155   2.519   3.296
10574SOL    HW132621   0.133   2.612   3.326
10574SOL    HW232622   0.237   2.521   3.239
10575SOL     OW32623   1.057   6.892   6.447
10575SOL    HW132624   1.050   6.958   6.521
10575SOL    HW232625   1.053   6.940   6.359
10576SOL     OW32626   1.092   5.530   3.152
10576SOL    HW132627   1.087   5.479   3.237
10576SOL    HW232628   1.024   5.495   3.087
10577SOL     OW32629   0.563   2.663   5.848
10577SOL    HW132630   0.573   2.566   5.827
10577SOL    HW232631   0.512   2.674   5.934
10578SOL     OW32632   5.470   1.223   5.531
10578SOL    HW132633   5.561   1.262   5.512
10578SOL    HW232634   5.480   1.128   5.560
10579SOL     OW32635   5.474   6.707   0.477
10579SOL    HW132636   5.552   6.670   0.528
10579SOL    HW232637   5.426   6.773   0.534
10580SOL     OW32638   0.556   6.191   0.204
10580SOL    HW132639   0.482   6.239   0.251
10580SOL    HW232640   0.522   6.155   0.117
10581SOL     OW32641   4.698   2.732   3.978
10581SOL    HW132642   4.783   2.683   3.996
10581SOL    HW232643   4.694   2.757   3.881
10582SOL     OW32644   3.080   4.628   0.083
10582SOL    HW132645   3.012   4.599   0.015
10582SOL    HW232646   3.135   4.549   0.109
10583SOL     OW32647   4.621   1.149   1.466
10583SOL    HW132648   4.542   1.137   1.526
10583SOL    HW232649   4.634   1.067   1.410
10584SOL     OW32650   6.080   6.574   0.897
10584SOL    HW132651   6.090   6.480   0.927
10584SOL    HW232652   6.005   6.618   0.946
10585SOL     OW32653   2.565   4.272   6.331
10585SOL    HW132654   2.469   4.295   6.346
10585SOL    HW232655   2.623   4.341   6.376
10586SOL     OW32656   4.926   2.079   1.067
10586SOL    HW132657   4.997   2.147   1.050
10586SOL    HW232658   4.924   2.057   1.165
10587SOL     OW32659   5.920   2.961   0.332
10587SOL    HW132660   5.850   2.918   0.389
10587SOL    HW232661   5.988   3.005   0.390
10588SOL     OW32662   1.438   4.974   2.998
10588SOL    HW132663   1.351   5.019   3.020
10588SOL    HW232664   1.509   5.043   2.986
10589SOL     OW32665   5.740   1.836   4.084
10589SOL    HW132666   5.720   1.882   4.170
10589SOL    HW232667   5.786   1.749   4.102
10590SOL     OW32668   1.174   0.142   5.292
10590SOL    HW132669   1.099   0.165   5.231
10590SOL    HW232670   1.231   0.224   5.308
10591SOL     OW32671   1.719   2.516   1.637
10591SOL    HW132672   1.809   2.556   1.647
10591SOL    HW232673   1.721   2.421   1.670
10592SOL     OW32674   5.945   1.191   6.480
10592SOL    HW132675   6.014   1.128   6.445
10592SOL    HW232676   5.910   1.247   6.405
10593SOL     OW32677   1.022   4.666   1.667
10593SOL    HW132678   1.016   4.603   1.744
10593SOL    HW232679   1.071   4.622   1.592
10594SOL     OW32680   1.457   1.500   4.553
10594SOL    HW132681   1.484   1.591   4.521
10594SOL    HW232682   1.539   1.445   4.570
10595SOL     OW32683   2.379   6.086   4.563
10595SOL    HW132684   2.386   5.988   4.545
10595SOL    HW232685   2.283   6.112   4.568
10596SOL     OW32686   3.353   0.970   1.772
10596SOL    HW132687   3.413   1.050   1.774
10596SOL    HW232688   3.402   0.893   1.731
10597SOL     OW32689   1.274   0.823   4.075
10597SOL    HW132690   1.205   0.750   4.067
10597SOL    HW232691   1.365   0.782   4.082
10598SOL     OW32692   2.274   0.795   0.588
10598SOL    HW132693   2.348   0.863   0.593
10598SOL    HW232694   2.272   0.742   0.672
10599SOL     OW32695   4.792   0.662   6.419
10599SOL    HW132696   4.854   0.589   6.390
10599SOL    HW232697   4.786   0.663   6.518
10600SOL     OW32698   1.450   3.053   4.943
10600SOL    HW132699   1.502   3.138   4.949
10600SOL    HW232700   1.376   3.055   5.010
10601SOL     OW32701   3.238   6.052   5.269
10601SOL    HW132702   3.234   5.986   5.194
10601SOL    HW232703   3.153   6.048   5.321
10602SOL     OW32704   4.904   1.180   1.426
10602SOL    HW132705   4.804   1.178   1.436
10602SOL    HW232706   4.940   1.266   1.462
10603SOL     OW32707   0.779   5.366   5.256
10603SOL    HW132708   0.796   5.439   5.322
10603SOL    HW232709   0.795   5.401   5.163
10604SOL     OW32710   0.580   4.023   5.485
10604SOL    HW132711   0.629   4.091   5.539
10604SOL    HW232712   0.606   3.931   5.514
10605SOL     OW32713   1.615   5.010   6.568
10605SOL    HW132714   1.520   5.001   6.539
10605SOL    HW232715   1.652   5.097   6.536
10606SOL     OW32716   0.415   1.062   2.132
10606SOL    HW132717   0.377   1.009   2.057
10606SOL    HW232718   0.343   1.120   2.171
10607SOL     OW32719   5.698   4.545   6.350
10607SOL    HW132720   5.648   4.486   6.287
10607SOL    HW232721   5.686   4.641   6.322
10608SOL     OW32722   5.611   0.048   2.722
10608SOL    HW132723   5.564   0.127   2.682
10608SOL    HW232724   5.706   0.049   2.693
10609SOL     OW32725   4.065   0.040   2.651
10609SOL    HW132726   4.163   0.027   2.640
10609SOL    HW232727   4.033   7.009   2.732
10610SOL     OW32728   1.979   4.313   4.847
10610SOL    HW132729   1.965   4.353   4.756
10610SOL    HW232730   1.919   4.358   4.913
10611SOL     OW32731   4.805   2.393   6.443
10611SOL    HW132732   4.813   2.307   6.493
10611SOL    HW232733   4.722   2.441   6.472
10612SOL     OW32734   1.880   0.419   1.211
10612SOL    HW132735   1.868   0.393   1.307
10612SOL    HW232736   1.809   0.375   1.156
10613SOL     OW32737   0.560   6.492   6.907
10613SOL    HW132738   0.522   6.537   6.987
10613SOL    HW232739   0.540   6.547   6.825
10614SOL     OW32740   0.167   0.951   2.845
10614SOL    HW132741   0.202   0.959   2.938
10614SOL    HW232742   0.201   0.867   2.803
10615SOL     OW32743   0.289   6.375   5.235
10615SOL    HW132744   0.353   6.355   5.310
10615SOL    HW232745   0.246   6.464   5.250
10616SOL     OW32746   2.814   5.884   1.420
10616SOL    HW132747   2.805   5.883   1.320
10616SOL    HW232748   2.725   5.863   1.461
10617SOL     OW32749   0.622   1.510   6.754
10617SOL    HW132750   0.646   1.424   6.709
10617SOL    HW232751   0.601   1.493   6.850
10618SOL     OW32752   6.229   4.028   0.631
10618SOL    HW132753   6.191   4.000   0.542
10618SOL    HW232754   6.328   4.039   0.622
10619SOL     OW32755   0.722   3.750   3.165
10619SOL    HW132756   0.667   3.669   3.184
10619SOL    HW232757   0.715   3.815   3.241
10620SOL     OW32758   1.603   5.029   4.613
10620SOL    HW132759   1.528   5.089   4.640
10620SOL    HW232760   1.587   4.996   4.520
10621SOL     OW32761   3.694   6.315   0.519
10621SOL    HW132762   3.675   6.336   0.615
10621SOL    HW232763   3.719   6.218   0.511
10622SOL     OW32764   3.981   1.962   0.980
10622SOL    HW132765   4.002   1.978   1.076
10622SOL    HW232766   3.899   2.013   0.955
10623SOL     OW32767   0.097   1.114   4.982
10623SOL    HW132768   0.035   1.052   4.933
10623SOL    HW232769   0.060   1.207   4.980
10624SOL     OW32770   3.031   0.952   3.921
10624SOL    HW132771   2.938   0.972   3.950
10624SOL    HW232772   3.096   1.005   3.975
10625SOL     OW32773   0.888   2.743   0.769
10625SOL    HW132774   0.932   2.809   0.830
10625SOL    HW232775   0.958   2.700   0.710
10626SOL     OW32776   6.213   2.592   2.117
10626SOL    HW132777   6.117   2.574   2.095
10626SOL    HW232778   6.270   2.518   2.082
10627SOL     OW32779   5.571   5.952   4.757
10627SOL    HW132780   5.516   5.887   4.704
10627SOL    HW232781   5.637   5.997   4.696
10628SOL     OW32782   6.954   5.684   5.829
10628SOL    HW132783   6.981   5.745   5.904
10628SOL    HW232784   6.857   5.698   5.809
10629SOL     OW32785   2.336   4.502   6.869
10629SOL    HW132786   2.329   4.568   6.794
10629SOL    HW232787   2.425   4.510   6.912
10630SOL     OW32788   5.750   0.616   1.931
10630SOL    HW132789   5.832   0.651   1.886
10630SOL    HW232790   5.678   0.686   1.926
10631SOL     OW32791   1.485   0.002   4.746
10631SOL    HW132792   1.502   6.926   4.775
10631SOL    HW232793   1.540   0.022   4.665
10632SOL     OW32794   6.870   3.109   6.417
10632SOL    HW132795   6.832   3.054   6.343
10632SOL    HW232796   6.968   3.121   6.403
10633SOL     OW32797   1.192   5.279   0.239
10633SOL    HW132798   1.111   5.221   0.253
10633SOL    HW232799   1.268   5.244   0.293
10634SOL     OW32800   3.683   6.269   2.406
10634SOL    HW132801   3.600   6.299   2.358
10634SOL    HW232802   3.763   6.297   2.353
10635SOL     OW32803   1.978   1.319   1.598
10635SOL    HW132804   2.047   1.386   1.624
10635SOL    HW232805   1.887   1.359   1.609
10636SOL     OW32806   5.115   1.512   1.064
10636SOL    HW132807   5.162   1.597   1.088
10636SOL    HW232808   5.017   1.521   1.082
10637SOL     OW32809   2.958   4.342   6.183
10637SOL    HW132810   2.909   4.342   6.096
10637SOL    HW232811   2.999   4.432   6.199
10638SOL     OW32812   6.502   0.105   5.968
10638SOL    HW132813   6.429   0.173   5.962
10638SOL    HW232814   6.580   0.145   6.015
10639SOL     OW32815   3.481   2.110   4.978
10639SOL    HW132816   3.443   2.140   5.065
10639SOL    HW232817   3.427   2.032   4.944
10640SOL     OW32818   4.661   6.357   0.748
10640SOL    HW132819   4.678   6.300   0.668
10640SOL    HW232820   4.621   6.302   0.821
10641SOL     OW32821   3.204   6.991   0.020
10641SOL    HW132822   3.276   6.929   0.052
10641SOL    HW232823   3.207   6.995   6.938
10642SOL     OW32824   0.028   4.860   0.333
10642SOL    HW132825   0.125   4.843   0.318
10642SOL    HW232826   0.005   4.849   0.430
10643SOL     OW32827   4.208   3.088   5.418
10643SOL    HW132828   4.191   3.141   5.335
10643SOL    HW232829   4.258   3.004   5.395
10644SOL     OW32830   3.851   1.317   4.982
10644SOL    HW132831   3.781   1.387   4.994
10644SOL    HW232832   3.903   1.336   4.899
10645SOL     OW32833   2.016   6.969   4.778
10645SOL    HW132834   2.005   0.050   4.767
10645SOL    HW232835   2.096   6.938   4.727
10646SOL     OW32836   6.970   4.939   6.650
10646SOL    HW132837   0.041   4.922   6.691
10646SOL    HW232838   6.900   4.887   6.698
10647SOL     OW32839   0.510   6.090   0.538
10647SOL    HW132840   0.561   6.100   0.623
10647SOL    HW232841   0.573   6.067   0.464
10648SOL     OW32842   4.797   4.754   6.229
10648SOL    HW132843   4.816   4.804   6.145
10648SOL    HW232844   4.884   4.720   6.267
10649SOL     OW32845   0.461   4.292   6.107
10649SOL    HW132846   0.427   4.199   6.122
10649SOL    HW232847   0.501   4.327   6.192
10650SOL     OW32848   2.768   0.236   5.597
10650SOL    HW132849   2.726   0.277   5.516
10650SOL    HW232850   2.696   0.200   5.657
10651SOL     OW32851   2.544   0.886   5.218
10651SOL    HW132852   2.463   0.838   5.253
10651SOL    HW232853   2.553   0.974   5.264
10652SOL     OW32854   4.007   1.561   0.514
10652SOL    HW132855   4.086   1.579   0.456
10652SOL    HW232856   4.002   1.463   0.535
10653SOL     OW32857   6.356   4.018   4.229
10653SOL    HW132858   6.394   3.927   4.248
10653SOL    HW232859   6.385   4.048   4.138
10654SOL     OW32860   4.736   0.806   1.966
10654SOL    HW132861   4.702   0.849   2.049
10654SOL    HW232862   4.660   0.765   1.915
10655SOL     OW32863   2.284   5.428   1.454
10655SOL    HW132864   2.382   5.406   1.458
10655SOL    HW232865   2.243   5.413   1.544
10656SOL     OW32866   6.522   2.964   6.932
10656SOL    HW132867   6.594   3.013   6.883
10656SOL    HW232868   6.513   2.871   6.895
10657SOL     OW32869   6.382   0.228   0.898
10657SOL    HW132870   6.391   0.128   0.900
10657SOL    HW232871   6.357   0.260   0.989
10658SOL     OW32872   0.118   6.233   4.333
10658SOL    HW132873   0.048   6.237   4.262
10658SOL    HW232874   0.158   6.141   4.336
10659SOL     OW32875   4.870   0.989   1.084
10659SOL    HW132876   4.872   0.950   1.176
10659SOL    HW232877   4.963   0.997   1.049
10660SOL     OW32878   5.604   5.573   5.531
10660SOL    HW132879   5.584   5.479   5.561
10660SOL    HW232880   5.557   5.637   5.591
10661SOL     OW32881   0.094   0.748   1.960
10661SOL    HW132882   0.050   0.717   1.876
10661SOL    HW232883   0.148   0.674   1.999
10662SOL     OW32884   6.789   1.871   0.103
10662SOL    HW132885   6.734   1.940   0.056
10662SOL    HW232886   6.730   1.812   0.158
10663SOL     OW32887   0.900   2.402   0.699
10663SOL    HW132888   0.823   2.450   0.659
10663SOL    HW232889   0.966   2.377   0.628
10664SOL     OW32890   2.288   5.280   5.881
10664SOL    HW132891   2.257   5.198   5.833
10664SOL    HW232892   2.372   5.258   5.932
10665SOL     OW32893   6.009   1.726   6.833
10665SOL    HW132894   5.950   1.732   6.914
10665SOL    HW232895   6.055   1.637   6.833
10666SOL     OW32896   0.615   0.086   0.375
10666SOL    HW132897   0.666   0.077   0.461
10666SOL    HW232898   0.536   0.026   0.377
10667SOL     OW32899   3.059   2.623   5.772
10667SOL    HW132900   2.999   2.698   5.797
10667SOL    HW232901   3.007   2.554   5.722
10668SOL     OW32902   2.264   0.858   6.140
10668SOL    HW132903   2.277   0.931   6.073
10668SOL    HW232904   2.319   0.877   6.221
10669SOL     OW32905   1.838   6.165   6.542
10669SOL    HW132906   1.748   6.136   6.512
10669SOL    HW232907   1.859   6.124   6.631
10670SOL     OW32908   6.359   4.329   4.814
10670SOL    HW132909   6.351   4.363   4.908
10670SOL    HW232910   6.451   4.347   4.779
10671SOL     OW32911   2.017   2.775   3.372
10671SOL    HW132912   2.010   2.858   3.428
10671SOL    HW232913   2.104   2.774   3.324
10672SOL     OW32914   6.733   2.340   0.857
10672SOL    HW132915   6.784   2.322   0.941
10672SOL    HW232916   6.781   2.299   0.780
10673SOL     OW32917   3.440   3.923   4.085
10673SOL    HW132918   3.413   3.867   4.007
10673SOL    HW232919   3.488   4.004   4.052
10674SOL     OW32920   4.239   1.482   2.208
10674SOL    HW132921   4.331   1.484   2.248
10674SOL    HW232922   4.190   1.401   2.242
10675SOL     OW32923   1.063   1.310   5.549
10675SOL    HW132924   0.978   1.307   5.496
10675SOL    HW232925   1.061   1.387   5.612
10676SOL     OW32926   6.601   0.609   6.636
10676SOL    HW132927   6.675   0.610   6.569
10676SOL    HW232928   6.530   0.545   6.607
10677SOL     OW32929   5.557   1.231   0.696
10677SOL    HW132930   5.469   1.195   0.727
10677SOL    HW232931   5.612   1.256   0.776
10678SOL     OW32932   1.646   5.197   3.281
10678SOL    HW132933   1.732   5.232   3.319
10678SOL    HW232934   1.624   5.110   3.324
10679SOL     OW32935   4.941   4.935   3.677
10679SOL    HW132936   4.988   5.023   3.683
10679SOL    HW232937   5.005   4.862   3.700
10680SOL     OW32938   0.534   2.585   3.574
10680SOL    HW132939   0.594   2.506   3.555
10680SOL    HW232940   0.496   2.618   3.488
10681SOL     OW32941   0.280   2.912   7.017
10681SOL    HW132942   0.300   3.005   6.985
10681SOL    HW232943   0.253   2.855   6.940
10682SOL     OW32944   6.326   2.103   3.396
10682SOL    HW132945   6.260   2.071   3.328
10682SOL    HW232946   6.411   2.053   3.385
10683SOL     OW32947   1.051   0.649   4.159
10683SOL    HW132948   0.996   0.599   4.091
10683SOL    HW232949   1.050   0.599   4.245
10684SOL     OW32950   5.214   5.859   1.002
10684SOL    HW132951   5.164   5.868   0.915
10684SOL    HW232952   5.150   5.872   1.078
10685SOL     OW32953   6.023   2.879   2.514
10685SOL    HW132954   5.985   2.787   2.507
10685SOL    HW232955   6.120   2.878   2.490
10686SOL     OW32956   4.413   4.581   1.476
10686SOL    HW132957   4.370   4.493   1.457
10686SOL    HW232958   4.446   4.622   1.390
10687SOL     OW32959   6.796   5.164   1.063
10687SOL    HW132960   6.856   5.161   1.142
10687SOL    HW232961   6.850   5.178   0.980
10688SOL     OW32962   1.038   4.844   1.041
10688SOL    HW132963   0.954   4.791   1.048
10688SOL    HW232964   1.072   4.841   0.947
10689SOL     OW32965   0.969   0.539   0.504
10689SOL    HW132966   0.984   0.631   0.469
10689SOL    HW232967   0.933   0.544   0.597
10690SOL     OW32968   4.475   0.030   3.073
10690SOL    HW132969   4.487   0.033   3.172
10690SOL    HW232970   4.387   0.072   3.049
10691SOL     OW32971   5.423   0.991   1.388
10691SOL    HW132972   5.507   0.973   1.440
10691SOL    HW232973   5.345   0.954   1.438
10692SOL     OW32974   6.284   6.709   3.999
10692SOL    HW132975   6.210   6.704   3.933
10692SOL    HW232976   6.248   6.692   4.091
10693SOL     OW32977   4.930   3.130   4.491
10693SOL    HW132978   4.896   3.068   4.561
10693SOL    HW232979   5.029   3.122   4.484
10694SOL     OW32980   2.328   6.019   0.366
10694SOL    HW132981   2.286   6.048   0.452
10694SOL    HW232982   2.419   6.060   0.359
10695SOL     OW32983   5.724   3.506   6.117
10695SOL    HW132984   5.802   3.557   6.080
10695SOL    HW232985   5.676   3.459   6.043
10696SOL     OW32986   6.444   6.985   0.888
10696SOL    HW132987   6.393   6.902   0.864
10696SOL    HW232988   6.540   6.974   0.860
10697SOL     OW32989   2.069   6.168   3.264
10697SOL    HW132990   1.982   6.136   3.227
10697SOL    HW232991   2.118   6.221   3.195
10698SOL     OW32992   3.194   0.587   4.904
10698SOL    HW132993   3.145   0.669   4.874
10698SOL    HW232994   3.203   0.524   4.826
10699SOL     OW32995   1.536   2.581   3.712
10699SOL    HW132996   1.568   2.513   3.777
10699SOL    HW232997   1.457   2.630   3.750
10700SOL     OW32998   1.296   3.094   2.462
10700SOL    HW132999   1.395   3.112   2.465
10700SOL    HW233000   1.278   3.021   2.396
10701SOL     OW33001   2.794   6.927   1.265
10701SOL    HW133002   2.722   6.982   1.222
10701SOL    HW233003   2.852   6.887   1.194
10702SOL     OW33004   4.853   2.330   0.620
10702SOL    HW133005   4.847   2.430   0.615
10702SOL    HW233006   4.762   2.292   0.638
10703SOL     OW33007   3.696   3.426   3.954
10703SOL    HW133008   3.639   3.345   3.966
10703SOL    HW233009   3.639   3.502   3.923
10704SOL     OW33010   5.521   5.280   2.246
10704SOL    HW133011   5.611   5.302   2.284
10704SOL    HW233012   5.477   5.364   2.215
10705SOL     OW33013   1.217   3.049   6.610
10705SOL    HW133014   1.141   3.056   6.674
10705SOL    HW233015   1.244   3.141   6.581
10706SOL     OW33016   3.609   3.280   1.014
10706SOL    HW133017   3.666   3.199   1.026
10706SOL    HW233018   3.652   3.342   0.948
10707SOL     OW33019   5.915   0.117   6.778
10707SOL    HW133020   5.948   0.041   6.835
10707SOL    HW233021   5.816   0.109   6.766
10708SOL     OW33022   4.913   2.020   1.785
10708SOL    HW133023   4.835   2.026   1.846
10708SOL    HW233024   4.980   2.091   1.808
10709SOL     OW33025   0.811   0.224   6.154
10709SOL    HW133026   0.843   0.317   6.170
10709SOL    HW233027   0.733   0.205   6.213
10710SOL     OW33028   0.152   5.914   3.522
10710SOL    HW133029   0.102   5.947   3.442
10710SOL    HW233030   0.245   5.890   3.495
10711SOL     OW33031   1.864   4.185   5.537
10711SOL    HW133032   1.841   4.089   5.555
10711SOL    HW233033   1.843   4.207   5.441
10712SOL     OW33034   3.347   1.875   6.743
10712SOL    HW133035   3.302   1.832   6.821
10712SOL    HW233036   3.281   1.934   6.695
10713SOL     OW33037   2.517   0.034   0.008
10713SOL    HW133038   2.435   0.059   0.060
10713SOL    HW233039   2.578   0.114   0.003
10714SOL     OW33040   5.011   5.349   4.324
10714SOL    HW133041   5.087   5.325   4.385
10714SOL    HW233042   4.924   5.336   4.372
10715SOL     OW33043   6.019   0.519   3.072
10715SOL    HW133044   6.052   0.573   2.995
10715SOL    HW233045   6.072   0.435   3.080
10716SOL     OW33046   6.840   1.164   2.267
10716SOL    HW133047   6.777   1.094   2.235
10716SOL    HW233048   6.794   1.222   2.334
10717SOL     OW33049   0.644   6.484   1.709
10717SOL    HW133050   0.549   6.510   1.728
10717SOL    HW233051   0.648   6.432   1.624
10718SOL     OW33052   0.747   4.467   5.246
10718SOL    HW133053   0.673   4.532   5.233
10718SOL    HW233054   0.724   4.381   5.199
10719SOL     OW33055   3.734   6.489   3.035
10719SOL    HW133056   3.694   6.397   3.036
10719SOL    HW233057   3.744   6.522   3.129
10720SOL     OW33058   0.416   2.939   5.923
10720SOL    HW133059   0.361   2.865   5.884
10720SOL    HW233060   0.357   3.018   5.943
10721SOL     OW33061   5.392   1.584   3.913
10721SOL    HW133062   5.455   1.523   3.960
10721SOL    HW233063   5.356   1.539   3.831
10722SOL     OW33064   0.757   5.331   0.417
10722SOL    HW133065   0.708   5.249   0.388
10722SOL    HW233066   0.693   5.397   0.456
10723SOL     OW33067   6.802   3.975   6.515
10723SOL    HW133068   6.750   3.936   6.590
10723SOL    HW233069   6.875   4.033   6.551
10724SOL     OW33070   3.489   6.521   5.796
10724SOL    HW133071   3.399   6.558   5.816
10724SOL    HW233072   3.559   6.573   5.845
10725SOL     OW33073   0.150   6.744   5.681
10725SOL    HW133074   0.169   6.671   5.616
10725SOL    HW233075   0.185   6.831   5.646
10726SOL     OW33076   6.987   0.256   3.217
10726SOL    HW133077   0.016   0.279   3.302
10726SOL    HW233078   6.920   0.184   3.233
10727SOL     OW33079   4.636   6.472   6.088
10727SOL    HW133080   4.636   6.567   6.055
10727SOL    HW233081   4.725   6.450   6.128
10728SOL     OW33082   5.870   5.911   3.647
10728SOL    HW133083   5.794   5.971   3.623
10728SOL    HW233084   5.834   5.824   3.682
10729SOL     OW33085   0.179   2.877   4.228
10729SOL    HW133086   0.137   2.792   4.195
10729SOL    HW233087   0.275   2.880   4.202
10730SOL     OW33088   1.690   6.247   4.406
10730SOL    HW133089   1.614   6.296   4.363
10730SOL    HW233090   1.660   6.156   4.434
10731SOL     OW33091   4.977   4.444   6.120
10731SOL    HW133092   5.009   4.443   6.025
10731SOL    HW233093   4.877   4.445   6.122
10732SOL     OW33094   5.986   6.504   1.974
10732SOL    HW133095   5.992   6.440   2.051
10732SOL    HW233096   6.076   6.511   1.930
10733SOL     OW33097   0.601   1.203   6.154
10733SOL    HW133098   0.558   1.119   6.188
10733SOL    HW233099   0.547   1.282   6.184
10734SOL     OW33100   0.931   0.730   4.559
10734SOL    HW133101   0.918   0.829   4.563
10734SOL    HW233102   0.845   0.684   4.583
10735SOL     OW33103   6.571   0.550   1.295
10735SOL    HW133104   6.600   0.459   1.322
10735SOL    HW233105   6.563   0.556   1.196
10736SOL     OW33106   5.461   5.898   3.774
10736SOL    HW133107   5.513   5.923   3.856
10736SOL    HW233108   5.483   5.962   3.700
10737SOL     OW33109   0.191   0.595   1.010
10737SOL    HW133110   0.121   0.527   0.990
10737SOL    HW233111   0.152   0.687   0.999
10738SOL     OW33112   1.414   6.317   1.968
10738SOL    HW133113   1.355   6.350   1.895
10738SOL    HW233114   1.478   6.390   1.994
10739SOL     OW33115   4.917   2.819   4.394
10739SOL    HW133116   4.841   2.853   4.339
10739SOL    HW233117   4.900   2.841   4.491
10740SOL     OW33118   2.606   0.673   6.055
10740SOL    HW133119   2.574   0.749   5.999
10740SOL    HW233120   2.679   0.625   6.006
10741SOL     OW33121   1.364   2.540   4.064
10741SOL    HW133122   1.274   2.562   4.103
10741SOL    HW233123   1.435   2.587   4.117
10742SOL     OW33124   0.521   0.316   1.914
10742SOL    HW133125   0.548   0.224   1.888
10742SOL    HW233126   0.432   0.338   1.874
10743SOL     OW33127   4.030   2.431   6.051
10743SOL    HW133128   4.002   2.415   5.957
10743SOL    HW233129   4.124   2.467   6.052
10744SOL     OW33130   1.702   2.348   1.368
10744SOL    HW133131   1.658   2.288   1.435
10744SOL    HW233132   1.799   2.356   1.389
10745SOL     OW33133   2.879   5.494   1.353
10745SOL    HW133134   2.782   5.469   1.354
10745SOL    HW233135   2.921   5.461   1.269
10746SOL     OW33136   2.259   5.430   6.340
10746SOL    HW133137   2.204   5.375   6.277
10746SOL    HW233138   2.347   5.449   6.298
10747SOL     OW33139   6.818   6.985   4.493
10747SOL    HW133140   6.803   0.038   4.423
10747SOL    HW233141   6.879   6.915   4.456
10748SOL     OW33142   2.771   6.362   2.510
10748SOL    HW133143   2.803   6.358   2.416
10748SOL    HW233144   2.847   6.382   2.571
10749SOL     OW33145   5.000   3.508   2.036
10749SOL    HW133146   4.965   3.567   2.109
10749SOL    HW233147   5.074   3.450   2.072
10750SOL     OW33148   3.764   1.817   4.074
10750SOL    HW133149   3.795   1.911   4.084
10750SOL    HW233150   3.721   1.786   4.159
10751SOL     OW33151   6.256   6.168   3.836
10751SOL    HW133152   6.324   6.213   3.777
10751SOL    HW233153   6.249   6.072   3.809
10752SOL     OW33154   0.266   5.873   6.722
10752SOL    HW133155   0.173   5.909   6.732
10752SOL    HW233156   0.281   5.847   6.627
10753SOL     OW33157   5.222   6.700   4.949
10753SOL    HW133158   5.258   6.792   4.968
10753SOL    HW233159   5.125   6.707   4.924
10754SOL     OW33160   0.148   5.755   2.357
10754SOL    HW133161   0.084   5.831   2.359
10754SOL    HW233162   0.119   5.685   2.422
10755SOL     OW33163   0.139   1.889   1.819
10755SOL    HW133164   0.187   1.863   1.735
10755SOL    HW233165   0.107   1.806   1.865
10756SOL     OW33166   1.143   6.991   6.011
10756SOL    HW133167   1.062   6.987   6.068
10756SOL    HW233168   1.191   6.903   6.015
10757SOL     OW33169   0.052   3.086   1.724
10757SOL    HW133170   6.999   3.080   1.654
10757SOL    HW233171   0.085   2.994   1.745
10758SOL     OW33172   1.014   1.746   0.474
10758SOL    HW133173   0.920   1.714   0.486
10758SOL    HW233174   1.077   1.669   0.489
10759SOL     OW33175   3.562   4.133   5.445
10759SOL    HW133176   3.635   4.080   5.401
10759SOL    HW233177   3.536   4.210   5.386
10760SOL     OW33178   0.663   4.897   0.108
10760SOL    HW133179   0.619   4.927   0.024
10760SOL    HW233180   0.652   4.967   0.179
10761SOL     OW33181   1.540   1.272   6.868
10761SOL    HW133182   1.535   1.257   6.769
10761SOL    HW233183   1.591   1.198   6.911
10762SOL     OW33184   1.732   6.440   0.827
10762SOL    HW133185   1.761   6.428   0.922
10762SOL    HW233186   1.690   6.530   0.815
10763SOL     OW33187   5.024   1.363   2.485
10763SOL    HW133188   5.048   1.266   2.488
10763SOL    HW233189   4.926   1.374   2.499
10764SOL     OW33190   5.305   6.244   5.212
10764SOL    HW133191   5.274   6.166   5.157
10764SOL    HW233192   5.307   6.326   5.155
10765SOL     OW33193   0.083   2.853   1.185
10765SOL    HW133194   0.094   2.910   1.267
10765SOL    HW233195   7.016   2.878   1.138
10766SOL     OW33196   2.865   4.851   6.448
10766SOL    HW133197   2.913   4.813   6.528
10766SOL    HW233198   2.921   4.923   6.408
10767SOL     OW33199   1.941   4.796   6.637
10767SOL    HW133200   2.026   4.800   6.691
10767SOL    HW233201   1.883   4.874   6.660
10768SOL     OW33202   5.357   6.158   6.471
10768SOL    HW133203   5.291   6.184   6.401
10768SOL    HW233204   5.309   6.138   6.556
10769SOL     OW33205   2.874   3.642   4.588
10769SOL    HW133206   2.865   3.638   4.688
10769SOL    HW233207   2.875   3.737   4.558
10770SOL     OW33208   4.848   0.085   3.809
10770SOL    HW133209   4.911   0.157   3.837
10770SOL    HW233210   4.754   0.116   3.822
10771SOL     OW33211   4.665   5.830   5.866
10771SOL    HW133212   4.762   5.818   5.890
10771SOL    HW233213   4.633   5.918   5.900
10772SOL     OW33214   4.813   3.920   3.016
10772SOL    HW133215   4.813   3.911   3.116
10772SOL    HW233216   4.755   3.997   2.990
10773SOL     OW33217   0.680   3.862   0.873
10773SOL    HW133218   0.604   3.913   0.832
10773SOL    HW233219   0.716   3.911   0.952
10774SOL     OW33220   0.186   2.743   0.784
10774SOL    HW133221   0.278   2.747   0.823
10774SOL    HW233222   0.172   2.820   0.722
10775SOL     OW33223   2.173   4.889   6.760
10775SOL    HW133224   2.204   4.981   6.736
10775SOL    HW233225   2.161   4.883   6.859
10776SOL     OW33226   0.971   3.587   3.151
10776SOL    HW133227   0.982   3.536   3.237
10776SOL    HW233228   0.894   3.651   3.160
10777SOL     OW33229   1.487   6.922   1.769
10777SOL    HW133230   1.552   6.893   1.840
10777SOL    HW233231   1.531   6.990   1.710
10778SOL     OW33232   4.815   0.527   3.899
10778SOL    HW133233   4.799   0.514   3.801
10778SOL    HW233234   4.727   0.539   3.946
10779SOL     OW33235   5.681   2.884   5.918
10779SOL    HW133236   5.605   2.880   5.854
10779SOL    HW233237   5.647   2.905   6.010
10780SOL     OW33238   0.799   5.041   4.983
10780SOL    HW133239   0.720   5.068   4.929
10780SOL    HW233240   0.882   5.051   4.928
10781SOL     OW33241   6.229   2.611   5.923
10781SOL    HW133242   6.153   2.594   5.860
10781SOL    HW233243   6.266   2.524   5.955
10782SOL     OW33244   1.133   3.356   5.452
10782SOL    HW133245   1.155   3.415   5.375
10782SOL    HW233246   1.064   3.289   5.424
10783SOL     OW33247   1.428   4.112   3.983
10783SOL    HW133248   1.400   4.182   3.918
10783SOL    HW233249   1.347   4.074   4.028
10784SOL     OW33250   4.542   5.357   3.778
10784SOL    HW133251   4.463   5.409   3.809
10784SOL    HW233252   4.527   5.324   3.685
10785SOL     OW33253   1.603   5.325   1.640
10785SOL    HW133254   1.543   5.249   1.661
10785SOL    HW233255   1.634   5.368   1.725
10786SOL     OW33256   5.055   1.572   2.753
10786SOL    HW133257   4.965   1.531   2.771
10786SOL    HW233258   5.119   1.500   2.727
10787SOL     OW33259   3.369   1.501   3.734
10787SOL    HW133260   3.387   1.517   3.637
10787SOL    HW233261   3.383   1.404   3.755
10788SOL     OW33262   1.522   3.165   0.104
10788SOL    HW133263   1.616   3.146   0.075
10788SOL    HW233264   1.473   3.212   0.031
10789SOL     OW33265   6.242   2.031   2.485
10789SOL    HW133266   6.258   1.935   2.504
10789SOL    HW233267   6.330   2.079   2.482
10790SOL     OW33268   6.961   2.144   5.224
10790SOL    HW133269   6.990   2.188   5.309
10790SOL    HW233270   6.942   2.047   5.242
10791SOL     OW33271   1.760   3.525   3.556
10791SOL    HW133272   1.833   3.471   3.514
10791SOL    HW233273   1.679   3.523   3.497
10792SOL     OW33274   3.987   1.078   2.128
10792SOL    HW133275   3.927   1.004   2.158
10792SOL    HW233276   4.061   1.039   2.073
10793SOL     OW33277   4.101   2.162   4.678
10793SOL    HW133278   4.173   2.094   4.693
10793SOL    HW233279   4.019   2.116   4.644
10794SOL     OW33280   4.811   2.798   6.343
10794SOL    HW133281   4.833   2.870   6.277
10794SOL    HW233282   4.838   2.709   6.305
10795SOL     OW33283   6.340   3.120   3.670
10795SOL    HW133284   6.290   3.035   3.683
10795SOL    HW233285   6.282   3.185   3.620
10796SOL     OW33286   0.823   1.717   6.609
10796SOL    HW133287   0.766   1.637   6.631
10796SOL    HW233288   0.806   1.789   6.676
10797SOL     OW33289   5.240   4.908   6.434
10797SOL    HW133290   5.234   4.810   6.448
10797SOL    HW233291   5.334   4.938   6.444
10798SOL     OW33292   2.060   5.680   0.822
10798SOL    HW133293   2.129   5.747   0.849
10798SOL    HW233294   2.098   5.620   0.752
10799SOL     OW33295   1.803   0.522   3.075
10799SOL    HW133296   1.822   0.619   3.090
10799SOL    HW233297   1.886   0.469   3.093
10800SOL     OW33298   2.209   0.638   4.649
10800SOL    HW133299   2.232   0.694   4.729
10800SOL    HW233300   2.124   0.671   4.608
10801SOL     OW33301   2.830   6.417   6.493
10801SOL    HW133302   2.741   6.379   6.518
10801SOL    HW233303   2.898   6.344   6.487
10802SOL     OW33304   0.773   4.799   4.029
10802SOL    HW133305   0.803   4.774   4.121
10802SOL    HW233306   0.840   4.861   3.988
10803SOL     OW33307   6.929   4.459   4.444
10803SOL    HW133308   6.909   4.546   4.490
10803SOL    HW233309   6.970   4.477   4.354
10804SOL     OW33310   4.356   4.865   0.299
10804SOL    HW133311   4.363   4.765   0.301
10804SOL    HW233312   4.355   4.900   0.393
10805SOL     OW33313   4.699   6.196   0.524
10805SOL    HW133314   4.716   6.255   0.445
10805SOL    HW233315   4.624   6.133   0.503
10806SOL     OW33316   5.037   2.982   5.481
10806SOL    HW133317   4.964   2.934   5.530
10806SOL    HW233318   5.000   3.066   5.440
10807SOL     OW33319   4.581   2.911   5.278
10807SOL    HW133320   4.670   2.895   5.235
10807SOL    HW233321   4.573   3.007   5.304
10808SOL     OW33322   0.744   2.710   0.360
10808SOL    HW133323   0.797   2.741   0.281
10808SOL    HW233324   0.653   2.750   0.357
10809SOL     OW33325   0.939   0.667   2.658
10809SOL    HW133326   0.892   0.665   2.569
10809SOL    HW233327   0.964   0.761   2.680
10810SOL     OW33328   1.670   1.353   6.008
10810SOL    HW133329   1.721   1.328   6.090
10810SOL    HW233330   1.592   1.292   5.997
10811SOL     OW33331   4.054   6.510   6.424
10811SOL    HW133332   3.978   6.474   6.370
10811SOL    HW233333   4.085   6.441   6.490
10812SOL     OW33334   6.531   3.264   3.277
10812SOL    HW133335   6.582   3.284   3.361
10812SOL    HW233336   6.451   3.209   3.299
10813SOL     OW33337   3.000   5.924   2.257
10813SOL    HW133338   3.096   5.899   2.243
10813SOL    HW233339   2.947   5.842   2.279
10814SOL     OW33340   2.498   6.302   4.441
10814SOL    HW133341   2.508   6.274   4.345
10814SOL    HW233342   2.472   6.222   4.496
10815SOL     OW33343   5.541   2.111   5.438
10815SOL    HW133344   5.587   2.140   5.354
10815SOL    HW233345   5.444   2.134   5.434
10816SOL     OW33346   2.196   2.205   1.216
10816SOL    HW133347   2.120   2.139   1.218
10816SOL    HW233348   2.279   2.161   1.249
10817SOL     OW33349   3.649   1.733   2.050
10817SOL    HW133350   3.574   1.767   1.994
10817SOL    HW233351   3.666   1.797   2.125
10818SOL     OW33352   4.706   3.411   6.051
10818SOL    HW133353   4.639   3.343   6.023
10818SOL    HW233354   4.798   3.382   6.023
10819SOL     OW33355   2.098   3.890   5.144
10819SOL    HW133356   2.185   3.929   5.114
10819SOL    HW233357   2.105   3.867   5.242
10820SOL     OW33358   0.795   6.114   5.821
10820SOL    HW133359   0.866   6.184   5.817
10820SOL    HW233360   0.771   6.085   5.729
10821SOL     OW33361   0.168   0.578   6.704
10821SOL    HW133362   0.107   0.517   6.755
10821SOL    HW233363   0.148   0.672   6.729
10822SOL     OW33364   0.694   4.652   6.252
10822SOL    HW133365   0.783   4.625   6.288
10822SOL    HW233366   0.668   4.591   6.178
10823SOL     OW33367   1.916   2.166   0.854
10823SOL    HW133368   1.893   2.165   0.952
10823SOL    HW233369   1.832   2.177   0.800
10824SOL     OW33370   5.621   1.353   4.957
10824SOL    HW133371   5.691   1.410   5.000
10824SOL    HW233372   5.626   1.363   4.858
10825SOL     OW33373   3.283   1.136   2.051
10825SOL    HW133374   3.258   1.196   2.127
10825SOL    HW233375   3.357   1.178   1.998
10826SOL     OW33376   6.647   3.281   1.095
10826SOL    HW133377   6.594   3.305   1.177
10826SOL    HW233378   6.587   3.241   1.026
10827SOL     OW33379   0.615   2.514   4.366
10827SOL    HW133380   0.527   2.532   4.322
10827SOL    HW233381   0.600   2.466   4.453
10828SOL     OW33382   2.522   4.868   0.113
10828SOL    HW133383   2.573   4.856   0.198
10828SOL    HW233384   2.456   4.793   0.103
10829SOL     OW33385   2.360   3.882   1.742
10829SOL    HW133386   2.364   3.982   1.736
10829SOL    HW233387   2.434   3.842   1.687
10830SOL     OW33388   6.559   0.875   3.436
10830SOL    HW133389   6.579   0.950   3.374
10830SOL    HW233390   6.621   0.799   3.418
10831SOL     OW33391   5.119   2.492   1.998
10831SOL    HW133392   5.101   2.515   2.094
10831SOL    HW233393   5.136   2.576   1.946
10832SOL     OW33394   1.257   2.892   2.292
10832SOL    HW133395   1.319   2.818   2.266
10832SOL    HW233396   1.171   2.853   2.324
10833SOL     OW33397   3.559   6.768   4.640
10833SOL    HW133398   3.568   6.865   4.664
10833SOL    HW233399   3.543   6.715   4.724
10834SOL     OW33400   0.190   1.641   5.758
10834SOL    HW133401   0.153   1.671   5.846
10834SOL    HW233402   0.116   1.636   5.691
10835SOL     OW33403   0.722   2.001   0.484
10835SOL    HW133404   0.657   2.067   0.521
10835SOL    HW233405   0.737   1.927   0.550
10836SOL     OW33406   0.433   2.449   1.449
10836SOL    HW133407   0.425   2.459   1.350
10836SOL    HW233408   0.360   2.500   1.494
10837SOL     OW33409   1.235   5.455   0.636
10837SOL    HW133410   1.224   5.489   0.730
10837SOL    HW233411   1.148   5.417   0.605
10838SOL     OW33412   6.572   6.043   0.656
10838SOL    HW133413   6.653   6.082   0.612
10838SOL    HW233414   6.504   6.019   0.587
10839SOL     OW33415   2.398   1.898   6.833
10839SOL    HW133416   2.483   1.851   6.811
10839SOL    HW233417   2.375   1.963   6.760
10840SOL     OW33418   1.937   0.265   3.188
10840SOL    HW133419   1.884   0.281   3.271
10840SOL    HW233420   1.875   0.250   3.111
10841SOL     OW33421   4.512   4.266   0.436
10841SOL    HW133422   4.473   4.251   0.345
10841SOL    HW233423   4.453   4.327   0.488
10842SOL     OW33424   6.488   1.791   2.063
10842SOL    HW133425   6.548   1.870   2.050
10842SOL    HW233426   6.399   1.821   2.095
10843SOL     OW33427   0.918   2.404   1.365
10843SOL    HW133428   0.974   2.468   1.314
10843SOL    HW233429   0.838   2.451   1.402
10844SOL     OW33430   5.192   0.184   4.544
10844SOL    HW133431   5.274   0.140   4.509
10844SOL    HW233432   5.176   0.269   4.494
10845SOL     OW33433   2.098   3.674   1.455
10845SOL    HW133434   2.152   3.653   1.536
10845SOL    HW233435   2.141   3.750   1.405
10846SOL     OW33436   3.611   3.161   1.817
10846SOL    HW133437   3.679   3.212   1.870
10846SOL    HW233438   3.568   3.222   1.751
10847SOL     OW33439   5.012   2.012   5.312
10847SOL    HW133440   4.925   2.058   5.293
10847SOL    HW233441   5.041   2.033   5.405
10848SOL     OW33442   1.644   0.784   6.809
10848SOL    HW133443   1.588   0.793   6.726
10848SOL    HW233444   1.704   0.704   6.799
10849SOL     OW33445   0.913   4.575   4.533
10849SOL    HW133446   0.865   4.508   4.589
10849SOL    HW233447   1.010   4.552   4.529
10850SOL     OW33448   5.958   1.055   2.878
10850SOL    HW133449   5.943   1.011   2.966
10850SOL    HW233450   5.954   1.155   2.889
10851SOL     OW33451   4.860   2.923   6.770
10851SOL    HW133452   4.938   2.940   6.709
10851SOL    HW233453   4.776   2.915   6.715
10852SOL     OW33454   5.986   1.115   6.021
10852SOL    HW133455   6.045   1.063   5.960
10852SOL    HW233456   6.039   1.148   6.100
10853SOL     OW33457   2.856   0.510   5.377
10853SOL    HW133458   2.877   0.479   5.284
10853SOL    HW233459   2.757   0.516   5.389
10854SOL     OW33460   6.344   6.835   0.023
10854SOL    HW133461   6.285   6.879   6.974
10854SOL    HW233462   6.379   6.904   0.087
10855SOL     OW33463   0.813   5.854   0.842
10855SOL    HW133464   0.745   5.914   0.884
10855SOL    HW233465   0.840   5.892   0.754
10856SOL     OW33466   5.006   6.701   6.570
10856SOL    HW133467   5.034   6.745   6.655
10856SOL    HW233468   4.910   6.674   6.576
10857SOL     OW33469   6.559   6.764   4.728
10857SOL    HW133470   6.515   6.806   4.649
10857SOL    HW233471   6.602   6.678   4.701
10858SOL     OW33472   1.943   2.452   0.744
10858SOL    HW133473   1.915   2.384   0.811
10858SOL    HW233474   2.034   2.429   0.709
10859SOL     OW33475   2.562   5.654   2.024
10859SOL    HW133476   2.654   5.646   1.984
10859SOL    HW233477   2.551   5.745   2.063
10860SOL     OW33478   6.201   1.390   1.612
10860SOL    HW133479   6.241   1.426   1.696
10860SOL    HW233480   6.102   1.381   1.623
10861SOL     OW33481   1.582   4.579   1.074
10861SOL    HW133482   1.639   4.616   1.147
10861SOL    HW233483   1.560   4.483   1.095
10862SOL     OW33484   3.515   4.420   5.314
10862SOL    HW133485   3.441   4.487   5.318
10862SOL    HW233486   3.491   4.347   5.250
10863SOL     OW33487   1.283   6.857   3.359
10863SOL    HW133488   1.340   6.935   3.386
10863SOL    HW233489   1.187   6.885   3.357
10864SOL     OW33490   3.021   3.976   1.858
10864SOL    HW133491   3.035   4.004   1.953
10864SOL    HW233492   3.003   4.057   1.802
10865SOL     OW33493   2.835   1.564   2.734
10865SOL    HW133494   2.918   1.595   2.687
10865SOL    HW233495   2.846   1.469   2.761
10866SOL     OW33496   0.899   3.456   4.298
10866SOL    HW133497   0.953   3.506   4.230
10866SOL    HW233498   0.925   3.486   4.390
10867SOL     OW33499   4.790   2.878   0.472
10867SOL    HW133500   4.780   2.964   0.522
10867SOL    HW233501   4.701   2.850   0.437
10868SOL     OW33502   0.904   0.048   5.431
10868SOL    HW133503   0.920   0.052   5.333
10868SOL    HW233504   0.989   0.025   5.478
10869NA      NA33505   0.124   0.847   6.387
10870NA      NA33506   4.734   4.831   5.026
10871NA      NA33507   0.661   4.692   2.980
10872NA      NA33508   6.262   3.652   3.381
10873NA      NA33509   4.204   2.389   5.317
10874NA      NA33510   2.412   3.744   0.084
10875NA      NA33511   1.684   5.626   0.598
10876NA      NA33512   4.182   4.830   2.283
10877NA      NA33513   5.346   3.505   1.165
10878NA      NA33514   3.847   1.744   0.579
10879NA      NA33515   5.430   6.735   1.322
10880NA      NA33516   2.926   6.654   4.761
10881NA      NA33517   3.392   5.488   2.960
10882NA      NA33518   3.971   4.969   6.650
   7.01774   7.01774   7.01774
