Generated by trjconv : CNT in water t= 505.00000
33518
    1C        C    1   2.847   2.767   4.750
    1C        C    2   2.905   2.720   4.870
    1C        C    3   2.848   2.775   4.986
    1C        C    4   2.850   2.771   4.260
    1C        C    5   2.900   2.722   4.383
    1C        C    6   2.846   2.770   4.505
    1C        C    7   3.012   2.637   4.626
    1C        C    8   2.900   2.723   4.627
    1C        C    9   3.077   2.598   4.745
    1C        C   10   3.010   2.626   4.867
    1C        C   11   3.184   2.489   4.977
    1C        C   12   3.063   2.560   4.978
    1C        C   13   2.847   2.767   3.772
    1C        C   14   2.897   2.718   3.894
    1C        C   15   2.852   2.773   4.017
    1C        C   16   3.018   2.641   4.136
    1C        C   17   2.905   2.726   4.138
    1C        C   18   3.077   2.606   4.260
    1C        C   19   3.019   2.645   4.382
    1C        C   20   3.208   2.553   4.503
    1C        C   21   3.076   2.606   4.505
    1C        C   22   3.278   2.529   4.623
    1C        C   23   3.208   2.542   4.745
    1C        C   24   3.414   2.487   4.865
    1C        C   25   3.272   2.498   4.864
    1C        C   26   3.492   2.484   4.982
    1C        C   27   2.846   2.760   3.282
    1C        C   28   2.902   2.717   3.404
    1C        C   29   2.853   2.769   3.526
    1C        C   30   3.013   2.634   3.650
    1C        C   31   2.901   2.720   3.650
    1C        C   32   3.073   2.595   3.772
    1C        C   33   3.011   2.634   3.892
    1C        C   34   3.205   2.546   4.016
    1C        C   35   3.075   2.600   4.013
    1C        C   36   3.277   2.532   4.137
    1C        C   37   3.207   2.549   4.258
    1C        C   38   3.415   2.509   4.378
    1C        C   39   3.276   2.534   4.380
    1C        C   40   3.487   2.509   4.499
    1C        C   41   3.417   2.504   4.621
    1C        C   42   3.628   2.485   4.746
    1C        C   43   3.486   2.485   4.743
    1C        C   44   3.706   2.488   4.863
    1C        C   45   3.631   2.479   4.981
    1C        C   46   2.831   2.746   2.795
    1C        C   47   2.886   2.702   2.918
    1C        C   48   2.837   2.754   3.040
    1C        C   49   3.014   2.632   3.161
    1C        C   50   2.894   2.708   3.160
    1C        C   51   3.075   2.595   3.283
    1C        C   52   3.013   2.630   3.405
    1C        C   53   3.204   2.541   3.527
    1C        C   54   3.074   2.596   3.528
    1C        C   55   3.272   2.522   3.650
    1C        C   56   3.203   2.539   3.772
    1C        C   57   3.412   2.504   3.893
    1C        C   58   3.272   2.522   3.894
    1C        C   59   3.485   2.502   4.014
    1C        C   60   3.416   2.503   4.137
    1C        C   61   3.630   2.506   4.256
    1C        C   62   3.488   2.500   4.258
    1C        C   63   3.698   2.516   4.379
    1C        C   64   3.629   2.513   4.503
    1C        C   65   3.834   2.546   4.620
    1C        C   66   3.698   2.507   4.625
    1C        C   67   3.905   2.564   4.741
    1C        C   68   3.843   2.526   4.862
    1C        C   69   4.053   2.583   4.975
    1C        C   70   3.923   2.530   4.977
    1C        C   71   2.822   2.731   2.308
    1C        C   72   2.882   2.690   2.429
    1C        C   73   2.830   2.741   2.550
    1C        C   74   3.006   2.625   2.674
    1C        C   75   2.886   2.701   2.674
    1C        C   76   3.068   2.589   2.795
    1C        C   77   3.006   2.627   2.916
    1C        C   78   3.201   2.539   3.038
    1C        C   79   3.074   2.600   3.037
    1C        C   80   3.270   2.520   3.160
    1C        C   81   3.204   2.539   3.283
    1C        C   82   3.412   2.499   3.403
    1C        C   83   3.272   2.519   3.405
    1C        C   84   3.480   2.496   3.527
    1C        C   85   3.412   2.505   3.650
    1C        C   86   3.625   2.502   3.771
    1C        C   87   3.484   2.500   3.772
    1C        C   88   3.697   2.511   3.892
    1C        C   89   3.626   2.507   4.015
    1C        C   90   3.838   2.545   4.135
    1C        C   91   3.701   2.510   4.135
    1C        C   92   3.905   2.571   4.257
    1C        C   93   3.835   2.549   4.378
    1C        C   94   4.029   2.635   4.499
    1C        C   95   3.903   2.571   4.500
    1C        C   96   4.093   2.672   4.619
    1C        C   97   4.032   2.628   4.739
    1C        C   98   4.192   2.764   4.860
    1C        C   99   4.101   2.654   4.860
    1C        C  100   4.216   2.845   4.972
    1C        C  101   2.812   2.720   2.070
    1C        C  102   2.988   2.591   2.192
    1C        C  103   2.873   2.676   2.188
    1C        C  104   3.058   2.566   2.313
    1C        C  105   2.994   2.605   2.433
    1C        C  106   3.197   2.530   2.552
    1C        C  107   3.069   2.591   2.552
    1C        C  108   3.267   2.515   2.674
    1C        C  109   3.199   2.536   2.796
    1C        C  110   3.408   2.491   2.915
    1C        C  111   3.269   2.514   2.916
    1C        C  112   3.479   2.492   3.037
    1C        C  113   3.411   2.502   3.160
    1C        C  114   3.625   2.504   3.279
    1C        C  115   3.484   2.497   3.281
    1C        C  116   3.691   2.517   3.404
    1C        C  117   3.621   2.507   3.526
    1C        C  118   3.830   2.553   3.646
    1C        C  119   3.693   2.517   3.647
    1C        C  120   3.897   2.575   3.769
    1C        C  121   3.832   2.550   3.892
    1C        C  122   4.025   2.644   4.012
    1C        C  123   3.901   2.575   4.012
    1C        C  124   4.089   2.678   4.133
    1C        C  125   4.028   2.641   4.255
    1C        C  126   4.197   2.767   4.375
    1C        C  127   4.087   2.679   4.377
    1C        C  128   4.250   2.816   4.497
    1C        C  129   4.198   2.767   4.618
    1C        C  130   4.331   2.931   4.740
    1C        C  131   4.249   2.815   4.741
    1C        C  132   4.358   3.002   4.858
    1C        C  133   4.283   2.967   4.972
    1C        C  134   3.172   2.470   2.083
    1C        C  135   3.038   2.511   2.084
    1C        C  136   3.258   2.478   2.193
    1C        C  137   3.191   2.518   2.312
    1C        C  138   3.403   2.477   2.428
    1C        C  139   3.264   2.499   2.432
    1C        C  140   3.477   2.478   2.549
    1C        C  141   3.406   2.493   2.670
    1C        C  142   3.618   2.499   2.791
    1C        C  143   3.477   2.487   2.792
    1C        C  144   3.690   2.507   2.912
    1C        C  145   3.620   2.499   3.035
    1C        C  146   3.830   2.543   3.155
    1C        C  147   3.693   2.508   3.156
    1C        C  148   3.896   2.567   3.278
    1C        C  149   3.828   2.550   3.400
    1C        C  150   4.021   2.639   3.521
    1C        C  151   3.894   2.576   3.523
    1C        C  152   4.085   2.667   3.644
    1C        C  153   4.026   2.634   3.767
    1C        C  154   4.196   2.764   3.886
    1C        C  155   4.083   2.679   3.888
    1C        C  156   4.249   2.813   4.008
    1C        C  157   4.202   2.763   4.132
    1C        C  158   4.344   2.921   4.252
    1C        C  159   4.252   2.814   4.254
    1C        C  160   4.379   2.983   4.374
    1C        C  161   4.336   2.929   4.497
    1C        C  162   4.436   3.117   4.615
    1C        C  163   4.375   2.989   4.619
    1C        C  164   4.466   3.183   4.736
    1C        C  165   4.433   3.122   4.859
    1C        C  166   4.519   3.319   4.974
    1C        C  167   4.478   3.186   4.975
    1C        C  168   3.475   2.436   2.073
    1C        C  169   3.397   2.458   2.188
    1C        C  170   3.616   2.476   2.305
    1C        C  171   3.474   2.470   2.306
    1C        C  172   3.689   2.494   2.425
    1C        C  173   3.618   2.490   2.547
    1C        C  174   3.824   2.544   2.666
    1C        C  175   3.688   2.507   2.669
    1C        C  176   3.891   2.567   2.788
    1C        C  177   3.828   2.541   2.911
    1C        C  178   4.022   2.631   3.031
    1C        C  179   3.896   2.567   3.032
    1C        C  180   4.082   2.668   3.153
    1C        C  181   4.023   2.629   3.275
    1C        C  182   4.200   2.746   3.397
    1C        C  183   4.083   2.666   3.398
    1C        C  184   4.247   2.801   3.518
    1C        C  185   4.197   2.754   3.642
    1C        C  186   4.342   2.912   3.763
    1C        C  187   4.253   2.802   3.762
    1C        C  188   4.379   2.976   3.883
    1C        C  189   4.340   2.920   4.007
    1C        C  190   4.443   3.105   4.129
    1C        C  191   4.382   2.978   4.129
    1C        C  192   4.470   3.172   4.250
    1C        C  193   4.445   3.108   4.373
    1C        C  194   4.512   3.314   4.490
    1C        C  195   4.468   3.180   4.493
    1C        C  196   4.522   3.387   4.611
    1C        C  197   4.511   3.318   4.733
    1C        C  198   4.559   3.530   4.847
    1C        C  199   4.538   3.388   4.854
    1C        C  200   4.582   3.616   4.959
    1C        C  201   3.614   2.417   2.073
    1C        C  202   3.823   2.519   2.182
    1C        C  203   3.688   2.471   2.183
    1C        C  204   3.895   2.546   2.301
    1C        C  205   3.828   2.521   2.423
    1C        C  206   4.020   2.616   2.540
    1C        C  207   3.893   2.555   2.544
    1C        C  208   4.082   2.655   2.661
    1C        C  209   4.019   2.628   2.784
    1C        C  210   4.193   2.749   2.909
    1C        C  211   4.079   2.667   2.906
    1C        C  212   4.247   2.798   3.030
    1C        C  213   4.198   2.748   3.153
    1C        C  214   4.338   2.907   3.274
    1C        C  215   4.251   2.795   3.275
    1C        C  216   4.372   2.970   3.396
    1C        C  217   4.337   2.910   3.519
    1C        C  218   4.433   3.100   3.639
    1C        C  219   4.380   2.970   3.640
    1C        C  220   4.459   3.169   3.760
    1C        C  221   4.440   3.104   3.884
    1C        C  222   4.502   3.307   4.004
    1C        C  223   4.468   3.169   4.005
    1C        C  224   4.509   3.379   4.125
    1C        C  225   4.499   3.310   4.248
    1C        C  226   4.519   3.524   4.366
    1C        C  227   4.522   3.383   4.367
    1C        C  228   4.510   3.597   4.487
    1C        C  229   4.520   3.528   4.610
    1C        C  230   4.509   3.744   4.725
    1C        C  231   4.536   3.604   4.728
    1C        C  232   4.498   3.819   4.844
    1C        C  233   4.546   3.752   4.957
    1C        C  234   4.019   2.612   2.060
    1C        C  235   3.896   2.548   2.065
    1C        C  236   4.085   2.650   2.178
    1C        C  237   4.023   2.608   2.298
    1C        C  238   4.199   2.733   2.419
    1C        C  239   4.083   2.651   2.418
    1C        C  240   4.250   2.785   2.541
    1C        C  241   4.192   2.744   2.663
    1C        C  242   4.338   2.899   2.785
    1C        C  243   4.242   2.796   2.784
    1C        C  244   4.379   2.961   2.906
    1C        C  245   4.336   2.908   3.029
    1C        C  246   4.437   3.093   3.150
    1C        C  247   4.380   2.963   3.151
    1C        C  248   4.455   3.161   3.272
    1C        C  249   4.431   3.098   3.396
    1C        C  250   4.495   3.303   3.515
    1C        C  251   4.457   3.167   3.517
    1C        C  252   4.509   3.373   3.637
    1C        C  253   4.500   3.304   3.760
    1C        C  254   4.515   3.517   3.878
    1C        C  255   4.511   3.376   3.881
    1C        C  256   4.511   3.588   4.000
    1C        C  257   4.514   3.520   4.123
    1C        C  258   4.486   3.733   4.242
    1C        C  259   4.513   3.594   4.244
    1C        C  260   4.469   3.804   4.363
    1C        C  261   4.489   3.737   4.485
    1C        C  262   4.423   3.941   4.602
    1C        C  263   4.472   3.809   4.605
    1C        C  264   4.401   4.012   4.722
    1C        C  265   4.435   3.946   4.842
    1C        C  266   4.319   4.129   4.959
    1C        C  267   4.387   4.008   4.958
    1C        C  268   4.266   2.775   2.062
    1C        C  269   4.203   2.727   2.177
    1C        C  270   4.344   2.888   2.300
    1C        C  271   4.256   2.777   2.298
    1C        C  272   4.383   2.952   2.420
    1C        C  273   4.340   2.893   2.542
    1C        C  274   4.448   3.079   2.661
    1C        C  275   4.382   2.954   2.663
    1C        C  276   4.471   3.150   2.781
    1C        C  277   4.445   3.086   2.904
    1C        C  278   4.503   3.290   3.024
    1C        C  279   4.469   3.153   3.026
    1C        C  280   4.505   3.363   3.144
    1C        C  281   4.491   3.298   3.269
    1C        C  282   4.511   3.510   3.390
    1C        C  283   4.507   3.369   3.390
    1C        C  284   4.511   3.582   3.511
    1C        C  285   4.515   3.514   3.635
    1C        C  286   4.488   3.726   3.753
    1C        C  287   4.517   3.588   3.755
    1C        C  288   4.468   3.795   3.875
    1C        C  289   4.484   3.727   3.998
    1C        C  290   4.425   3.933   4.116
    1C        C  291   4.475   3.801   4.118
    1C        C  292   4.396   4.002   4.236
    1C        C  293   4.421   3.937   4.359
    1C        C  294   4.326   4.129   4.479
    1C        C  295   4.395   4.005   4.480
    1C        C  296   4.290   4.193   4.599
    1C        C  297   4.329   4.135   4.722
    1C        C  298   4.198   4.311   4.840
    1C        C  299   4.283   4.196   4.841
    1C        C  300   4.161   4.397   4.948
    1C        C  301   4.358   2.879   2.063
    1C        C  302   4.473   3.066   2.180
    1C        C  303   4.395   2.946   2.180
    1C        C  304   4.480   3.141   2.300
    1C        C  305   4.445   3.079   2.421
    1C        C  306   4.512   3.284   2.537
    1C        C  307   4.478   3.146   2.541
    1C        C  308   4.521   3.357   2.657
    1C        C  309   4.504   3.287   2.779
    1C        C  310   4.522   3.498   2.899
    1C        C  311   4.521   3.357   2.901
    1C        C  312   4.515   3.572   3.020
    1C        C  313   4.511   3.505   3.143
    1C        C  314   4.489   3.717   3.263
    1C        C  315   4.508   3.577   3.265
    1C        C  316   4.470   3.787   3.384
    1C        C  317   4.488   3.721   3.508
    1C        C  318   4.420   3.924   3.625
    1C        C  319   4.468   3.791   3.629
    1C        C  320   4.392   3.989   3.748
    1C        C  321   4.421   3.928   3.872
    1C        C  322   4.316   4.113   3.993
    1C        C  323   4.394   3.995   3.993
    1C        C  324   4.276   4.174   4.114
    1C        C  325   4.325   4.124   4.237
    1C        C  326   4.188   4.288   4.353
    1C        C  327   4.287   4.188   4.357
    1C        C  328   4.136   4.340   4.474
    1C        C  329   4.192   4.296   4.596
    1C        C  330   4.028   4.437   4.714
    1C        C  331   4.140   4.348   4.716
    1C        C  332   3.970   4.495   4.828
    1C        C  333   4.050   4.482   4.943
    1C        C  334   4.552   3.266   2.064
    1C        C  335   4.534   3.127   2.065
    1C        C  336   4.532   3.350   2.175
    1C        C  337   4.515   3.279   2.296
    1C        C  338   4.527   3.495   2.411
    1C        C  339   4.528   3.354   2.415
    1C        C  340   4.524   3.569   2.531
    1C        C  341   4.524   3.498   2.654
    1C        C  342   4.493   3.707   2.774
    1C        C  343   4.517   3.568   2.776
    1C        C  344   4.471   3.778   2.895
    1C        C  345   4.490   3.711   3.018
    1C        C  346   4.422   3.914   3.138
    1C        C  347   4.471   3.782   3.139
    1C        C  348   4.394   3.983   3.259
    1C        C  349   4.426   3.921   3.382
    1C        C  350   4.318   4.107   3.502
    1C        C  351   4.393   3.988   3.502
    1C        C  352   4.281   4.169   3.624
    1C        C  353   4.323   4.112   3.746
    1C        C  354   4.182   4.271   3.866
    1C        C  355   4.279   4.168   3.868
    1C        C  356   4.127   4.320   3.986
    1C        C  357   4.178   4.275   4.110
    1C        C  358   4.014   4.411   4.229
    1C        C  359   4.127   4.327   4.231
    1C        C  360   3.952   4.448   4.351
    1C        C  361   4.016   4.414   4.472
    1C        C  362   3.830   4.517   4.593
    1C        C  363   3.960   4.462   4.593
    1C        C  364   3.764   4.554   4.712
    1C        C  365   3.840   4.550   4.831
    1C        C  366   3.625   4.590   4.946
    1C        C  367   3.763   4.575   4.946
    1C        C  368   4.512   3.566   2.052
    1C        C  369   4.525   3.491   2.169
    1C        C  370   4.505   3.706   2.289
    1C        C  371   4.518   3.565   2.289
    1C        C  372   4.486   3.778   2.409
    1C        C  373   4.504   3.709   2.531
    1C        C  374   4.424   3.907   2.650
    1C        C  375   4.478   3.776   2.652
    1C        C  376   4.391   3.972   2.771
    1C        C  377   4.422   3.910   2.894
    1C        C  378   4.317   4.096   3.012
    1C        C  379   4.393   3.977   3.015
    1C        C  380   4.272   4.154   3.133
    1C        C  381   4.318   4.101   3.256
    1C        C  382   4.179   4.261   3.378
    1C        C  383   4.276   4.159   3.378
    1C        C  384   4.122   4.307   3.499
    1C        C  385   4.177   4.265   3.622
    1C        C  386   4.009   4.394   3.742
    1C        C  387   4.123   4.311   3.744
    1C        C  388   3.947   4.432   3.864
    1C        C  389   4.011   4.401   3.986
    1C        C  390   3.817   4.489   4.110
    1C        C  391   3.951   4.442   4.107
    1C        C  392   3.749   4.514   4.231
    1C        C  393   3.821   4.500   4.352
    1C        C  394   3.615   4.547   4.473
    1C        C  395   3.755   4.530   4.474
    1C        C  396   3.545   4.564   4.595
    1C        C  397   3.623   4.571   4.712
    1C        C  398   3.408   4.548   4.835
    1C        C  399   3.547   4.570   4.831
    1C        C  400   3.341   4.517   4.955
    1C        C  401   4.508   3.705   2.052
    1C        C  402   4.461   3.915   2.167
    1C        C  403   4.503   3.781   2.169
    1C        C  404   4.418   3.979   2.285
    1C        C  405   4.440   3.912   2.407
    1C        C  406   4.326   4.093   2.525
    1C        C  407   4.402   3.975   2.528
    1C        C  408   4.281   4.152   2.646
    1C        C  409   4.319   4.094   2.768
    1C        C  410   4.177   4.254   2.890
    1C        C  411   4.276   4.153   2.889
    1C        C  412   4.123   4.303   3.011
    1C        C  413   4.175   4.256   3.134
    1C        C  414   4.004   4.381   3.254
    1C        C  415   4.123   4.305   3.255
    1C        C  416   3.941   4.417   3.375
    1C        C  417   4.003   4.384   3.497
    1C        C  418   3.814   4.477   3.619
    1C        C  419   3.944   4.422   3.620
    1C        C  420   3.746   4.502   3.740
    1C        C  421   3.815   4.482   3.862
    1C        C  422   3.614   4.532   3.986
    1C        C  423   3.753   4.507   3.986
    1C        C  424   3.541   4.535   4.107
    1C        C  425   3.610   4.537   4.231
    1C        C  426   3.400   4.546   4.355
    1C        C  427   3.541   4.549   4.353
    1C        C  428   3.330   4.541   4.478
    1C        C  429   3.404   4.555   4.597
    1C        C  430   3.192   4.517   4.721
    1C        C  431   3.331   4.544   4.717
    1C        C  432   3.125   4.493   4.844
    1C        C  433   3.204   4.495   4.960
    1C        C  434   4.386   4.123   2.053
    1C        C  435   4.451   3.999   2.055
    1C        C  436   4.305   4.164   2.163
    1C        C  437   4.338   4.097   2.284
    1C        C  438   4.182   4.248   2.401
    1C        C  439   4.283   4.150   2.403
    1C        C  440   4.125   4.292   2.523
    1C        C  441   4.179   4.249   2.646
    1C        C  442   4.008   4.379   2.764
    1C        C  443   4.124   4.298   2.767
    1C        C  444   3.943   4.411   2.885
    1C        C  445   4.004   4.379   3.008
    1C        C  446   3.813   4.468   3.129
    1C        C  447   3.944   4.416   3.130
    1C        C  448   3.744   4.488   3.251
    1C        C  449   3.811   4.472   3.374
    1C        C  450   3.606   4.521   3.497
    1C        C  451   3.745   4.497   3.497
    1C        C  452   3.537   4.534   3.620
    1C        C  453   3.608   4.529   3.742
    1C        C  454   3.399   4.538   3.863
    1C        C  455   3.540   4.541   3.866
    1C        C  456   3.329   4.533   3.986
    1C        C  457   3.400   4.538   4.108
    1C        C  458   3.194   4.506   4.235
    1C        C  459   3.332   4.536   4.232
    1C        C  460   3.126   4.486   4.357
    1C        C  461   3.192   4.511   4.480
    1C        C  462   2.991   4.437   4.602
    1C        C  463   3.121   4.493   4.601
    1C        C  464   2.929   4.401   4.724
    1C        C  465   2.992   4.441   4.845
    1C        C  466   2.804   4.336   4.959
    1C        C  467   2.907   4.431   4.959
    1C        C  468   4.127   4.283   2.040
    1C        C  469   4.187   4.246   2.161
    1C        C  470   4.006   4.372   2.277
    1C        C  471   4.124   4.291   2.280
    1C        C  472   3.943   4.403   2.399
    1C        C  473   4.004   4.366   2.521
    1C        C  474   3.809   4.454   2.640
    1C        C  475   3.942   4.404   2.641
    1C        C  476   3.744   4.479   2.763
    1C        C  477   3.810   4.457   2.886
    1C        C  478   3.604   4.511   3.009
    1C        C  479   3.743   4.486   3.008
    1C        C  480   3.534   4.525   3.131
    1C        C  481   3.607   4.523   3.252
    1C        C  482   3.396   4.528   3.376
    1C        C  483   3.537   4.530   3.374
    1C        C  484   3.324   4.527   3.497
    1C        C  485   3.395   4.537   3.619
    1C        C  486   3.189   4.497   3.745
    1C        C  487   3.327   4.528   3.742
    1C        C  488   3.124   4.475   3.869
    1C        C  489   3.193   4.497   3.991
    1C        C  490   3.000   4.417   4.116
    1C        C  491   3.125   4.482   4.114
    1C        C  492   2.938   4.384   4.239
    1C        C  493   2.998   4.427   4.360
    1C        C  494   2.823   4.306   4.481
    1C        C  495   2.935   4.392   4.481
    1C        C  496   2.772   4.255   4.603
    1C        C  497   2.818   4.312   4.723
    1C        C  498   2.664   4.166   4.845
    1C        C  499   2.753   4.276   4.843
    1C        C  500   2.596   4.118   4.957
    1C        C  501   4.006   4.351   2.041
    1C        C  502   3.810   4.455   2.152
    1C        C  503   3.939   4.397   2.155
    1C        C  504   3.742   4.475   2.274
    1C        C  505   3.808   4.445   2.395
    1C        C  506   3.604   4.505   2.521
    1C        C  507   3.741   4.468   2.517
    1C        C  508   3.535   4.521   2.643
    1C        C  509   3.606   4.509   2.764
    1C        C  510   3.393   4.522   2.885
    1C        C  511   3.535   4.518   2.886
    1C        C  512   3.322   4.517   3.007
    1C        C  513   3.393   4.521   3.129
    1C        C  514   3.187   4.490   3.254
    1C        C  515   3.326   4.515   3.253
    1C        C  516   3.121   4.467   3.377
    1C        C  517   3.187   4.491   3.499
    1C        C  518   2.995   4.412   3.625
    1C        C  519   3.122   4.474   3.623
    1C        C  520   2.937   4.376   3.749
    1C        C  521   2.998   4.412   3.871
    1C        C  522   2.829   4.290   3.995
    1C        C  523   2.941   4.375   3.995
    1C        C  524   2.785   4.238   4.119
    1C        C  525   2.829   4.294   4.241
    1C        C  526   2.689   4.136   4.364
    1C        C  527   2.772   4.250   4.362
    1C        C  528   2.650   4.076   4.486
    1C        C  529   2.689   4.140   4.605
    1C        C  530   2.584   3.960   4.732
    1C        C  531   2.638   4.092   4.728
    1C        C  532   2.545   3.902   4.856
    1C        C  533   2.532   3.993   4.965
    1C        C  534   3.615   4.554   2.036
    1C        C  535   3.746   4.505   2.038
    1C        C  536   3.535   4.529   2.153
    1C        C  537   3.604   4.508   2.275
    1C        C  538   3.393   4.514   2.398
    1C        C  539   3.535   4.513   2.398
    1C        C  540   3.323   4.508   2.521
    1C        C  541   3.394   4.522   2.642
    1C        C  542   3.186   4.478   2.764
    1C        C  543   3.322   4.514   2.763
    1C        C  544   3.120   4.458   2.888
    1C        C  545   3.185   4.483   3.011
    1C        C  546   2.990   4.404   3.132
    1C        C  547   3.117   4.466   3.133
    1C        C  548   2.936   4.368   3.258
    1C        C  549   2.992   4.409   3.380
    1C        C  550   2.825   4.283   3.506
    1C        C  551   2.933   4.375   3.504
    1C        C  552   2.774   4.236   3.629
    1C        C  553   2.829   4.284   3.749
    1C        C  554   2.699   4.122   3.876
    1C        C  555   2.781   4.237   3.873
    1C        C  556   2.662   4.064   3.999
    1C        C  557   2.697   4.127   4.121
    1C        C  558   2.594   3.943   4.245
    1C        C  559   2.653   4.072   4.243
    1C        C  560   2.569   3.879   4.368
    1C        C  561   2.588   3.949   4.489
    1C        C  562   2.527   3.750   4.614
    1C        C  563   2.561   3.887   4.613
    1C        C  564   2.519   3.682   4.738
    1C        C  565   2.524   3.760   4.856
    1C        C  566   2.534   3.548   4.975
    1C        C  567   2.511   3.685   4.974
    1C        C  568   3.324   4.476   2.041
    1C        C  569   3.394   4.516   2.156
    1C        C  570   3.183   4.474   2.280
    1C        C  571   3.321   4.508   2.277
    1C        C  572   3.116   4.454   2.403
    1C        C  573   3.185   4.478   2.523
    1C        C  574   2.984   4.402   2.646
    1C        C  575   3.114   4.457   2.644
    1C        C  576   2.926   4.364   2.769
    1C        C  577   2.991   4.401   2.889
    1C        C  578   2.822   4.274   3.017
    1C        C  579   2.928   4.367   3.011
    1C        C  580   2.773   4.225   3.140
    1C        C  581   2.826   4.279   3.259
    1C        C  582   2.695   4.116   3.385
    1C        C  583   2.780   4.229   3.383
    1C        C  584   2.654   4.061   3.509
    1C        C  585   2.691   4.122   3.631
    1C        C  586   2.593   3.937   3.755
    1C        C  587   2.657   4.062   3.755
    1C        C  588   2.571   3.871   3.878
    1C        C  589   2.601   3.936   4.000
    1C        C  590   2.537   3.737   4.126
    1C        C  591   2.575   3.873   4.124
    1C        C  592   2.520   3.671   4.250
    1C        C  593   2.530   3.744   4.371
    1C        C  594   2.512   3.535   4.498
    1C        C  595   2.516   3.676   4.495
    1C        C  596   2.521   3.464   4.620
    1C        C  597   2.519   3.540   4.739
    1C        C  598   2.535   3.328   4.864
    1C        C  599   2.533   3.469   4.860
    1C        C  600   2.533   3.248   4.979
    1C        C  601   3.191   4.440   2.040
    1C        C  602   2.982   4.392   2.160
    1C        C  603   3.115   4.444   2.158
    1C        C  604   2.924   4.356   2.285
    1C        C  605   2.987   4.396   2.404
    1C        C  606   2.818   4.270   2.527
    1C        C  607   2.921   4.366   2.525
    1C        C  608   2.769   4.222   2.651
    1C        C  609   2.819   4.273   2.773
    1C        C  610   2.677   4.117   2.895
    1C        C  611   2.767   4.226   2.896
    1C        C  612   2.644   4.057   3.019
    1C        C  613   2.688   4.112   3.141
    1C        C  614   2.594   3.926   3.264
    1C        C  615   2.656   4.053   3.265
    1C        C  616   2.570   3.865   3.389
    1C        C  617   2.593   3.934   3.510
    1C        C  618   2.532   3.732   3.636
    1C        C  619   2.569   3.869   3.633
    1C        C  620   2.520   3.665   3.760
    1C        C  621   2.532   3.736   3.881
    1C        C  622   2.511   3.526   4.010
    1C        C  623   2.521   3.667   4.004
    1C        C  624   2.518   3.456   4.132
    1C        C  625   2.519   3.530   4.252
    1C        C  626   2.544   3.324   4.381
    1C        C  627   2.520   3.463   4.376
    1C        C  628   2.565   3.255   4.503
    1C        C  629   2.545   3.325   4.624
    1C        C  630   2.597   3.118   4.743
    1C        C  631   2.556   3.254   4.745
    1C        C  632   2.619   3.049   4.865
    1C        C  633   2.562   3.111   4.982
    1C        C  634   2.785   4.306   2.051
    1C        C  635   2.891   4.398   2.050
    1C        C  636   2.751   4.229   2.162
    1C        C  637   2.809   4.272   2.284
    1C        C  638   2.674   4.111   2.408
    1C        C  639   2.764   4.219   2.407
    1C        C  640   2.638   4.050   2.531
    1C        C  641   2.684   4.109   2.650
    1C        C  642   2.583   3.925   2.777
    1C        C  643   2.643   4.053   2.773
    1C        C  644   2.562   3.858   2.899
    1C        C  645   2.588   3.928   3.019
    1C        C  646   2.525   3.726   3.148
    1C        C  647   2.563   3.862   3.142
    1C        C  648   2.514   3.657   3.270
    1C        C  649   2.534   3.728   3.391
    1C        C  650   2.513   3.520   3.519
    1C        C  651   2.521   3.661   3.515
    1C        C  652   2.516   3.451   3.642
    1C        C  653   2.517   3.524   3.764
    1C        C  654   2.542   3.317   3.890
    1C        C  655   2.515   3.456   3.888
    1C        C  656   2.561   3.249   4.013
    1C        C  657   2.543   3.317   4.136
    1C        C  658   2.617   3.123   4.258
    1C        C  659   2.561   3.253   4.260
    1C        C  660   2.643   3.057   4.380
    1C        C  661   2.609   3.121   4.502
    1C        C  662   2.709   2.933   4.628
    1C        C  663   2.634   3.053   4.623
    1C        C  664   2.751   2.872   4.748
    1C        C  665   2.700   2.931   4.867
    1C        C  666   2.752   2.876   4.984
    1C        C  667   2.681   4.022   2.052
    1C        C  668   2.685   4.104   2.166
    1C        C  669   2.592   3.912   2.290
    1C        C  670   2.645   4.044   2.287
    1C        C  671   2.562   3.849   2.412
    1C        C  672   2.582   3.920   2.533
    1C        C  673   2.517   3.721   2.659
    1C        C  674   2.557   3.856   2.656
    1C        C  675   2.512   3.650   2.781
    1C        C  676   2.530   3.720   2.903
    1C        C  677   2.505   3.513   3.029
    1C        C  678   2.514   3.654   3.027
    1C        C  679   2.511   3.443   3.152
    1C        C  680   2.508   3.516   3.273
    1C        C  681   2.538   3.309   3.400
    1C        C  682   2.516   3.449   3.397
    1C        C  683   2.558   3.245   3.524
    1C        C  684   2.537   3.312   3.647
    1C        C  685   2.607   3.113   3.771
    1C        C  686   2.558   3.245   3.770
    1C        C  687   2.637   3.050   3.893
    1C        C  688   2.608   3.116   4.015
    1C        C  689   2.716   2.934   4.140
    1C        C  690   2.640   3.053   4.137
    1C        C  691   2.758   2.879   4.263
    1C        C  692   2.719   2.938   4.385
    1C        C  693   2.754   2.876   4.507
    1C        C  694   2.624   3.894   2.053
    1C        C  695   2.528   3.705   2.175
    1C        C  696   2.574   3.838   2.171
    1C        C  697   2.507   3.638   2.298
    1C        C  698   2.527   3.712   2.416
    1C        C  699   2.497   3.506   2.544
    1C        C  700   2.507   3.647   2.540
    1C        C  701   2.505   3.433   2.665
    1C        C  702   2.503   3.509   2.785
    1C        C  703   2.532   3.301   2.910
    1C        C  704   2.508   3.440   2.908
    1C        C  705   2.555   3.236   3.033
    1C        C  706   2.537   3.305   3.155
    1C        C  707   2.609   3.107   3.281
    1C        C  708   2.556   3.238   3.279
    1C        C  709   2.640   3.046   3.404
    1C        C  710   2.609   3.113   3.525
    1C        C  711   2.710   2.929   3.649
    1C        C  712   2.638   3.050   3.648
    1C        C  713   2.753   2.873   3.771
    1C        C  714   2.715   2.932   3.894
    1C        C  715   2.759   2.880   4.017
    1C        C  716   2.454   3.499   2.066
    1C        C  717   2.485   3.635   2.061
    1C        C  718   2.469   3.422   2.185
    1C        C  719   2.489   3.497   2.304
    1C        C  720   2.517   3.289   2.425
    1C        C  721   2.491   3.427   2.427
    1C        C  722   2.544   3.221   2.546
    1C        C  723   2.535   3.295   2.666
    1C        C  724   2.597   3.096   2.790
    1C        C  725   2.553   3.230   2.790
    1C        C  726   2.625   3.035   2.914
    1C        C  727   2.603   3.103   3.036
    1C        C  728   2.706   2.919   3.160
    1C        C  729   2.634   3.041   3.159
    1C        C  730   2.754   2.868   3.282
    1C        C  731   2.718   2.928   3.405
    1C        C  732   2.756   2.871   3.528
    1C        C  733   2.492   3.200   2.068
    1C        C  734   2.486   3.279   2.184
    1C        C  735   2.585   3.086   2.302
    1C        C  736   2.523   3.215   2.305
    1C        C  737   2.618   3.022   2.423
    1C        C  738   2.595   3.089   2.545
    1C        C  739   2.695   2.906   2.670
    1C        C  740   2.623   3.027   2.669
    1C        C  741   2.737   2.852   2.794
    1C        C  742   2.698   2.914   2.915
    1C        C  743   2.745   2.861   3.037
    1C        C  744   2.548   3.073   2.072
    1C        C  745   2.683   2.894   2.184
    1C        C  746   2.611   3.015   2.183
    1C        C  747   2.727   2.837   2.306
    1C        C  748   2.688   2.899   2.427
    1C        C  749   2.738   2.848   2.549
    1C        C  750   2.731   2.834   2.067
    1C        C  751   3.670   2.311   1.986
    1C        O  752   3.737   2.208   2.016
    1C        O  753   3.649   2.321   1.848
    1C        C  754   4.635   3.061   1.980
    1C        O  755   4.684   3.106   1.872
    1C        O  756   4.711   2.950   2.018
    1C        C  757   4.456   4.221   1.967
    1C        O  758   4.524   4.318   2.008
    1C        O  759   4.436   4.218   1.828
    1C        C  760   3.575   4.644   1.925
    1C        O  761   3.625   4.758   1.913
    1C        O  762   3.569   4.583   1.799
    1C        C  763   2.874   4.520   1.968
    1C        O  764   2.901   4.525   1.845
    1C        O  765   2.790   4.624   2.009
    1C        C  766   2.368   3.459   1.952
    1C        O  767   2.424   3.434   1.842
    1C        O  768   2.230   3.432   1.957
    1C        C  769   4.693   3.578   5.048
    1C        O  770   4.675   3.546   5.169
    1C        O  771   4.822   3.629   5.031
    1C        C  772   4.266   4.436   5.045
    1C        O  773   4.280   4.382   5.158
    1C        O  774   4.357   4.541   5.028
    1C        C  775   4.146   2.506   5.061
    1C        O  776   4.168   2.385   5.033
    1C        O  777   4.148   2.519   5.200
    1C        C  778   2.885   4.548   5.046
    1C        O  779   2.821   4.649   5.007
    1C        O  780   2.906   4.530   5.183
    1C        C  781   2.488   3.037   5.086
    1C        O  782   2.405   2.949   5.052
    1C        O  783   2.522   3.055   5.220
    1C        C  784   2.423   3.979   5.064
    1C        O  785   2.331   4.066   5.063
    1C        O  786   2.462   3.937   5.192
    1C        C  787   2.948   2.435   1.993
    1C        O  788   2.936   2.467   1.872
    1C        O  789   2.878   2.320   2.026
    1C        C  790   3.183   2.363   5.054
    1C        O  791   3.134   2.256   5.009
    1C        O  792   3.201   2.359   5.193
    1C        H  793   4.234   3.047   5.023
    1C        H  794   4.208   2.801   5.069
    1C        H  795   4.470   3.136   5.069
    1C        H  796   4.493   3.378   5.059
    1C        H  797   4.586   3.814   5.034
    1C        H  798   4.417   3.974   5.055
    1C        H  799   4.263   4.146   5.048
    1C        H  800   4.044   4.558   5.019
    1C        H  801   3.801   4.553   5.043
    1C        H  802   3.582   4.645   5.027
    1C        H  803   3.390   4.536   5.048
    1C        H  804   3.161   4.467   5.054
    1C        H  805   3.898   2.461   5.055
    1C        H  806   3.675   2.421   5.059
    1C        H  807   3.010   2.573   5.071
    1C        H  808   3.447   2.446   5.071
    1C        H  809   2.875   2.734   5.081
    1C        H  810   2.752   2.939   5.071
    1C        H  811   2.501   3.293   5.071
    1C        H  812   2.542   3.505   5.073
    1C        H  813   2.443   3.720   5.049
    1C        H  814   2.562   4.196   5.022
    1C        H  815   2.749   4.321   5.050
    1C        H  816   2.716   2.874   1.969
    1C        H  817   2.773   2.641   2.009
    1C        H  818   3.220   2.466   1.988
    1C        H  819   3.426   2.436   1.978
    1C        H  820   3.861   2.511   1.971
    1C        H  821   4.081   2.580   1.979
    1C        H  822   4.243   2.729   1.968
    1C        H  823   4.418   2.901   1.977
    1C        H  824   4.587   3.312   1.974
    1C        H  825   4.460   3.523   1.968
    1C        H  826   4.472   3.747   1.960
    1C        H  827   3.773   4.461   1.944
    1C        H  828   3.959   4.364   1.946
    1C        H  829   4.196   4.309   1.963
    1C        H  830   4.530   3.988   1.984
    1C        H  831   2.651   3.824   1.976
    1C        H  832   2.727   4.054   1.961
    1C        H  833   2.712   4.315   1.972
    1C        H  834   3.387   4.438   1.963
    1C        H  835   3.153   4.394   1.952
    1C        H  836   2.537   3.015   1.983
    1C        H  837   2.431   3.224   1.983
    1C        H  838   2.430   3.693   1.990
    2V3OU   H29  839   2.806   3.546   5.530
    2V3OU   C27  840   2.786   3.502   5.631
    2V3OU   H27  841   2.724   3.568   5.697
    2V3OU   H28  842   2.731   3.404   5.624
    2V3OU   O11  843   2.909   3.472   5.697
    2V3OU   C15  844   2.917   3.393   5.809
    2V3OU   C13  845   3.050   3.371   5.851
    2V3OU   C14  846   3.072   3.265   5.941
    2V3OU   C16  847   2.968   3.186   5.986
    2V3OU    H6  848   2.993   3.106   6.057
    2V3OU   C12  849   3.210   3.228   5.979
    2V3OU    O2  850   3.244   3.127   6.044
    2V3OU   C10  851   3.321   3.306   5.921
    2V3OU    C8  852   3.455   3.271   5.929
    2V3OU   O10  853   3.487   3.151   5.984
    2V3OU   H26  854   3.402   3.112   6.010
    2V3OU    C6  855   3.566   3.350   5.883
    2V3OU    C5  856   3.537   3.471   5.821
    2V3OU    C4  857   3.705   3.297   5.882
    2V3OU    H4  858   3.726   3.230   5.971
    2V3OU    H5  859   3.710   3.228   5.793
    2V3OU    C2  860   3.817   3.401   5.885
    2V3OU    O6  861   3.801   3.475   6.006
    2V3OU   H21  862   3.766   3.559   5.973
    2V3OU    C3  863   3.782   3.498   5.772
    2V3OU    H2  864   3.868   3.567   5.754
    2V3OU    H3  865   3.781   3.432   5.681
    2V3OU   C25  866   3.952   3.330   5.868
    2V3OU    O7  867   3.995   3.303   5.756
    2V3OU   C26  868   4.030   3.285   5.990
    2V3OU   H22  869   4.072   3.378   6.035
    2V3OU   H23  870   4.115   3.219   5.960
    2V3OU    O8  871   3.956   3.207   6.082
    2V3OU   H24  872   3.924   3.264   6.154
    2V3OU    C1  873   3.646   3.566   5.783
    2V3OU    H1  874   3.625   3.616   5.684
    2V3OU    O3  875   3.664   3.657   5.893
    2V3OU   C19  876   3.617   3.791   5.880
    2V3OU    H9  877   3.522   3.792   5.818
    2V3OU    O4  878   3.716   3.845   5.796
    2V3OU   C20  879   3.846   3.871   5.849
    2V3OU   H10  880   3.892   3.769   5.861
    2V3OU   C24  881   3.608   3.854   6.019
    2V3OU   H16  882   3.543   3.792   6.084
    2V3OU   H17  883   3.561   3.954   6.000
    2V3OU   C23  884   3.747   3.877   6.080
    2V3OU   H15  885   3.794   3.774   6.094
    2V3OU    N1  886   3.728   3.961   6.197
    2V3OU   H19  887   3.797   3.928   6.261
    2V3OU   H20  888   3.638   3.926   6.225
    2V3OU   C21  889   3.848   3.945   5.983
    2V3OU   H11  890   3.952   3.924   6.023
    2V3OU    O5  891   3.829   4.086   5.987
    2V3OU   H18  892   3.778   4.105   6.067
    2V3OU   C22  893   3.910   3.949   5.735
    2V3OU   H12  894   3.859   4.047   5.720
    2V3OU   H13  895   3.904   3.890   5.640
    2V3OU   H14  896   4.020   3.964   5.752
    2V3OU   C11  897   3.156   3.470   5.827
    2V3OU    O1  898   3.132   3.589   5.798
    2V3OU    C9  899   3.295   3.427   5.853
    2V3OU    C7  900   3.399   3.505   5.803
    2V3OU    O9  901   3.384   3.622   5.732
    2V3OU   H25  902   3.288   3.633   5.718
    2V3OU   C17  903   2.816   3.308   5.858
    2V3OU    H7  904   2.713   3.339   5.841
    2V3OU   C18  905   2.835   3.203   5.948
    2V3OU    H8  906   2.752   3.152   5.998
    3SOL     OW  907   3.910   2.958   3.753
    3SOL    HW1  908   3.873   2.894   3.820
    3SOL    HW2  909   3.879   2.932   3.661
    4SOL     OW  910   6.849   6.190   0.734
    4SOL    HW1  911   6.855   6.203   0.832
    4SOL    HW2  912   6.776   6.247   0.697
    5SOL     OW  913   5.120   2.389   0.908
    5SOL    HW1  914   5.164   2.424   0.991
    5SOL    HW2  915   5.048   2.324   0.933
    6SOL     OW  916   4.196   1.292   2.398
    6SOL    HW1  917   4.294   1.275   2.403
    6SOL    HW2  918   4.156   1.236   2.325
    7SOL     OW  919   2.173   3.929   4.629
    7SOL    HW1  920   2.117   3.860   4.673
    7SOL    HW2  921   2.184   4.007   4.690
    8SOL     OW  922   1.045   2.496   5.133
    8SOL    HW1  923   1.144   2.481   5.132
    8SOL    HW2  924   1.012   2.500   5.039
    9SOL     OW  925   6.807   0.898   6.444
    9SOL    HW1  926   6.757   0.983   6.461
    9SOL    HW2  927   6.901   0.908   6.477
   10SOL     OW  928   5.365   5.123   1.576
   10SOL    HW1  929   5.406   5.150   1.663
   10SOL    HW2  930   5.291   5.186   1.553
   11SOL     OW  931   2.637   2.180   1.399
   11SOL    HW1  932   2.714   2.239   1.376
   11SOL    HW2  933   2.600   2.140   1.315
   12SOL     OW  934   4.664   4.755   2.713
   12SOL    HW1  935   4.579   4.796   2.680
   12SOL    HW2  936   4.649   4.658   2.732
   13SOL     OW  937   6.157   5.898   1.108
   13SOL    HW1  938   6.089   5.825   1.100
   13SOL    HW2  939   6.193   5.921   1.018
   14SOL     OW  940   4.246   6.921   6.671
   14SOL    HW1  941   4.155   6.964   6.675
   14SOL    HW2  942   4.306   6.963   6.738
   15SOL     OW  943   1.449   5.965   6.433
   15SOL    HW1  944   1.350   5.969   6.416
   15SOL    HW2  945   1.466   5.971   6.532
   16SOL     OW  946   1.947   4.978   5.145
   16SOL    HW1  947   1.918   4.892   5.102
   16SOL    HW2  948   2.047   4.981   5.148
   17SOL     OW  949   6.360   1.195   4.986
   17SOL    HW1  950   6.427   1.213   5.058
   17SOL    HW2  951   6.371   1.263   4.913
   18SOL     OW  952   2.948   1.223   5.955
   18SOL    HW1  953   2.966   1.270   5.868
   18SOL    HW2  954   3.034   1.206   6.002
   19SOL     OW  955   3.258   6.574   3.265
   19SOL    HW1  956   3.193   6.649   3.270
   19SOL    HW2  957   3.235   6.515   3.188
   20SOL     OW  958   6.052   1.454   5.426
   20SOL    HW1  959   5.983   1.383   5.411
   20SOL    HW2  960   6.007   1.541   5.445
   21SOL     OW  961   2.186   3.952   2.980
   21SOL    HW1  962   2.133   3.909   2.907
   21SOL    HW2  963   2.181   3.895   3.062
   22SOL     OW  964   1.142   1.166   0.311
   22SOL    HW1  965   1.168   1.246   0.366
   22SOL    HW2  966   1.225   1.118   0.282
   23SOL     OW  967   6.110   4.735   1.023
   23SOL    HW1  968   6.083   4.804   1.090
   23SOL    HW2  969   6.149   4.656   1.070
   24SOL     OW  970   5.106   1.633   0.647
   24SOL    HW1  971   5.172   1.696   0.605
   24SOL    HW2  972   5.119   1.541   0.608
   25SOL     OW  973   1.866   0.602   4.799
   25SOL    HW1  974   1.930   0.677   4.817
   25SOL    HW2  975   1.861   0.585   4.701
   26SOL     OW  976   1.335   1.979   6.128
   26SOL    HW1  977   1.347   2.034   6.211
   26SOL    HW2  978   1.238   1.968   6.109
   27SOL     OW  979   6.872   0.114   2.385
   27SOL    HW1  980   6.872   0.162   2.473
   27SOL    HW2  981   6.843   0.020   2.398
   28SOL     OW  982   2.112   0.754   5.432
   28SOL    HW1  983   2.056   0.695   5.373
   28SOL    HW2  984   2.111   0.717   5.525
   29SOL     OW  985   6.363   0.113   1.281
   29SOL    HW1  986   6.436   0.076   1.339
   29SOL    HW2  987   6.383   0.093   1.185
   30SOL     OW  988   4.603   0.136   5.176
   30SOL    HW1  989   4.608   0.155   5.274
   30SOL    HW2  990   4.682   0.081   5.149
   31SOL     OW  991   0.487   4.669   4.698
   31SOL    HW1  992   0.426   4.597   4.663
   31SOL    HW2  993   0.557   4.689   4.629
   32SOL     OW  994   3.464   0.585   0.985
   32SOL    HW1  995   3.367   0.605   0.974
   32SOL    HW2  996   3.483   0.492   0.954
   33SOL     OW  997   2.145   5.226   6.303
   33SOL    HW1  998   2.118   5.286   6.378
   33SOL    HW2  999   2.146   5.278   6.217
   34SOL     OW 1000   2.931   5.640   5.541
   34SOL    HW1 1001   2.995   5.584   5.594
   34SOL    HW2 1002   2.971   5.660   5.451
   35SOL     OW 1003   1.575   2.948   6.272
   35SOL    HW1 1004   1.585   2.917   6.178
   35SOL    HW2 1005   1.536   3.040   6.273
   36SOL     OW 1006   5.103   0.840   3.228
   36SOL    HW1 1007   5.155   0.816   3.146
   36SOL    HW2 1008   5.141   0.924   3.267
   37SOL     OW 1009   2.324   6.506   4.179
   37SOL    HW1 1010   2.408   6.557   4.199
   37SOL    HW2 1011   2.326   6.418   4.227
   38SOL     OW 1012   1.620   4.370   2.972
   38SOL    HW1 1013   1.569   4.403   3.051
   38SOL    HW2 1014   1.566   4.301   2.924
   39SOL     OW 1015   6.685   5.138   1.583
   39SOL    HW1 1016   6.656   5.055   1.630
   39SOL    HW2 1017   6.617   5.209   1.596
   40SOL     OW 1018   4.697   1.581   0.444
   40SOL    HW1 1019   4.759   1.652   0.410
   40SOL    HW2 1020   4.617   1.577   0.384
   41SOL     OW 1021   5.479   4.001   1.589
   41SOL    HW1 1022   5.571   3.967   1.570
   41SOL    HW2 1023   5.423   3.928   1.629
   42SOL     OW 1024   2.284   4.665   6.859
   42SOL    HW1 1025   2.274   4.633   6.765
   42SOL    HW2 1026   2.235   4.604   6.921
   43SOL     OW 1027   5.202   7.015   4.973
   43SOL    HW1 1028   5.140   0.058   5.016
   43SOL    HW2 1029   5.149   6.939   4.936
   44SOL     OW 1030   0.562   1.479   6.855
   44SOL    HW1 1031   0.498   1.549   6.824
   44SOL    HW2 1032   0.653   1.518   6.866
   45SOL     OW 1033   1.735   4.840   6.134
   45SOL    HW1 1034   1.828   4.866   6.107
   45SOL    HW2 1035   1.732   4.742   6.153
   46SOL     OW 1036   1.410   3.800   5.360
   46SOL    HW1 1037   1.385   3.883   5.310
   46SOL    HW2 1038   1.402   3.721   5.300
   47SOL     OW 1039   5.891   3.553   6.959
   47SOL    HW1 1040   5.902   3.465   6.914
   47SOL    HW2 1041   5.804   3.554   7.009
   48SOL     OW 1042   6.261   4.065   0.818
   48SOL    HW1 1043   6.333   4.134   0.829
   48SOL    HW2 1044   6.241   4.053   0.721
   49SOL     OW 1045   3.151   3.411   6.374
   49SOL    HW1 1046   3.127   3.415   6.471
   49SOL    HW2 1047   3.085   3.465   6.321
   50SOL     OW 1048   5.862   2.220   0.081
   50SOL    HW1 1049   5.940   2.280   0.096
   50SOL    HW2 1050   5.881   2.130   0.121
   51SOL     OW 1051   1.138   5.686   2.058
   51SOL    HW1 1052   1.106   5.734   2.140
   51SOL    HW2 1053   1.211   5.623   2.083
   52SOL     OW 1054   5.438   2.766   2.191
   52SOL    HW1 1055   5.359   2.751   2.132
   52SOL    HW2 1056   5.487   2.848   2.161
   53SOL     OW 1057   3.119   0.330   1.347
   53SOL    HW1 1058   3.202   0.312   1.295
   53SOL    HW2 1059   3.126   0.420   1.391
   54SOL     OW 1060   6.069   0.437   6.572
   54SOL    HW1 1061   6.064   0.355   6.629
   54SOL    HW2 1062   6.038   0.414   6.479
   55SOL     OW 1063   1.566   3.456   6.125
   55SOL    HW1 1064   1.603   3.548   6.119
   55SOL    HW2 1065   1.470   3.457   6.095
   56SOL     OW 1066   0.925   2.287   0.032
   56SOL    HW1 1067   0.827   2.304   0.028
   56SOL    HW2 1068   0.944   2.221   0.106
   57SOL     OW 1069   3.962   6.398   0.795
   57SOL    HW1 1070   3.935   6.412   0.700
   57SOL    HW2 1071   3.897   6.444   0.856
   58SOL     OW 1072   1.386   1.018   0.312
   58SOL    HW1 1073   1.476   1.001   0.352
   58SOL    HW2 1074   1.327   0.938   0.329
   59SOL     OW 1075   4.421   3.138   5.639
   59SOL    HW1 1076   4.450   3.218   5.692
   59SOL    HW2 1077   4.321   3.133   5.640
   60SOL     OW 1078   6.575   2.784   2.463
   60SOL    HW1 1079   6.638   2.771   2.387
   60SOL    HW2 1080   6.531   2.874   2.456
   61SOL     OW 1081   0.997   6.406   3.800
   61SOL    HW1 1082   0.911   6.364   3.770
   61SOL    HW2 1083   1.044   6.345   3.864
   62SOL     OW 1084   6.392   3.308   3.557
   62SOL    HW1 1085   6.366   3.212   3.545
   62SOL    HW2 1086   6.476   3.313   3.612
   63SOL     OW 1087   3.588   0.323   6.375
   63SOL    HW1 1088   3.663   0.257   6.380
   63SOL    HW2 1089   3.626   0.416   6.371
   64SOL     OW 1090   0.970   2.093   5.628
   64SOL    HW1 1091   1.062   2.077   5.593
   64SOL    HW2 1092   0.913   2.012   5.610
   65SOL     OW 1093   0.493   5.253   4.277
   65SOL    HW1 1094   0.438   5.247   4.360
   65SOL    HW2 1095   0.434   5.270   4.198
   66SOL     OW 1096   4.259   1.263   1.356
   66SOL    HW1 1097   4.198   1.218   1.291
   66SOL    HW2 1098   4.319   1.195   1.397
   67SOL     OW 1099   0.372   3.328   1.797
   67SOL    HW1 1100   0.371   3.317   1.698
   67SOL    HW2 1101   0.280   3.347   1.830
   68SOL     OW 1102   6.970   1.551   0.022
   68SOL    HW1 1103   7.001   1.627   6.988
   68SOL    HW2 1104   7.001   1.565   0.116
   69SOL     OW 1105   1.230   5.771   6.854
   69SOL    HW1 1106   1.134   5.793   6.835
   69SOL    HW2 1107   1.245   5.673   6.839
   70SOL     OW 1108   4.906   4.396   3.622
   70SOL    HW1 1109   4.892   4.387   3.524
   70SOL    HW2 1110   5.003   4.417   3.640
   71SOL     OW 1111   4.791   2.066   4.846
   71SOL    HW1 1112   4.877   2.114   4.863
   71SOL    HW2 1113   4.717   2.113   4.893
   72SOL     OW 1114   0.126   0.838   3.340
   72SOL    HW1 1115   0.157   0.933   3.346
   72SOL    HW2 1116   0.026   0.835   3.347
   73SOL     OW 1117   1.955   0.424   1.250
   73SOL    HW1 1118   1.929   0.328   1.241
   73SOL    HW2 1119   2.042   0.441   1.203
   74SOL     OW 1120   3.585   2.210   0.205
   74SOL    HW1 1121   3.498   2.245   0.172
   74SOL    HW2 1122   3.596   2.233   0.302
   75SOL     OW 1123   2.897   2.678   0.593
   75SOL    HW1 1124   2.851   2.677   0.682
   75SOL    HW2 1125   2.994   2.661   0.606
   76SOL     OW 1126   3.750   5.349   5.795
   76SOL    HW1 1127   3.847   5.325   5.802
   76SOL    HW2 1128   3.737   5.415   5.721
   77SOL     OW 1129   0.766   5.455   4.896
   77SOL    HW1 1130   0.796   5.491   4.808
   77SOL    HW2 1131   0.815   5.503   4.969
   78SOL     OW 1132   4.658   2.065   0.833
   78SOL    HW1 1133   4.619   1.997   0.771
   78SOL    HW2 1134   4.729   2.117   0.785
   79SOL     OW 1135   1.587   4.294   3.782
   79SOL    HW1 1136   1.581   4.379   3.729
   79SOL    HW2 1137   1.558   4.217   3.724
   80SOL     OW 1138   3.149   2.113   4.800
   80SOL    HW1 1139   3.136   2.169   4.881
   80SOL    HW2 1140   3.104   2.156   4.722
   81SOL     OW 1141   3.590   5.275   1.604
   81SOL    HW1 1142   3.534   5.292   1.685
   81SOL    HW2 1143   3.671   5.222   1.630
   82SOL     OW 1144   2.641   0.081   1.833
   82SOL    HW1 1145   2.738   0.095   1.849
   82SOL    HW2 1146   2.598   0.046   1.916
   83SOL     OW 1147   5.078   1.621   4.095
   83SOL    HW1 1148   5.168   1.629   4.137
   83SOL    HW2 1149   5.070   1.533   4.049
   84SOL     OW 1150   5.930   2.890   2.794
   84SOL    HW1 1151   5.977   2.818   2.846
   84SOL    HW2 1152   5.836   2.897   2.826
   85SOL     OW 1153   2.490   6.803   3.767
   85SOL    HW1 1154   2.458   6.763   3.853
   85SOL    HW2 1155   2.516   6.730   3.704
   86SOL     OW 1156   5.005   0.135   0.750
   86SOL    HW1 1157   5.090   0.162   0.794
   86SOL    HW2 1158   5.018   0.048   0.702
   87SOL     OW 1159   2.990   3.503   6.603
   87SOL    HW1 1160   2.930   3.549   6.538
   87SOL    HW2 1161   3.078   3.552   6.608
   88SOL     OW 1162   2.245   3.346   1.570
   88SOL    HW1 1163   2.335   3.307   1.548
   88SOL    HW2 1164   2.217   3.317   1.661
   89SOL     OW 1165   3.358   3.349   4.135
   89SOL    HW1 1166   3.355   3.400   4.049
   89SOL    HW2 1167   3.310   3.262   4.124
   90SOL     OW 1168   6.129   3.786   2.493
   90SOL    HW1 1169   6.100   3.772   2.398
   90SOL    HW2 1170   6.172   3.876   2.502
   91SOL     OW 1171   4.622   5.776   6.137
   91SOL    HW1 1172   4.544   5.756   6.197
   91SOL    HW2 1173   4.590   5.821   6.054
   92SOL     OW 1174   5.285   4.537   7.004
   92SOL    HW1 1175   5.370   4.485   7.013
   92SOL    HW2 1176   5.289   4.619   0.038
   93SOL     OW 1177   3.048   4.113   1.756
   93SOL    HW1 1178   3.034   4.039   1.690
   93SOL    HW2 1179   2.974   4.180   1.747
   94SOL     OW 1180   3.411   2.081   3.919
   94SOL    HW1 1181   3.388   2.008   3.984
   94SOL    HW2 1182   3.327   2.119   3.881
   95SOL     OW 1183   0.503   6.939   3.993
   95SOL    HW1 1184   0.552   6.917   3.909
   95SOL    HW2 1185   0.457   0.004   3.982
   96SOL     OW 1186   0.207   5.475   6.643
   96SOL    HW1 1187   0.172   5.393   6.598
   96SOL    HW2 1188   0.224   5.455   6.740
   97SOL     OW 1189   2.191   4.546   5.985
   97SOL    HW1 1190   2.230   4.489   5.912
   97SOL    HW2 1191   2.092   4.531   5.988
   98SOL     OW 1192   0.039   1.778   4.028
   98SOL    HW1 1193   7.017   1.734   4.106
   98SOL    HW2 1194   0.116   1.722   3.999
   99SOL     OW 1195   3.861   4.454   5.313
   99SOL    HW1 1196   3.896   4.468   5.406
   99SOL    HW2 1197   3.905   4.373   5.273
  100SOL     OW 1198   1.171   0.616   5.263
  100SOL    HW1 1199   1.183   0.577   5.171
  100SOL    HW2 1200   1.078   0.597   5.295
  101SOL     OW 1201   4.827   3.075   2.544
  101SOL    HW1 1202   4.839   3.032   2.633
  101SOL    HW2 1203   4.869   3.166   2.545
  102SOL     OW 1204   4.662   0.705   6.997
  102SOL    HW1 1205   4.715   0.790   6.990
  102SOL    HW2 1206   4.573   0.717   6.953
  103SOL     OW 1207   1.158   1.635   2.029
  103SOL    HW1 1208   1.123   1.727   2.045
  103SOL    HW2 1209   1.242   1.640   1.976
  104SOL     OW 1210   6.545   4.267   1.988
  104SOL    HW1 1211   6.565   4.280   2.085
  104SOL    HW2 1212   6.471   4.329   1.961
  105SOL     OW 1213   0.406   0.087   4.602
  105SOL    HW1 1214   0.493   0.037   4.604
  105SOL    HW2 1215   0.425   0.185   4.602
  106SOL     OW 1216   4.500   3.243   1.699
  106SOL    HW1 1217   4.408   3.208   1.685
  106SOL    HW2 1218   4.540   3.202   1.781
  107SOL     OW 1219   5.946   6.639   1.617
  107SOL    HW1 1220   5.855   6.635   1.660
  107SOL    HW2 1221   6.012   6.592   1.676
  108SOL     OW 1222   3.545   1.148   4.734
  108SOL    HW1 1223   3.564   1.079   4.664
  108SOL    HW2 1224   3.447   1.151   4.753
  109SOL     OW 1225   2.105   0.891   5.131
  109SOL    HW1 1226   2.180   0.831   5.160
  109SOL    HW2 1227   2.114   0.979   5.177
  110SOL     OW 1228   3.632   3.918   5.516
  110SOL    HW1 1229   3.716   3.908   5.570
  110SOL    HW2 1230   3.569   3.979   5.565
  111SOL     OW 1231   6.157   2.800   0.773
  111SOL    HW1 1232   6.149   2.894   0.804
  111SOL    HW2 1233   6.085   2.744   0.815
  112SOL     OW 1234   5.543   6.981   6.242
  112SOL    HW1 1235   5.530   6.911   6.172
  112SOL    HW2 1236   5.638   6.983   6.271
  113SOL     OW 1237   0.589   4.942   2.975
  113SOL    HW1 1238   0.671   4.976   2.930
  113SOL    HW2 1239   0.540   4.880   2.913
  114SOL     OW 1240   0.097   2.494   2.278
  114SOL    HW1 1241   7.020   2.494   2.282
  114SOL    HW2 1242   0.127   2.535   2.191
  115SOL     OW 1243   4.581   0.294   2.699
  115SOL    HW1 1244   4.659   0.249   2.743
  115SOL    HW2 1245   4.506   0.303   2.764
  116SOL     OW 1246   6.981   5.219   0.851
  116SOL    HW1 1247   6.914   5.246   0.783
  116SOL    HW2 1248   6.937   5.213   0.941
  117SOL     OW 1249   3.075   2.216   0.210
  117SOL    HW1 1250   3.077   2.120   0.239
  117SOL    HW2 1251   2.983   2.240   0.181
  118SOL     OW 1252   6.979   1.605   2.460
  118SOL    HW1 1253   0.044   1.557   2.450
  118SOL    HW2 1254   6.971   1.640   2.554
  119SOL     OW 1255   6.216   0.552   5.084
  119SOL    HW1 1256   6.266   0.510   5.008
  119SOL    HW2 1257   6.189   0.481   5.149
  120SOL     OW 1258   4.467   0.754   4.417
  120SOL    HW1 1259   4.562   0.778   4.399
  120SOL    HW2 1260   4.413   0.838   4.431
  121SOL     OW 1261   0.512   5.369   6.733
  121SOL    HW1 1262   0.442   5.440   6.727
  121SOL    HW2 1263   0.485   5.291   6.677
  122SOL     OW 1264   6.753   4.458   5.940
  122SOL    HW1 1265   6.682   4.449   5.871
  122SOL    HW2 1266   6.784   4.367   5.968
  123SOL     OW 1267   0.637   2.804   1.846
  123SOL    HW1 1268   0.638   2.880   1.911
  123SOL    HW2 1269   0.637   2.717   1.895
  124SOL     OW 1270   1.253   3.407   0.466
  124SOL    HW1 1271   1.187   3.334   0.487
  124SOL    HW2 1272   1.273   3.458   0.550
  125SOL     OW 1273   4.549   2.852   0.723
  125SOL    HW1 1274   4.622   2.875   0.786
  125SOL    HW2 1275   4.586   2.799   0.646
  126SOL     OW 1276   3.727   2.922   3.998
  126SOL    HW1 1277   3.713   3.009   3.952
  126SOL    HW2 1278   3.663   2.913   4.075
  127SOL     OW 1279   0.389   4.441   5.138
  127SOL    HW1 1280   0.390   4.524   5.082
  127SOL    HW2 1281   0.437   4.368   5.089
  128SOL     OW 1282   4.893   3.913   6.438
  128SOL    HW1 1283   4.925   3.825   6.403
  128SOL    HW2 1284   4.966   3.981   6.430
  129SOL     OW 1285   0.086   5.691   2.326
  129SOL    HW1 1286   0.141   5.741   2.393
  129SOL    HW2 1287   7.017   5.732   2.321
  130SOL     OW 1288   5.951   2.929   4.291
  130SOL    HW1 1289   5.990   2.900   4.203
  130SOL    HW2 1290   5.902   2.853   4.332
  131SOL     OW 1291   0.530   3.405   3.773
  131SOL    HW1 1292   0.534   3.421   3.872
  131SOL    HW2 1293   0.556   3.310   3.754
  132SOL     OW 1294   4.666   2.378   0.900
  132SOL    HW1 1295   4.627   2.376   0.992
  132SOL    HW2 1296   4.749   2.322   0.898
  133SOL     OW 1297   4.768   5.521   6.157
  133SOL    HW1 1298   4.715   5.606   6.151
  133SOL    HW2 1299   4.850   5.530   6.101
  134SOL     OW 1300   5.580   2.107   0.918
  134SOL    HW1 1301   5.582   2.199   0.959
  134SOL    HW2 1302   5.513   2.106   0.843
  135SOL     OW 1303   5.142   3.752   3.871
  135SOL    HW1 1304   5.189   3.674   3.831
  135SOL    HW2 1305   5.074   3.786   3.806
  136SOL     OW 1306   3.985   1.080   6.245
  136SOL    HW1 1307   4.010   1.005   6.183
  136SOL    HW2 1308   4.067   1.131   6.270
  137SOL     OW 1309   2.525   3.795   5.861
  137SOL    HW1 1310   2.566   3.886   5.864
  137SOL    HW2 1311   2.451   3.794   5.793
  138SOL     OW 1312   0.844   5.482   6.791
  138SOL    HW1 1313   0.755   5.454   6.755
  138SOL    HW2 1314   0.850   5.582   6.790
  139SOL     OW 1315   1.530   0.218   1.034
  139SOL    HW1 1316   1.494   0.311   1.031
  139SOL    HW2 1317   1.454   0.153   1.033
  140SOL     OW 1318   4.682   0.714   1.385
  140SOL    HW1 1319   4.699   0.769   1.467
  140SOL    HW2 1320   4.605   0.753   1.335
  141SOL     OW 1321   0.356   2.352   0.984
  141SOL    HW1 1322   0.275   2.347   1.042
  141SOL    HW2 1323   0.430   2.397   1.035
  142SOL     OW 1324   2.306   3.807   0.720
  142SOL    HW1 1325   2.311   3.731   0.655
  142SOL    HW2 1326   2.287   3.892   0.669
  143SOL     OW 1327   4.603   6.284   2.103
  143SOL    HW1 1328   4.522   6.320   2.058
  143SOL    HW2 1329   4.594   6.295   2.202
  144SOL     OW 1330   3.165   5.791   2.964
  144SOL    HW1 1331   3.232   5.759   2.897
  144SOL    HW2 1332   3.075   5.797   2.921
  145SOL     OW 1333   6.666   5.471   4.106
  145SOL    HW1 1334   6.659   5.442   4.202
  145SOL    HW2 1335   6.760   5.498   4.086
  146SOL     OW 1336   5.360   0.695   6.412
  146SOL    HW1 1337   5.374   0.762   6.339
  146SOL    HW2 1338   5.347   0.743   6.499
  147SOL     OW 1339   5.741   1.063   5.216
  147SOL    HW1 1340   5.652   1.076   5.260
  147SOL    HW2 1341   5.739   1.100   5.124
  148SOL     OW 1342   2.163   5.973   1.417
  148SOL    HW1 1343   2.116   6.043   1.363
  148SOL    HW2 1344   2.235   5.930   1.361
  149SOL     OW 1345   2.025   2.587   4.192
  149SOL    HW1 1346   2.089   2.567   4.266
  149SOL    HW2 1347   1.935   2.550   4.215
  150SOL     OW 1348   4.297   1.624   5.051
  150SOL    HW1 1349   4.235   1.656   5.121
  150SOL    HW2 1350   4.245   1.602   4.968
  151SOL     OW 1351   5.895   3.071   0.934
  151SOL    HW1 1352   5.901   3.058   1.033
  151SOL    HW2 1353   5.988   3.073   0.895
  152SOL     OW 1354   1.148   2.628   1.846
  152SOL    HW1 1355   1.059   2.613   1.803
  152SOL    HW2 1356   1.210   2.671   1.780
  153SOL     OW 1357   2.331   1.723   3.370
  153SOL    HW1 1358   2.342   1.708   3.469
  153SOL    HW2 1359   2.388   1.659   3.320
  154SOL     OW 1360   6.069   2.013   2.808
  154SOL    HW1 1361   6.003   2.078   2.846
  154SOL    HW2 1362   6.105   2.050   2.722
  155SOL     OW 1363   6.543   4.994   3.401
  155SOL    HW1 1364   6.476   5.024   3.333
  155SOL    HW2 1365   6.596   5.073   3.432
  156SOL     OW 1366   5.007   2.164   0.358
  156SOL    HW1 1367   4.919   2.199   0.390
  156SOL    HW2 1368   5.056   2.236   0.308
  157SOL     OW 1369   5.251   6.837   1.240
  157SOL    HW1 1370   5.167   6.889   1.226
  157SOL    HW2 1371   5.324   6.898   1.271
  158SOL     OW 1372   0.546   2.912   4.701
  158SOL    HW1 1373   0.501   2.938   4.615
  158SOL    HW2 1374   0.502   2.831   4.739
  159SOL     OW 1375   6.386   5.320   0.624
  159SOL    HW1 1376   6.422   5.344   0.534
  159SOL    HW2 1377   6.446   5.251   0.666
  160SOL     OW 1378   5.704   0.428   1.010
  160SOL    HW1 1379   5.774   0.405   1.077
  160SOL    HW2 1380   5.700   0.357   0.940
  161SOL     OW 1381   6.350   6.659   1.000
  161SOL    HW1 1382   6.304   6.595   1.061
  161SOL    HW2 1383   6.284   6.698   0.935
  162SOL     OW 1384   4.372   0.209   6.252
  162SOL    HW1 1385   4.466   0.226   6.280
  162SOL    HW2 1386   4.367   0.201   6.153
  163SOL     OW 1387   0.341   3.159   2.499
  163SOL    HW1 1388   0.350   3.065   2.466
  163SOL    HW2 1389   0.317   3.219   2.422
  164SOL     OW 1390   2.861   2.203   2.791
  164SOL    HW1 1391   2.780   2.146   2.781
  164SOL    HW2 1392   2.942   2.145   2.795
  165SOL     OW 1393   0.011   6.860   3.880
  165SOL    HW1 1394   6.955   6.839   3.938
  165SOL    HW2 1395   0.090   6.806   3.909
  166SOL     OW 1396   6.342   5.082   3.980
  166SOL    HW1 1397   6.355   5.002   3.922
  166SOL    HW2 1398   6.420   5.144   3.969
  167SOL     OW 1399   2.337   0.987   4.896
  167SOL    HW1 1400   2.284   0.939   4.965
  167SOL    HW2 1401   2.280   1.002   4.815
  168SOL     OW 1402   3.781   3.619   2.302
  168SOL    HW1 1403   3.753   3.539   2.355
  168SOL    HW2 1404   3.741   3.615   2.210
  169SOL     OW 1405   5.373   2.706   0.338
  169SOL    HW1 1406   5.399   2.613   0.314
  169SOL    HW2 1407   5.380   2.765   0.258
  170SOL     OW 1408   6.299   5.678   0.775
  170SOL    HW1 1409   6.376   5.737   0.801
  170SOL    HW2 1410   6.334   5.598   0.726
  171SOL     OW 1411   3.363   3.152   1.242
  171SOL    HW1 1412   3.388   3.235   1.193
  171SOL    HW2 1413   3.367   3.169   1.340
  172SOL     OW 1414   1.239   1.367   6.548
  172SOL    HW1 1415   1.152   1.342   6.588
  172SOL    HW2 1416   1.311   1.306   6.581
  173SOL     OW 1417   6.388   1.259   4.359
  173SOL    HW1 1418   6.420   1.351   4.382
  173SOL    HW2 1419   6.425   1.233   4.270
  174SOL     OW 1420   5.388   4.259   4.156
  174SOL    HW1 1421   5.403   4.341   4.211
  174SOL    HW2 1422   5.295   4.225   4.169
  175SOL     OW 1423   0.522   6.415   2.328
  175SOL    HW1 1424   0.455   6.388   2.260
  175SOL    HW2 1425   0.565   6.501   2.299
  176SOL     OW 1426   6.657   3.249   1.797
  176SOL    HW1 1427   6.609   3.324   1.750
  176SOL    HW2 1428   6.712   3.287   1.871
  177SOL     OW 1429   5.340   2.428   3.638
  177SOL    HW1 1430   5.341   2.331   3.612
  177SOL    HW2 1431   5.252   2.468   3.613
  178SOL     OW 1432   2.468   5.890   4.510
  178SOL    HW1 1433   2.545   5.838   4.473
  178SOL    HW2 1434   2.477   5.986   4.483
  179SOL     OW 1435   3.100   4.902   1.284
  179SOL    HW1 1436   3.087   4.817   1.334
  179SOL    HW2 1437   3.191   4.939   1.304
  180SOL     OW 1438   4.683   1.137   6.294
  180SOL    HW1 1439   4.694   1.038   6.298
  180SOL    HW2 1440   4.735   1.174   6.217
  181SOL     OW 1441   3.061   1.523   6.021
  181SOL    HW1 1442   3.070   1.559   5.928
  181SOL    HW2 1443   3.083   1.425   6.021
  182SOL     OW 1444   3.411   3.079   5.641
  182SOL    HW1 1445   3.328   3.106   5.591
  182SOL    HW2 1446   3.444   2.992   5.605
  183SOL     OW 1447   2.627   0.877   2.939
  183SOL    HW1 1448   2.701   0.869   3.006
  183SOL    HW2 1449   2.663   0.860   2.847
  184SOL     OW 1450   5.577   6.233   3.559
  184SOL    HW1 1451   5.554   6.329   3.573
  184SOL    HW2 1452   5.675   6.225   3.541
  185SOL     OW 1453   0.184   0.012   4.703
  185SOL    HW1 1454   0.273   0.039   4.666
  185SOL    HW2 1455   0.139   6.971   4.640
  186SOL     OW 1456   3.317   5.815   5.076
  186SOL    HW1 1457   3.284   5.753   5.005
  186SOL    HW2 1458   3.240   5.868   5.112
  187SOL     OW 1459   3.921   5.855   1.443
  187SOL    HW1 1460   3.857   5.789   1.482
  187SOL    HW2 1461   4.014   5.833   1.472
  188SOL     OW 1462   0.829   3.377   3.523
  188SOL    HW1 1463   0.866   3.399   3.614
  188SOL    HW2 1464   0.757   3.441   3.500
  189SOL     OW 1465   5.050   4.832   5.277
  189SOL    HW1 1466   5.012   4.783   5.355
  189SOL    HW2 1467   5.017   4.790   5.192
  190SOL     OW 1468   6.156   0.088   0.436
  190SOL    HW1 1469   6.155   0.181   0.400
  190SOL    HW2 1470   6.247   0.049   0.426
  191SOL     OW 1471   1.024   1.795   5.364
  191SOL    HW1 1472   1.115   1.819   5.332
  191SOL    HW2 1473   1.031   1.753   5.455
  192SOL     OW 1474   0.497   5.695   1.537
  192SOL    HW1 1475   0.559   5.735   1.604
  192SOL    HW2 1476   0.403   5.725   1.558
  193SOL     OW 1477   2.254   0.371   1.321
  193SOL    HW1 1478   2.309   0.297   1.282
  193SOL    HW2 1479   2.179   0.332   1.376
  194SOL     OW 1480   3.644   6.091   2.289
  194SOL    HW1 1481   3.686   6.007   2.254
  194SOL    HW2 1482   3.651   6.092   2.389
  195SOL     OW 1483   3.804   0.430   0.896
  195SOL    HW1 1484   3.749   0.359   0.940
  195SOL    HW2 1485   3.836   0.495   0.965
  196SOL     OW 1486   3.885   2.542   0.473
  196SOL    HW1 1487   3.966   2.489   0.500
  196SOL    HW2 1488   3.818   2.540   0.546
  197SOL     OW 1489   1.789   5.766   0.474
  197SOL    HW1 1490   1.729   5.754   0.394
  197SOL    HW2 1491   1.860   5.696   0.472
  198SOL     OW 1492   3.946   6.454   6.476
  198SOL    HW1 1493   4.024   6.515   6.486
  198SOL    HW2 1494   3.956   6.376   6.539
  199SOL     OW 1495   0.530   0.528   3.062
  199SOL    HW1 1496   0.510   0.616   3.019
  199SOL    HW2 1497   0.494   0.527   3.156
  200SOL     OW 1498   0.817   3.965   3.570
  200SOL    HW1 1499   0.818   3.971   3.470
  200SOL    HW2 1500   0.724   3.984   3.603
  201SOL     OW 1501   5.189   1.589   6.360
  201SOL    HW1 1502   5.134   1.515   6.322
  201SOL    HW2 1503   5.155   1.612   6.452
  202SOL     OW 1504   3.785   0.653   2.366
  202SOL    HW1 1505   3.722   0.580   2.339
  202SOL    HW2 1506   3.739   0.741   2.359
  203SOL     OW 1507   6.131   2.701   6.723
  203SOL    HW1 1508   6.169   2.685   6.632
  203SOL    HW2 1509   6.039   2.739   6.714
  204SOL     OW 1510   2.256   6.593   1.475
  204SOL    HW1 1511   2.294   6.627   1.389
  204SOL    HW2 1512   2.188   6.523   1.456
  205SOL     OW 1513   5.411   0.391   1.047
  205SOL    HW1 1514   5.365   0.351   0.968
  205SOL    HW2 1515   5.501   0.349   1.058
  206SOL     OW 1516   0.153   5.509   1.765
  206SOL    HW1 1517   0.179   5.583   1.702
  206SOL    HW2 1518   0.159   5.421   1.717
  207SOL     OW 1519   4.505   1.699   5.617
  207SOL    HW1 1520   4.574   1.760   5.658
  207SOL    HW2 1521   4.534   1.676   5.524
  208SOL     OW 1522   3.697   4.840   6.348
  208SOL    HW1 1523   3.646   4.923   6.371
  208SOL    HW2 1524   3.644   4.785   6.285
  209SOL     OW 1525   6.824   5.283   4.715
  209SOL    HW1 1526   6.802   5.262   4.810
  209SOL    HW2 1527   6.813   5.381   4.699
  210SOL     OW 1528   4.112   2.419   1.181
  210SOL    HW1 1529   4.051   2.463   1.247
  210SOL    HW2 1530   4.120   2.322   1.201
  211SOL     OW 1531   1.239   2.364   2.192
  211SOL    HW1 1532   1.272   2.448   2.149
  211SOL    HW2 1533   1.164   2.386   2.254
  212SOL     OW 1534   0.105   5.296   4.683
  212SOL    HW1 1535   0.031   5.270   4.745
  212SOL    HW2 1536   0.191   5.256   4.715
  213SOL     OW 1537   4.156   2.472   6.261
  213SOL    HW1 1538   4.166   2.539   6.187
  213SOL    HW2 1539   4.061   2.443   6.267
  214SOL     OW 1540   1.512   6.347   3.287
  214SOL    HW1 1541   1.604   6.378   3.263
  214SOL    HW2 1542   1.479   6.282   3.218
  215SOL     OW 1543   3.813   3.610   2.948
  215SOL    HW1 1544   3.824   3.524   2.999
  215SOL    HW2 1545   3.901   3.656   2.943
  216SOL     OW 1546   1.881   6.697   5.684
  216SOL    HW1 1547   1.845   6.611   5.721
  216SOL    HW2 1548   1.961   6.725   5.737
  217SOL     OW 1549   6.928   2.524   4.196
  217SOL    HW1 1550   6.926   2.577   4.280
  217SOL    HW2 1551   6.929   2.426   4.218
  218SOL     OW 1552   1.896   3.399   5.279
  218SOL    HW1 1553   1.858   3.436   5.364
  218SOL    HW2 1554   1.926   3.473   5.220
  219SOL     OW 1555   3.498   5.157   0.166
  219SOL    HW1 1556   3.507   5.103   0.250
  219SOL    HW2 1557   3.416   5.214   0.171
  220SOL     OW 1558   1.645   4.581   0.423
  220SOL    HW1 1559   1.704   4.525   0.480
  220SOL    HW2 1560   1.569   4.526   0.387
  221SOL     OW 1561   6.407   2.974   4.553
  221SOL    HW1 1562   6.420   2.954   4.456
  221SOL    HW2 1563   6.496   2.978   4.599
  222SOL     OW 1564   1.166   6.069   4.550
  222SOL    HW1 1565   1.080   6.115   4.570
  222SOL    HW2 1566   1.231   6.085   4.624
  223SOL     OW 1567   6.012   4.474   2.402
  223SOL    HW1 1568   6.004   4.523   2.488
  223SOL    HW2 1569   6.073   4.395   2.414
  224SOL     OW 1570   3.909   2.093   2.195
  224SOL    HW1 1571   3.844   2.148   2.142
  224SOL    HW2 1572   3.859   2.026   2.249
  225SOL     OW 1573   6.751   0.479   1.344
  225SOL    HW1 1574   6.748   0.425   1.260
  225SOL    HW2 1575   6.657   0.502   1.372
  226SOL     OW 1576   0.120   6.029   1.334
  226SOL    HW1 1577   0.196   6.066   1.389
  226SOL    HW2 1578   0.039   6.086   1.347
  227SOL     OW 1579   1.558   3.399   2.842
  227SOL    HW1 1580   1.511   3.484   2.863
  227SOL    HW2 1581   1.490   3.325   2.832
  228SOL     OW 1582   3.583   6.344   2.513
  228SOL    HW1 1583   3.546   6.429   2.552
  228SOL    HW2 1584   3.561   6.340   2.416
  229SOL     OW 1585   6.113   5.725   3.191
  229SOL    HW1 1586   6.045   5.662   3.227
  229SOL    HW2 1587   6.204   5.696   3.221
  230SOL     OW 1588   0.964   3.866   6.278
  230SOL    HW1 1589   0.917   3.840   6.193
  230SOL    HW2 1590   1.010   3.954   6.265
  231SOL     OW 1591   0.416   1.389   0.823
  231SOL    HW1 1592   0.343   1.392   0.891
  231SOL    HW2 1593   0.389   1.442   0.743
  232SOL     OW 1594   1.746   4.230   6.371
  232SOL    HW1 1595   1.646   4.229   6.361
  232SOL    HW2 1596   1.788   4.214   6.282
  233SOL     OW 1597   3.030   0.873   6.458
  233SOL    HW1 1598   3.013   0.966   6.425
  233SOL    HW2 1599   3.100   0.874   6.529
  234SOL     OW 1600   2.821   5.498   6.556
  234SOL    HW1 1601   2.884   5.463   6.626
  234SOL    HW2 1602   2.784   5.586   6.586
  235SOL     OW 1603   3.583   3.335   4.821
  235SOL    HW1 1604   3.668   3.331   4.769
  235SOL    HW2 1605   3.525   3.409   4.785
  236SOL     OW 1606   0.176   2.168   5.741
  236SOL    HW1 1607   0.202   2.257   5.705
  236SOL    HW2 1608   0.225   2.096   5.691
  237SOL     OW 1609   6.593   6.520   2.027
  237SOL    HW1 1610   6.538   6.516   1.943
  237SOL    HW2 1611   6.687   6.493   2.006
  238SOL     OW 1612   6.559   1.966   2.152
  238SOL    HW1 1613   6.606   2.043   2.195
  238SOL    HW2 1614   6.625   1.910   2.101
  239SOL     OW 1615   0.307   5.883   0.711
  239SOL    HW1 1616   0.238   5.948   0.743
  239SOL    HW2 1617   0.348   5.836   0.789
  240SOL     OW 1618   6.841   3.060   5.416
  240SOL    HW1 1619   6.779   3.103   5.350
  240SOL    HW2 1620   6.871   3.127   5.484
  241SOL     OW 1621   6.020   1.585   4.783
  241SOL    HW1 1622   5.991   1.567   4.877
  241SOL    HW2 1623   5.959   1.536   4.720
  242SOL     OW 1624   2.409   2.652   3.386
  242SOL    HW1 1625   2.386   2.748   3.372
  242SOL    HW2 1626   2.385   2.599   3.305
  243SOL     OW 1627   4.091   1.352   6.461
  243SOL    HW1 1628   4.051   1.310   6.543
  243SOL    HW2 1629   4.024   1.416   6.422
  244SOL     OW 1630   6.749   0.683   6.246
  244SOL    HW1 1631   6.741   0.736   6.330
  244SOL    HW2 1632   6.779   0.742   6.172
  245SOL     OW 1633   5.075   2.616   3.729
  245SOL    HW1 1634   5.005   2.567   3.780
  245SOL    HW2 1635   5.100   2.700   3.778
  246SOL     OW 1636   4.914   3.195   3.627
  246SOL    HW1 1637   4.981   3.258   3.666
  246SOL    HW2 1638   4.956   3.144   3.552
  247SOL     OW 1639   2.609   0.003   3.580
  247SOL    HW1 1640   2.661   7.002   3.498
  247SOL    HW2 1641   2.551   6.949   3.607
  248SOL     OW 1642   6.415   1.308   1.748
  248SOL    HW1 1643   6.490   1.318   1.813
  248SOL    HW2 1644   6.404   1.392   1.696
  249SOL     OW 1645   2.179   6.040   4.864
  249SOL    HW1 1646   2.170   6.043   4.765
  249SOL    HW2 1647   2.264   6.087   4.891
  250SOL     OW 1648   5.222   3.212   6.346
  250SOL    HW1 1649   5.158   3.145   6.310
  250SOL    HW2 1650   5.292   3.232   6.276
  251SOL     OW 1651   1.721   2.622   0.396
  251SOL    HW1 1652   1.793   2.553   0.388
  251SOL    HW2 1653   1.751   2.697   0.454
  252SOL     OW 1654   0.597   1.170   0.671
  252SOL    HW1 1655   0.524   1.220   0.717
  252SOL    HW2 1656   0.657   1.234   0.624
  253SOL     OW 1657   1.593   4.220   5.961
  253SOL    HW1 1658   1.598   4.120   5.958
  253SOL    HW2 1659   1.526   4.248   6.029
  254SOL     OW 1660   4.818   3.502   6.093
  254SOL    HW1 1661   4.910   3.541   6.099
  254SOL    HW2 1662   4.821   3.405   6.115
  255SOL     OW 1663   3.594   2.054   2.325
  255SOL    HW1 1664   3.543   1.989   2.269
  255SOL    HW2 1665   3.582   2.146   2.289
  256SOL     OW 1666   6.949   5.636   2.029
  256SOL    HW1 1667   6.879   5.576   2.069
  256SOL    HW2 1668   0.006   5.582   2.002
  257SOL     OW 1669   3.056   5.049   6.830
  257SOL    HW1 1670   3.062   5.025   6.733
  257SOL    HW2 1671   2.975   5.007   6.870
  258SOL     OW 1672   4.808   4.193   3.793
  258SOL    HW1 1673   4.843   4.256   3.725
  258SOL    HW2 1674   4.781   4.243   3.875
  259SOL     OW 1675   1.160   2.366   3.293
  259SOL    HW1 1676   1.076   2.315   3.276
  259SOL    HW2 1677   1.224   2.351   3.217
  260SOL     OW 1678   6.831   6.767   5.672
  260SOL    HW1 1679   6.803   6.674   5.650
  260SOL    HW2 1680   6.882   6.806   5.595
  261SOL     OW 1681   0.226   1.101   2.973
  261SOL    HW1 1682   0.146   1.159   2.992
  261SOL    HW2 1683   0.296   1.156   2.927
  262SOL     OW 1684   1.978   5.099   2.650
  262SOL    HW1 1685   2.042   5.051   2.589
  262SOL    HW2 1686   1.898   5.129   2.598
  263SOL     OW 1687   6.702   2.826   5.242
  263SOL    HW1 1688   6.755   2.745   5.265
  263SOL    HW2 1689   6.605   2.809   5.258
  264SOL     OW 1690   3.110   4.021   6.745
  264SOL    HW1 1691   3.093   3.959   6.821
  264SOL    HW2 1692   3.041   4.093   6.744
  265SOL     OW 1693   4.897   5.558   4.129
  265SOL    HW1 1694   4.949   5.567   4.044
  265SOL    HW2 1695   4.807   5.600   4.119
  266SOL     OW 1696   3.708   3.067   6.807
  266SOL    HW1 1697   3.788   3.033   6.758
  266SOL    HW2 1698   3.737   3.112   6.892
  267SOL     OW 1699   2.330   1.531   6.746
  267SOL    HW1 1700   2.420   1.566   6.721
  267SOL    HW2 1701   2.328   1.513   6.844
  268SOL     OW 1702   3.238   4.869   3.729
  268SOL    HW1 1703   3.145   4.833   3.739
  268SOL    HW2 1704   3.249   4.950   3.786
  269SOL     OW 1705   2.112   1.560   4.783
  269SOL    HW1 1706   2.037   1.565   4.850
  269SOL    HW2 1707   2.125   1.466   4.755
  270SOL     OW 1708   4.888   6.732   4.493
  270SOL    HW1 1709   4.958   6.714   4.563
  270SOL    HW2 1710   4.863   6.646   4.449
  271SOL     OW 1711   1.680   1.584   0.768
  271SOL    HW1 1712   1.595   1.536   0.748
  271SOL    HW2 1713   1.666   1.683   0.760
  272SOL     OW 1714   4.277   6.092   1.549
  272SOL    HW1 1715   4.282   6.038   1.633
  272SOL    HW2 1716   4.320   6.181   1.564
  273SOL     OW 1717   2.383   6.759   4.708
  273SOL    HW1 1718   2.449   6.830   4.734
  273SOL    HW2 1719   2.336   6.726   4.790
  274SOL     OW 1720   5.788   1.616   1.034
  274SOL    HW1 1721   5.790   1.626   1.133
  274SOL    HW2 1722   5.777   1.706   0.992
  275SOL     OW 1723   6.067   5.659   5.813
  275SOL    HW1 1724   5.981   5.708   5.801
  275SOL    HW2 1725   6.119   5.701   5.887
  276SOL     OW 1726   7.010   6.577   4.465
  276SOL    HW1 1727   6.910   6.583   4.457
  276SOL    HW2 1728   0.015   6.481   4.457
  277SOL     OW 1729   4.620   2.394   5.420
  277SOL    HW1 1730   4.620   2.389   5.520
  277SOL    HW2 1731   4.543   2.451   5.389
  278SOL     OW 1732   5.879   4.005   3.481
  278SOL    HW1 1733   5.849   3.910   3.477
  278SOL    HW2 1734   5.816   4.061   3.426
  279SOL     OW 1735   6.725   3.588   3.818
  279SOL    HW1 1736   6.744   3.562   3.912
  279SOL    HW2 1737   6.811   3.591   3.766
  280SOL     OW 1738   4.303   0.966   3.735
  280SOL    HW1 1739   4.212   0.999   3.710
  280SOL    HW2 1740   4.362   0.965   3.654
  281SOL     OW 1741   5.062   6.053   5.282
  281SOL    HW1 1742   5.134   6.029   5.347
  281SOL    HW2 1743   4.972   6.030   5.321
  282SOL     OW 1744   1.437   2.780   0.494
  282SOL    HW1 1745   1.531   2.795   0.525
  282SOL    HW2 1746   1.437   2.753   0.398
  283SOL     OW 1747   5.311   3.854   4.307
  283SOL    HW1 1748   5.368   3.923   4.352
  283SOL    HW2 1749   5.282   3.787   4.375
  284SOL     OW 1750   4.904   5.907   2.591
  284SOL    HW1 1751   5.001   5.917   2.570
  284SOL    HW2 1752   4.850   5.948   2.518
  285SOL     OW 1753   3.796   0.555   5.706
  285SOL    HW1 1754   3.879   0.527   5.754
  285SOL    HW2 1755   3.783   0.653   5.717
  286SOL     OW 1756   2.390   4.998   5.341
  286SOL    HW1 1757   2.376   4.910   5.387
  286SOL    HW2 1758   2.387   5.071   5.409
  287SOL     OW 1759   3.945   6.840   6.914
  287SOL    HW1 1760   3.932   6.883   7.003
  287SOL    HW2 1761   3.878   6.767   6.901
  288SOL     OW 1762   5.033   1.920   0.238
  288SOL    HW1 1763   5.019   1.997   0.300
  288SOL    HW2 1764   5.131   1.904   0.226
  289SOL     OW 1765   5.971   5.631   4.052
  289SOL    HW1 1766   5.988   5.594   4.144
  289SOL    HW2 1767   5.992   5.561   3.984
  290SOL     OW 1768   3.679   0.871   6.221
  290SOL    HW1 1769   3.648   0.932   6.148
  290SOL    HW2 1770   3.652   0.910   6.310
  291SOL     OW 1771   4.219   0.195   5.308
  291SOL    HW1 1772   4.256   0.156   5.223
  291SOL    HW2 1773   4.205   0.293   5.296
  292SOL     OW 1774   3.557   0.272   3.721
  292SOL    HW1 1775   3.610   0.187   3.721
  292SOL    HW2 1776   3.506   0.278   3.635
  293SOL     OW 1777   5.266   6.081   2.811
  293SOL    HW1 1778   5.214   6.022   2.750
  293SOL    HW2 1779   5.272   6.173   2.772
  294SOL     OW 1780   6.673   1.294   6.675
  294SOL    HW1 1781   6.612   1.224   6.712
  294SOL    HW2 1782   6.767   1.275   6.705
  295SOL     OW 1783   1.192   0.417   4.637
  295SOL    HW1 1784   1.197   0.516   4.632
  295SOL    HW2 1785   1.282   0.380   4.658
  296SOL     OW 1786   0.456   2.308   2.325
  296SOL    HW1 1787   0.488   2.377   2.389
  296SOL    HW2 1788   0.527   2.288   2.258
  297SOL     OW 1789   5.261   3.167   3.301
  297SOL    HW1 1790   5.279   3.120   3.215
  297SOL    HW2 1791   5.180   3.127   3.345
  298SOL     OW 1792   3.881   0.781   5.864
  298SOL    HW1 1793   3.795   0.822   5.833
  298SOL    HW2 1794   3.866   0.734   5.951
  299SOL     OW 1795   0.950   0.908   6.904
  299SOL    HW1 1796   1.019   0.851   6.859
  299SOL    HW2 1797   0.948   0.887   7.002
  300SOL     OW 1798   4.541   0.175   3.465
  300SOL    HW1 1799   4.442   0.167   3.472
  300SOL    HW2 1800   4.584   0.128   3.543
  301SOL     OW 1801   6.495   5.327   6.423
  301SOL    HW1 1802   6.516   5.239   6.466
  301SOL    HW2 1803   6.543   5.334   6.335
  302SOL     OW 1804   6.808   6.101   2.659
  302SOL    HW1 1805   6.890   6.082   2.605
  302SOL    HW2 1806   6.834   6.125   2.752
  303SOL     OW 1807   5.860   6.191   3.545
  303SOL    HW1 1808   5.881   6.100   3.581
  303SOL    HW2 1809   5.861   6.257   3.620
  304SOL     OW 1810   2.619   6.147   4.454
  304SOL    HW1 1811   2.663   6.168   4.542
  304SOL    HW2 1812   2.600   6.231   4.405
  305SOL     OW 1813   0.660   2.542   1.896
  305SOL    HW1 1814   0.613   2.495   1.971
  305SOL    HW2 1815   0.759   2.541   1.913
  306SOL     OW 1816   0.180   6.550   3.265
  306SOL    HW1 1817   0.272   6.554   3.303
  306SOL    HW2 1818   0.113   6.539   3.339
  307SOL     OW 1819   3.787   3.269   4.091
  307SOL    HW1 1820   3.805   3.192   4.152
  307SOL    HW2 1821   3.858   3.275   4.021
  308SOL     OW 1822   6.547   2.164   2.878
  308SOL    HW1 1823   6.500   2.078   2.897
  308SOL    HW2 1824   6.619   2.178   2.947
  309SOL     OW 1825   2.186   5.563   6.544
  309SOL    HW1 1826   2.174   5.636   6.476
  309SOL    HW2 1827   2.113   5.496   6.533
  310SOL     OW 1828   5.805   6.293   4.938
  310SOL    HW1 1829   5.882   6.307   5.000
  310SOL    HW2 1830   5.742   6.226   4.977
  311SOL     OW 1831   1.871   5.767   1.940
  311SOL    HW1 1832   1.934   5.704   1.895
  311SOL    HW2 1833   1.923   5.832   1.996
  312SOL     OW 1834   2.955   0.251   4.011
  312SOL    HW1 1835   2.991   0.342   3.994
  312SOL    HW2 1836   3.024   0.183   3.984
  313SOL     OW 1837   2.918   3.242   2.827
  313SOL    HW1 1838   2.840   3.189   2.793
  313SOL    HW2 1839   3.000   3.214   2.778
  314SOL     OW 1840   2.821   5.365   5.873
  314SOL    HW1 1841   2.781   5.336   5.959
  314SOL    HW2 1842   2.832   5.465   5.872
  315SOL     OW 1843   5.594   0.973   4.581
  315SOL    HW1 1844   5.512   0.978   4.637
  315SOL    HW2 1845   5.655   0.902   4.616
  316SOL     OW 1846   4.096   0.876   6.116
  316SOL    HW1 1847   4.172   0.831   6.164
  316SOL    HW2 1848   4.129   0.916   6.031
  317SOL     OW 1849   0.696   2.171   1.164
  317SOL    HW1 1850   0.656   2.080   1.165
  317SOL    HW2 1851   0.787   2.168   1.206
  318SOL     OW 1852   1.019   0.468   5.451
  318SOL    HW1 1853   1.044   0.375   5.478
  318SOL    HW2 1854   1.058   0.533   5.517
  319SOL     OW 1855   6.833   0.766   3.841
  319SOL    HW1 1856   6.834   0.863   3.816
  319SOL    HW2 1857   6.910   0.720   3.797
  320SOL     OW 1858   5.775   2.145   6.815
  320SOL    HW1 1859   5.683   2.175   6.842
  320SOL    HW2 1860   5.822   2.108   6.895
  321SOL     OW 1861   5.181   2.918   0.528
  321SOL    HW1 1862   5.274   2.883   0.530
  321SOL    HW2 1863   5.142   2.915   0.620
  322SOL     OW 1864   3.214   2.659   6.746
  322SOL    HW1 1865   3.182   2.691   6.657
  322SOL    HW2 1866   3.217   2.735   6.810
  323SOL     OW 1867   1.745   3.924   2.857
  323SOL    HW1 1868   1.674   3.922   2.786
  323SOL    HW2 1869   1.784   3.832   2.868
  324SOL     OW 1870   0.293   0.120   2.790
  324SOL    HW1 1871   0.266   0.123   2.694
  324SOL    HW2 1872   0.238   0.052   2.839
  325SOL     OW 1873   0.275   4.165   0.620
  325SOL    HW1 1874   0.362   4.146   0.665
  325SOL    HW2 1875   0.207   4.098   0.649
  326SOL     OW 1876   0.780   6.388   6.927
  326SOL    HW1 1877   0.877   6.370   6.907
  326SOL    HW2 1878   0.772   6.422   7.021
  327SOL     OW 1879   4.638   5.417   4.922
  327SOL    HW1 1880   4.623   5.321   4.947
  327SOL    HW2 1881   4.625   5.474   5.003
  328SOL     OW 1882   1.243   4.803   3.245
  328SOL    HW1 1883   1.169   4.839   3.300
  328SOL    HW2 1884   1.275   4.873   3.181
  329SOL     OW 1885   3.067   3.147   1.458
  329SOL    HW1 1886   2.968   3.148   1.442
  329SOL    HW2 1887   3.106   3.067   1.411
  330SOL     OW 1888   3.284   3.482   0.647
  330SOL    HW1 1889   3.317   3.443   0.562
  330SOL    HW2 1890   3.204   3.540   0.629
  331SOL     OW 1891   5.148   4.977   4.859
  331SOL    HW1 1892   5.069   5.036   4.845
  331SOL    HW2 1893   5.228   5.033   4.879
  332SOL     OW 1894   5.538   2.454   2.749
  332SOL    HW1 1895   5.515   2.537   2.698
  332SOL    HW2 1896   5.609   2.404   2.701
  333SOL     OW 1897   3.468   0.402   4.475
  333SOL    HW1 1898   3.562   0.417   4.505
  333SOL    HW2 1899   3.461   0.420   4.377
  334SOL     OW 1900   3.732   3.676   3.414
  334SOL    HW1 1901   3.669   3.663   3.491
  334SOL    HW2 1902   3.819   3.710   3.449
  335SOL     OW 1903   4.240   1.548   1.013
  335SOL    HW1 1904   4.258   1.647   1.008
  335SOL    HW2 1905   4.306   1.500   0.957
  336SOL     OW 1906   3.126   1.894   4.627
  336SOL    HW1 1907   3.188   1.915   4.551
  336SOL    HW2 1908   3.132   1.968   4.695
  337SOL     OW 1909   0.218   0.796   5.188
  337SOL    HW1 1910   0.136   0.837   5.149
  337SOL    HW2 1911   0.193   0.715   5.240
  338SOL     OW 1912   4.534   1.761   1.153
  338SOL    HW1 1913   4.523   1.826   1.079
  338SOL    HW2 1914   4.482   1.792   1.233
  339SOL     OW 1915   3.815   5.219   6.052
  339SOL    HW1 1916   3.856   5.144   6.000
  339SOL    HW2 1917   3.859   5.225   6.141
  340SOL     OW 1918   5.462   2.263   3.995
  340SOL    HW1 1919   5.524   2.266   4.073
  340SOL    HW2 1920   5.418   2.352   3.985
  341SOL     OW 1921   0.158   6.258   3.176
  341SOL    HW1 1922   0.141   6.338   3.233
  341SOL    HW2 1923   0.203   6.286   3.091
  342SOL     OW 1924   4.625   2.031   2.412
  342SOL    HW1 1925   4.651   2.125   2.394
  342SOL    HW2 1926   4.530   2.016   2.384
  343SOL     OW 1927   6.867   6.809   1.995
  343SOL    HW1 1928   6.862   6.836   2.092
  343SOL    HW2 1929   6.837   6.713   1.986
  344SOL     OW 1930   0.098   2.343   1.143
  344SOL    HW1 1931   0.006   2.320   1.174
  344SOL    HW2 1932   0.164   2.279   1.183
  345SOL     OW 1933   6.342   2.464   4.575
  345SOL    HW1 1934   6.401   2.500   4.503
  345SOL    HW2 1935   6.342   2.528   4.653
  346SOL     OW 1936   2.314   6.426   3.860
  346SOL    HW1 1937   2.223   6.404   3.894
  346SOL    HW2 1938   2.332   6.524   3.872
  347SOL     OW 1939   2.036   4.664   0.455
  347SOL    HW1 1940   1.977   4.611   0.394
  347SOL    HW2 1941   2.098   4.602   0.504
  348SOL     OW 1942   3.859   5.421   1.392
  348SOL    HW1 1943   3.889   5.450   1.483
  348SOL    HW2 1944   3.927   5.450   1.324
  349SOL     OW 1945   5.867   4.108   1.186
  349SOL    HW1 1946   5.944   4.156   1.145
  349SOL    HW2 1947   5.782   4.152   1.159
  350SOL     OW 1948   3.315   2.266   0.100
  350SOL    HW1 1949   3.340   2.313   0.015
  350SOL    HW2 1950   3.219   2.282   0.121
  351SOL     OW 1951   3.430   4.491   1.094
  351SOL    HW1 1952   3.518   4.538   1.092
  351SOL    HW2 1953   3.423   4.437   1.177
  352SOL     OW 1954   4.580   0.593   2.709
  352SOL    HW1 1955   4.494   0.574   2.661
  352SOL    HW2 1956   4.639   0.513   2.702
  353SOL     OW 1957   1.568   0.450   0.072
  353SOL    HW1 1958   1.593   0.414   7.005
  353SOL    HW2 1959   1.647   0.446   0.133
  354SOL     OW 1960   0.453   2.381   0.480
  354SOL    HW1 1961   0.477   2.294   0.435
  354SOL    HW2 1962   0.536   2.427   0.511
  355SOL     OW 1963   0.879   2.657   3.070
  355SOL    HW1 1964   0.947   2.621   3.007
  355SOL    HW2 1965   0.914   2.650   3.164
  356SOL     OW 1966   2.154   0.951   5.605
  356SOL    HW1 1967   2.116   0.905   5.525
  356SOL    HW2 1968   2.122   0.906   5.689
  357SOL     OW 1969   5.411   6.857   4.861
  357SOL    HW1 1970   5.487   6.917   4.836
  357SOL    HW2 1971   5.342   6.909   4.911
  358SOL     OW 1972   3.372   5.737   6.626
  358SOL    HW1 1973   3.455   5.690   6.656
  358SOL    HW2 1974   3.381   5.763   6.530
  359SOL     OW 1975   1.463   1.934   2.571
  359SOL    HW1 1976   1.372   1.909   2.606
  359SOL    HW2 1977   1.454   1.977   2.482
  360SOL     OW 1978   1.501   4.355   4.197
  360SOL    HW1 1979   1.523   4.452   4.213
  360SOL    HW2 1980   1.425   4.349   4.133
  361SOL     OW 1981   6.598   1.806   2.371
  361SOL    HW1 1982   6.579   1.872   2.298
  361SOL    HW2 1983   6.636   1.722   2.331
  362SOL     OW 1984   3.758   3.775   0.919
  362SOL    HW1 1985   3.666   3.800   0.947
  362SOL    HW2 1986   3.791   3.699   0.975
  363SOL     OW 1987   5.346   5.548   1.857
  363SOL    HW1 1988   5.353   5.455   1.821
  363SOL    HW2 1989   5.266   5.594   1.817
  364SOL     OW 1990   0.860   6.905   6.584
  364SOL    HW1 1991   0.802   6.894   6.503
  364SOL    HW2 1992   0.936   6.966   6.564
  365SOL     OW 1993   5.326   1.262   3.510
  365SOL    HW1 1994   5.361   1.182   3.559
  365SOL    HW2 1995   5.226   1.257   3.505
  366SOL     OW 1996   5.838   1.747   6.439
  366SOL    HW1 1997   5.843   1.822   6.505
  366SOL    HW2 1998   5.795   1.779   6.355
  367SOL     OW 1999   5.926   1.501   6.369
  367SOL    HW1 2000   5.907   1.597   6.391
  367SOL    HW2 2001   5.944   1.450   6.453
  368SOL     OW 2002   0.492   2.485   5.654
  368SOL    HW1 2003   0.568   2.431   5.617
  368SOL    HW2 2004   0.511   2.510   5.749
  369SOL     OW 2005   6.693   3.893   1.456
  369SOL    HW1 2006   6.722   3.897   1.552
  369SOL    HW2 2007   6.766   3.928   1.398
  370SOL     OW 2008   1.378   3.006   3.952
  370SOL    HW1 2009   1.334   2.927   3.909
  370SOL    HW2 2010   1.313   3.082   3.957
  371SOL     OW 2011   0.434   4.799   6.691
  371SOL    HW1 2012   0.472   4.840   6.608
  371SOL    HW2 2013   0.446   4.862   6.768
  372SOL     OW 2014   3.816   6.289   5.974
  372SOL    HW1 2015   3.774   6.199   5.962
  372SOL    HW2 2016   3.788   6.349   5.899
  373SOL     OW 2017   6.155   5.137   3.330
  373SOL    HW1 2018   6.066   5.112   3.292
  373SOL    HW2 2019   6.166   5.094   3.419
  374SOL     OW 2020   2.453   0.751   2.639
  374SOL    HW1 2021   2.449   0.720   2.544
  374SOL    HW2 2022   2.429   0.848   2.644
  375SOL     OW 2023   0.936   5.517   4.675
  375SOL    HW1 2024   0.936   5.525   4.575
  375SOL    HW2 2025   1.003   5.581   4.713
  376SOL     OW 2026   3.343   1.022   3.620
  376SOL    HW1 2027   3.267   0.959   3.604
  376SOL    HW2 2028   3.306   1.114   3.638
  377SOL     OW 2029   1.466   2.019   0.004
  377SOL    HW1 2030   1.406   2.100   0.003
  377SOL    HW2 2031   1.561   2.048   0.019
  378SOL     OW 2032   4.506   1.579   2.240
  378SOL    HW1 2033   4.421   1.632   2.244
  378SOL    HW2 2034   4.485   1.485   2.214
  379SOL     OW 2035   5.270   1.812   5.983
  379SOL    HW1 2036   5.312   1.855   6.063
  379SOL    HW2 2037   5.222   1.729   6.012
  380SOL     OW 2038   4.376   2.725   6.991
  380SOL    HW1 2039   4.312   2.757   6.921
  380SOL    HW2 2040   4.367   2.782   0.050
  381SOL     OW 2041   1.846   4.074   3.043
  381SOL    HW1 2042   1.781   4.041   3.111
  381SOL    HW2 2043   1.832   4.024   2.957
  382SOL     OW 2044   4.998   0.852   6.434
  382SOL    HW1 2045   5.032   0.904   6.512
  382SOL    HW2 2046   4.918   0.799   6.460
  383SOL     OW 2047   5.173   2.078   0.586
  383SOL    HW1 2048   5.105   2.033   0.643
  383SOL    HW2 2049   5.127   2.127   0.511
  384SOL     OW 2050   6.032   4.009   4.841
  384SOL    HW1 2051   5.947   4.042   4.800
  384SOL    HW2 2052   6.086   4.087   4.873
  385SOL     OW 2053   4.903   3.371   0.250
  385SOL    HW1 2054   4.960   3.387   0.330
  385SOL    HW2 2055   4.904   3.274   0.227
  386SOL     OW 2056   4.078   6.119   4.231
  386SOL    HW1 2057   4.003   6.151   4.288
  386SOL    HW2 2058   4.072   6.161   4.140
  387SOL     OW 2059   2.988   6.713   3.921
  387SOL    HW1 2060   3.016   6.688   3.828
  387SOL    HW2 2061   2.890   6.697   3.931
  388SOL     OW 2062   1.465   4.301   6.422
  388SOL    HW1 2063   1.502   4.297   6.515
  388SOL    HW2 2064   1.394   4.371   6.417
  389SOL     OW 2065   3.007   3.386   2.455
  389SOL    HW1 2066   2.962   3.474   2.472
  389SOL    HW2 2067   3.002   3.363   2.358
  390SOL     OW 2068   2.247   1.501   3.860
  390SOL    HW1 2069   2.162   1.450   3.871
  390SOL    HW2 2070   2.288   1.479   3.772
  391SOL     OW 2071   0.584   2.605   6.354
  391SOL    HW1 2072   0.579   2.704   6.361
  391SOL    HW2 2073   0.517   2.563   6.415
  392SOL     OW 2074   2.854   5.568   3.390
  392SOL    HW1 2075   2.859   5.479   3.435
  392SOL    HW2 2076   2.923   5.629   3.429
  393SOL     OW 2077   6.070   4.334   5.125
  393SOL    HW1 2078   6.010   4.409   5.153
  393SOL    HW2 2079   6.151   4.371   5.079
  394SOL     OW 2080   2.432   0.173   6.840
  394SOL    HW1 2081   2.402   0.254   6.891
  394SOL    HW2 2082   2.388   0.172   6.750
  395SOL     OW 2083   6.448   3.485   1.024
  395SOL    HW1 2084   6.522   3.441   0.973
  395SOL    HW2 2085   6.364   3.482   0.971
  396SOL     OW 2086   3.516   3.047   4.668
  396SOL    HW1 2087   3.437   3.108   4.667
  396SOL    HW2 2088   3.567   3.058   4.753
  397SOL     OW 2089   4.164   2.138   6.528
  397SOL    HW1 2090   4.183   2.159   6.432
  397SOL    HW2 2091   4.075   2.094   6.536
  398SOL     OW 2092   1.497   4.625   2.458
  398SOL    HW1 2093   1.486   4.551   2.525
  398SOL    HW2 2094   1.589   4.623   2.420
  399SOL     OW 2095   5.449   5.150   2.320
  399SOL    HW1 2096   5.546   5.152   2.295
  399SOL    HW2 2097   5.432   5.069   2.376
  400SOL     OW 2098   1.458   5.137   4.969
  400SOL    HW1 2099   1.544   5.130   5.018
  400SOL    HW2 2100   1.409   5.050   4.975
  401SOL     OW 2101   5.615   1.355   6.442
  401SOL    HW1 2102   5.626   1.452   6.423
  401SOL    HW2 2103   5.617   1.340   6.541
  402SOL     OW 2104   5.946   4.939   1.442
  402SOL    HW1 2105   5.993   5.027   1.451
  402SOL    HW2 2106   5.906   4.913   1.531
  403SOL     OW 2107   5.540   3.742   6.583
  403SOL    HW1 2108   5.624   3.783   6.619
  403SOL    HW2 2109   5.462   3.776   6.635
  404SOL     OW 2110   0.470   6.760   4.654
  404SOL    HW1 2111   0.558   6.714   4.647
  404SOL    HW2 2112   0.426   6.762   4.564
  405SOL     OW 2113   1.033   2.303   0.549
  405SOL    HW1 2114   0.943   2.299   0.507
  405SOL    HW2 2115   1.042   2.230   0.616
  406SOL     OW 2116   1.198   3.164   3.369
  406SOL    HW1 2117   1.179   3.254   3.408
  406SOL    HW2 2118   1.136   3.147   3.292
  407SOL     OW 2119   2.472   1.190   3.670
  407SOL    HW1 2120   2.550   1.232   3.716
  407SOL    HW2 2121   2.434   1.253   3.602
  408SOL     OW 2122   1.773   0.247   3.093
  408SOL    HW1 2123   1.765   0.192   3.176
  408SOL    HW2 2124   1.848   0.212   3.037
  409SOL     OW 2125   6.094   3.297   3.723
  409SOL    HW1 2126   6.069   3.201   3.737
  409SOL    HW2 2127   6.161   3.304   3.650
  410SOL     OW 2128   3.028   1.355   6.502
  410SOL    HW1 2129   3.101   1.417   6.472
  410SOL    HW2 2130   2.943   1.406   6.512
  411SOL     OW 2131   6.450   4.105   4.932
  411SOL    HW1 2132   6.420   4.084   5.025
  411SOL    HW2 2133   6.505   4.030   4.897
  412SOL     OW 2134   3.445   0.148   2.556
  412SOL    HW1 2135   3.456   0.061   2.604
  412SOL    HW2 2136   3.531   0.172   2.510
  413SOL     OW 2137   2.163   0.522   1.027
  413SOL    HW1 2138   2.257   0.506   1.057
  413SOL    HW2 2139   2.146   0.620   1.018
  414SOL     OW 2140   4.338   3.970   0.378
  414SOL    HW1 2141   4.246   4.001   0.358
  414SOL    HW2 2142   4.352   3.966   0.477
  415SOL     OW 2143   3.034   6.642   1.822
  415SOL    HW1 2144   2.961   6.695   1.865
  415SOL    HW2 2145   3.049   6.676   1.729
  416SOL     OW 2146   3.826   5.632   5.638
  416SOL    HW1 2147   3.917   5.594   5.628
  416SOL    HW2 2148   3.821   5.721   5.591
  417SOL     OW 2149   4.370   6.227   1.022
  417SOL    HW1 2150   4.305   6.188   1.088
  417SOL    HW2 2151   4.373   6.326   1.032
  418SOL     OW 2152   5.671   4.524   0.907
  418SOL    HW1 2153   5.643   4.609   0.951
  418SOL    HW2 2154   5.764   4.535   0.870
  419SOL     OW 2155   6.406   6.387   1.341
  419SOL    HW1 2156   6.394   6.421   1.247
  419SOL    HW2 2157   6.448   6.296   1.338
  420SOL     OW 2158   4.087   4.111   0.064
  420SOL    HW1 2159   4.181   4.140   0.046
  420SOL    HW2 2160   4.064   4.033   0.005
  421SOL     OW 2161   1.829   6.120   6.506
  421SOL    HW1 2162   1.804   6.179   6.430
  421SOL    HW2 2163   1.928   6.125   6.521
  422SOL     OW 2164   5.938   3.283   6.908
  422SOL    HW1 2165   5.852   3.266   6.955
  422SOL    HW2 2166   6.015   3.255   6.966
  423SOL     OW 2167   0.860   2.653   6.644
  423SOL    HW1 2168   0.880   2.729   6.584
  423SOL    HW2 2169   0.892   2.568   6.602
  424SOL     OW 2170   2.196   3.906   0.014
  424SOL    HW1 2171   2.137   3.852   0.073
  424SOL    HW2 2172   2.288   3.866   0.011
  425SOL     OW 2173   2.921   0.901   0.441
  425SOL    HW1 2174   2.855   0.827   0.456
  425SOL    HW2 2175   2.871   0.984   0.415
  426SOL     OW 2176   5.591   4.030   5.429
  426SOL    HW1 2177   5.608   4.034   5.331
  426SOL    HW2 2178   5.565   3.937   5.455
  427SOL     OW 2179   5.130   3.913   0.858
  427SOL    HW1 2180   5.193   3.836   0.849
  427SOL    HW2 2181   5.037   3.878   0.875
  428SOL     OW 2182   3.709   0.765   4.738
  428SOL    HW1 2183   3.753   0.819   4.810
  428SOL    HW2 2184   3.656   0.826   4.679
  429SOL     OW 2185   1.926   4.828   6.568
  429SOL    HW1 2186   1.889   4.737   6.553
  429SOL    HW2 2187   1.988   4.827   6.647
  430SOL     OW 2188   1.304   6.627   5.216
  430SOL    HW1 2189   1.207   6.633   5.195
  430SOL    HW2 2190   1.317   6.570   5.297
  431SOL     OW 2191   3.773   1.773   0.621
  431SOL    HW1 2192   3.690   1.824   0.595
  431SOL    HW2 2193   3.777   1.764   0.721
  432SOL     OW 2194   0.264   2.135   1.226
  432SOL    HW1 2195   0.310   2.067   1.169
  432SOL    HW2 2196   0.296   2.124   1.321
  433SOL     OW 2197   3.425   6.346   5.110
  433SOL    HW1 2198   3.506   6.290   5.091
  433SOL    HW2 2199   3.369   6.352   5.028
  434SOL     OW 2200   0.250   3.618   1.303
  434SOL    HW1 2201   0.293   3.681   1.368
  434SOL    HW2 2202   0.283   3.637   1.211
  435SOL     OW 2203   3.776   4.191   0.718
  435SOL    HW1 2204   3.791   4.104   0.764
  435SOL    HW2 2205   3.790   4.180   0.620
  436SOL     OW 2206   2.393   1.196   6.780
  436SOL    HW1 2207   2.470   1.216   6.719
  436SOL    HW2 2208   2.311   1.244   6.747
  437SOL     OW 2209   6.798   6.892   0.043
  437SOL    HW1 2210   6.757   6.977   0.076
  437SOL    HW2 2211   6.734   6.816   0.059
  438SOL     OW 2212   1.741   2.930   1.948
  438SOL    HW1 2213   1.828   2.907   1.904
  438SOL    HW2 2214   1.730   2.874   2.031
  439SOL     OW 2215   6.996   4.999   3.048
  439SOL    HW1 2216   0.056   5.032   3.094
  439SOL    HW2 2217   6.926   4.979   3.116
  440SOL     OW 2218   0.961   3.251   4.033
  440SOL    HW1 2219   0.907   3.168   4.045
  440SOL    HW2 2220   1.054   3.227   4.007
  441SOL     OW 2221   0.543   1.110   3.609
  441SOL    HW1 2222   0.549   1.201   3.567
  441SOL    HW2 2223   0.499   1.047   3.545
  442SOL     OW 2224   6.973   4.148   0.261
  442SOL    HW1 2225   6.912   4.219   0.225
  442SOL    HW2 2226   0.045   4.177   0.248
  443SOL     OW 2227   0.234   4.424   5.394
  443SOL    HW1 2228   0.218   4.329   5.421
  443SOL    HW2 2229   0.323   4.431   5.348
  444SOL     OW 2230   4.330   3.382   6.274
  444SOL    HW1 2231   4.296   3.302   6.224
  444SOL    HW2 2232   4.365   3.352   6.363
  445SOL     OW 2233   2.071   4.907   3.070
  445SOL    HW1 2234   2.169   4.897   3.083
  445SOL    HW2 2235   2.027   4.924   3.159
  446SOL     OW 2236   4.857   4.615   3.775
  446SOL    HW1 2237   4.888   4.546   3.709
  446SOL    HW2 2238   4.821   4.569   3.856
  447SOL     OW 2239   6.453   5.645   0.486
  447SOL    HW1 2240   6.367   5.683   0.453
  447SOL    HW2 2241   6.461   5.550   0.455
  448SOL     OW 2242   4.682   0.241   5.416
  448SOL    HW1 2243   4.689   0.191   5.503
  448SOL    HW2 2244   4.643   0.332   5.433
  449SOL     OW 2245   5.662   0.497   4.735
  449SOL    HW1 2246   5.733   0.428   4.751
  449SOL    HW2 2247   5.638   0.541   4.822
  450SOL     OW 2248   6.694   6.168   3.815
  450SOL    HW1 2249   6.678   6.069   3.819
  450SOL    HW2 2250   6.693   6.206   3.907
  451SOL     OW 2251   0.499   2.621   3.216
  451SOL    HW1 2252   0.469   2.716   3.222
  451SOL    HW2 2253   0.553   2.598   3.298
  452SOL     OW 2254   0.183   4.836   6.536
  452SOL    HW1 2255   0.154   4.932   6.538
  452SOL    HW2 2256   0.243   4.818   6.613
  453SOL     OW 2257   2.564   0.977   5.990
  453SOL    HW1 2258   2.499   0.909   5.955
  453SOL    HW2 2259   2.600   0.946   6.079
  454SOL     OW 2260   0.969   6.393   0.141
  454SOL    HW1 2261   1.038   6.428   0.077
  454SOL    HW2 2262   0.994   6.419   0.234
  455SOL     OW 2263   5.407   0.860   5.833
  455SOL    HW1 2264   5.485   0.811   5.872
  455SOL    HW2 2265   5.323   0.811   5.855
  456SOL     OW 2266   4.299   5.507   6.274
  456SOL    HW1 2267   4.293   5.567   6.195
  456SOL    HW2 2268   4.264   5.416   6.251
  457SOL     OW 2269   1.961   5.114   2.916
  457SOL    HW1 2270   2.002   5.105   2.825
  457SOL    HW2 2271   1.999   5.044   2.976
  458SOL     OW 2272   6.857   5.451   6.187
  458SOL    HW1 2273   6.834   5.520   6.118
  458SOL    HW2 2274   6.774   5.405   6.218
  459SOL     OW 2275   1.529   0.617   2.897
  459SOL    HW1 2276   1.533   0.536   2.837
  459SOL    HW2 2277   1.561   0.592   2.988
  460SOL     OW 2278   6.185   2.225   3.426
  460SOL    HW1 2279   6.102   2.220   3.371
  460SOL    HW2 2280   6.168   2.283   3.506
  461SOL     OW 2281   4.895   6.432   5.428
  461SOL    HW1 2282   4.981   6.443   5.378
  461SOL    HW2 2283   4.820   6.469   5.374
  462SOL     OW 2284   3.067   3.199   6.575
  462SOL    HW1 2285   2.980   3.175   6.619
  462SOL    HW2 2286   3.079   3.143   6.493
  463SOL     OW 2287   6.317   5.244   2.070
  463SOL    HW1 2288   6.317   5.344   2.072
  463SOL    HW2 2289   6.252   5.209   2.138
  464SOL     OW 2290   2.400   1.265   5.383
  464SOL    HW1 2291   2.325   1.209   5.347
  464SOL    HW2 2292   2.466   1.206   5.430
  465SOL     OW 2293   6.547   2.921   4.336
  465SOL    HW1 2294   6.632   2.973   4.336
  465SOL    HW2 2295   6.561   2.832   4.294
  466SOL     OW 2296   1.425   6.945   3.627
  466SOL    HW1 2297   1.457   6.859   3.668
  466SOL    HW2 2298   1.326   6.952   3.639
  467SOL     OW 2299   1.624   0.332   5.277
  467SOL    HW1 2300   1.652   0.368   5.188
  467SOL    HW2 2301   1.549   0.386   5.314
  468SOL     OW 2302   3.394   4.767   1.276
  468SOL    HW1 2303   3.391   4.787   1.178
  468SOL    HW2 2304   3.349   4.680   1.294
  469SOL     OW 2305   2.214   5.839   0.011
  469SOL    HW1 2306   2.177   5.828   6.941
  469SOL    HW2 2307   2.171   5.918   0.055
  470SOL     OW 2308   3.650   0.226   2.384
  470SOL    HW1 2309   3.675   0.313   2.341
  470SOL    HW2 2310   3.716   0.156   2.358
  471SOL     OW 2311   2.480   2.189   5.175
  471SOL    HW1 2312   2.492   2.217   5.079
  471SOL    HW2 2313   2.550   2.232   5.231
  472SOL     OW 2314   3.711   4.642   5.664
  472SOL    HW1 2315   3.639   4.681   5.606
  472SOL    HW2 2316   3.799   4.683   5.640
  473SOL     OW 2317   1.251   3.994   2.568
  473SOL    HW1 2318   1.174   4.058   2.566
  473SOL    HW2 2319   1.216   3.901   2.563
  474SOL     OW 2320   4.139   5.285   4.416
  474SOL    HW1 2321   4.078   5.264   4.341
  474SOL    HW2 2322   4.086   5.318   4.494
  475SOL     OW 2323   0.399   6.570   6.264
  475SOL    HW1 2324   0.390   6.661   6.304
  475SOL    HW2 2325   0.368   6.501   6.329
  476SOL     OW 2326   0.214   4.468   2.592
  476SOL    HW1 2327   0.135   4.436   2.644
  476SOL    HW2 2328   0.297   4.429   2.632
  477SOL     OW 2329   1.893   5.409   3.905
  477SOL    HW1 2330   1.894   5.331   3.967
  477SOL    HW2 2331   1.970   5.470   3.927
  478SOL     OW 2332   2.458   5.049   3.534
  478SOL    HW1 2333   2.381   5.027   3.594
  478SOL    HW2 2334   2.526   4.975   3.538
  479SOL     OW 2335   3.676   2.318   0.461
  479SOL    HW1 2336   3.763   2.270   0.455
  479SOL    HW2 2337   3.678   2.383   0.537
  480SOL     OW 2338   1.051   6.840   2.672
  480SOL    HW1 2339   1.116   6.766   2.655
  480SOL    HW2 2340   1.002   6.862   2.587
  481SOL     OW 2341   4.104   7.017   1.071
  481SOL    HW1 2342   4.065   7.007   1.162
  481SOL    HW2 2343   4.172   6.946   1.055
  482SOL     OW 2344   5.417   4.180   1.967
  482SOL    HW1 2345   5.356   4.107   2.000
  482SOL    HW2 2346   5.411   4.258   2.028
  483SOL     OW 2347   5.523   1.858   1.466
  483SOL    HW1 2348   5.425   1.839   1.467
  483SOL    HW2 2349   5.553   1.874   1.372
  484SOL     OW 2350   6.685   2.353   4.691
  484SOL    HW1 2351   6.694   2.410   4.610
  484SOL    HW2 2352   6.610   2.288   4.678
  485SOL     OW 2353   3.717   4.879   2.230
  485SOL    HW1 2354   3.703   4.797   2.174
  485SOL    HW2 2355   3.675   4.957   2.186
  486SOL     OW 2356   0.671   0.657   0.667
  486SOL    HW1 2357   0.689   0.670   0.765
  486SOL    HW2 2358   0.723   0.724   0.614
  487SOL     OW 2359   0.159   2.133   6.911
  487SOL    HW1 2360   0.229   2.125   6.841
  487SOL    HW2 2361   0.201   2.121   7.001
  488SOL     OW 2362   0.166   2.287   2.580
  488SOL    HW1 2363   0.082   2.303   2.527
  488SOL    HW2 2364   0.175   2.358   2.650
  489SOL     OW 2365   3.577   5.521   6.675
  489SOL    HW1 2366   3.616   5.516   6.583
  489SOL    HW2 2367   3.650   5.541   6.741
  490SOL     OW 2368   5.651   6.457   4.687
  490SOL    HW1 2369   5.643   6.502   4.776
  490SOL    HW2 2370   5.602   6.370   4.689
  491SOL     OW 2371   0.485   2.859   2.729
  491SOL    HW1 2372   0.396   2.904   2.725
  491SOL    HW2 2373   0.526   2.857   2.638
  492SOL     OW 2374   2.112   0.345   5.569
  492SOL    HW1 2375   2.039   0.313   5.630
  492SOL    HW2 2376   2.097   0.311   5.477
  493SOL     OW 2377   6.607   4.587   5.172
  493SOL    HW1 2378   6.561   4.676   5.170
  493SOL    HW2 2379   6.695   4.595   5.125
  494SOL     OW 2380   6.765   0.467   0.911
  494SOL    HW1 2381   6.705   0.475   0.830
  494SOL    HW2 2382   6.766   0.554   0.959
  495SOL     OW 2383   4.921   4.733   1.457
  495SOL    HW1 2384   4.869   4.651   1.435
  495SOL    HW2 2385   4.937   4.737   1.556
  496SOL     OW 2386   5.817   3.325   3.340
  496SOL    HW1 2387   5.866   3.241   3.315
  496SOL    HW2 2388   5.719   3.308   3.341
  497SOL     OW 2389   3.836   0.530   4.769
  497SOL    HW1 2390   3.926   0.571   4.783
  497SOL    HW2 2391   3.767   0.602   4.759
  498SOL     OW 2392   0.932   3.236   2.707
  498SOL    HW1 2393   0.998   3.218   2.779
  498SOL    HW2 2394   0.889   3.150   2.679
  499SOL     OW 2395   3.408   1.074   5.053
  499SOL    HW1 2396   3.371   0.982   5.048
  499SOL    HW2 2397   3.354   1.135   4.994
  500SOL     OW 2398   0.951   3.959   2.597
  500SOL    HW1 2399   0.925   4.013   2.677
  500SOL    HW2 2400   0.980   4.021   2.523
  501SOL     OW 2401   1.128   3.589   6.801
  501SOL    HW1 2402   1.066   3.567   6.876
  501SOL    HW2 2403   1.076   3.628   6.725
  502SOL     OW 2404   3.714   5.161   6.826
  502SOL    HW1 2405   3.658   5.233   6.785
  502SOL    HW2 2406   3.732   5.090   6.758
  503SOL     OW 2407   5.647   5.172   5.361
  503SOL    HW1 2408   5.728   5.119   5.336
  503SOL    HW2 2409   5.631   5.164   5.459
  504SOL     OW 2410   2.147   6.148   4.608
  504SOL    HW1 2411   2.189   6.140   4.517
  504SOL    HW2 2412   2.152   6.243   4.639
  505SOL     OW 2413   4.085   0.109   5.875
  505SOL    HW1 2414   4.038   0.021   5.879
  505SOL    HW2 2415   4.107   0.139   5.968
  506SOL     OW 2416   2.168   3.902   6.328
  506SOL    HW1 2417   2.171   3.936   6.422
  506SOL    HW2 2418   2.184   3.977   6.265
  507SOL     OW 2419   3.047   1.573   3.679
  507SOL    HW1 2420   3.111   1.522   3.621
  507SOL    HW2 2421   3.089   1.659   3.708
  508SOL     OW 2422   6.859   3.949   3.726
  508SOL    HW1 2423   6.795   3.897   3.669
  508SOL    HW2 2424   6.907   3.886   3.788
  509SOL     OW 2425   4.790   1.746   1.501
  509SOL    HW1 2426   4.698   1.782   1.490
  509SOL    HW2 2427   4.786   1.647   1.517
  510SOL     OW 2428   0.398   4.250   4.587
  510SOL    HW1 2429   0.365   4.263   4.493
  510SOL    HW2 2430   0.360   4.165   4.624
  511SOL     OW 2431   0.280   0.086   0.743
  511SOL    HW1 2432   0.231   0.165   0.704
  511SOL    HW2 2433   0.304   0.022   0.669
  512SOL     OW 2434   0.607   3.596   6.150
  512SOL    HW1 2435   0.628   3.677   6.204
  512SOL    HW2 2436   0.654   3.517   6.189
  513SOL     OW 2437   6.217   6.086   4.976
  513SOL    HW1 2438   6.229   5.995   4.936
  513SOL    HW2 2439   6.263   6.154   4.919
  514SOL     OW 2440   5.711   1.726   4.047
  514SOL    HW1 2441   5.770   1.800   4.079
  514SOL    HW2 2442   5.633   1.765   3.999
  515SOL     OW 2443   2.072   6.305   6.557
  515SOL    HW1 2444   2.164   6.332   6.586
  515SOL    HW2 2445   2.013   6.293   6.637
  516SOL     OW 2446   2.172   5.002   1.952
  516SOL    HW1 2447   2.165   4.925   2.016
  516SOL    HW2 2448   2.256   5.054   1.972
  517SOL     OW 2449   4.655   0.107   0.710
  517SOL    HW1 2450   4.638   0.199   0.675
  517SOL    HW2 2451   4.740   0.107   0.763
  518SOL     OW 2452   2.733   2.493   1.191
  518SOL    HW1 2453   2.811   2.438   1.219
  518SOL    HW2 2454   2.671   2.506   1.269
  519SOL     OW 2455   0.799   6.723   0.017
  519SOL    HW1 2456   0.732   6.656   0.049
  519SOL    HW2 2457   0.879   6.722   0.077
  520SOL     OW 2458   5.538   4.568   5.402
  520SOL    HW1 2459   5.627   4.561   5.447
  520SOL    HW2 2460   5.529   4.493   5.336
  521SOL     OW 2461   6.705   1.510   0.685
  521SOL    HW1 2462   6.773   1.581   0.705
  521SOL    HW2 2463   6.751   1.427   0.653
  522SOL     OW 2464   4.116   3.532   4.378
  522SOL    HW1 2465   4.084   3.552   4.470
  522SOL    HW2 2466   4.081   3.442   4.349
  523SOL     OW 2467   6.855   6.987   4.723
  523SOL    HW1 2468   6.789   0.040   4.726
  523SOL    HW2 2469   6.899   6.978   4.813
  524SOL     OW 2470   2.762   0.496   5.502
  524SOL    HW1 2471   2.738   0.448   5.418
  524SOL    HW2 2472   2.778   0.593   5.482
  525SOL     OW 2473   2.578   3.422   6.783
  525SOL    HW1 2474   2.495   3.437   6.730
  525SOL    HW2 2475   2.649   3.383   6.724
  526SOL     OW 2476   3.405   5.843   4.631
  526SOL    HW1 2477   3.307   5.821   4.627
  526SOL    HW2 2478   3.430   5.864   4.725
  527SOL     OW 2479   0.563   1.249   6.473
  527SOL    HW1 2480   0.585   1.154   6.491
  527SOL    HW2 2481   0.543   1.295   6.560
  528SOL     OW 2482   2.537   0.826   5.424
  528SOL    HW1 2483   2.633   0.801   5.412
  528SOL    HW2 2484   2.530   0.910   5.477
  529SOL     OW 2485   0.121   5.075   3.802
  529SOL    HW1 2486   0.218   5.094   3.815
  529SOL    HW2 2487   0.110   4.985   3.758
  530SOL     OW 2488   2.326   3.002   5.398
  530SOL    HW1 2489   2.262   2.933   5.365
  530SOL    HW2 2490   2.398   3.016   5.330
  531SOL     OW 2491   0.400   0.443   1.149
  531SOL    HW1 2492   0.358   0.508   1.086
  531SOL    HW2 2493   0.377   0.350   1.121
  532SOL     OW 2494   1.502   1.037   5.569
  532SOL    HW1 2495   1.488   1.134   5.590
  532SOL    HW2 2496   1.413   0.992   5.562
  533SOL     OW 2497   5.681   0.192   4.409
  533SOL    HW1 2498   5.756   0.132   4.380
  533SOL    HW2 2499   5.717   0.284   4.427
  534SOL     OW 2500   4.291   5.371   2.225
  534SOL    HW1 2501   4.301   5.278   2.190
  534SOL    HW2 2502   4.380   5.417   2.226
  535SOL     OW 2503   0.302   3.634   3.311
  535SOL    HW1 2504   0.244   3.642   3.230
  535SOL    HW2 2505   0.249   3.655   3.392
  536SOL     OW 2506   1.286   5.457   1.258
  536SOL    HW1 2507   1.280   5.412   1.168
  536SOL    HW2 2508   1.206   5.435   1.312
  537SOL     OW 2509   2.413   6.939   2.395
  537SOL    HW1 2510   2.503   6.974   2.422
  537SOL    HW2 2511   2.356   6.929   2.477
  538SOL     OW 2512   1.125   6.110   3.585
  538SOL    HW1 2513   1.099   6.055   3.505
  538SOL    HW2 2514   1.117   6.207   3.562
  539SOL     OW 2515   1.788   4.620   1.798
  539SOL    HW1 2516   1.810   4.700   1.742
  539SOL    HW2 2517   1.857   4.608   1.869
  540SOL     OW 2518   1.040   2.045   2.279
  540SOL    HW1 2519   1.102   2.099   2.335
  540SOL    HW2 2520   0.992   1.979   2.337
  541SOL     OW 2521   3.192   5.483   5.766
  541SOL    HW1 2522   3.249   5.549   5.716
  541SOL    HW2 2523   3.140   5.428   5.701
  542SOL     OW 2524   6.004   5.282   6.620
  542SOL    HW1 2525   6.051   5.370   6.608
  542SOL    HW2 2526   5.908   5.293   6.598
  543SOL     OW 2527   0.574   5.477   0.016
  543SOL    HW1 2528   0.625   5.457   0.100
  543SOL    HW2 2529   0.601   5.413   6.967
  544SOL     OW 2530   1.427   5.294   0.821
  544SOL    HW1 2531   1.393   5.268   0.911
  544SOL    HW2 2532   1.350   5.304   0.758
  545SOL     OW 2533   3.948   1.843   3.391
  545SOL    HW1 2534   4.015   1.854   3.317
  545SOL    HW2 2535   3.912   1.933   3.417
  546SOL     OW 2536   1.148   3.896   0.076
  546SOL    HW1 2537   1.212   3.861   0.007
  546SOL    HW2 2538   1.074   3.830   0.090
  547SOL     OW 2539   2.942   2.980   0.208
  547SOL    HW1 2540   2.893   2.928   0.139
  547SOL    HW2 2541   2.881   3.048   0.249
  548SOL     OW 2542   3.651   2.906   3.617
  548SOL    HW1 2543   3.677   2.968   3.691
  548SOL    HW2 2544   3.666   2.952   3.529
  549SOL     OW 2545   6.732   3.506   1.489
  549SOL    HW1 2546   6.676   3.530   1.409
  549SOL    HW2 2547   6.677   3.516   1.572
  550SOL     OW 2548   0.686   4.090   1.987
  550SOL    HW1 2549   0.758   4.119   1.925
  550SOL    HW2 2550   0.605   4.147   1.972
  551SOL     OW 2551   6.773   2.478   0.245
  551SOL    HW1 2552   6.761   2.498   0.343
  551SOL    HW2 2553   6.690   2.433   0.211
  552SOL     OW 2554   4.131   5.955   0.058
  552SOL    HW1 2555   4.208   5.930   0.117
  552SOL    HW2 2556   4.126   5.893   7.003
  553SOL     OW 2557   1.687   1.880   1.690
  553SOL    HW1 2558   1.748   1.839   1.622
  553SOL    HW2 2559   1.735   1.886   1.778
  554SOL     OW 2560   5.410   5.965   5.524
  554SOL    HW1 2561   5.382   5.994   5.433
  554SOL    HW2 2562   5.494   6.013   5.551
  555SOL     OW 2563   1.504   4.408   4.613
  555SOL    HW1 2564   1.536   4.336   4.551
  555SOL    HW2 2565   1.503   4.496   4.565
  556SOL     OW 2566   4.949   3.316   3.885
  556SOL    HW1 2567   4.916   3.222   3.889
  556SOL    HW2 2568   4.948   3.356   3.976
  557SOL     OW 2569   0.028   6.424   6.205
  557SOL    HW1 2570   6.951   6.429   6.199
  557SOL    HW2 2571   0.062   6.503   6.257
  558SOL     OW 2572   3.865   4.035   5.066
  558SOL    HW1 2573   3.947   4.088   5.089
  558SOL    HW2 2574   3.791   4.059   5.130
  559SOL     OW 2575   6.322   5.783   6.441
  559SOL    HW1 2576   6.389   5.848   6.476
  559SOL    HW2 2577   6.322   5.701   6.497
  560SOL     OW 2578   4.117   6.537   0.251
  560SOL    HW1 2579   4.182   6.566   0.181
  560SOL    HW2 2580   4.029   6.515   0.209
  561SOL     OW 2581   5.534   6.492   0.987
  561SOL    HW1 2582   5.458   6.427   0.984
  561SOL    HW2 2583   5.524   6.552   1.066
  562SOL     OW 2584   6.059   2.058   5.700
  562SOL    HW1 2585   6.048   2.098   5.791
  562SOL    HW2 2586   6.155   2.036   5.684
  563SOL     OW 2587   3.081   6.221   3.803
  563SOL    HW1 2588   2.995   6.174   3.823
  563SOL    HW2 2589   3.110   6.199   3.710
  564SOL     OW 2590   1.183   0.995   6.293
  564SOL    HW1 2591   1.090   1.012   6.324
  564SOL    HW2 2592   1.229   0.933   6.356
  565SOL     OW 2593   4.981   4.006   5.007
  565SOL    HW1 2594   4.912   3.996   4.935
  565SOL    HW2 2595   5.065   4.044   4.968
  566SOL     OW 2596   5.282   5.007   3.044
  566SOL    HW1 2597   5.352   4.998   2.973
  566SOL    HW2 2598   5.219   5.081   3.019
  567SOL     OW 2599   3.673   2.905   4.453
  567SOL    HW1 2600   3.629   2.915   4.363
  567SOL    HW2 2601   3.607   2.927   4.524
  568SOL     OW 2602   2.115   1.672   0.093
  568SOL    HW1 2603   2.037   1.657   0.154
  568SOL    HW2 2604   2.149   1.765   0.106
  569SOL     OW 2605   2.501   2.995   0.112
  569SOL    HW1 2606   2.518   3.059   0.187
  569SOL    HW2 2607   2.424   3.029   0.057
  570SOL     OW 2608   6.656   6.171   0.981
  570SOL    HW1 2609   6.600   6.151   1.062
  570SOL    HW2 2610   6.750   6.187   1.010
  571SOL     OW 2611   4.158   5.348   3.323
  571SOL    HW1 2612   4.106   5.407   3.385
  571SOL    HW2 2613   4.256   5.361   3.339
  572SOL     OW 2614   1.629   3.764   5.029
  572SOL    HW1 2615   1.598   3.709   5.107
  572SOL    HW2 2616   1.605   3.718   4.944
  573SOL     OW 2617   3.891   2.014   6.255
  573SOL    HW1 2618   3.810   1.999   6.198
  573SOL    HW2 2619   3.881   2.098   6.307
  574SOL     OW 2620   2.278   1.699   4.064
  574SOL    HW1 2621   2.291   1.669   4.159
  574SOL    HW2 2622   2.263   1.620   4.006
  575SOL     OW 2623   5.611   2.452   6.744
  575SOL    HW1 2624   5.592   2.549   6.728
  575SOL    HW2 2625   5.578   2.399   6.666
  576SOL     OW 2626   0.394   2.146   2.650
  576SOL    HW1 2627   0.307   2.192   2.634
  576SOL    HW2 2628   0.377   2.049   2.667
  577SOL     OW 2629   2.981   1.913   3.487
  577SOL    HW1 2630   2.950   2.007   3.497
  577SOL    HW2 2631   3.042   1.906   3.408
  578SOL     OW 2632   0.035   3.572   4.011
  578SOL    HW1 2633   0.035   3.508   4.088
  578SOL    HW2 2634   6.992   3.645   4.029
  579SOL     OW 2635   4.528   3.313   0.046
  579SOL    HW1 2636   4.621   3.276   0.045
  579SOL    HW2 2637   4.493   3.309   0.140
  580SOL     OW 2638   0.877   5.696   0.243
  580SOL    HW1 2639   0.940   5.746   0.184
  580SOL    HW2 2640   0.902   5.710   0.339
  581SOL     OW 2641   3.701   3.670   2.678
  581SOL    HW1 2642   3.765   3.672   2.755
  581SOL    HW2 2643   3.719   3.588   2.622
  582SOL     OW 2644   6.153   3.728   1.977
  582SOL    HW1 2645   6.080   3.786   1.941
  582SOL    HW2 2646   6.236   3.782   1.988
  583SOL     OW 2647   1.819   5.114   6.748
  583SOL    HW1 2648   1.726   5.079   6.754
  583SOL    HW2 2649   1.853   5.135   6.840
  584SOL     OW 2650   0.311   5.217   4.465
  584SOL    HW1 2651   0.222   5.258   4.487
  584SOL    HW2 2652   0.369   5.217   4.546
  585SOL     OW 2653   0.342   1.495   6.566
  585SOL    HW1 2654   0.306   1.401   6.572
  585SOL    HW2 2655   0.321   1.543   6.652
  586SOL     OW 2656   2.711   6.407   0.617
  586SOL    HW1 2657   2.638   6.444   0.558
  586SOL    HW2 2658   2.784   6.474   0.626
  587SOL     OW 2659   1.080   3.050   5.104
  587SOL    HW1 2660   0.982   3.056   5.122
  587SOL    HW2 2661   1.125   3.133   5.137
  588SOL     OW 2662   3.200   0.042   1.474
  588SOL    HW1 2663   3.264   0.054   1.550
  588SOL    HW2 2664   3.107   0.030   1.509
  589SOL     OW 2665   4.798   5.129   2.397
  589SOL    HW1 2666   4.809   5.073   2.480
  589SOL    HW2 2667   4.787   5.225   2.423
  590SOL     OW 2668   6.802   2.280   2.036
  590SOL    HW1 2669   6.782   2.326   2.122
  590SOL    HW2 2670   6.898   2.252   2.034
  591SOL     OW 2671   3.444   6.688   2.916
  591SOL    HW1 2672   3.534   6.695   2.874
  591SOL    HW2 2673   3.439   6.603   2.968
  592SOL     OW 2674   5.424   0.977   6.921
  592SOL    HW1 2675   5.510   1.019   6.950
  592SOL    HW2 2676   5.363   1.048   6.885
  593SOL     OW 2677   5.346   1.590   3.853
  593SOL    HW1 2678   5.346   1.681   3.895
  593SOL    HW2 2679   5.402   1.592   3.770
  594SOL     OW 2680   4.777   2.786   1.366
  594SOL    HW1 2681   4.778   2.885   1.355
  594SOL    HW2 2682   4.870   2.754   1.384
  595SOL     OW 2683   3.220   6.449   3.838
  595SOL    HW1 2684   3.148   6.389   3.802
  595SOL    HW2 2685   3.207   6.541   3.799
  596SOL     OW 2686   1.206   4.678   2.933
  596SOL    HW1 2687   1.161   4.762   2.903
  596SOL    HW2 2688   1.304   4.685   2.918
  597SOL     OW 2689   3.993   1.923   5.607
  597SOL    HW1 2690   3.978   1.851   5.675
  597SOL    HW2 2691   3.970   1.889   5.516
  598SOL     OW 2692   3.238   4.211   0.960
  598SOL    HW1 2693   3.166   4.229   0.892
  598SOL    HW2 2694   3.212   4.131   1.015
  599SOL     OW 2695   6.527   6.318   2.603
  599SOL    HW1 2696   6.575   6.236   2.634
  599SOL    HW2 2697   6.588   6.397   2.613
  600SOL     OW 2698   2.492   0.401   0.576
  600SOL    HW1 2699   2.566   0.402   0.643
  600SOL    HW2 2700   2.481   0.492   0.537
  601SOL     OW 2701   2.691   4.998   3.021
  601SOL    HW1 2702   2.634   4.922   3.052
  601SOL    HW2 2703   2.746   5.031   3.098
  602SOL     OW 2704   1.428   1.078   1.383
  602SOL    HW1 2705   1.505   1.036   1.431
  602SOL    HW2 2706   1.390   1.013   1.317
  603SOL     OW 2707   3.970   2.166   3.638
  603SOL    HW1 2708   3.943   2.099   3.707
  603SOL    HW2 2709   3.915   2.153   3.555
  604SOL     OW 2710   0.371   4.214   5.733
  604SOL    HW1 2711   0.432   4.274   5.682
  604SOL    HW2 2712   0.357   4.129   5.681
  605SOL     OW 2713   5.808   0.758   4.662
  605SOL    HW1 2714   5.900   0.735   4.630
  605SOL    HW2 2715   5.761   0.675   4.693
  606SOL     OW 2716   3.725   0.125   3.046
  606SOL    HW1 2717   3.769   0.161   3.127
  606SOL    HW2 2718   3.710   0.198   2.980
  607SOL     OW 2719   4.915   0.874   4.127
  607SOL    HW1 2720   4.966   0.927   4.195
  607SOL    HW2 2721   4.834   0.835   4.169
  608SOL     OW 2722   4.684   1.470   1.470
  608SOL    HW1 2723   4.680   1.423   1.382
  608SOL    HW2 2724   4.613   1.540   1.474
  609SOL     OW 2725   3.011   3.633   4.438
  609SOL    HW1 2726   3.058   3.549   4.465
  609SOL    HW2 2727   2.954   3.666   4.514
  610SOL     OW 2728   5.262   2.313   4.652
  610SOL    HW1 2729   5.255   2.224   4.606
  610SOL    HW2 2730   5.174   2.361   4.645
  611SOL     OW 2731   0.188   0.193   1.194
  611SOL    HW1 2732   0.168   0.257   1.268
  611SOL    HW2 2733   0.232   0.111   1.230
  612SOL     OW 2734   3.420   5.589   5.324
  612SOL    HW1 2735   3.362   5.510   5.304
  612SOL    HW2 2736   3.365   5.663   5.362
  613SOL     OW 2737   3.800   2.621   6.496
  613SOL    HW1 2738   3.704   2.617   6.467
  613SOL    HW2 2739   3.841   2.706   6.462
  614SOL     OW 2740   4.949   4.489   1.135
  614SOL    HW1 2741   5.006   4.566   1.108
  614SOL    HW2 2742   4.921   4.438   1.053
  615SOL     OW 2743   6.121   6.348   1.350
  615SOL    HW1 2744   6.220   6.334   1.354
  615SOL    HW2 2745   6.093   6.354   1.254
  616SOL     OW 2746   5.985   1.106   4.931
  616SOL    HW1 2747   6.040   1.146   4.858
  616SOL    HW2 2748   6.026   1.128   5.019
  617SOL     OW 2749   0.296   5.301   5.705
  617SOL    HW1 2750   0.314   5.385   5.756
  617SOL    HW2 2751   0.224   5.249   5.751
  618SOL     OW 2752   6.572   3.837   0.774
  618SOL    HW1 2753   6.661   3.793   0.762
  618SOL    HW2 2754   6.521   3.790   0.846
  619SOL     OW 2755   2.837   0.448   6.177
  619SOL    HW1 2756   2.790   0.366   6.209
  619SOL    HW2 2757   2.788   0.485   6.098
  620SOL     OW 2758   6.153   1.635   2.395
  620SOL    HW1 2759   6.110   1.675   2.314
  620SOL    HW2 2760   6.252   1.634   2.383
  621SOL     OW 2761   2.952   0.872   6.843
  621SOL    HW1 2762   2.930   0.968   6.863
  621SOL    HW2 2763   2.889   0.837   6.774
  622SOL     OW 2764   1.147   2.017   4.869
  622SOL    HW1 2765   1.075   1.949   4.875
  622SOL    HW2 2766   1.120   2.089   4.805
  623SOL     OW 2767   5.886   0.341   3.830
  623SOL    HW1 2768   5.868   0.402   3.753
  623SOL    HW2 2769   5.960   0.278   3.806
  624SOL     OW 2770   6.692   0.434   6.503
  624SOL    HW1 2771   6.722   0.462   6.594
  624SOL    HW2 2772   6.592   0.440   6.498
  625SOL     OW 2773   2.670   1.743   0.601
  625SOL    HW1 2774   2.618   1.690   0.668
  625SOL    HW2 2775   2.672   1.839   0.628
  626SOL     OW 2776   6.863   5.843   4.059
  626SOL    HW1 2777   6.775   5.829   4.015
  626SOL    HW2 2778   6.934   5.856   3.990
  627SOL     OW 2779   6.344   0.783   0.122
  627SOL    HW1 2780   6.248   0.768   0.146
  627SOL    HW2 2781   6.387   0.842   0.190
  628SOL     OW 2782   4.003   4.561   5.981
  628SOL    HW1 2783   3.942   4.621   6.033
  628SOL    HW2 2784   4.096   4.598   5.984
  629SOL     OW 2785   1.349   6.852   6.456
  629SOL    HW1 2786   1.272   6.800   6.418
  629SOL    HW2 2787   1.314   6.921   6.520
  630SOL     OW 2788   6.418   1.356   1.356
  630SOL    HW1 2789   6.343   1.307   1.401
  630SOL    HW2 2790   6.487   1.291   1.326
  631SOL     OW 2791   1.592   2.751   4.075
  631SOL    HW1 2792   1.587   2.839   4.028
  631SOL    HW2 2793   1.519   2.745   4.143
  632SOL     OW 2794   3.245   3.642   6.775
  632SOL    HW1 2795   3.274   3.546   6.779
  632SOL    HW2 2796   3.238   3.671   6.679
  633SOL     OW 2797   1.564   6.092   1.211
  633SOL    HW1 2798   1.599   6.079   1.118
  633SOL    HW2 2799   1.556   6.002   1.256
  634SOL     OW 2800   2.949   3.277   4.691
  634SOL    HW1 2801   2.916   3.232   4.774
  634SOL    HW2 2802   2.920   3.225   4.610
  635SOL     OW 2803   5.617   0.387   6.660
  635SOL    HW1 2804   5.667   0.304   6.682
  635SOL    HW2 2805   5.538   0.365   6.602
  636SOL     OW 2806   2.603   0.315   5.675
  636SOL    HW1 2807   2.619   0.230   5.624
  636SOL    HW2 2808   2.665   0.386   5.642
  637SOL     OW 2809   6.779   0.368   2.890
  637SOL    HW1 2810   6.868   0.412   2.881
  637SOL    HW2 2811   6.773   0.290   2.828
  638SOL     OW 2812   6.958   3.536   4.707
  638SOL    HW1 2813   6.910   3.597   4.644
  638SOL    HW2 2814   0.034   3.549   4.697
  639SOL     OW 2815   5.751   4.157   2.190
  639SOL    HW1 2816   5.683   4.220   2.227
  639SOL    HW2 2817   5.722   4.127   2.099
  640SOL     OW 2818   0.390   2.517   2.136
  640SOL    HW1 2819   0.298   2.538   2.104
  640SOL    HW2 2820   0.392   2.425   2.175
  641SOL     OW 2821   2.473   5.072   4.288
  641SOL    HW1 2822   2.527   4.991   4.266
  641SOL    HW2 2823   2.449   5.070   4.386
  642SOL     OW 2824   0.894   4.100   4.741
  642SOL    HW1 2825   0.805   4.122   4.701
  642SOL    HW2 2826   0.966   4.148   4.691
  643SOL     OW 2827   4.769   5.369   0.761
  643SOL    HW1 2828   4.799   5.323   0.677
  643SOL    HW2 2829   4.692   5.429   0.740
  644SOL     OW 2830   6.781   6.930   5.368
  644SOL    HW1 2831   6.806   6.834   5.363
  644SOL    HW2 2832   6.693   6.944   5.322
  645SOL     OW 2833   3.868   5.344   2.000
  645SOL    HW1 2834   3.853   5.357   2.098
  645SOL    HW2 2835   3.961   5.373   1.977
  646SOL     OW 2836   3.748   2.143   4.308
  646SOL    HW1 2837   3.652   2.117   4.320
  646SOL    HW2 2838   3.779   2.194   4.388
  647SOL     OW 2839   3.879   2.425   5.872
  647SOL    HW1 2840   3.934   2.478   5.807
  647SOL    HW2 2841   3.873   2.330   5.840
  648SOL     OW 2842   6.210   1.489   2.840
  648SOL    HW1 2843   6.249   1.397   2.833
  648SOL    HW2 2844   6.172   1.502   2.931
  649SOL     OW 2845   2.224   5.290   0.969
  649SOL    HW1 2846   2.171   5.206   0.970
  649SOL    HW2 2847   2.252   5.313   1.062
  650SOL     OW 2848   0.380   3.889   0.817
  650SOL    HW1 2849   0.288   3.858   0.794
  650SOL    HW2 2850   0.416   3.833   0.892
  651SOL     OW 2851   1.106   0.616   4.255
  651SOL    HW1 2852   1.187   0.645   4.305
  651SOL    HW2 2853   1.120   0.525   4.217
  652SOL     OW 2854   3.774   6.658   1.970
  652SOL    HW1 2855   3.808   6.641   2.063
  652SOL    HW2 2856   3.806   6.586   1.909
  653SOL     OW 2857   1.090   0.122   2.225
  653SOL    HW1 2858   1.072   0.208   2.177
  653SOL    HW2 2859   1.076   0.135   2.323
  654SOL     OW 2860   0.459   6.732   5.111
  654SOL    HW1 2861   0.421   6.700   5.024
  654SOL    HW2 2862   0.391   6.791   5.157
  655SOL     OW 2863   0.370   4.087   1.697
  655SOL    HW1 2864   0.368   4.017   1.768
  655SOL    HW2 2865   0.305   4.062   1.624
  656SOL     OW 2866   3.721   6.337   0.140
  656SOL    HW1 2867   3.770   6.416   0.102
  656SOL    HW2 2868   3.786   6.278   0.189
  657SOL     OW 2869   3.822   3.307   2.764
  657SOL    HW1 2870   3.914   3.278   2.787
  657SOL    HW2 2871   3.824   3.366   2.684
  658SOL     OW 2872   1.651   1.454   4.974
  658SOL    HW1 2873   1.650   1.552   4.954
  658SOL    HW2 2874   1.572   1.430   5.030
  659SOL     OW 2875   1.644   5.827   6.281
  659SOL    HW1 2876   1.606   5.914   6.313
  659SOL    HW2 2877   1.585   5.752   6.311
  660SOL     OW 2878   4.787   4.811   2.959
  660SOL    HW1 2879   4.699   4.805   2.912
  660SOL    HW2 2880   4.779   4.875   3.036
  661SOL     OW 2881   4.838   4.319   4.571
  661SOL    HW1 2882   4.922   4.290   4.525
  661SOL    HW2 2883   4.762   4.315   4.506
  662SOL     OW 2884   5.155   3.372   6.548
  662SOL    HW1 2885   5.169   3.303   6.620
  662SOL    HW2 2886   5.181   3.332   6.460
  663SOL     OW 2887   6.891   4.076   6.935
  663SOL    HW1 2888   6.918   4.012   7.006
  663SOL    HW2 2889   6.799   4.111   6.954
  664SOL     OW 2890   1.761   6.677   6.425
  664SOL    HW1 2891   1.811   6.609   6.478
  664SOL    HW2 2892   1.780   6.665   6.328
  665SOL     OW 2893   3.414   4.983   1.518
  665SOL    HW1 2894   3.356   5.061   1.495
  665SOL    HW2 2895   3.392   4.907   1.457
  666SOL     OW 2896   2.909   0.626   0.698
  666SOL    HW1 2897   2.852   0.608   0.618
  666SOL    HW2 2898   2.985   0.560   0.700
  667SOL     OW 2899   1.183   3.600   3.158
  667SOL    HW1 2900   1.259   3.631   3.100
  667SOL    HW2 2901   1.212   3.600   3.253
  668SOL     OW 2902   5.424   6.979   0.731
  668SOL    HW1 2903   5.433   6.904   0.666
  668SOL    HW2 2904   5.352   6.957   0.798
  669SOL     OW 2905   2.009   6.327   2.588
  669SOL    HW1 2906   1.994   6.228   2.593
  669SOL    HW2 2907   1.922   6.374   2.605
  670SOL     OW 2908   3.439   2.990   3.074
  670SOL    HW1 2909   3.423   3.089   3.073
  670SOL    HW2 2910   3.535   2.972   3.092
  671SOL     OW 2911   1.091   0.072   6.480
  671SOL    HW1 2912   1.055   7.018   6.426
  671SOL    HW2 2913   1.160   0.120   6.428
  672SOL     OW 2914   2.547   1.787   3.668
  672SOL    HW1 2915   2.539   1.697   3.710
  672SOL    HW2 2916   2.620   1.786   3.600
  673SOL     OW 2917   5.542   6.410   0.419
  673SOL    HW1 2918   5.570   6.356   0.499
  673SOL    HW2 2919   5.613   6.477   0.397
  674SOL     OW 2920   6.718   1.899   3.446
  674SOL    HW1 2921   6.683   1.806   3.458
  674SOL    HW2 2922   6.811   1.904   3.482
  675SOL     OW 2923   6.066   1.213   4.700
  675SOL    HW1 2924   6.142   1.162   4.660
  675SOL    HW2 2925   6.000   1.237   4.629
  676SOL     OW 2926   2.097   4.574   4.461
  676SOL    HW1 2927   2.028   4.644   4.444
  676SOL    HW2 2928   2.054   4.491   4.494
  677SOL     OW 2929   4.950   6.841   1.031
  677SOL    HW1 2930   4.868   6.888   1.063
  677SOL    HW2 2931   4.982   6.777   1.101
  678SOL     OW 2932   2.243   1.125   5.916
  678SOL    HW1 2933   2.171   1.194   5.905
  678SOL    HW2 2934   2.310   1.135   5.843
  679SOL     OW 2935   5.811   6.650   2.568
  679SOL    HW1 2936   5.795   6.626   2.663
  679SOL    HW2 2937   5.901   6.617   2.540
  680SOL     OW 2938   5.425   3.992   5.074
  680SOL    HW1 2939   5.521   4.021   5.076
  680SOL    HW2 2940   5.419   3.895   5.053
  681SOL     OW 2941   1.772   6.825   2.084
  681SOL    HW1 2942   1.690   6.874   2.114
  681SOL    HW2 2943   1.815   6.875   2.009
  682SOL     OW 2944   0.935   6.441   6.627
  682SOL    HW1 2945   0.922   6.535   6.657
  682SOL    HW2 2946   0.974   6.387   6.702
  683SOL     OW 2947   5.346   1.764   0.280
  683SOL    HW1 2948   5.322   1.751   0.376
  683SOL    HW2 2949   5.434   1.720   0.262
  684SOL     OW 2950   0.020   6.097   6.424
  684SOL    HW1 2951   6.969   6.084   6.358
  684SOL    HW2 2952   7.011   6.072   6.516
  685SOL     OW 2953   5.784   1.214   5.978
  685SOL    HW1 2954   5.789   1.297   6.034
  685SOL    HW2 2955   5.832   1.230   5.892
  686SOL     OW 2956   5.502   4.716   3.190
  686SOL    HW1 2957   5.443   4.637   3.207
  686SOL    HW2 2958   5.456   4.799   3.221
  687SOL     OW 2959   5.764   2.288   4.803
  687SOL    HW1 2960   5.673   2.303   4.765
  687SOL    HW2 2961   5.823   2.366   4.780
  688SOL     OW 2962   0.652   3.331   4.763
  688SOL    HW1 2963   0.667   3.411   4.705
  688SOL    HW2 2964   0.558   3.300   4.753
  689SOL     OW 2965   6.023   4.619   5.582
  689SOL    HW1 2966   6.098   4.679   5.552
  689SOL    HW2 2967   6.021   4.615   5.682
  690SOL     OW 2968   0.479   2.972   3.798
  690SOL    HW1 2969   0.471   2.976   3.898
  690SOL    HW2 2970   0.431   2.892   3.764
  691SOL     OW 2971   0.460   3.177   6.942
  691SOL    HW1 2972   0.533   3.156   7.008
  691SOL    HW2 2973   0.374   3.193   6.991
  692SOL     OW 2974   1.793   0.134   3.355
  692SOL    HW1 2975   1.771   0.111   3.450
  692SOL    HW2 2976   1.877   0.086   3.328
  693SOL     OW 2977   6.572   0.886   2.418
  693SOL    HW1 2978   6.544   0.968   2.367
  693SOL    HW2 2979   6.665   0.860   2.390
  694SOL     OW 2980   1.323   0.397   2.298
  694SOL    HW1 2981   1.358   0.435   2.384
  694SOL    HW2 2982   1.382   0.322   2.268
  695SOL     OW 2983   4.200   5.624   6.010
  695SOL    HW1 2984   4.192   5.681   6.092
  695SOL    HW2 2985   4.110   5.585   5.988
  696SOL     OW 2986   4.648   5.524   2.542
  696SOL    HW1 2987   4.725   5.480   2.496
  696SOL    HW2 2988   4.600   5.457   2.599
  697SOL     OW 2989   1.626   3.818   4.055
  697SOL    HW1 2990   1.594   3.834   4.149
  697SOL    HW2 2991   1.592   3.891   3.996
  698SOL     OW 2992   3.738   6.724   3.630
  698SOL    HW1 2993   3.803   6.716   3.554
  698SOL    HW2 2994   3.718   6.633   3.666
  699SOL     OW 2995   1.852   4.613   0.127
  699SOL    HW1 2996   1.898   4.687   0.176
  699SOL    HW2 2997   1.843   4.637   0.031
  700SOL     OW 2998   2.195   1.148   3.946
  700SOL    HW1 2999   2.109   1.118   3.904
  700SOL    HW2 3000   2.176   1.220   4.012
  701SOL     OW 3001   0.737   4.776   5.809
  701SOL    HW1 3002   0.813   4.712   5.799
  701SOL    HW2 3003   0.740   4.818   5.900
  702SOL     OW 3004   5.356   5.377   4.788
  702SOL    HW1 3005   5.334   5.345   4.696
  702SOL    HW2 3006   5.455   5.377   4.800
  703SOL     OW 3007   4.493   3.793   0.206
  703SOL    HW1 3008   4.530   3.849   0.131
  703SOL    HW2 3009   4.436   3.850   0.265
  704SOL     OW 3010   2.395   0.224   0.969
  704SOL    HW1 3011   2.462   0.174   0.914
  704SOL    HW2 3012   2.400   0.193   1.064
  705SOL     OW 3013   6.034   2.563   3.314
  705SOL    HW1 3014   6.009   2.486   3.255
  705SOL    HW2 3015   5.959   2.583   3.377
  706SOL     OW 3016   4.348   2.023   3.939
  706SOL    HW1 3017   4.422   2.071   3.892
  706SOL    HW2 3018   4.265   2.079   3.936
  707SOL     OW 3019   5.018   1.771   1.706
  707SOL    HW1 3020   4.953   1.757   1.630
  707SOL    HW2 3021   5.008   1.864   1.740
  708SOL     OW 3022   4.098   0.785   1.722
  708SOL    HW1 3023   4.197   0.774   1.708
  708SOL    HW2 3024   4.076   0.882   1.728
  709SOL     OW 3025   1.194   5.011   6.804
  709SOL    HW1 3026   1.273   5.019   6.864
  709SOL    HW2 3027   1.161   4.916   6.805
  710SOL     OW 3028   2.889   3.648   2.452
  710SOL    HW1 3029   2.945   3.730   2.437
  710SOL    HW2 3030   2.811   3.671   2.510
  711SOL     OW 3031   0.854   0.209   4.065
  711SOL    HW1 3032   0.850   0.302   4.027
  711SOL    HW2 3033   0.832   0.143   3.993
  712SOL     OW 3034   1.429   4.032   1.664
  712SOL    HW1 3035   1.455   3.948   1.616
  712SOL    HW2 3036   1.345   4.068   1.623
  713SOL     OW 3037   4.103   3.425   3.296
  713SOL    HW1 3038   4.088   3.371   3.379
  713SOL    HW2 3039   4.115   3.363   3.218
  714SOL     OW 3040   4.840   5.199   5.412
  714SOL    HW1 3041   4.775   5.155   5.350
  714SOL    HW2 3042   4.933   5.170   5.390
  715SOL     OW 3043   4.296   0.705   6.207
  715SOL    HW1 3044   4.342   0.776   6.260
  715SOL    HW2 3045   4.363   0.654   6.154
  716SOL     OW 3046   6.764   4.851   1.987
  716SOL    HW1 3047   6.779   4.829   2.084
  716SOL    HW2 3048   6.852   4.873   1.944
  717SOL     OW 3049   6.091   3.096   0.379
  717SOL    HW1 3050   6.016   3.134   0.325
  717SOL    HW2 3051   6.130   3.018   0.331
  718SOL     OW 3052   3.390   3.396   6.265
  718SOL    HW1 3053   3.472   3.417   6.318
  718SOL    HW2 3054   3.309   3.407   6.324
  719SOL     OW 3055   5.221   4.792   0.080
  719SOL    HW1 3056   5.133   4.763   0.118
  719SOL    HW2 3057   5.269   4.847   0.149
  720SOL     OW 3058   2.212   0.316   6.203
  720SOL    HW1 3059   2.173   0.344   6.115
  720SOL    HW2 3060   2.140   0.275   6.259
  721SOL     OW 3061   1.602   6.623   5.820
  721SOL    HW1 3062   1.679   6.656   5.765
  721SOL    HW2 3063   1.517   6.665   5.788
  722SOL     OW 3064   4.752   0.240   6.129
  722SOL    HW1 3065   4.676   0.303   6.111
  722SOL    HW2 3066   4.740   0.157   6.074
  723SOL     OW 3067   1.613   3.164   2.541
  723SOL    HW1 3068   1.686   3.200   2.600
  723SOL    HW2 3069   1.653   3.118   2.463
  724SOL     OW 3070   6.695   0.904   4.632
  724SOL    HW1 3071   6.613   0.846   4.638
  724SOL    HW2 3072   6.709   0.932   4.537
  725SOL     OW 3073   2.343   5.106   0.634
  725SOL    HW1 3074   2.254   5.112   0.679
  725SOL    HW2 3075   2.370   5.010   0.628
  726SOL     OW 3076   4.141   0.140   6.377
  726SOL    HW1 3077   4.120   0.185   6.464
  726SOL    HW2 3078   4.234   0.162   6.350
  727SOL     OW 3079   2.816   5.018   4.076
  727SOL    HW1 3080   2.773   4.956   4.142
  727SOL    HW2 3081   2.776   5.002   3.986
  728SOL     OW 3082   6.709   3.490   4.819
  728SOL    HW1 3083   6.661   3.406   4.793
  728SOL    HW2 3084   6.804   3.486   4.788
  729SOL     OW 3085   2.865   0.277   1.034
  729SOL    HW1 3086   2.963   0.289   1.052
  729SOL    HW2 3087   2.840   0.182   1.054
  730SOL     OW 3088   6.075   6.948   4.723
  730SOL    HW1 3089   6.154   6.956   4.662
  730SOL    HW2 3090   6.101   6.976   4.815
  731SOL     OW 3091   5.927   3.584   3.478
  731SOL    HW1 3092   5.883   3.651   3.419
  731SOL    HW2 3093   5.953   3.504   3.424
  732SOL     OW 3094   6.848   2.897   2.619
  732SOL    HW1 3095   6.930   2.845   2.642
  732SOL    HW2 3096   6.769   2.836   2.617
  733SOL     OW 3097   4.499   4.489   3.630
  733SOL    HW1 3098   4.457   4.537   3.554
  733SOL    HW2 3099   4.512   4.392   3.606
  734SOL     OW 3100   6.865   4.739   1.117
  734SOL    HW1 3101   6.961   4.752   1.139
  734SOL    HW2 3102   6.852   4.649   1.075
  735SOL     OW 3103   1.057   4.574   6.325
  735SOL    HW1 3104   1.086   4.660   6.282
  735SOL    HW2 3105   0.962   4.582   6.354
  736SOL     OW 3106   5.848   1.345   3.180
  736SOL    HW1 3107   5.797   1.295   3.110
  736SOL    HW2 3108   5.933   1.297   3.202
  737SOL     OW 3109   5.719   3.345   0.359
  737SOL    HW1 3110   5.796   3.307   0.306
  737SOL    HW2 3111   5.742   3.437   0.390
  738SOL     OW 3112   0.367   4.213   3.769
  738SOL    HW1 3113   0.327   4.292   3.722
  738SOL    HW2 3114   0.296   4.146   3.787
  739SOL     OW 3115   4.959   5.864   6.856
  739SOL    HW1 3116   4.957   5.818   6.944
  739SOL    HW2 3117   4.904   5.947   6.860
  740SOL     OW 3118   5.811   6.467   0.924
  740SOL    HW1 3119   5.831   6.560   0.894
  740SOL    HW2 3120   5.729   6.467   0.981
  741SOL     OW 3121   2.416   1.258   3.225
  741SOL    HW1 3122   2.494   1.256   3.163
  741SOL    HW2 3123   2.340   1.207   3.185
  742SOL     OW 3124   0.986   0.555   3.081
  742SOL    HW1 3125   0.999   0.636   3.138
  742SOL    HW2 3126   1.070   0.538   3.028
  743SOL     OW 3127   1.868   3.942   4.294
  743SOL    HW1 3128   1.948   3.950   4.235
  743SOL    HW2 3129   1.809   4.023   4.283
  744SOL     OW 3130   0.527   5.937   1.181
  744SOL    HW1 3131   0.548   5.845   1.215
  744SOL    HW2 3132   0.517   6.000   1.257
  745SOL     OW 3133   1.380   5.882   2.391
  745SOL    HW1 3134   1.433   5.952   2.343
  745SOL    HW2 3135   1.419   5.867   2.482
  746SOL     OW 3136   1.935   0.463   4.547
  746SOL    HW1 3137   1.915   0.365   4.552
  746SOL    HW2 3138   2.029   0.476   4.513
  747SOL     OW 3139   5.642   4.441   2.351
  747SOL    HW1 3140   5.599   4.365   2.400
  747SOL    HW2 3141   5.738   4.449   2.377
  748SOL     OW 3142   4.252   3.154   1.634
  748SOL    HW1 3143   4.237   3.058   1.657
  748SOL    HW2 3144   4.165   3.203   1.642
  749SOL     OW 3145   0.006   1.731   5.208
  749SOL    HW1 3146   0.102   1.719   5.183
  749SOL    HW2 3147   6.994   1.647   5.249
  750SOL     OW 3148   2.289   4.076   0.639
  750SOL    HW1 3149   2.340   4.122   0.566
  750SOL    HW2 3150   2.295   4.130   0.723
  751SOL     OW 3151   4.887   0.666   0.668
  751SOL    HW1 3152   4.831   0.672   0.751
  751SOL    HW2 3153   4.869   0.746   0.611
  752SOL     OW 3154   4.968   1.861   1.987
  752SOL    HW1 3155   4.993   1.767   1.962
  752SOL    HW2 3156   4.908   1.859   2.067
  753SOL     OW 3157   2.099   2.646   3.490
  753SOL    HW1 3158   2.180   2.658   3.431
  753SOL    HW2 3159   2.066   2.552   3.481
  754SOL     OW 3160   5.069   5.443   6.936
  754SOL    HW1 3161   5.048   5.351   6.902
  754SOL    HW2 3162   5.044   5.511   6.867
  755SOL     OW 3163   0.286   6.662   1.077
  755SOL    HW1 3164   0.269   6.700   0.986
  755SOL    HW2 3165   0.331   6.731   1.133
  756SOL     OW 3166   4.037   0.440   3.682
  756SOL    HW1 3167   4.049   0.446   3.781
  756SOL    HW2 3168   3.950   0.395   3.662
  757SOL     OW 3169   0.472   0.384   3.926
  757SOL    HW1 3170   0.465   0.285   3.913
  757SOL    HW2 3171   0.383   0.421   3.953
  758SOL     OW 3172   4.364   2.585   1.160
  758SOL    HW1 3173   4.434   2.516   1.178
  758SOL    HW2 3174   4.274   2.548   1.182
  759SOL     OW 3175   1.719   1.265   0.364
  759SOL    HW1 3176   1.729   1.216   0.277
  759SOL    HW2 3177   1.708   1.362   0.346
  760SOL     OW 3178   4.631   1.502   6.182
  760SOL    HW1 3179   4.706   1.437   6.180
  760SOL    HW2 3180   4.636   1.561   6.101
  761SOL     OW 3181   6.488   2.722   6.619
  761SOL    HW1 3182   6.557   2.794   6.621
  761SOL    HW2 3183   6.479   2.681   6.710
  762SOL     OW 3184   2.248   5.882   3.368
  762SOL    HW1 3185   2.261   5.792   3.408
  762SOL    HW2 3186   2.317   5.945   3.405
  763SOL     OW 3187   5.279   5.640   6.653
  763SOL    HW1 3188   5.182   5.636   6.677
  763SOL    HW2 3189   5.292   5.604   6.560
  764SOL     OW 3190   4.360   0.858   2.057
  764SOL    HW1 3191   4.308   0.939   2.034
  764SOL    HW2 3192   4.298   0.787   2.092
  765SOL     OW 3193   0.265   0.039   3.324
  765SOL    HW1 3194   0.325   6.997   3.277
  765SOL    HW2 3195   0.219   0.098   3.257
  766SOL     OW 3196   0.146   6.545   0.057
  766SOL    HW1 3197   0.185   6.614   7.018
  766SOL    HW2 3198   0.081   6.589   0.119
  767SOL     OW 3199   5.817   6.854   2.270
  767SOL    HW1 3200   5.914   6.831   2.267
  767SOL    HW2 3201   5.776   6.840   2.180
  768SOL     OW 3202   3.152   6.476   3.472
  768SOL    HW1 3203   3.212   6.407   3.512
  768SOL    HW2 3204   3.201   6.527   3.401
  769SOL     OW 3205   3.494   1.049   5.907
  769SOL    HW1 3206   3.452   1.120   5.851
  769SOL    HW2 3207   3.574   1.087   5.954
  770SOL     OW 3208   3.509   4.907   4.144
  770SOL    HW1 3209   3.546   4.933   4.055
  770SOL    HW2 3210   3.424   4.856   4.131
  771SOL     OW 3211   0.692   5.928   3.660
  771SOL    HW1 3212   0.669   5.910   3.564
  771SOL    HW2 3213   0.704   5.841   3.708
  772SOL     OW 3214   6.651   4.443   5.652
  772SOL    HW1 3215   6.624   4.530   5.692
  772SOL    HW2 3216   6.705   4.459   5.569
  773SOL     OW 3217   0.475   4.431   2.384
  773SOL    HW1 3218   0.512   4.420   2.292
  773SOL    HW2 3219   0.400   4.365   2.397
  774SOL     OW 3220   1.424   1.077   1.844
  774SOL    HW1 3221   1.471   0.989   1.836
  774SOL    HW2 3222   1.435   1.128   1.759
  775SOL     OW 3223   1.716   2.114   4.413
  775SOL    HW1 3224   1.667   2.082   4.494
  775SOL    HW2 3225   1.802   2.064   4.403
  776SOL     OW 3226   2.215   0.682   6.131
  776SOL    HW1 3227   2.137   0.619   6.131
  776SOL    HW2 3228   2.205   0.749   6.204
  777SOL     OW 3229   4.118   0.888   0.909
  777SOL    HW1 3230   4.179   0.810   0.921
  777SOL    HW2 3231   4.162   0.956   0.850
  778SOL     OW 3232   4.226   6.857   4.152
  778SOL    HW1 3233   4.311   6.881   4.106
  778SOL    HW2 3234   4.179   6.940   4.181
  779SOL     OW 3235   0.846   1.168   2.293
  779SOL    HW1 3236   0.942   1.181   2.268
  779SOL    HW2 3237   0.827   1.070   2.298
  780SOL     OW 3238   5.175   3.213   4.980
  780SOL    HW1 3239   5.257   3.235   5.032
  780SOL    HW2 3240   5.099   3.269   5.012
  781SOL     OW 3241   0.131   1.394   5.658
  781SOL    HW1 3242   0.166   1.325   5.722
  781SOL    HW2 3243   0.032   1.403   5.669
  782SOL     OW 3244   0.690   2.930   0.782
  782SOL    HW1 3245   0.626   2.887   0.845
  782SOL    HW2 3246   0.769   2.870   0.768
  783SOL     OW 3247   3.223   4.333   0.256
  783SOL    HW1 3248   3.197   4.269   0.328
  783SOL    HW2 3249   3.143   4.354   0.200
  784SOL     OW 3250   5.005   0.449   5.004
  784SOL    HW1 3251   4.929   0.385   4.993
  784SOL    HW2 3252   5.079   0.422   4.942
  785SOL     OW 3253   6.382   2.510   3.646
  785SOL    HW1 3254   6.286   2.506   3.619
  785SOL    HW2 3255   6.435   2.449   3.587
  786SOL     OW 3256   6.724   0.145   0.166
  786SOL    HW1 3257   6.737   0.127   0.263
  786SOL    HW2 3258   6.647   0.208   0.154
  787SOL     OW 3259   3.305   1.476   6.234
  787SOL    HW1 3260   3.243   1.501   6.309
  787SOL    HW2 3261   3.354   1.558   6.203
  788SOL     OW 3262   1.135   4.185   3.930
  788SOL    HW1 3263   1.156   4.102   3.982
  788SOL    HW2 3264   1.036   4.202   3.933
  789SOL     OW 3265   5.494   3.894   1.048
  789SOL    HW1 3266   5.475   3.985   1.084
  789SOL    HW2 3267   5.553   3.901   0.967
  790SOL     OW 3268   2.812   1.533   3.537
  790SOL    HW1 3269   2.830   1.464   3.467
  790SOL    HW2 3270   2.895   1.549   3.590
  791SOL     OW 3271   3.741   1.767   4.055
  791SOL    HW1 3272   3.737   1.687   4.115
  791SOL    HW2 3273   3.669   1.831   4.080
  792SOL     OW 3274   5.894   0.300   3.426
  792SOL    HW1 3275   5.978   0.322   3.377
  792SOL    HW2 3276   5.907   0.216   3.479
  793SOL     OW 3277   6.316   0.474   6.872
  793SOL    HW1 3278   6.413   0.453   6.886
  793SOL    HW2 3279   6.264   0.451   6.954
  794SOL     OW 3280   2.313   5.385   5.258
  794SOL    HW1 3281   2.343   5.480   5.272
  794SOL    HW2 3282   2.369   5.324   5.314
  795SOL     OW 3283   4.740   4.720   5.883
  795SOL    HW1 3284   4.730   4.649   5.814
  795SOL    HW2 3285   4.790   4.683   5.962
  796SOL     OW 3286   0.647   2.067   6.253
  796SOL    HW1 3287   0.640   2.137   6.324
  796SOL    HW2 3288   0.677   1.980   6.293
  797SOL     OW 3289   5.500   2.910   4.065
  797SOL    HW1 3290   5.586   2.962   4.061
  797SOL    HW2 3291   5.442   2.946   4.137
  798SOL     OW 3292   5.981   0.916   6.047
  798SOL    HW1 3293   5.884   0.891   6.058
  798SOL    HW2 3294   6.009   0.897   5.953
  799SOL     OW 3295   6.952   3.201   3.591
  799SOL    HW1 3296   6.862   3.185   3.549
  799SOL    HW2 3297   7.017   3.135   3.555
  800SOL     OW 3298   6.488   1.634   1.940
  800SOL    HW1 3299   6.459   1.548   1.899
  800SOL    HW2 3300   6.537   1.688   1.872
  801SOL     OW 3301   0.078   2.679   3.409
  801SOL    HW1 3302   0.155   2.655   3.467
  801SOL    HW2 3303   0.077   2.778   3.393
  802SOL     OW 3304   5.773   0.896   0.845
  802SOL    HW1 3305   5.743   0.906   0.750
  802SOL    HW2 3306   5.735   0.813   0.884
  803SOL     OW 3307   0.150   6.872   5.158
  803SOL    HW1 3308   0.173   6.803   5.227
  803SOL    HW2 3309   0.137   6.960   5.203
  804SOL     OW 3310   0.017   0.432   0.891
  804SOL    HW1 3311   6.941   0.448   0.882
  804SOL    HW2 3312   0.034   0.334   0.896
  805SOL     OW 3313   2.775   3.479   6.171
  805SOL    HW1 3314   2.764   3.523   6.260
  805SOL    HW2 3315   2.742   3.541   6.099
  806SOL     OW 3316   5.387   0.714   0.998
  806SOL    HW1 3317   5.317   0.777   1.033
  806SOL    HW2 3318   5.359   0.620   1.014
  807SOL     OW 3319   1.117   6.934   3.662
  807SOL    HW1 3320   1.145   0.004   3.685
  807SOL    HW2 3321   1.039   6.937   3.600
  808SOL     OW 3322   5.055   3.531   5.300
  808SOL    HW1 3323   5.045   3.473   5.380
  808SOL    HW2 3324   5.039   3.477   5.217
  809SOL     OW 3325   0.022   4.528   5.956
  809SOL    HW1 3326   0.057   4.504   5.865
  809SOL    HW2 3327   6.955   4.485   5.969
  810SOL     OW 3328   6.200   4.500   0.121
  810SOL    HW1 3329   6.219   4.597   0.135
  810SOL    HW2 3330   6.281   4.446   0.149
  811SOL     OW 3331   5.059   5.200   4.363
  811SOL    HW1 3332   5.096   5.177   4.453
  811SOL    HW2 3333   5.002   5.282   4.370
  812SOL     OW 3334   0.308   6.931   2.401
  812SOL    HW1 3335   0.394   6.957   2.446
  812SOL    HW2 3336   0.234   6.989   2.435
  813SOL     OW 3337   5.256   5.610   2.446
  813SOL    HW1 3338   5.251   5.700   2.488
  813SOL    HW2 3339   5.280   5.541   2.515
  814SOL     OW 3340   5.209   6.237   1.472
  814SOL    HW1 3341   5.134   6.279   1.523
  814SOL    HW2 3342   5.228   6.290   1.390
  815SOL     OW 3343   0.261   2.389   0.710
  815SOL    HW1 3344   0.327   2.383   0.635
  815SOL    HW2 3345   0.309   2.380   0.797
  816SOL     OW 3346   6.063   0.443   0.856
  816SOL    HW1 3347   5.986   0.386   0.885
  816SOL    HW2 3348   6.142   0.385   0.835
  817SOL     OW 3349   1.852   2.188   3.161
  817SOL    HW1 3350   1.865   2.089   3.152
  817SOL    HW2 3351   1.755   2.210   3.152
  818SOL     OW 3352   6.744   1.835   0.874
  818SOL    HW1 3353   6.778   1.921   0.912
  818SOL    HW2 3354   6.770   1.760   0.934
  819SOL     OW 3355   0.283   4.017   4.147
  819SOL    HW1 3356   0.332   4.104   4.136
  819SOL    HW2 3357   0.205   4.016   4.085
  820SOL     OW 3358   1.064   2.869   4.416
  820SOL    HW1 3359   0.966   2.881   4.402
  820SOL    HW2 3360   1.097   2.793   4.360
  821SOL     OW 3361   1.509   3.400   0.014
  821SOL    HW1 3362   1.587   3.412   6.976
  821SOL    HW2 3363   1.476   3.489   0.045
  822SOL     OW 3364   1.556   3.545   4.796
  822SOL    HW1 3365   1.470   3.593   4.810
  822SOL    HW2 3366   1.584   3.552   4.700
  823SOL     OW 3367   3.219   3.902   0.885
  823SOL    HW1 3368   3.140   3.937   0.834
  823SOL    HW2 3369   3.196   3.813   0.924
  824SOL     OW 3370   6.162   2.259   5.916
  824SOL    HW1 3371   6.247   2.210   5.934
  824SOL    HW2 3372   6.092   2.230   5.982
  825SOL     OW 3373   1.841   4.248   2.505
  825SOL    HW1 3374   1.881   4.186   2.572
  825SOL    HW2 3375   1.823   4.337   2.548
  826SOL     OW 3376   0.320   3.863   5.956
  826SOL    HW1 3377   0.304   3.764   5.959
  826SOL    HW2 3378   0.377   3.890   6.033
  827SOL     OW 3379   4.060   6.070   6.779
  827SOL    HW1 3380   4.159   6.057   6.783
  827SOL    HW2 3381   4.027   6.105   6.867
  828SOL     OW 3382   6.124   6.698   6.190
  828SOL    HW1 3383   6.043   6.694   6.249
  828SOL    HW2 3384   6.205   6.714   6.245
  829SOL     OW 3385   3.161   3.034   4.716
  829SOL    HW1 3386   3.068   3.067   4.729
  829SOL    HW2 3387   3.174   2.950   4.770
  830SOL     OW 3388   4.349   3.828   5.276
  830SOL    HW1 3389   4.291   3.909   5.271
  830SOL    HW2 3390   4.436   3.851   5.319
  831SOL     OW 3391   6.689   0.922   5.202
  831SOL    HW1 3392   6.593   0.926   5.177
  831SOL    HW2 3393   6.734   1.007   5.174
  832SOL     OW 3394   2.532   1.561   6.073
  832SOL    HW1 3395   2.537   1.463   6.053
  832SOL    HW2 3396   2.603   1.609   6.022
  833SOL     OW 3397   0.380   0.067   6.075
  833SOL    HW1 3398   0.397   6.997   6.039
  833SOL    HW2 3399   0.460   0.099   6.125
  834SOL     OW 3400   3.327   4.501   5.393
  834SOL    HW1 3401   3.403   4.477   5.452
  834SOL    HW2 3402   3.336   4.454   5.305
  835SOL     OW 3403   4.033   0.227   3.308
  835SOL    HW1 3404   4.097   0.199   3.381
  835SOL    HW2 3405   4.054   0.176   3.225
  836SOL     OW 3406   2.615   1.257   0.172
  836SOL    HW1 3407   2.670   1.179   0.143
  836SOL    HW2 3408   2.540   1.272   0.106
  837SOL     OW 3409   4.213   0.979   5.893
  837SOL    HW1 3410   4.130   1.017   5.850
  837SOL    HW2 3411   4.282   0.963   5.823
  838SOL     OW 3412   2.308   5.060   3.298
  838SOL    HW1 3413   2.375   5.061   3.372
  838SOL    HW2 3414   2.216   5.059   3.336
  839SOL     OW 3415   2.854   1.311   2.262
  839SOL    HW1 3416   2.758   1.328   2.282
  839SOL    HW2 3417   2.879   1.361   2.179
  840SOL     OW 3418   0.909   1.540   6.619
  840SOL    HW1 3419   0.840   1.571   6.685
  840SOL    HW2 3420   0.984   1.606   6.617
  841SOL     OW 3421   0.905   3.556   6.936
  841SOL    HW1 3422   0.876   3.634   6.881
  841SOL    HW2 3423   0.840   3.481   6.925
  842SOL     OW 3424   3.591   5.222   3.788
  842SOL    HW1 3425   3.607   5.260   3.697
  842SOL    HW2 3426   3.535   5.286   3.841
  843SOL     OW 3427   6.555   2.597   1.935
  843SOL    HW1 3428   6.514   2.670   1.880
  843SOL    HW2 3429   6.497   2.578   2.014
  844SOL     OW 3430   5.441   5.308   0.482
  844SOL    HW1 3431   5.437   5.210   0.499
  844SOL    HW2 3432   5.366   5.336   0.422
  845SOL     OW 3433   0.834   4.301   5.052
  845SOL    HW1 3434   0.816   4.378   4.991
  845SOL    HW2 3435   0.795   4.218   5.012
  846SOL     OW 3436   6.024   1.939   6.873
  846SOL    HW1 3437   5.998   1.913   6.966
  846SOL    HW2 3438   6.119   1.912   6.856
  847SOL     OW 3439   4.942   3.572   2.035
  847SOL    HW1 3440   4.986   3.605   1.951
  847SOL    HW2 3441   4.945   3.472   2.036
  848SOL     OW 3442   6.272   0.348   5.774
  848SOL    HW1 3443   6.362   0.389   5.791
  848SOL    HW2 3444   6.201   0.418   5.781
  849SOL     OW 3445   0.304   5.159   4.086
  849SOL    HW1 3446   0.320   5.061   4.076
  849SOL    HW2 3447   0.206   5.178   4.077
  850SOL     OW 3448   3.839   0.141   2.674
  850SOL    HW1 3449   3.808   0.171   2.584
  850SOL    HW2 3450   3.810   0.207   2.743
  851SOL     OW 3451   0.871   0.975   6.303
  851SOL    HW1 3452   0.923   1.027   6.370
  851SOL    HW2 3453   0.892   0.877   6.312
  852SOL     OW 3454   2.228   4.374   6.760
  852SOL    HW1 3455   2.249   4.420   6.674
  852SOL    HW2 3456   2.131   4.384   6.780
  853SOL     OW 3457   1.711   3.809   1.284
  853SOL    HW1 3458   1.693   3.840   1.191
  853SOL    HW2 3459   1.663   3.870   1.349
  854SOL     OW 3460   5.566   5.091   1.785
  854SOL    HW1 3461   5.602   5.172   1.832
  854SOL    HW2 3462   5.509   5.039   1.849
  855SOL     OW 3463   5.682   6.793   1.790
  855SOL    HW1 3464   5.751   6.841   1.735
  855SOL    HW2 3465   5.593   6.802   1.746
  856SOL     OW 3466   1.504   6.966   4.930
  856SOL    HW1 3467   1.574   6.895   4.932
  856SOL    HW2 3468   1.449   6.961   5.014
  857SOL     OW 3469   0.008   3.571   2.071
  857SOL    HW1 3470   0.001   3.608   2.164
  857SOL    HW2 3471   6.939   3.555   2.035
  858SOL     OW 3472   2.980   3.924   1.248
  858SOL    HW1 3473   3.032   4.001   1.210
  858SOL    HW2 3474   3.031   3.839   1.234
  859SOL     OW 3475   6.956   4.710   6.863
  859SOL    HW1 3476   6.872   4.665   6.893
  859SOL    HW2 3477   0.012   4.652   6.886
  860SOL     OW 3478   2.052   4.588   1.462
  860SOL    HW1 3479   1.953   4.593   1.471
  860SOL    HW2 3480   2.083   4.495   1.484
  861SOL     OW 3481   3.214   5.383   5.314
  861SOL    HW1 3482   3.165   5.349   5.394
  861SOL    HW2 3483   3.249   5.306   5.262
  862SOL     OW 3484   4.503   4.503   4.168
  862SOL    HW1 3485   4.490   4.521   4.070
  862SOL    HW2 3486   4.437   4.556   4.221
  863SOL     OW 3487   5.735   0.976   1.296
  863SOL    HW1 3488   5.764   0.895   1.246
  863SOL    HW2 3489   5.780   0.978   1.385
  864SOL     OW 3490   6.112   4.522   3.037
  864SOL    HW1 3491   6.163   4.439   3.015
  864SOL    HW2 3492   6.015   4.508   3.019
  865SOL     OW 3493   1.466   0.082   4.380
  865SOL    HW1 3494   1.433   0.058   4.472
  865SOL    HW2 3495   1.554   0.128   4.388
  866SOL     OW 3496   3.676   1.689   1.321
  866SOL    HW1 3497   3.712   1.596   1.317
  866SOL    HW2 3498   3.591   1.693   1.268
  867SOL     OW 3499   1.576   2.755   5.989
  867SOL    HW1 3500   1.676   2.749   5.988
  867SOL    HW2 3501   1.542   2.761   5.895
  868SOL     OW 3502   5.239   2.586   3.042
  868SOL    HW1 3503   5.243   2.608   3.140
  868SOL    HW2 3504   5.287   2.500   3.025
  869SOL     OW 3505   6.563   4.895   2.666
  869SOL    HW1 3506   6.644   4.903   2.724
  869SOL    HW2 3507   6.590   4.860   2.576
  870SOL     OW 3508   0.160   2.642   0.766
  870SOL    HW1 3509   0.134   2.575   0.836
  870SOL    HW2 3510   0.256   2.628   0.740
  871SOL     OW 3511   6.242   3.581   0.832
  871SOL    HW1 3512   6.207   3.637   0.907
  871SOL    HW2 3513   6.280   3.641   0.761
  872SOL     OW 3514   5.588   2.759   2.663
  872SOL    HW1 3515   5.638   2.812   2.730
  872SOL    HW2 3516   5.502   2.804   2.641
  873SOL     OW 3517   4.801   6.822   5.808
  873SOL    HW1 3518   4.818   6.807   5.711
  873SOL    HW2 3519   4.832   6.742   5.860
  874SOL     OW 3520   0.108   3.673   6.174
  874SOL    HW1 3521   0.182   3.653   6.110
  874SOL    HW2 3522   0.035   3.604   6.162
  875SOL     OW 3523   6.123   4.597   6.633
  875SOL    HW1 3524   6.197   4.533   6.650
  875SOL    HW2 3525   6.149   4.687   6.669
  876SOL     OW 3526   1.265   3.362   1.844
  876SOL    HW1 3527   1.208   3.438   1.814
  876SOL    HW2 3528   1.207   3.286   1.873
  877SOL     OW 3529   5.346   6.166   0.505
  877SOL    HW1 3530   5.373   6.102   0.577
  877SOL    HW2 3531   5.383   6.134   0.417
  878SOL     OW 3532   2.775   3.581   0.452
  878SOL    HW1 3533   2.814   3.495   0.419
  878SOL    HW2 3534   2.832   3.657   0.420
  879SOL     OW 3535   4.354   1.983   2.347
  879SOL    HW1 3536   4.282   2.051   2.346
  879SOL    HW2 3537   4.315   1.892   2.330
  880SOL     OW 3538   4.035   5.665   0.802
  880SOL    HW1 3539   3.990   5.720   0.732
  880SOL    HW2 3540   4.098   5.723   0.854
  881SOL     OW 3541   4.358   5.298   4.929
  881SOL    HW1 3542   4.347   5.370   4.997
  881SOL    HW2 3543   4.357   5.338   4.837
  882SOL     OW 3544   1.026   1.345   4.408
  882SOL    HW1 3545   0.981   1.391   4.332
  882SOL    HW2 3546   1.120   1.323   4.383
  883SOL     OW 3547   2.832   4.878   6.837
  883SOL    HW1 3548   2.875   4.816   6.771
  883SOL    HW2 3549   2.809   4.827   6.920
  884SOL     OW 3550   4.606   3.894   1.440
  884SOL    HW1 3551   4.553   3.930   1.516
  884SOL    HW2 3552   4.557   3.910   1.354
  885SOL     OW 3553   4.776   6.135   6.798
  885SOL    HW1 3554   4.798   6.233   6.792
  885SOL    HW2 3555   4.753   6.113   6.893
  886SOL     OW 3556   4.861   1.352   6.152
  886SOL    HW1 3557   4.882   1.407   6.072
  886SOL    HW2 3558   4.925   1.374   6.226
  887SOL     OW 3559   5.004   0.489   6.455
  887SOL    HW1 3560   4.942   0.463   6.380
  887SOL    HW2 3561   4.952   0.532   6.528
  888SOL     OW 3562   6.180   6.355   3.482
  888SOL    HW1 3563   6.131   6.349   3.569
  888SOL    HW2 3564   6.116   6.340   3.406
  889SOL     OW 3565   1.034   6.932   4.851
  889SOL    HW1 3566   0.962   6.865   4.834
  889SOL    HW2 3567   1.082   6.952   4.766
  890SOL     OW 3568   2.454   4.865   1.988
  890SOL    HW1 3569   2.522   4.817   2.043
  890SOL    HW2 3570   2.367   4.816   1.993
  891SOL     OW 3571   5.760   3.453   6.072
  891SOL    HW1 3572   5.795   3.382   6.133
  891SOL    HW2 3573   5.826   3.468   5.999
  892SOL     OW 3574   2.553   5.385   1.935
  892SOL    HW1 3575   2.554   5.404   1.836
  892SOL    HW2 3576   2.597   5.461   1.983
  893SOL     OW 3577   2.075   0.161   0.935
  893SOL    HW1 3578   2.132   0.227   0.885
  893SOL    HW2 3579   1.989   0.205   0.962
  894SOL     OW 3580   1.308   5.730   3.327
  894SOL    HW1 3581   1.304   5.638   3.287
  894SOL    HW2 3582   1.362   5.728   3.411
  895SOL     OW 3583   1.822   0.200   4.617
  895SOL    HW1 3584   1.809   0.147   4.533
  895SOL    HW2 3585   1.736   0.205   4.668
  896SOL     OW 3586   5.438   6.910   3.598
  896SOL    HW1 3587   5.535   6.906   3.623
  896SOL    HW2 3588   5.418   7.000   3.558
  897SOL     OW 3589   5.097   2.698   6.123
  897SOL    HW1 3590   5.116   2.782   6.072
  897SOL    HW2 3591   5.010   2.707   6.171
  898SOL     OW 3592   6.312   6.517   4.156
  898SOL    HW1 3593   6.338   6.610   4.183
  898SOL    HW2 3594   6.388   6.474   4.107
  899SOL     OW 3595   0.749   4.623   6.629
  899SOL    HW1 3596   0.746   4.526   6.654
  899SOL    HW2 3597   0.656   4.660   6.628
  900SOL     OW 3598   0.737   6.310   3.754
  900SOL    HW1 3599   0.662   6.342   3.812
  900SOL    HW2 3600   0.700   6.254   3.681
  901SOL     OW 3601   5.513   2.766   3.674
  901SOL    HW1 3602   5.546   2.689   3.619
  901SOL    HW2 3603   5.586   2.835   3.681
  902SOL     OW 3604   6.925   6.118   6.931
  902SOL    HW1 3605   6.926   6.218   6.930
  902SOL    HW2 3606   6.989   6.084   7.000
  903SOL     OW 3607   0.469   4.697   0.162
  903SOL    HW1 3608   0.518   4.753   0.228
  903SOL    HW2 3609   0.534   4.641   0.110
  904SOL     OW 3610   1.874   1.511   3.575
  904SOL    HW1 3611   1.820   1.595   3.581
  904SOL    HW2 3612   1.866   1.460   3.660
  905SOL     OW 3613   5.945   1.961   5.475
  905SOL    HW1 3614   5.855   1.997   5.449
  905SOL    HW2 3615   5.972   2.000   5.563
  906SOL     OW 3616   6.121   3.938   5.378
  906SOL    HW1 3617   6.032   3.899   5.357
  906SOL    HW2 3618   6.113   4.037   5.387
  907SOL     OW 3619   6.913   3.314   1.406
  907SOL    HW1 3620   6.972   3.295   1.484
  907SOL    HW2 3621   6.837   3.373   1.435
  908SOL     OW 3622   1.322   0.956   3.099
  908SOL    HW1 3623   1.309   0.903   3.016
  908SOL    HW2 3624   1.281   0.908   3.177
  909SOL     OW 3625   4.058   0.326   0.805
  909SOL    HW1 3626   4.044   0.229   0.824
  909SOL    HW2 3627   3.970   0.374   0.813
  910SOL     OW 3628   2.085   1.950   1.687
  910SOL    HW1 3629   2.107   1.855   1.662
  910SOL    HW2 3630   2.124   2.012   1.619
  911SOL     OW 3631   0.495   4.376   0.900
  911SOL    HW1 3632   0.503   4.307   0.828
  911SOL    HW2 3633   0.560   4.356   0.973
  912SOL     OW 3634   0.802   0.628   5.951
  912SOL    HW1 3635   0.748   0.697   5.999
  912SOL    HW2 3636   0.771   0.619   5.857
  913SOL     OW 3637   2.350   1.440   1.612
  913SOL    HW1 3638   2.335   1.341   1.611
  913SOL    HW2 3639   2.419   1.461   1.681
  914SOL     OW 3640   2.860   6.712   3.399
  914SOL    HW1 3641   2.791   6.688   3.331
  914SOL    HW2 3642   2.950   6.719   3.356
  915SOL     OW 3643   1.269   2.053   6.680
  915SOL    HW1 3644   1.359   2.097   6.671
  915SOL    HW2 3645   1.258   2.019   6.774
  916SOL     OW 3646   1.436   3.632   2.878
  916SOL    HW1 3647   1.468   3.726   2.874
  916SOL    HW2 3648   1.385   3.611   2.795
  917SOL     OW 3649   3.541   2.502   6.408
  917SOL    HW1 3650   3.471   2.451   6.457
  917SOL    HW2 3651   3.498   2.573   6.352
  918SOL     OW 3652   1.545   0.724   5.433
  918SOL    HW1 3653   1.593   0.754   5.351
  918SOL    HW2 3654   1.588   0.764   5.514
  919SOL     OW 3655   2.156   6.994   1.152
  919SOL    HW1 3656   2.105   0.009   1.228
  919SOL    HW2 3657   2.137   0.024   1.069
  920SOL     OW 3658   2.012   0.678   4.035
  920SOL    HW1 3659   1.928   0.689   4.088
  920SOL    HW2 3660   2.065   0.763   4.038
  921SOL     OW 3661   5.044   5.030   6.607
  921SOL    HW1 3662   5.101   5.011   6.527
  921SOL    HW2 3663   4.948   5.032   6.581
  922SOL     OW 3664   1.993   3.691   6.298
  922SOL    HW1 3665   1.989   3.677   6.199
  922SOL    HW2 3666   2.065   3.758   6.318
  923SOL     OW 3667   4.164   1.057   6.809
  923SOL    HW1 3668   4.074   1.092   6.786
  923SOL    HW2 3669   4.154   0.975   6.866
  924SOL     OW 3670   6.578   3.732   3.113
  924SOL    HW1 3671   6.485   3.713   3.143
  924SOL    HW2 3672   6.598   3.829   3.127
  925SOL     OW 3673   5.891   2.223   2.954
  925SOL    HW1 3674   5.902   2.322   2.955
  925SOL    HW2 3675   5.811   2.197   3.009
  926SOL     OW 3676   5.571   6.304   0.672
  926SOL    HW1 3677   5.531   6.313   0.764
  926SOL    HW2 3678   5.590   6.208   0.653
  927SOL     OW 3679   4.531   4.838   4.560
  927SOL    HW1 3680   4.523   4.743   4.592
  927SOL    HW2 3681   4.441   4.880   4.559
  928SOL     OW 3682   0.707   1.414   1.167
  928SOL    HW1 3683   0.666   1.446   1.082
  928SOL    HW2 3684   0.766   1.335   1.149
  929SOL     OW 3685   0.606   2.413   2.733
  929SOL    HW1 3686   0.587   2.336   2.794
  929SOL    HW2 3687   0.541   2.487   2.751
  930SOL     OW 3688   4.786   5.734   3.086
  930SOL    HW1 3689   4.830   5.813   3.044
  930SOL    HW2 3690   4.778   5.660   3.018
  931SOL     OW 3691   1.885   2.829   2.588
  931SOL    HW1 3692   1.900   2.919   2.547
  931SOL    HW2 3693   1.947   2.763   2.546
  932SOL     OW 3694   4.661   6.338   1.088
  932SOL    HW1 3695   4.573   6.331   1.042
  932SOL    HW2 3696   4.664   6.421   1.144
  933SOL     OW 3697   1.741   6.168   3.771
  933SOL    HW1 3698   1.836   6.173   3.802
  933SOL    HW2 3699   1.680   6.195   3.845
  934SOL     OW 3700   3.091   1.117   5.694
  934SOL    HW1 3701   3.073   1.052   5.768
  934SOL    HW2 3702   3.040   1.201   5.710
  935SOL     OW 3703   2.607   3.054   6.224
  935SOL    HW1 3704   2.686   3.116   6.225
  935SOL    HW2 3705   2.542   3.082   6.295
  936SOL     OW 3706   0.154   1.843   1.833
  936SOL    HW1 3707   0.073   1.900   1.817
  936SOL    HW2 3708   0.217   1.891   1.894
  937SOL     OW 3709   5.025   2.301   3.872
  937SOL    HW1 3710   4.949   2.239   3.893
  937SOL    HW2 3711   5.018   2.383   3.930
  938SOL     OW 3712   6.783   2.137   0.167
  938SOL    HW1 3713   6.879   2.125   0.190
  938SOL    HW2 3714   6.775   2.186   0.081
  939SOL     OW 3715   6.285   1.028   6.028
  939SOL    HW1 3716   6.333   0.947   5.993
  939SOL    HW2 3717   6.351   1.103   6.037
  940SOL     OW 3718   0.404   0.761   4.348
  940SOL    HW1 3719   0.372   0.742   4.441
  940SOL    HW2 3720   0.484   0.820   4.352
  941SOL     OW 3721   5.393   2.841   5.352
  941SOL    HW1 3722   5.401   2.797   5.262
  941SOL    HW2 3723   5.305   2.889   5.358
  942SOL     OW 3724   5.192   0.093   5.377
  942SOL    HW1 3725   5.148   0.125   5.461
  942SOL    HW2 3726   5.128   0.102   5.300
  943SOL     OW 3727   5.898   1.973   0.171
  943SOL    HW1 3728   5.874   1.877   0.161
  943SOL    HW2 3729   5.988   1.981   0.215
  944SOL     OW 3730   5.835   4.303   4.986
  944SOL    HW1 3731   5.922   4.318   5.032
  944SOL    HW2 3732   5.850   4.292   4.888
  945SOL     OW 3733   5.641   3.802   5.200
  945SOL    HW1 3734   5.631   3.787   5.101
  945SOL    HW2 3735   5.602   3.724   5.249
  946SOL     OW 3736   5.942   2.979   5.969
  946SOL    HW1 3737   5.984   2.937   5.888
  946SOL    HW2 3738   5.948   2.916   6.046
  947SOL     OW 3739   1.204   2.811   5.512
  947SOL    HW1 3740   1.211   2.910   5.508
  947SOL    HW2 3741   1.282   2.770   5.464
  948SOL     OW 3742   3.973   1.942   0.502
  948SOL    HW1 3743   3.935   2.030   0.474
  948SOL    HW2 3744   3.900   1.882   0.533
  949SOL     OW 3745   6.087   5.533   6.568
  949SOL    HW1 3746   6.183   5.515   6.547
  949SOL    HW2 3747   6.039   5.557   6.483
  950SOL     OW 3748   4.538   5.121   0.800
  950SOL    HW1 3749   4.556   5.169   0.886
  950SOL    HW2 3750   4.505   5.187   0.732
  951SOL     OW 3751   1.034   2.631   3.326
  951SOL    HW1 3752   1.074   2.723   3.318
  951SOL    HW2 3753   1.102   2.563   3.296
  952SOL     OW 3754   5.171   1.206   1.611
  952SOL    HW1 3755   5.235   1.259   1.668
  952SOL    HW2 3756   5.107   1.157   1.670
  953SOL     OW 3757   3.537   6.816   6.335
  953SOL    HW1 3758   3.574   6.899   6.294
  953SOL    HW2 3759   3.437   6.820   6.332
  954SOL     OW 3760   0.585   6.643   1.003
  954SOL    HW1 3761   0.542   6.568   1.054
  954SOL    HW2 3762   0.551   6.730   1.037
  955SOL     OW 3763   6.454   6.733   2.418
  955SOL    HW1 3764   6.472   6.773   2.329
  955SOL    HW2 3765   6.392   6.656   2.408
  956SOL     OW 3766   0.667   2.395   0.042
  956SOL    HW1 3767   0.701   2.476   0.089
  956SOL    HW2 3768   0.570   2.407   0.021
  957SOL     OW 3769   2.504   6.274   5.528
  957SOL    HW1 3770   2.429   6.225   5.572
  957SOL    HW2 3771   2.536   6.222   5.449
  958SOL     OW 3772   4.879   2.530   0.290
  958SOL    HW1 3773   4.814   2.466   0.334
  958SOL    HW2 3774   4.947   2.558   0.357
  959SOL     OW 3775   1.462   4.105   2.423
  959SOL    HW1 3776   1.388   4.080   2.485
  959SOL    HW2 3777   1.545   4.054   2.446
  960SOL     OW 3778   1.659   5.869   5.333
  960SOL    HW1 3779   1.680   5.771   5.342
  960SOL    HW2 3780   1.682   5.916   5.418
  961SOL     OW 3781   3.531   0.105   1.463
  961SOL    HW1 3782   3.463   0.066   1.525
  961SOL    HW2 3783   3.585   0.174   1.511
  962SOL     OW 3784   1.784   6.520   3.931
  962SOL    HW1 3785   1.793   6.577   3.849
  962SOL    HW2 3786   1.837   6.561   4.006
  963SOL     OW 3787   6.090   0.603   2.097
  963SOL    HW1 3788   6.072   0.596   1.999
  963SOL    HW2 3789   6.143   0.523   2.127
  964SOL     OW 3790   4.898   3.759   0.946
  964SOL    HW1 3791   4.831   3.792   1.012
  964SOL    HW2 3792   4.986   3.745   0.991
  965SOL     OW 3793   1.212   2.377   1.040
  965SOL    HW1 3794   1.114   2.390   1.031
  965SOL    HW2 3795   1.258   2.466   1.034
  966SOL     OW 3796   6.978   2.039   1.907
  966SOL    HW1 3797   6.934   1.994   1.985
  966SOL    HW2 3798   6.999   2.134   1.931
  967SOL     OW 3799   0.830   5.773   2.479
  967SOL    HW1 3800   0.785   5.845   2.427
  967SOL    HW2 3801   0.849   5.806   2.572
  968SOL     OW 3802   6.621   4.257   2.242
  968SOL    HW1 3803   6.666   4.341   2.211
  968SOL    HW2 3804   6.688   4.183   2.248
  969SOL     OW 3805   4.225   6.192   6.426
  969SOL    HW1 3806   4.295   6.165   6.359
  969SOL    HW2 3807   4.135   6.164   6.392
  970SOL     OW 3808   4.279   2.313   5.399
  970SOL    HW1 3809   4.326   2.225   5.402
  970SOL    HW2 3810   4.342   2.384   5.365
  971SOL     OW 3811   0.614   2.436   1.524
  971SOL    HW1 3812   0.629   2.534   1.540
  971SOL    HW2 3813   0.516   2.418   1.516
  972SOL     OW 3814   6.927   5.981   1.623
  972SOL    HW1 3815   6.920   6.075   1.656
  972SOL    HW2 3816   6.954   5.921   1.698
  973SOL     OW 3817   6.087   4.133   5.681
  973SOL    HW1 3818   6.171   4.080   5.689
  973SOL    HW2 3819   6.068   4.151   5.585
  974SOL     OW 3820   2.741   1.520   4.064
  974SOL    HW1 3821   2.671   1.449   4.071
  974SOL    HW2 3822   2.826   1.480   4.028
  975SOL     OW 3823   3.992   6.905   5.543
  975SOL    HW1 3824   4.045   6.861   5.615
  975SOL    HW2 3825   3.966   6.837   5.475
  976SOL     OW 3826   0.180   6.039   3.615
  976SOL    HW1 3827   0.208   6.002   3.703
  976SOL    HW2 3828   0.103   6.101   3.627
  977SOL     OW 3829   1.341   2.556   3.030
  977SOL    HW1 3830   1.409   2.527   2.963
  977SOL    HW2 3831   1.333   2.656   3.028
  978SOL     OW 3832   5.864   3.471   4.607
  978SOL    HW1 3833   5.930   3.397   4.591
  978SOL    HW2 3834   5.912   3.558   4.610
  979SOL     OW 3835   5.632   0.918   3.478
  979SOL    HW1 3836   5.648   0.978   3.400
  979SOL    HW2 3837   5.618   0.973   3.560
  980SOL     OW 3838   6.491   0.712   4.646
  980SOL    HW1 3839   6.474   0.740   4.740
  980SOL    HW2 3840   6.413   0.735   4.589
  981SOL     OW 3841   7.021   3.350   5.316
  981SOL    HW1 3842   0.018   3.446   5.335
  981SOL    HW2 3843   0.008   3.297   5.400
  982SOL     OW 3844   1.632   2.969   1.707
  982SOL    HW1 3845   1.634   2.891   1.645
  982SOL    HW2 3846   1.639   2.937   1.801
  983SOL     OW 3847   5.459   1.738   2.946
  983SOL    HW1 3848   5.446   1.681   3.027
  983SOL    HW2 3849   5.431   1.686   2.865
  984SOL     OW 3850   4.805   1.154   4.585
  984SOL    HW1 3851   4.802   1.214   4.505
  984SOL    HW2 3852   4.852   1.069   4.562
  985SOL     OW 3853   3.179   4.660   0.245
  985SOL    HW1 3854   3.200   4.612   0.160
  985SOL    HW2 3855   3.257   4.716   0.272
  986SOL     OW 3856   4.301   5.070   6.397
  986SOL    HW1 3857   4.398   5.097   6.392
  986SOL    HW2 3858   4.271   5.072   6.492
  987SOL     OW 3859   3.209   6.903   2.452
  987SOL    HW1 3860   3.216   6.814   2.407
  987SOL    HW2 3861   3.282   6.912   2.520
  988SOL     OW 3862   3.482   4.044   1.868
  988SOL    HW1 3863   3.484   4.130   1.816
  988SOL    HW2 3864   3.469   4.064   1.965
  989SOL     OW 3865   0.972   0.164   4.971
  989SOL    HW1 3866   0.895   0.154   5.034
  989SOL    HW2 3867   0.984   0.080   4.918
  990SOL     OW 3868   4.587   6.246   3.709
  990SOL    HW1 3869   4.555   6.190   3.633
  990SOL    HW2 3870   4.552   6.210   3.795
  991SOL     OW 3871   6.544   1.237   5.172
  991SOL    HW1 3872   6.536   1.336   5.157
  991SOL    HW2 3873   6.631   1.218   5.218
  992SOL     OW 3874   0.469   3.125   0.589
  992SOL    HW1 3875   0.482   3.135   0.687
  992SOL    HW2 3876   0.485   3.030   0.562
  993SOL     OW 3877   3.611   4.981   3.885
  993SOL    HW1 3878   3.620   5.075   3.852
  993SOL    HW2 3879   3.590   4.921   3.807
  994SOL     OW 3880   3.037   3.853   2.343
  994SOL    HW1 3881   3.133   3.831   2.328
  994SOL    HW2 3882   3.023   3.951   2.335
  995SOL     OW 3883   0.724   1.245   5.308
  995SOL    HW1 3884   0.805   1.282   5.262
  995SOL    HW2 3885   0.642   1.271   5.258
  996SOL     OW 3886   1.365   3.667   2.058
  996SOL    HW1 3887   1.337   3.718   1.976
  996SOL    HW2 3888   1.296   3.598   2.080
  997SOL     OW 3889   6.471   1.113   1.561
  997SOL    HW1 3890   6.552   1.150   1.516
  997SOL    HW2 3891   6.438   1.179   1.629
  998SOL     OW 3892   4.985   0.462   3.241
  998SOL    HW1 3893   4.984   0.540   3.304
  998SOL    HW2 3894   5.018   0.381   3.290
  999SOL     OW 3895   0.156   5.707   1.130
  999SOL    HW1 3896   0.232   5.645   1.151
  999SOL    HW2 3897   0.103   5.671   1.054
 1000SOL     OW 3898   4.241   1.853   4.147
 1000SOL    HW1 3899   4.143   1.875   4.138
 1000SOL    HW2 3900   4.288   1.878   4.063
 1001SOL     OW 3901   4.379   0.195   5.967
 1001SOL    HW1 3902   4.363   0.190   5.869
 1001SOL    HW2 3903   4.401   0.104   6.003
 1002SOL     OW 3904   6.748   1.832   0.363
 1002SOL    HW1 3905   6.778   1.868   0.452
 1002SOL    HW2 3906   6.734   1.733   0.371
 1003SOL     OW 3907   4.399   4.953   2.350
 1003SOL    HW1 3908   4.368   4.950   2.445
 1003SOL    HW2 3909   4.360   4.876   2.299
 1004SOL     OW 3910   5.904   5.454   0.327
 1004SOL    HW1 3911   5.978   5.407   0.375
 1004SOL    HW2 3912   5.876   5.534   0.380
 1005SOL     OW 3913   6.587   6.211   3.569
 1005SOL    HW1 3914   6.646   6.189   3.646
 1005SOL    HW2 3915   6.605   6.305   3.538
 1006SOL     OW 3916   2.292   4.251   1.165
 1006SOL    HW1 3917   2.301   4.311   1.245
 1006SOL    HW2 3918   2.374   4.194   1.158
 1007SOL     OW 3919   0.598   0.474   3.389
 1007SOL    HW1 3920   0.646   0.561   3.384
 1007SOL    HW2 3921   0.585   0.448   3.485
 1008SOL     OW 3922   2.291   2.888   3.346
 1008SOL    HW1 3923   2.270   2.976   3.302
 1008SOL    HW2 3924   2.296   2.901   3.445
 1009SOL     OW 3925   1.392   5.619   4.966
 1009SOL    HW1 3926   1.315   5.588   5.022
 1009SOL    HW2 3927   1.441   5.539   4.931
 1010SOL     OW 3928   4.833   1.260   6.548
 1010SOL    HW1 3929   4.810   1.217   6.461
 1010SOL    HW2 3930   4.833   1.191   6.620
 1011SOL     OW 3931   3.573   5.897   3.686
 1011SOL    HW1 3932   3.580   5.932   3.593
 1011SOL    HW2 3933   3.480   5.911   3.720
 1012SOL     OW 3934   4.854   5.588   0.259
 1012SOL    HW1 3935   4.907   5.503   0.251
 1012SOL    HW2 3936   4.849   5.614   0.356
 1013SOL     OW 3937   0.435   1.334   1.311
 1013SOL    HW1 3938   0.531   1.361   1.317
 1013SOL    HW2 3939   0.383   1.380   1.383
 1014SOL     OW 3940   5.257   0.458   6.319
 1014SOL    HW1 3941   5.164   0.452   6.355
 1014SOL    HW2 3942   5.299   0.543   6.351
 1015SOL     OW 3943   3.103   6.260   4.304
 1015SOL    HW1 3944   3.125   6.186   4.367
 1015SOL    HW2 3945   3.168   6.261   4.229
 1016SOL     OW 3946   4.411   2.961   1.312
 1016SOL    HW1 3947   4.447   2.910   1.234
 1016SOL    HW2 3948   4.429   2.910   1.396
 1017SOL     OW 3949   4.574   1.789   6.677
 1017SOL    HW1 3950   4.567   1.886   6.653
 1017SOL    HW2 3951   4.583   1.735   6.594
 1018SOL     OW 3952   1.786   3.416   2.478
 1018SOL    HW1 3953   1.736   3.420   2.392
 1018SOL    HW2 3954   1.861   3.350   2.470
 1019SOL     OW 3955   6.157   0.751   0.426
 1019SOL    HW1 3956   6.128   0.671   0.478
 1019SOL    HW2 3957   6.085   0.821   0.429
 1020SOL     OW 3958   2.967   1.858   1.577
 1020SOL    HW1 3959   3.061   1.827   1.567
 1020SOL    HW2 3960   2.939   1.906   1.493
 1021SOL     OW 3961   6.791   1.619   1.087
 1021SOL    HW1 3962   6.855   1.545   1.066
 1021SOL    HW2 3963   6.798   1.643   1.184
 1022SOL     OW 3964   4.313   2.975   6.558
 1022SOL    HW1 3965   4.385   3.008   6.619
 1022SOL    HW2 3966   4.257   2.907   6.605
 1023SOL     OW 3967   4.992   1.247   3.785
 1023SOL    HW1 3968   4.895   1.243   3.810
 1023SOL    HW2 3969   5.024   1.341   3.792
 1024SOL     OW 3970   5.755   1.758   3.482
 1024SOL    HW1 3971   5.737   1.850   3.446
 1024SOL    HW2 3972   5.853   1.750   3.503
 1025SOL     OW 3973   3.084   4.421   1.127
 1025SOL    HW1 3974   3.110   4.371   1.210
 1025SOL    HW2 3975   2.986   4.440   1.130
 1026SOL     OW 3976   1.054   2.764   6.826
 1026SOL    HW1 3977   0.991   2.719   6.762
 1026SOL    HW2 3978   1.026   2.744   6.920
 1027SOL     OW 3979   2.831   4.995   2.471
 1027SOL    HW1 3980   2.739   5.031   2.459
 1027SOL    HW2 3981   2.897   5.061   2.433
 1028SOL     OW 3982   2.132   5.833   0.902
 1028SOL    HW1 3983   2.174   5.817   0.992
 1028SOL    HW2 3984   2.171   5.915   0.861
 1029SOL     OW 3985   3.028   0.866   6.105
 1029SOL    HW1 3986   2.995   0.886   6.197
 1029SOL    HW2 3987   3.127   0.877   6.102
 1030SOL     OW 3988   3.527   4.137   4.897
 1030SOL    HW1 3989   3.610   4.083   4.887
 1030SOL    HW2 3990   3.483   4.147   4.808
 1031SOL     OW 3991   2.472   5.225   1.488
 1031SOL    HW1 3992   2.389   5.170   1.497
 1031SOL    HW2 3993   2.523   5.223   1.574
 1032SOL     OW 3994   1.777   0.756   4.223
 1032SOL    HW1 3995   1.828   0.786   4.303
 1032SOL    HW2 3996   1.699   0.818   4.208
 1033SOL     OW 3997   1.965   6.241   3.257
 1033SOL    HW1 3998   2.015   6.244   3.171
 1033SOL    HW2 3999   2.026   6.212   3.330
 1034SOL     OW 4000   1.292   5.445   3.165
 1034SOL    HW1 4001   1.193   5.457   3.171
 1034SOL    HW2 4002   1.322   5.460   3.071
 1035SOL     OW 4003   2.670   1.105   4.096
 1035SOL    HW1 4004   2.739   1.083   4.165
 1035SOL    HW2 4005   2.580   1.073   4.127
 1036SOL     OW 4006   4.942   1.483   0.110
 1036SOL    HW1 4007   4.997   1.539   0.047
 1036SOL    HW2 4008   4.845   1.500   0.093
 1037SOL     OW 4009   3.063   2.021   6.460
 1037SOL    HW1 4010   3.043   2.041   6.556
 1037SOL    HW2 4011   3.067   2.107   6.409
 1038SOL     OW 4012   2.527   1.339   4.077
 1038SOL    HW1 4013   2.427   1.338   4.071
 1038SOL    HW2 4014   2.561   1.245   4.081
 1039SOL     OW 4015   3.957   1.339   3.452
 1039SOL    HW1 4016   3.951   1.241   3.434
 1039SOL    HW2 4017   4.026   1.356   3.523
 1040SOL     OW 4018   6.450   4.200   3.408
 1040SOL    HW1 4019   6.368   4.258   3.399
 1040SOL    HW2 4020   6.426   4.118   3.462
 1041SOL     OW 4021   0.747   6.684   4.601
 1041SOL    HW1 4022   0.806   6.695   4.681
 1041SOL    HW2 4023   0.760   6.760   4.539
 1042SOL     OW 4024   5.357   4.075   0.841
 1042SOL    HW1 4025   5.382   4.104   0.933
 1042SOL    HW2 4026   5.265   4.035   0.842
 1043SOL     OW 4027   3.459   1.465   6.653
 1043SOL    HW1 4028   3.523   1.433   6.722
 1043SOL    HW2 4029   3.484   1.427   6.564
 1044SOL     OW 4030   4.106   3.844   1.777
 1044SOL    HW1 4031   4.205   3.840   1.769
 1044SOL    HW2 4032   4.070   3.753   1.800
 1045SOL     OW 4033   3.215   1.449   3.435
 1045SOL    HW1 4034   3.301   1.501   3.438
 1045SOL    HW2 4035   3.172   1.462   3.346
 1046SOL     OW 4036   3.952   0.858   1.993
 1046SOL    HW1 4037   3.889   0.920   2.040
 1046SOL    HW2 4038   3.977   0.896   1.904
 1047SOL     OW 4039   0.781   5.043   2.189
 1047SOL    HW1 4040   0.714   4.974   2.219
 1047SOL    HW2 4041   0.873   5.014   2.216
 1048SOL     OW 4042   6.233   4.786   5.565
 1048SOL    HW1 4043   6.216   4.869   5.512
 1048SOL    HW2 4044   6.248   4.810   5.661
 1049SOL     OW 4045   0.678   3.237   5.299
 1049SOL    HW1 4046   0.751   3.170   5.290
 1049SOL    HW2 4047   0.696   3.298   5.376
 1050SOL     OW 4048   3.315   0.522   6.763
 1050SOL    HW1 4049   3.301   0.504   6.666
 1050SOL    HW2 4050   3.234   0.568   6.800
 1051SOL     OW 4051   4.529   4.970   1.851
 1051SOL    HW1 4052   4.628   4.955   1.853
 1051SOL    HW2 4053   4.509   5.062   1.816
 1052SOL     OW 4054   3.309   6.934   4.428
 1052SOL    HW1 4055   3.353   0.002   4.426
 1052SOL    HW2 4056   3.232   6.934   4.363
 1053SOL     OW 4057   4.585   4.965   3.078
 1053SOL    HW1 4058   4.592   4.913   3.163
 1053SOL    HW2 4059   4.505   5.026   3.083
 1054SOL     OW 4060   3.822   6.294   4.193
 1054SOL    HW1 4061   3.734   6.322   4.155
 1054SOL    HW2 4062   3.808   6.220   4.260
 1055SOL     OW 4063   4.565   5.128   4.693
 1055SOL    HW1 4064   4.602   5.041   4.662
 1055SOL    HW2 4065   4.465   5.125   4.690
 1056SOL     OW 4066   1.498   6.158   5.373
 1056SOL    HW1 4067   1.481   6.100   5.293
 1056SOL    HW2 4068   1.581   6.127   5.420
 1057SOL     OW 4069   3.639   3.805   1.807
 1057SOL    HW1 4070   3.714   3.801   1.873
 1057SOL    HW2 4071   3.578   3.880   1.831
 1058SOL     OW 4072   3.453   0.495   1.246
 1058SOL    HW1 4073   3.461   0.545   1.160
 1058SOL    HW2 4074   3.513   0.416   1.245
 1059SOL     OW 4075   3.245   1.724   1.151
 1059SOL    HW1 4076   3.218   1.815   1.181
 1059SOL    HW2 4077   3.197   1.655   1.206
 1060SOL     OW 4078   2.548   2.227   4.922
 1060SOL    HW1 4079   2.515   2.239   4.829
 1060SOL    HW2 4080   2.647   2.239   4.924
 1061SOL     OW 4081   3.252   6.388   1.397
 1061SOL    HW1 4082   3.262   6.446   1.315
 1061SOL    HW2 4083   3.342   6.371   1.436
 1062SOL     OW 4084   5.017   4.294   5.211
 1062SOL    HW1 4085   4.960   4.222   5.251
 1062SOL    HW2 4086   5.055   4.351   5.284
 1063SOL     OW 4087   2.566   2.457   5.685
 1063SOL    HW1 4088   2.511   2.539   5.671
 1063SOL    HW2 4089   2.593   2.450   5.781
 1064SOL     OW 4090   0.316   3.315   1.506
 1064SOL    HW1 4091   0.374   3.395   1.490
 1064SOL    HW2 4092   0.334   3.247   1.436
 1065SOL     OW 4093   5.625   5.727   5.160
 1065SOL    HW1 4094   5.723   5.743   5.166
 1065SOL    HW2 4095   5.602   5.688   5.071
 1066SOL     OW 4096   3.724   0.480   3.661
 1066SOL    HW1 4097   3.720   0.389   3.702
 1066SOL    HW2 4098   3.675   0.478   3.574
 1067SOL     OW 4099   1.746   3.457   1.603
 1067SOL    HW1 4100   1.783   3.527   1.542
 1067SOL    HW2 4101   1.822   3.405   1.643
 1068SOL     OW 4102   0.903   3.845   1.452
 1068SOL    HW1 4103   0.881   3.922   1.513
 1068SOL    HW2 4104   0.820   3.794   1.431
 1069SOL     OW 4105   3.650   3.955   1.574
 1069SOL    HW1 4106   3.663   3.884   1.643
 1069SOL    HW2 4107   3.565   4.004   1.593
 1070SOL     OW 4108   2.138   0.643   6.947
 1070SOL    HW1 4109   2.161   0.737   6.924
 1070SOL    HW2 4110   2.070   0.643   7.021
 1071SOL     OW 4111   4.017   6.672   3.546
 1071SOL    HW1 4112   4.024   6.644   3.641
 1071SOL    HW2 4113   4.029   6.593   3.486
 1072SOL     OW 4114   3.595   5.795   3.240
 1072SOL    HW1 4115   3.546   5.721   3.194
 1072SOL    HW2 4116   3.663   5.834   3.179
 1073SOL     OW 4117   2.999   4.885   2.840
 1073SOL    HW1 4118   3.079   4.921   2.792
 1073SOL    HW2 4119   2.990   4.931   2.928
 1074SOL     OW 4120   1.521   5.118   2.356
 1074SOL    HW1 4121   1.434   5.163   2.375
 1074SOL    HW2 4122   1.542   5.127   2.258
 1075SOL     OW 4123   0.276   4.139   2.932
 1075SOL    HW1 4124   0.222   4.055   2.919
 1075SOL    HW2 4125   0.373   4.114   2.944
 1076SOL     OW 4126   0.166   4.873   3.628
 1076SOL    HW1 4127   0.121   4.805   3.571
 1076SOL    HW2 4128   0.161   4.963   3.584
 1077SOL     OW 4129   4.503   0.473   0.732
 1077SOL    HW1 4130   4.491   0.406   0.806
 1077SOL    HW2 4131   4.413   0.505   0.702
 1078SOL     OW 4132   1.306   2.611   2.097
 1078SOL    HW1 4133   1.248   2.600   2.016
 1078SOL    HW2 4134   1.367   2.689   2.083
 1079SOL     OW 4135   2.417   5.102   2.620
 1079SOL    HW1 4136   2.493   5.083   2.681
 1079SOL    HW2 4137   2.433   5.059   2.531
 1080SOL     OW 4138   1.414   5.575   4.002
 1080SOL    HW1 4139   1.362   5.507   3.951
 1080SOL    HW2 4140   1.424   5.545   4.097
 1081SOL     OW 4141   1.212   1.589   0.526
 1081SOL    HW1 4142   1.206   1.579   0.426
 1081SOL    HW2 4143   1.208   1.499   0.569
 1082SOL     OW 4144   2.111   0.017   6.697
 1082SOL    HW1 4145   2.018   0.004   6.661
 1082SOL    HW2 4146   2.168   0.057   6.626
 1083SOL     OW 4147   3.788   2.697   1.482
 1083SOL    HW1 4148   3.693   2.678   1.508
 1083SOL    HW2 4149   3.849   2.677   1.559
 1084SOL     OW 4150   6.321   3.655   0.413
 1084SOL    HW1 4151   6.309   3.725   0.483
 1084SOL    HW2 4152   6.316   3.564   0.455
 1085SOL     OW 4153   2.376   4.341   3.671
 1085SOL    HW1 4154   2.323   4.256   3.668
 1085SOL    HW2 4155   2.401   4.369   3.578
 1086SOL     OW 4156   4.112   5.432   2.012
 1086SOL    HW1 4157   4.166   5.388   1.940
 1086SOL    HW2 4158   4.170   5.447   2.092
 1087SOL     OW 4159   3.997   2.984   5.401
 1087SOL    HW1 4160   3.919   2.929   5.431
 1087SOL    HW2 4161   3.967   3.047   5.330
 1088SOL     OW 4162   5.216   4.081   3.463
 1088SOL    HW1 4163   5.255   3.989   3.467
 1088SOL    HW2 4164   5.148   4.091   3.536
 1089SOL     OW 4165   5.808   0.281   3.098
 1089SOL    HW1 4166   5.871   0.319   3.031
 1089SOL    HW2 4167   5.851   0.280   3.188
 1090SOL     OW 4168   0.799   1.918   5.334
 1090SOL    HW1 4169   0.723   1.854   5.322
 1090SOL    HW2 4170   0.884   1.866   5.347
 1091SOL     OW 4171   1.191   2.460   4.724
 1091SOL    HW1 4172   1.104   2.508   4.731
 1091SOL    HW2 4173   1.241   2.493   4.644
 1092SOL     OW 4174   2.273   4.758   1.270
 1092SOL    HW1 4175   2.177   4.753   1.295
 1092SOL    HW2 4176   2.321   4.821   1.331
 1093SOL     OW 4177   0.335   1.877   2.633
 1093SOL    HW1 4178   0.249   1.912   2.596
 1093SOL    HW2 4179   0.378   1.817   2.566
 1094SOL     OW 4180   0.753   6.332   1.455
 1094SOL    HW1 4181   0.853   6.321   1.457
 1094SOL    HW2 4182   0.713   6.291   1.537
 1095SOL     OW 4183   5.906   3.454   5.856
 1095SOL    HW1 4184   5.986   3.415   5.902
 1095SOL    HW2 4185   5.932   3.539   5.810
 1096SOL     OW 4186   3.482   4.304   1.745
 1096SOL    HW1 4187   3.421   4.325   1.669
 1096SOL    HW2 4188   3.500   4.388   1.797
 1097SOL     OW 4189   1.908   4.551   5.275
 1097SOL    HW1 4190   1.867   4.481   5.216
 1097SOL    HW2 4191   1.995   4.516   5.312
 1098SOL     OW 4192   4.200   1.066   3.296
 1098SOL    HW1 4193   4.292   1.027   3.293
 1098SOL    HW2 4194   4.164   1.075   3.203
 1099SOL     OW 4195   3.597   1.550   2.476
 1099SOL    HW1 4196   3.535   1.556   2.398
 1099SOL    HW2 4197   3.639   1.639   2.492
 1100SOL     OW 4198   0.753   0.333   0.717
 1100SOL    HW1 4199   0.707   0.414   0.755
 1100SOL    HW2 4200   0.833   0.311   0.773
 1101SOL     OW 4201   6.040   2.453   0.686
 1101SOL    HW1 4202   5.972   2.380   0.691
 1101SOL    HW2 4203   6.024   2.519   0.759
 1102SOL     OW 4204   0.769   4.513   4.007
 1102SOL    HW1 4205   0.734   4.480   3.920
 1102SOL    HW2 4206   0.747   4.610   4.017
 1103SOL     OW 4207   0.883   3.098   1.567
 1103SOL    HW1 4208   0.941   3.178   1.553
 1103SOL    HW2 4209   0.939   3.021   1.598
 1104SOL     OW 4210   3.000   5.164   5.839
 1104SOL    HW1 4211   3.091   5.186   5.874
 1104SOL    HW2 4212   2.941   5.245   5.845
 1105SOL     OW 4213   4.464   6.107   0.027
 1105SOL    HW1 4214   4.439   6.059   0.111
 1105SOL    HW2 4215   4.562   6.126   0.027
 1106SOL     OW 4216   1.265   1.803   5.723
 1106SOL    HW1 4217   1.267   1.723   5.782
 1106SOL    HW2 4218   1.315   1.878   5.767
 1107SOL     OW 4219   1.248   0.428   1.461
 1107SOL    HW1 4220   1.206   0.519   1.466
 1107SOL    HW2 4221   1.297   0.419   1.375
 1108SOL     OW 4222   1.271   1.573   5.895
 1108SOL    HW1 4223   1.228   1.492   5.855
 1108SOL    HW2 4224   1.324   1.546   5.976
 1109SOL     OW 4225   4.550   1.054   3.877
 1109SOL    HW1 4226   4.481   0.982   3.873
 1109SOL    HW2 4227   4.604   1.053   3.792
 1110SOL     OW 4228   3.503   2.811   2.097
 1110SOL    HW1 4229   3.512   2.718   2.132
 1110SOL    HW2 4230   3.407   2.832   2.080
 1111SOL     OW 4231   5.398   6.777   6.856
 1111SOL    HW1 4232   5.403   6.814   6.949
 1111SOL    HW2 4233   5.396   6.852   6.790
 1112SOL     OW 4234   0.145   1.247   2.622
 1112SOL    HW1 4235   0.226   1.253   2.681
 1112SOL    HW2 4236   0.156   1.309   2.544
 1113SOL     OW 4237   6.533   3.523   1.737
 1113SOL    HW1 4238   6.522   3.508   1.835
 1113SOL    HW2 4239   6.480   3.603   1.710
 1114SOL     OW 4240   5.683   1.432   5.021
 1114SOL    HW1 4241   5.772   1.478   5.017
 1114SOL    HW2 4242   5.651   1.430   5.116
 1115SOL     OW 4243   2.505   3.251   0.241
 1115SOL    HW1 4244   2.516   3.255   0.141
 1115SOL    HW2 4245   2.487   3.343   0.276
 1116SOL     OW 4246   4.257   5.466   5.154
 1116SOL    HW1 4247   4.166   5.501   5.130
 1116SOL    HW2 4248   4.309   5.537   5.201
 1117SOL     OW 4249   2.420   3.144   1.179
 1117SOL    HW1 4250   2.398   3.138   1.082
 1117SOL    HW2 4251   2.336   3.141   1.233
 1118SOL     OW 4252   1.794   3.752   3.422
 1118SOL    HW1 4253   1.724   3.703   3.475
 1118SOL    HW2 4254   1.872   3.691   3.408
 1119SOL     OW 4255   3.225   4.011   2.552
 1119SOL    HW1 4256   3.213   3.915   2.525
 1119SOL    HW2 4257   3.233   4.068   2.470
 1120SOL     OW 4258   4.077   0.604   4.536
 1120SOL    HW1 4259   4.173   0.579   4.550
 1120SOL    HW2 4260   4.024   0.521   4.517
 1121SOL     OW 4261   5.159   3.104   2.301
 1121SOL    HW1 4262   5.163   3.192   2.348
 1121SOL    HW2 4263   5.067   3.091   2.263
 1122SOL     OW 4264   4.767   4.969   6.928
 1122SOL    HW1 4265   4.832   4.926   6.865
 1122SOL    HW2 4266   4.675   4.964   6.889
 1123SOL     OW 4267   3.710   0.749   1.762
 1123SOL    HW1 4268   3.710   0.814   1.686
 1123SOL    HW2 4269   3.761   0.788   1.839
 1124SOL     OW 4270   0.853   4.559   4.926
 1124SOL    HW1 4271   0.943   4.598   4.946
 1124SOL    HW2 4272   0.782   4.617   4.965
 1125SOL     OW 4273   4.009   3.287   4.973
 1125SOL    HW1 4274   3.972   3.223   4.906
 1125SOL    HW2 4275   4.041   3.369   4.927
 1126SOL     OW 4276   5.695   0.437   2.522
 1126SOL    HW1 4277   5.604   0.405   2.499
 1126SOL    HW2 4278   5.760   0.409   2.450
 1127SOL     OW 4279   1.228   4.706   6.727
 1127SOL    HW1 4280   1.278   4.621   6.740
 1127SOL    HW2 4281   1.275   4.762   6.659
 1128SOL     OW 4282   3.223   1.501   4.682
 1128SOL    HW1 4283   3.160   1.575   4.659
 1128SOL    HW2 4284   3.232   1.440   4.604
 1129SOL     OW 4285   5.017   7.016   6.706
 1129SOL    HW1 4286   4.933   6.995   6.756
 1129SOL    HW2 4287   5.048   0.085   6.730
 1130SOL     OW 4288   7.003   4.812   5.988
 1130SOL    HW1 4289   6.995   4.713   5.985
 1130SOL    HW2 4290   0.077   4.837   5.987
 1131SOL     OW 4291   0.511   5.090   5.730
 1131SOL    HW1 4292   0.501   4.991   5.726
 1131SOL    HW2 4293   0.480   5.124   5.819
 1132SOL     OW 4294   4.883   0.332   5.246
 1132SOL    HW1 4295   4.813   0.317   5.316
 1132SOL    HW2 4296   4.916   0.426   5.252
 1133SOL     OW 4297   0.989   2.542   1.108
 1133SOL    HW1 4298   0.947   2.626   1.074
 1133SOL    HW2 4299   1.013   2.553   1.205
 1134SOL     OW 4300   6.404   2.912   5.799
 1134SOL    HW1 4301   6.431   2.816   5.795
 1134SOL    HW2 4302   6.478   2.969   5.763
 1135SOL     OW 4303   5.148   1.765   3.324
 1135SOL    HW1 4304   5.107   1.735   3.410
 1135SOL    HW2 4305   5.246   1.744   3.323
 1136SOL     OW 4306   3.833   5.602   4.139
 1136SOL    HW1 4307   3.870   5.529   4.196
 1136SOL    HW2 4308   3.833   5.688   4.190
 1137SOL     OW 4309   1.857   1.357   5.494
 1137SOL    HW1 4310   1.925   1.311   5.552
 1137SOL    HW2 4311   1.807   1.424   5.548
 1138SOL     OW 4312   0.521   4.377   5.567
 1138SOL    HW1 4313   0.504   4.451   5.502
 1138SOL    HW2 4314   0.615   4.344   5.557
 1139SOL     OW 4315   1.296   6.643   1.508
 1139SOL    HW1 4316   1.210   6.640   1.458
 1139SOL    HW2 4317   1.371   6.617   1.447
 1140SOL     OW 4318   3.478   1.536   3.444
 1140SOL    HW1 4319   3.537   1.456   3.448
 1140SOL    HW2 4320   3.484   1.587   3.529
 1141SOL     OW 4321   6.795   5.903   5.824
 1141SOL    HW1 4322   6.892   5.916   5.845
 1141SOL    HW2 4323   6.740   5.967   5.878
 1142SOL     OW 4324   5.873   1.331   4.124
 1142SOL    HW1 4325   5.850   1.289   4.036
 1142SOL    HW2 4326   5.794   1.326   4.185
 1143SOL     OW 4327   4.054   1.551   2.384
 1143SOL    HW1 4328   4.121   1.477   2.385
 1143SOL    HW2 4329   4.024   1.570   2.477
 1144SOL     OW 4330   1.171   6.358   5.661
 1144SOL    HW1 4331   1.163   6.430   5.729
 1144SOL    HW2 4332   1.115   6.279   5.688
 1145SOL     OW 4333   1.303   5.199   5.256
 1145SOL    HW1 4334   1.390   5.229   5.295
 1145SOL    HW2 4335   1.302   5.217   5.158
 1146SOL     OW 4336   6.047   1.982   0.704
 1146SOL    HW1 4337   6.144   1.991   0.682
 1146SOL    HW2 4338   6.007   2.073   0.714
 1147SOL     OW 4339   6.092   2.785   1.735
 1147SOL    HW1 4340   6.004   2.773   1.689
 1147SOL    HW2 4341   6.166   2.752   1.676
 1148SOL     OW 4342   4.304   0.671   0.282
 1148SOL    HW1 4343   4.353   0.607   0.223
 1148SOL    HW2 4344   4.363   0.749   0.302
 1149SOL     OW 4345   0.201   3.277   2.715
 1149SOL    HW1 4346   0.241   3.238   2.632
 1149SOL    HW2 4347   0.104   3.253   2.720
 1150SOL     OW 4348   1.062   4.839   6.132
 1150SOL    HW1 4349   1.032   4.888   6.051
 1150SOL    HW2 4350   1.003   4.863   6.209
 1151SOL     OW 4351   4.391   5.591   6.936
 1151SOL    HW1 4352   4.401   5.582   0.012
 1151SOL    HW2 4353   4.448   5.666   6.903
 1152SOL     OW 4354   0.341   0.418   4.936
 1152SOL    HW1 4355   0.329   0.478   4.856
 1152SOL    HW2 4356   0.435   0.385   4.938
 1153SOL     OW 4357   2.246   5.322   2.593
 1153SOL    HW1 4358   2.280   5.356   2.506
 1153SOL    HW2 4359   2.298   5.241   2.620
 1154SOL     OW 4360   2.278   4.391   1.865
 1154SOL    HW1 4361   2.287   4.291   1.866
 1154SOL    HW2 4362   2.331   4.429   1.941
 1155SOL     OW 4363   3.079   5.636   1.939
 1155SOL    HW1 4364   3.165   5.686   1.938
 1155SOL    HW2 4365   3.072   5.584   2.025
 1156SOL     OW 4366   1.578   0.918   4.199
 1156SOL    HW1 4367   1.501   0.917   4.264
 1156SOL    HW2 4368   1.561   0.987   4.129
 1157SOL     OW 4369   1.257   2.153   4.404
 1157SOL    HW1 4370   1.268   2.142   4.503
 1157SOL    HW2 4371   1.163   2.129   4.378
 1158SOL     OW 4372   4.568   5.385   5.392
 1158SOL    HW1 4373   4.507   5.325   5.340
 1158SOL    HW2 4374   4.573   5.354   5.487
 1159SOL     OW 4375   5.166   5.083   3.322
 1159SOL    HW1 4376   5.206   5.014   3.262
 1159SOL    HW2 4377   5.095   5.040   3.378
 1160SOL     OW 4378   2.589   2.638   0.746
 1160SOL    HW1 4379   2.572   2.693   0.664
 1160SOL    HW2 4380   2.541   2.551   0.739
 1161SOL     OW 4381   4.127   0.045   4.261
 1161SOL    HW1 4382   4.144   0.143   4.251
 1161SOL    HW2 4383   4.082   0.028   4.349
 1162SOL     OW 4384   3.974   4.430   1.582
 1162SOL    HW1 4385   4.005   4.492   1.654
 1162SOL    HW2 4386   3.887   4.387   1.609
 1163SOL     OW 4387   4.746   2.291   2.396
 1163SOL    HW1 4388   4.827   2.349   2.386
 1163SOL    HW2 4389   4.699   2.314   2.481
 1164SOL     OW 4390   5.918   3.467   3.836
 1164SOL    HW1 4391   5.839   3.468   3.774
 1164SOL    HW2 4392   5.987   3.405   3.800
 1165SOL     OW 4393   1.622   4.766   2.131
 1165SOL    HW1 4394   1.624   4.749   2.032
 1165SOL    HW2 4395   1.682   4.842   2.152
 1166SOL     OW 4396   3.642   3.143   6.204
 1166SOL    HW1 4397   3.670   3.049   6.183
 1166SOL    HW2 4398   3.565   3.168   6.146
 1167SOL     OW 4399   4.846   1.520   4.331
 1167SOL    HW1 4400   4.819   1.575   4.252
 1167SOL    HW2 4401   4.918   1.567   4.382
 1168SOL     OW 4402   6.178   5.891   3.467
 1168SOL    HW1 4403   6.210   5.975   3.510
 1168SOL    HW2 4404   6.113   5.913   3.394
 1169SOL     OW 4405   1.076   3.493   1.728
 1169SOL    HW1 4406   1.080   3.580   1.679
 1169SOL    HW2 4407   1.068   3.418   1.662
 1170SOL     OW 4408   2.701   0.407   0.736
 1170SOL    HW1 4409   2.678   0.493   0.782
 1170SOL    HW2 4410   2.743   0.345   0.801
 1171SOL     OW 4411   2.183   6.950   0.735
 1171SOL    HW1 4412   2.160   0.010   0.785
 1171SOL    HW2 4413   2.253   6.970   0.666
 1172SOL     OW 4414   2.993   3.132   4.968
 1172SOL    HW1 4415   3.032   3.072   5.038
 1172SOL    HW2 4416   2.968   3.220   5.009
 1173SOL     OW 4417   4.935   0.834   6.019
 1173SOL    HW1 4418   4.938   0.734   6.018
 1173SOL    HW2 4419   5.026   0.870   6.043
 1174SOL     OW 4420   3.217   6.514   0.901
 1174SOL    HW1 4421   3.248   6.607   0.881
 1174SOL    HW2 4422   3.296   6.455   0.919
 1175SOL     OW 4423   6.894   4.855   5.169
 1175SOL    HW1 4424   6.829   4.927   5.146
 1175SOL    HW2 4425   6.973   4.895   5.216
 1176SOL     OW 4426   6.811   3.612   1.118
 1176SOL    HW1 4427   6.875   3.668   1.065
 1176SOL    HW2 4428   6.821   3.516   1.091
 1177SOL     OW 4429   6.308   3.317   0.187
 1177SOL    HW1 4430   6.289   3.315   0.089
 1177SOL    HW2 4431   6.237   3.371   0.234
 1178SOL     OW 4432   5.656   4.101   1.955
 1178SOL    HW1 4433   5.676   4.016   1.907
 1178SOL    HW2 4434   5.567   4.135   1.927
 1179SOL     OW 4435   2.806   5.808   6.610
 1179SOL    HW1 4436   2.886   5.822   6.552
 1179SOL    HW2 4437   2.726   5.849   6.567
 1180SOL     OW 4438   2.573   2.013   4.149
 1180SOL    HW1 4439   2.598   1.926   4.108
 1180SOL    HW2 4440   2.593   2.087   4.085
 1181SOL     OW 4441   2.127   4.548   3.463
 1181SOL    HW1 4442   2.224   4.531   3.445
 1181SOL    HW2 4443   2.116   4.633   3.514
 1182SOL     OW 4444   1.411   4.666   3.459
 1182SOL    HW1 4445   1.341   4.596   3.444
 1182SOL    HW2 4446   1.409   4.733   3.384
 1183SOL     OW 4447   4.806   5.571   1.019
 1183SOL    HW1 4448   4.884   5.518   0.986
 1183SOL    HW2 4449   4.780   5.539   1.110
 1184SOL     OW 4450   3.332   2.525   5.619
 1184SOL    HW1 4451   3.279   2.522   5.704
 1184SOL    HW2 4452   3.291   2.462   5.552
 1185SOL     OW 4453   2.313   1.983   0.358
 1185SOL    HW1 4454   2.339   2.077   0.335
 1185SOL    HW2 4455   2.282   1.979   0.453
 1186SOL     OW 4456   3.999   1.097   5.142
 1186SOL    HW1 4457   3.957   1.030   5.203
 1186SOL    HW2 4458   3.933   1.170   5.122
 1187SOL     OW 4459   6.903   1.086   5.741
 1187SOL    HW1 4460   6.873   1.007   5.687
 1187SOL    HW2 4461   7.002   1.084   5.750
 1188SOL     OW 4462   1.345   0.115   5.865
 1188SOL    HW1 4463   1.440   0.082   5.861
 1188SOL    HW2 4464   1.344   0.212   5.889
 1189SOL     OW 4465   6.672   0.929   1.563
 1189SOL    HW1 4466   6.667   0.903   1.466
 1189SOL    HW2 4467   6.590   0.979   1.588
 1190SOL     OW 4468   4.559   4.498   2.766
 1190SOL    HW1 4469   4.470   4.541   2.767
 1190SOL    HW2 4470   4.560   4.425   2.697
 1191SOL     OW 4471   3.639   4.745   0.094
 1191SOL    HW1 4472   3.675   4.828   0.052
 1191SOL    HW2 4473   3.685   4.729   0.182
 1192SOL     OW 4474   4.650   4.933   2.256
 1192SOL    HW1 4475   4.562   4.961   2.294
 1192SOL    HW2 4476   4.723   4.988   2.297
 1193SOL     OW 4477   4.290   6.764   3.876
 1193SOL    HW1 4478   4.212   6.702   3.878
 1193SOL    HW2 4479   4.271   6.840   3.813
 1194SOL     OW 4480   6.121   0.235   1.306
 1194SOL    HW1 4481   6.151   0.281   1.390
 1194SOL    HW2 4482   6.197   0.182   1.268
 1195SOL     OW 4483   4.014   0.243   6.743
 1195SOL    HW1 4484   3.955   0.324   6.744
 1195SOL    HW2 4485   4.109   0.271   6.728
 1196SOL     OW 4486   0.142   5.550   2.639
 1196SOL    HW1 4487   0.166   5.468   2.587
 1196SOL    HW2 4488   0.200   5.556   2.720
 1197SOL     OW 4489   2.916   5.380   6.297
 1197SOL    HW1 4490   2.889   5.452   6.361
 1197SOL    HW2 4491   2.836   5.351   6.244
 1198SOL     OW 4492   3.220   1.446   2.526
 1198SOL    HW1 4493   3.158   1.525   2.521
 1198SOL    HW2 4494   3.313   1.477   2.509
 1199SOL     OW 4495   3.584   4.041   3.670
 1199SOL    HW1 4496   3.547   4.094   3.594
 1199SOL    HW2 4497   3.530   4.059   3.753
 1200SOL     OW 4498   4.046   4.018   0.642
 1200SOL    HW1 4499   4.078   3.926   0.619
 1200SOL    HW2 4500   3.990   4.014   0.725
 1201SOL     OW 4501   1.496   0.620   4.613
 1201SOL    HW1 4502   1.569   0.568   4.568
 1201SOL    HW2 4503   1.450   0.561   4.680
 1202SOL     OW 4504   5.802   0.429   5.074
 1202SOL    HW1 4505   5.832   0.499   5.009
 1202SOL    HW2 4506   5.738   0.366   5.029
 1203SOL     OW 4507   6.042   6.579   1.954
 1203SOL    HW1 4508   6.105   6.521   2.005
 1203SOL    HW2 4509   5.984   6.523   1.896
 1204SOL     OW 4510   2.925   6.998   7.008
 1204SOL    HW1 4511   2.843   0.028   0.006
 1204SOL    HW2 4512   2.953   6.947   0.066
 1205SOL     OW 4513   0.429   1.975   5.108
 1205SOL    HW1 4514   0.340   2.020   5.103
 1205SOL    HW2 4515   0.461   1.975   5.203
 1206SOL     OW 4516   0.636   1.607   4.965
 1206SOL    HW1 4517   0.701   1.547   4.919
 1206SOL    HW2 4518   0.642   1.699   4.927
 1207SOL     OW 4519   5.919   6.059   6.510
 1207SOL    HW1 4520   5.995   6.055   6.445
 1207SOL    HW2 4521   5.836   6.085   6.462
 1208SOL     OW 4522   3.877   3.988   3.658
 1208SOL    HW1 4523   3.931   4.021   3.735
 1208SOL    HW2 4524   3.780   3.996   3.679
 1209SOL     OW 4525   6.386   4.551   4.764
 1209SOL    HW1 4526   6.401   4.602   4.679
 1209SOL    HW2 4527   6.459   4.484   4.775
 1210SOL     OW 4528   2.843   6.622   2.774
 1210SOL    HW1 4529   2.889   6.703   2.810
 1210SOL    HW2 4530   2.908   6.568   2.721
 1211SOL     OW 4531   1.288   3.399   4.129
 1211SOL    HW1 4532   1.201   3.438   4.157
 1211SOL    HW2 4533   1.356   3.472   4.119
 1212SOL     OW 4534   2.180   4.123   4.839
 1212SOL    HW1 4535   2.158   4.217   4.867
 1212SOL    HW2 4536   2.214   4.072   4.918
 1213SOL     OW 4537   5.765   2.770   5.538
 1213SOL    HW1 4538   5.822   2.778   5.619
 1213SOL    HW2 4539   5.694   2.701   5.553
 1214SOL     OW 4540   1.843   2.822   2.830
 1214SOL    HW1 4541   1.863   2.821   2.733
 1214SOL    HW2 4542   1.916   2.869   2.880
 1215SOL     OW 4543   0.360   5.141   2.007
 1215SOL    HW1 4544   0.263   5.124   1.987
 1215SOL    HW2 4545   0.373   5.239   2.027
 1216SOL     OW 4546   3.038   0.373   1.788
 1216SOL    HW1 4547   3.094   0.391   1.869
 1216SOL    HW2 4548   2.969   0.304   1.811
 1217SOL     OW 4549   1.364   1.526   2.747
 1217SOL    HW1 4550   1.420   1.578   2.683
 1217SOL    HW2 4551   1.284   1.489   2.699
 1218SOL     OW 4552   0.403   3.555   4.338
 1218SOL    HW1 4553   0.354   3.556   4.425
 1218SOL    HW2 4554   0.337   3.557   4.263
 1219SOL     OW 4555   2.414   6.076   3.459
 1219SOL    HW1 4556   2.441   6.120   3.373
 1219SOL    HW2 4557   2.424   6.142   3.534
 1220SOL     OW 4558   6.679   4.342   2.762
 1220SOL    HW1 4559   6.624   4.306   2.687
 1220SOL    HW2 4560   6.730   4.267   2.804
 1221SOL     OW 4561   4.750   3.678   6.798
 1221SOL    HW1 4562   4.679   3.651   6.864
 1221SOL    HW2 4563   4.797   3.596   6.765
 1222SOL     OW 4564   5.529   5.846   1.404
 1222SOL    HW1 4565   5.508   5.858   1.501
 1222SOL    HW2 4566   5.580   5.761   1.391
 1223SOL     OW 4567   5.701   5.416   5.243
 1223SOL    HW1 4568   5.673   5.492   5.302
 1223SOL    HW2 4569   5.693   5.330   5.295
 1224SOL     OW 4570   4.790   4.832   2.065
 1224SOL    HW1 4571   4.724   4.871   2.130
 1224SOL    HW2 4572   4.807   4.897   1.992
 1225SOL     OW 4573   4.568   1.313   0.316
 1225SOL    HW1 4574   4.549   1.250   0.241
 1225SOL    HW2 4575   4.492   1.377   0.326
 1226SOL     OW 4576   5.066   5.005   0.509
 1226SOL    HW1 4577   5.006   4.925   0.507
 1226SOL    HW2 4578   5.132   4.994   0.584
 1227SOL     OW 4579   5.199   4.844   6.694
 1227SOL    HW1 4580   5.296   4.865   6.706
 1227SOL    HW2 4581   5.151   4.926   6.664
 1228SOL     OW 4582   3.786   3.532   4.447
 1228SOL    HW1 4583   3.861   3.470   4.470
 1228SOL    HW2 4584   3.743   3.502   4.363
 1229SOL     OW 4585   2.283   5.786   2.601
 1229SOL    HW1 4586   2.370   5.828   2.625
 1229SOL    HW2 4587   2.257   5.720   2.671
 1230SOL     OW 4588   5.197   5.228   1.939
 1230SOL    HW1 4589   5.270   5.267   1.995
 1230SOL    HW2 4590   5.160   5.147   1.985
 1231SOL     OW 4591   2.020   2.169   0.049
 1231SOL    HW1 4592   1.951   2.235   0.078
 1231SOL    HW2 4593   2.077   2.210   7.000
 1232SOL     OW 4594   3.017   1.241   4.789
 1232SOL    HW1 4595   2.949   1.271   4.723
 1232SOL    HW2 4596   3.018   1.302   4.868
 1233SOL     OW 4597   6.889   5.556   5.172
 1233SOL    HW1 4598   6.902   5.462   5.205
 1233SOL    HW2 4599   6.962   5.614   5.207
 1234SOL     OW 4600   6.235   3.900   6.897
 1234SOL    HW1 4601   6.188   3.988   6.902
 1234SOL    HW2 4602   6.282   3.882   6.983
 1235SOL     OW 4603   6.347   5.175   1.436
 1235SOL    HW1 4604   6.401   5.247   1.479
 1235SOL    HW2 4605   6.408   5.105   1.397
 1236SOL     OW 4606   1.425   1.631   2.995
 1236SOL    HW1 4607   1.520   1.660   2.983
 1236SOL    HW2 4608   1.396   1.579   2.915
 1237SOL     OW 4609   1.065   6.760   5.109
 1237SOL    HW1 4610   1.001   6.684   5.112
 1237SOL    HW2 4611   1.037   6.825   5.038
 1238SOL     OW 4612   0.742   0.338   4.507
 1238SOL    HW1 4613   0.745   0.410   4.438
 1238SOL    HW2 4614   0.783   0.370   4.592
 1239SOL     OW 4615   5.106   5.021   4.178
 1239SOL    HW1 4616   5.052   4.938   4.188
 1239SOL    HW2 4617   5.073   5.090   4.243
 1240SOL     OW 4618   1.197   3.995   2.023
 1240SOL    HW1 4619   1.222   3.921   1.961
 1240SOL    HW2 4620   1.180   3.958   2.115
 1241SOL     OW 4621   4.191   5.464   5.610
 1241SOL    HW1 4622   4.272   5.496   5.660
 1241SOL    HW2 4623   4.162   5.534   5.546
 1242SOL     OW 4624   2.168   4.359   0.934
 1242SOL    HW1 4625   2.203   4.322   1.020
 1242SOL    HW2 4626   2.069   4.344   0.930
 1243SOL     OW 4627   0.571   3.781   4.191
 1243SOL    HW1 4628   0.567   3.775   4.092
 1243SOL    HW2 4629   0.518   3.707   4.232
 1244SOL     OW 4630   6.046   0.348   5.451
 1244SOL    HW1 4631   6.019   0.360   5.356
 1244SOL    HW2 4632   6.140   0.316   5.456
 1245SOL     OW 4633   4.837   6.109   1.068
 1245SOL    HW1 4634   4.785   6.194   1.062
 1245SOL    HW2 4635   4.852   6.086   1.164
 1246SOL     OW 4636   5.242   0.762   0.725
 1246SOL    HW1 4637   5.209   0.854   0.746
 1246SOL    HW2 4638   5.236   0.746   0.626
 1247SOL     OW 4639   6.836   6.796   2.867
 1247SOL    HW1 4640   6.825   6.697   2.881
 1247SOL    HW2 4641   6.885   6.835   2.945
 1248SOL     OW 4642   1.150   6.712   4.584
 1248SOL    HW1 4643   1.125   6.680   4.492
 1248SOL    HW2 4644   1.137   6.811   4.589
 1249SOL     OW 4645   5.922   5.524   6.300
 1249SOL    HW1 4646   5.922   5.589   6.224
 1249SOL    HW2 4647   5.840   5.537   6.355
 1250SOL     OW 4648   0.219   3.003   4.978
 1250SOL    HW1 4649   0.173   2.916   4.958
 1250SOL    HW2 4650   0.152   3.069   5.011
 1251SOL     OW 4651   2.728   0.806   2.655
 1251SOL    HW1 4652   2.735   0.877   2.586
 1251SOL    HW2 4653   2.633   0.775   2.663
 1252SOL     OW 4654   1.960   5.843   6.487
 1252SOL    HW1 4655   2.012   5.928   6.489
 1252SOL    HW2 4656   1.984   5.790   6.405
 1253SOL     OW 4657   3.212   6.883   0.247
 1253SOL    HW1 4658   3.289   6.843   0.196
 1253SOL    HW2 4659   3.128   6.835   0.223
 1254SOL     OW 4660   5.774   0.519   3.361
 1254SOL    HW1 4661   5.682   0.533   3.396
 1254SOL    HW2 4662   5.814   0.438   3.403
 1255SOL     OW 4663   5.658   1.314   5.615
 1255SOL    HW1 4664   5.646   1.408   5.648
 1255SOL    HW2 4665   5.578   1.259   5.638
 1256SOL     OW 4666   0.006   5.844   4.701
 1256SOL    HW1 4667   0.005   5.837   4.800
 1256SOL    HW2 4668   0.065   5.773   4.663
 1257SOL     OW 4669   0.242   6.308   3.566
 1257SOL    HW1 4670   0.231   6.223   3.515
 1257SOL    HW2 4671   0.154   6.357   3.568
 1258SOL     OW 4672   4.502   5.893   5.943
 1258SOL    HW1 4673   4.423   5.888   5.881
 1258SOL    HW2 4674   4.530   5.989   5.951
 1259SOL     OW 4675   5.764   0.154   5.287
 1259SOL    HW1 4676   5.668   0.148   5.313
 1259SOL    HW2 4677   5.804   0.237   5.327
 1260SOL     OW 4678   3.097   1.247   1.417
 1260SOL    HW1 4679   3.192   1.265   1.441
 1260SOL    HW2 4680   3.041   1.327   1.441
 1261SOL     OW 4681   6.760   4.559   5.401
 1261SOL    HW1 4682   6.803   4.469   5.389
 1261SOL    HW2 4683   6.685   4.569   5.336
 1262SOL     OW 4684   4.220   5.181   1.209
 1262SOL    HW1 4685   4.147   5.200   1.143
 1262SOL    HW2 4686   4.182   5.133   1.288
 1263SOL     OW 4687   6.471   2.108   0.851
 1263SOL    HW1 4688   6.461   2.020   0.805
 1263SOL    HW2 4689   6.559   2.111   0.899
 1264SOL     OW 4690   6.923   3.192   4.108
 1264SOL    HW1 4691   6.851   3.139   4.151
 1264SOL    HW2 4692   6.907   3.198   4.010
 1265SOL     OW 4693   6.902   6.076   4.614
 1265SOL    HW1 4694   6.812   6.051   4.580
 1265SOL    HW2 4695   6.956   5.994   4.630
 1266SOL     OW 4696   2.280   1.291   4.198
 1266SOL    HW1 4697   2.321   1.200   4.192
 1266SOL    HW2 4698   2.195   1.286   4.250
 1267SOL     OW 4699   6.269   5.027   2.368
 1267SOL    HW1 4700   6.257   5.062   2.460
 1267SOL    HW2 4701   6.206   5.076   2.306
 1268SOL     OW 4702   5.992   3.725   0.407
 1268SOL    HW1 4703   6.023   3.717   0.312
 1268SOL    HW2 4704   6.023   3.812   0.445
 1269SOL     OW 4705   6.817   5.687   6.052
 1269SOL    HW1 4706   6.729   5.726   6.077
 1269SOL    HW2 4707   6.890   5.740   6.095
 1270SOL     OW 4708   1.690   2.533   4.984
 1270SOL    HW1 4709   1.709   2.625   5.019
 1270SOL    HW2 4710   1.753   2.512   4.909
 1271SOL     OW 4711   4.973   1.978   2.966
 1271SOL    HW1 4712   4.873   1.984   2.970
 1271SOL    HW2 4713   5.000   1.882   2.961
 1272SOL     OW 4714   0.130   6.553   2.081
 1272SOL    HW1 4715   0.189   6.625   2.044
 1272SOL    HW2 4716   0.162   6.464   2.049
 1273SOL     OW 4717   2.758   6.316   6.492
 1273SOL    HW1 4718   2.771   6.390   6.558
 1273SOL    HW2 4719   2.735   6.354   6.403
 1274SOL     OW 4720   6.216   2.495   1.411
 1274SOL    HW1 4721   6.251   2.407   1.381
 1274SOL    HW2 4722   6.210   2.558   1.333
 1275SOL     OW 4723   3.941   1.618   3.793
 1275SOL    HW1 4724   3.847   1.586   3.805
 1275SOL    HW2 4725   3.991   1.606   3.879
 1276SOL     OW 4726   6.124   0.404   3.312
 1276SOL    HW1 4727   6.130   0.446   3.221
 1276SOL    HW2 4728   6.206   0.427   3.364
 1277SOL     OW 4729   0.229   1.079   5.005
 1277SOL    HW1 4730   0.222   1.175   5.034
 1277SOL    HW2 4731   0.317   1.041   5.035
 1278SOL     OW 4732   2.909   1.660   5.232
 1278SOL    HW1 4733   2.904   1.758   5.253
 1278SOL    HW2 4734   2.914   1.648   5.133
 1279SOL     OW 4735   2.704   5.335   6.930
 1279SOL    HW1 4736   2.758   5.268   6.982
 1279SOL    HW2 4737   2.761   5.414   6.910
 1280SOL     OW 4738   1.781   6.431   3.356
 1280SOL    HW1 4739   1.853   6.366   3.330
 1280SOL    HW2 4740   1.738   6.400   3.441
 1281SOL     OW 4741   0.842   6.688   3.963
 1281SOL    HW1 4742   0.782   6.722   3.890
 1281SOL    HW2 4743   0.934   6.725   3.950
 1282SOL     OW 4744   1.275   0.714   2.486
 1282SOL    HW1 4745   1.238   0.627   2.519
 1282SOL    HW2 4746   1.205   0.763   2.434
 1283SOL     OW 4747   5.080   5.050   5.639
 1283SOL    HW1 4748   5.098   5.100   5.555
 1283SOL    HW2 4749   4.982   5.051   5.658
 1284SOL     OW 4750   2.517   1.934   2.306
 1284SOL    HW1 4751   2.562   1.978   2.228
 1284SOL    HW2 4752   2.548   1.839   2.313
 1285SOL     OW 4753   5.181   2.336   5.554
 1285SOL    HW1 4754   5.274   2.346   5.589
 1285SOL    HW2 4755   5.159   2.239   5.545
 1286SOL     OW 4756   5.943   5.682   1.429
 1286SOL    HW1 4757   5.944   5.692   1.330
 1286SOL    HW2 4758   5.865   5.731   1.467
 1287SOL     OW 4759   6.251   5.006   6.083
 1287SOL    HW1 4760   6.198   4.974   6.162
 1287SOL    HW2 4761   6.349   5.003   6.105
 1288SOL     OW 4762   6.511   2.509   2.896
 1288SOL    HW1 4763   6.570   2.429   2.910
 1288SOL    HW2 4764   6.521   2.543   2.803
 1289SOL     OW 4765   6.260   5.928   2.694
 1289SOL    HW1 4766   6.320   5.911   2.616
 1289SOL    HW2 4767   6.248   5.843   2.746
 1290SOL     OW 4768   0.889   6.664   1.553
 1290SOL    HW1 4769   0.937   6.750   1.566
 1290SOL    HW2 4770   0.941   6.606   1.490
 1291SOL     OW 4771   2.513   6.787   0.415
 1291SOL    HW1 4772   2.480   6.850   0.486
 1291SOL    HW2 4773   2.436   6.734   0.380
 1292SOL     OW 4774   1.153   6.090   0.143
 1292SOL    HW1 4775   1.248   6.095   0.112
 1292SOL    HW2 4776   1.143   6.143   0.227
 1293SOL     OW 4777   0.323   2.710   5.687
 1293SOL    HW1 4778   0.351   2.620   5.654
 1293SOL    HW2 4779   0.267   2.700   5.769
 1294SOL     OW 4780   6.784   1.856   2.794
 1294SOL    HW1 4781   6.778   1.788   2.721
 1294SOL    HW2 4782   6.697   1.857   2.844
 1295SOL     OW 4783   6.102   3.052   1.796
 1295SOL    HW1 4784   6.095   3.094   1.705
 1295SOL    HW2 4785   6.129   2.956   1.787
 1296SOL     OW 4786   3.694   2.742   6.159
 1296SOL    HW1 4787   3.738   2.794   6.086
 1296SOL    HW2 4788   3.729   2.649   6.159
 1297SOL     OW 4789   6.760   1.667   6.155
 1297SOL    HW1 4790   6.824   1.733   6.116
 1297SOL    HW2 4791   6.808   1.581   6.175
 1298SOL     OW 4792   5.655   2.966   3.203
 1298SOL    HW1 4793   5.597   2.889   3.230
 1298SOL    HW2 4794   5.629   3.047   3.256
 1299SOL     OW 4795   0.848   3.909   4.086
 1299SOL    HW1 4796   0.786   3.911   4.164
 1299SOL    HW2 4797   0.867   4.002   4.056
 1300SOL     OW 4798   2.830   3.210   1.360
 1300SOL    HW1 4799   2.847   3.300   1.398
 1300SOL    HW2 4800   2.806   3.218   1.263
 1301SOL     OW 4801   0.198   0.468   2.968
 1301SOL    HW1 4802   0.276   0.440   2.912
 1301SOL    HW2 4803   0.230   0.531   3.039
 1302SOL     OW 4804   2.337   5.846   5.009
 1302SOL    HW1 4805   2.294   5.919   4.955
 1302SOL    HW2 4806   2.334   5.761   4.957
 1303SOL     OW 4807   3.896   1.053   1.363
 1303SOL    HW1 4808   3.836   1.123   1.324
 1303SOL    HW2 4809   3.950   1.011   1.290
 1304SOL     OW 4810   2.855   0.744   6.633
 1304SOL    HW1 4811   2.909   0.796   6.567
 1304SOL    HW2 4812   2.811   0.667   6.587
 1305SOL     OW 4813   5.104   6.785   4.675
 1305SOL    HW1 4814   5.087   6.880   4.647
 1305SOL    HW2 4815   5.083   6.775   4.773
 1306SOL     OW 4816   1.015   4.614   4.067
 1306SOL    HW1 4817   0.941   4.552   4.043
 1306SOL    HW2 4818   1.040   4.601   4.163
 1307SOL     OW 4819   2.012   1.932   4.359
 1307SOL    HW1 4820   2.100   1.947   4.313
 1307SOL    HW2 4821   2.008   1.838   4.394
 1308SOL     OW 4822   4.573   5.706   2.801
 1308SOL    HW1 4823   4.597   5.642   2.727
 1308SOL    HW2 4824   4.532   5.655   2.877
 1309SOL     OW 4825   5.849   2.781   4.739
 1309SOL    HW1 4826   5.754   2.761   4.713
 1309SOL    HW2 4827   5.883   2.858   4.685
 1310SOL     OW 4828   4.781   3.712   5.321
 1310SOL    HW1 4829   4.744   3.690   5.411
 1310SOL    HW2 4830   4.764   3.635   5.259
 1311SOL     OW 4831   5.008   5.700   5.389
 1311SOL    HW1 4832   5.022   5.772   5.458
 1311SOL    HW2 4833   5.092   5.689   5.336
 1312SOL     OW 4834   0.480   6.874   1.096
 1312SOL    HW1 4835   0.477   6.868   1.196
 1312SOL    HW2 4836   0.425   6.951   1.066
 1313SOL     OW 4837   3.576   5.406   4.951
 1313SOL    HW1 4838   3.521   5.344   5.006
 1313SOL    HW2 4839   3.568   5.499   4.987
 1314SOL     OW 4840   6.299   1.604   4.694
 1314SOL    HW1 4841   6.305   1.603   4.595
 1314SOL    HW2 4842   6.205   1.583   4.722
 1315SOL     OW 4843   1.957   1.138   2.992
 1315SOL    HW1 4844   1.901   1.209   2.949
 1315SOL    HW2 4845   1.927   1.125   3.086
 1316SOL     OW 4846   2.978   6.570   2.495
 1316SOL    HW1 4847   3.028   6.524   2.422
 1316SOL    HW2 4848   2.945   6.658   2.463
 1317SOL     OW 4849   6.844   5.470   3.793
 1317SOL    HW1 4850   6.896   5.491   3.876
 1317SOL    HW2 4851   6.875   5.383   3.756
 1318SOL     OW 4852   0.251   6.748   0.816
 1318SOL    HW1 4853   0.285   6.675   0.757
 1318SOL    HW2 4854   0.260   6.836   0.769
 1319SOL     OW 4855   6.500   1.261   0.397
 1319SOL    HW1 4856   6.430   1.213   0.451
 1319SOL    HW2 4857   6.456   1.317   0.327
 1320SOL     OW 4858   5.432   4.883   6.238
 1320SOL    HW1 4859   5.420   4.786   6.217
 1320SOL    HW2 4860   5.520   4.897   6.282
 1321SOL     OW 4861   4.011   2.766   6.700
 1321SOL    HW1 4862   3.984   2.681   6.654
 1321SOL    HW2 4863   4.045   2.745   6.792
 1322SOL     OW 4864   6.079   1.470   5.157
 1322SOL    HW1 4865   6.163   1.493   5.109
 1322SOL    HW2 4866   6.092   1.484   5.255
 1323SOL     OW 4867   6.439   1.379   4.814
 1323SOL    HW1 4868   6.391   1.461   4.783
 1323SOL    HW2 4869   6.531   1.378   4.775
 1324SOL     OW 4870   0.945   3.795   0.480
 1324SOL    HW1 4871   0.882   3.807   0.404
 1324SOL    HW2 4872   1.021   3.860   0.473
 1325SOL     OW 4873   3.472   5.702   2.978
 1325SOL    HW1 4874   3.428   5.633   3.035
 1325SOL    HW2 4875   3.568   5.678   2.964
 1326SOL     OW 4876   5.444   3.376   3.833
 1326SOL    HW1 4877   5.438   3.373   3.933
 1326SOL    HW2 4878   5.353   3.393   3.795
 1327SOL     OW 4879   2.834   5.247   3.335
 1327SOL    HW1 4880   2.759   5.263   3.399
 1327SOL    HW2 4881   2.844   5.148   3.319
 1328SOL     OW 4882   2.055   2.436   6.697
 1328SOL    HW1 4883   2.088   2.345   6.720
 1328SOL    HW2 4884   1.980   2.430   6.631
 1329SOL     OW 4885   1.255   0.441   1.173
 1329SOL    HW1 4886   1.335   0.436   1.114
 1329SOL    HW2 4887   1.227   0.536   1.184
 1330SOL     OW 4888   6.262   6.726   1.621
 1330SOL    HW1 4889   6.251   6.637   1.666
 1330SOL    HW2 4890   6.210   6.727   1.535
 1331SOL     OW 4891   5.810   0.429   2.245
 1331SOL    HW1 4892   5.824   0.525   2.270
 1331SOL    HW2 4893   5.819   0.420   2.146
 1332SOL     OW 4894   4.454   1.526   1.670
 1332SOL    HW1 4895   4.544   1.531   1.713
 1332SOL    HW2 4896   4.413   1.617   1.667
 1333SOL     OW 4897   3.791   4.240   5.519
 1333SOL    HW1 4898   3.758   4.252   5.426
 1333SOL    HW2 4899   3.871   4.180   5.518
 1334SOL     OW 4900   0.453   3.754   4.562
 1334SOL    HW1 4901   0.528   3.698   4.526
 1334SOL    HW2 4902   0.491   3.829   4.617
 1335SOL     OW 4903   2.339   4.604   2.836
 1335SOL    HW1 4904   2.300   4.696   2.829
 1335SOL    HW2 4905   2.415   4.605   2.901
 1336SOL     OW 4906   0.769   0.549   5.403
 1336SOL    HW1 4907   0.723   0.473   5.356
 1336SOL    HW2 4908   0.863   0.522   5.425
 1337SOL     OW 4909   2.548   1.279   5.996
 1337SOL    HW1 4910   2.537   1.181   5.983
 1337SOL    HW2 4911   2.517   1.328   5.915
 1338SOL     OW 4912   3.952   5.709   0.389
 1338SOL    HW1 4913   3.979   5.802   0.414
 1338SOL    HW2 4914   4.016   5.673   0.321
 1339SOL     OW 4915   0.211   4.708   4.422
 1339SOL    HW1 4916   0.235   4.785   4.481
 1339SOL    HW2 4917   0.229   4.622   4.470
 1340SOL     OW 4918   2.036   1.625   6.092
 1340SOL    HW1 4919   1.976   1.681   6.149
 1340SOL    HW2 4920   1.984   1.549   6.054
 1341SOL     OW 4921   4.441   1.546   3.800
 1341SOL    HW1 4922   4.437   1.645   3.794
 1341SOL    HW2 4923   4.535   1.515   3.790
 1342SOL     OW 4924   0.431   6.341   0.827
 1342SOL    HW1 4925   0.344   6.298   0.853
 1342SOL    HW2 4926   0.416   6.397   0.745
 1343SOL     OW 4927   4.324   4.727   3.106
 1343SOL    HW1 4928   4.250   4.737   3.039
 1343SOL    HW2 4929   4.405   4.776   3.073
 1344SOL     OW 4930   5.766   1.487   2.618
 1344SOL    HW1 4931   5.749   1.480   2.520
 1344SOL    HW2 4932   5.838   1.555   2.635
 1345SOL     OW 4933   0.937   6.923   3.472
 1345SOL    HW1 4934   0.853   6.963   3.436
 1345SOL    HW2 4935   0.936   6.824   3.457
 1346SOL     OW 4936   0.065   0.644   3.781
 1346SOL    HW1 4937   0.115   0.629   3.696
 1346SOL    HW2 4938   0.113   0.712   3.837
 1347SOL     OW 4939   5.930   0.430   2.915
 1347SOL    HW1 4940   5.974   0.371   2.847
 1347SOL    HW2 4941   5.867   0.492   2.868
 1348SOL     OW 4942   5.072   4.384   4.392
 1348SOL    HW1 4943   5.069   4.448   4.469
 1348SOL    HW2 4944   5.136   4.310   4.412
 1349SOL     OW 4945   4.921   2.682   6.887
 1349SOL    HW1 4946   4.870   2.727   6.960
 1349SOL    HW2 4947   4.862   2.674   6.806
 1350SOL     OW 4948   3.327   6.754   5.806
 1350SOL    HW1 4949   3.258   6.691   5.841
 1350SOL    HW2 4950   3.294   6.848   5.815
 1351SOL     OW 4951   0.764   0.553   4.349
 1351SOL    HW1 4952   0.850   0.570   4.302
 1351SOL    HW2 4953   0.687   0.570   4.287
 1352SOL     OW 4954   0.555   0.340   3.626
 1352SOL    HW1 4955   0.474   0.312   3.575
 1352SOL    HW2 4956   0.526   0.391   3.707
 1353SOL     OW 4957   1.887   4.259   3.945
 1353SOL    HW1 4958   1.960   4.190   3.949
 1353SOL    HW2 4959   1.873   4.286   3.850
 1354SOL     OW 4960   0.149   0.353   1.514
 1354SOL    HW1 4961   0.095   0.433   1.487
 1354SOL    HW2 4962   0.185   0.366   1.606
 1355SOL     OW 4963   5.007   2.991   6.746
 1355SOL    HW1 4964   5.016   3.064   6.813
 1355SOL    HW2 4965   4.944   3.019   6.674
 1356SOL     OW 4966   3.221   4.092   2.258
 1356SOL    HW1 4967   3.208   4.190   2.269
 1356SOL    HW2 4968   3.190   4.064   2.167
 1357SOL     OW 4969   3.029   2.685   5.581
 1357SOL    HW1 4970   3.066   2.595   5.605
 1357SOL    HW2 4971   2.988   2.727   5.663
 1358SOL     OW 4972   2.865   2.658   5.359
 1358SOL    HW1 4973   2.820   2.746   5.349
 1358SOL    HW2 4974   2.932   2.662   5.433
 1359SOL     OW 4975   6.772   1.273   0.558
 1359SOL    HW1 4976   6.859   1.295   0.514
 1359SOL    HW2 4977   6.699   1.271   0.490
 1360SOL     OW 4978   3.004   3.281   4.329
 1360SOL    HW1 4979   2.937   3.230   4.276
 1360SOL    HW2 4980   3.019   3.370   4.287
 1361SOL     OW 4981   1.215   5.983   0.938
 1361SOL    HW1 4982   1.180   5.985   1.032
 1361SOL    HW2 4983   1.284   5.911   0.930
 1362SOL     OW 4984   3.040   2.865   6.176
 1362SOL    HW1 4985   3.055   2.885   6.080
 1362SOL    HW2 4986   3.113   2.906   6.231
 1363SOL     OW 4987   5.837   6.354   2.037
 1363SOL    HW1 4988   5.888   6.376   2.120
 1363SOL    HW2 4989   5.750   6.404   2.037
 1364SOL     OW 4990   0.764   3.717   0.712
 1364SOL    HW1 4991   0.836   3.734   0.644
 1364SOL    HW2 4992   0.771   3.622   0.744
 1365SOL     OW 4993   0.393   3.844   5.170
 1365SOL    HW1 4994   0.431   3.827   5.261
 1365SOL    HW2 4995   0.392   3.943   5.152
 1366SOL     OW 4996   5.178   0.411   1.195
 1366SOL    HW1 4997   5.112   0.433   1.124
 1366SOL    HW2 4998   5.270   0.433   1.163
 1367SOL     OW 4999   0.873   6.474   4.808
 1367SOL    HW1 5000   0.869   6.427   4.720
 1367SOL    HW2 5001   0.959   6.452   4.854
 1368SOL     OW 5002   1.355   6.445   5.433
 1368SOL    HW1 5003   1.264   6.459   5.473
 1368SOL    HW2 5004   1.363   6.350   5.402
 1369SOL     OW 5005   2.827   6.601   3.662
 1369SOL    HW1 5006   2.837   6.669   3.590
 1369SOL    HW2 5007   2.866   6.514   3.632
 1370SOL     OW 5008   6.740   2.335   3.022
 1370SOL    HW1 5009   6.840   2.331   3.027
 1370SOL    HW2 5010   6.708   2.416   3.072
 1371SOL     OW 5011   6.215   2.462   5.751
 1371SOL    HW1 5012   6.203   2.391   5.821
 1371SOL    HW2 5013   6.280   2.430   5.682
 1372SOL     OW 5014   6.669   3.102   0.069
 1372SOL    HW1 5015   6.662   3.004   0.047
 1372SOL    HW2 5016   6.763   3.133   0.053
 1373SOL     OW 5017   5.032   2.424   1.556
 1373SOL    HW1 5018   5.005   2.521   1.563
 1373SOL    HW2 5019   5.071   2.394   1.643
 1374SOL     OW 5020   3.899   3.986   0.850
 1374SOL    HW1 5021   3.908   4.042   0.933
 1374SOL    HW2 5022   3.849   3.902   0.873
 1375SOL     OW 5023   5.232   5.563   3.949
 1375SOL    HW1 5024   5.315   5.591   3.997
 1375SOL    HW2 5025   5.257   5.511   3.867
 1376SOL     OW 5026   2.591   4.585   6.194
 1376SOL    HW1 5027   2.649   4.587   6.113
 1376SOL    HW2 5028   2.592   4.674   6.239
 1377SOL     OW 5029   1.488   1.285   2.798
 1377SOL    HW1 5030   1.416   1.340   2.757
 1377SOL    HW2 5031   1.480   1.190   2.767
 1378SOL     OW 5032   4.679   2.374   4.036
 1378SOL    HW1 5033   4.651   2.293   3.985
 1378SOL    HW2 5034   4.731   2.347   4.116
 1379SOL     OW 5035   5.034   5.770   1.082
 1379SOL    HW1 5036   5.080   5.830   1.017
 1379SOL    HW2 5037   5.030   5.815   1.171
 1380SOL     OW 5038   6.848   6.368   1.937
 1380SOL    HW1 5039   6.883   6.328   2.022
 1380SOL    HW2 5040   6.925   6.401   1.882
 1381SOL     OW 5041   6.620   2.294   5.641
 1381SOL    HW1 5042   6.609   2.270   5.737
 1381SOL    HW2 5043   6.714   2.325   5.625
 1382SOL     OW 5044   4.727   2.630   0.112
 1382SOL    HW1 5045   4.778   2.616   0.197
 1382SOL    HW2 5046   4.646   2.685   0.130
 1383SOL     OW 5047   0.509   1.485   1.880
 1383SOL    HW1 5048   0.603   1.484   1.915
 1383SOL    HW2 5049   0.500   1.418   1.807
 1384SOL     OW 5050   6.041   1.719   1.857
 1384SOL    HW1 5051   6.140   1.731   1.869
 1384SOL    HW2 5052   6.000   1.808   1.834
 1385SOL     OW 5053   1.030   6.025   1.461
 1385SOL    HW1 5054   1.043   5.975   1.375
 1385SOL    HW2 5055   0.933   6.028   1.484
 1386SOL     OW 5056   2.373   5.779   4.016
 1386SOL    HW1 5057   2.454   5.801   3.961
 1386SOL    HW2 5058   2.398   5.710   4.085
 1387SOL     OW 5059   2.750   5.712   2.283
 1387SOL    HW1 5060   2.818   5.647   2.317
 1387SOL    HW2 5061   2.706   5.758   2.360
 1388SOL     OW 5062   6.634   0.730   2.022
 1388SOL    HW1 5063   6.564   0.796   2.051
 1388SOL    HW2 5064   6.684   0.767   1.944
 1389SOL     OW 5065   6.131   0.805   2.957
 1389SOL    HW1 5066   6.194   0.879   2.933
 1389SOL    HW2 5067   6.168   0.718   2.923
 1390SOL     OW 5068   0.881   1.496   6.041
 1390SOL    HW1 5069   0.958   1.475   5.980
 1390SOL    HW2 5070   0.849   1.413   6.085
 1391SOL     OW 5071   0.413   2.889   3.163
 1391SOL    HW1 5072   0.436   2.986   3.165
 1391SOL    HW2 5073   0.313   2.879   3.163
 1392SOL     OW 5074   4.915   4.608   5.449
 1392SOL    HW1 5075   5.008   4.578   5.426
 1392SOL    HW2 5076   4.859   4.607   5.366
 1393SOL     OW 5077   3.735   6.456   5.768
 1393SOL    HW1 5078   3.643   6.426   5.745
 1393SOL    HW2 5079   3.740   6.556   5.766
 1394SOL     OW 5080   2.078   6.001   5.918
 1394SOL    HW1 5081   1.985   5.981   5.947
 1394SOL    HW2 5082   2.142   5.976   5.990
 1395SOL     OW 5083   3.518   4.368   5.534
 1395SOL    HW1 5084   3.589   4.317   5.582
 1395SOL    HW2 5085   3.554   4.399   5.446
 1396SOL     OW 5086   5.571   5.929   4.184
 1396SOL    HW1 5087   5.577   6.010   4.242
 1396SOL    HW2 5088   5.621   5.946   4.099
 1397SOL     OW 5089   4.377   6.370   4.856
 1397SOL    HW1 5090   4.472   6.393   4.879
 1397SOL    HW2 5091   4.375   6.315   4.772
 1398SOL     OW 5092   1.656   1.520   4.629
 1398SOL    HW1 5093   1.594   1.595   4.649
 1398SOL    HW2 5094   1.704   1.537   4.543
 1399SOL     OW 5095   2.839   6.502   1.397
 1399SOL    HW1 5096   2.797   6.431   1.454
 1399SOL    HW2 5097   2.911   6.462   1.341
 1400SOL     OW 5098   0.920   6.946   2.148
 1400SOL    HW1 5099   0.991   6.999   2.196
 1400SOL    HW2 5100   0.898   6.991   2.062
 1401SOL     OW 5101   0.028   1.449   4.480
 1401SOL    HW1 5102   0.113   1.438   4.533
 1401SOL    HW2 5103   7.017   1.359   4.454
 1402SOL     OW 5104   6.873   3.213   0.324
 1402SOL    HW1 5105   6.802   3.191   0.258
 1402SOL    HW2 5106   6.833   3.218   0.416
 1403SOL     OW 5107   2.641   0.594   2.320
 1403SOL    HW1 5108   2.736   0.613   2.344
 1403SOL    HW2 5109   2.636   0.568   2.223
 1404SOL     OW 5110   5.861   0.269   0.270
 1404SOL    HW1 5111   5.960   0.273   0.262
 1404SOL    HW2 5112   5.830   0.338   0.336
 1405SOL     OW 5113   2.176   3.829   1.131
 1405SOL    HW1 5114   2.265   3.835   1.087
 1405SOL    HW2 5115   2.153   3.917   1.173
 1406SOL     OW 5116   1.855   4.048   1.074
 1406SOL    HW1 5117   1.774   4.104   1.090
 1406SOL    HW2 5118   1.827   3.957   1.045
 1407SOL     OW 5119   6.703   2.302   2.558
 1407SOL    HW1 5120   6.707   2.402   2.565
 1407SOL    HW2 5121   6.611   2.272   2.585
 1408SOL     OW 5122   6.579   0.806   6.666
 1408SOL    HW1 5123   6.568   0.801   6.567
 1408SOL    HW2 5124   6.506   0.862   6.705
 1409SOL     OW 5125   7.006   0.934   4.509
 1409SOL    HW1 5126   0.043   0.886   4.444
 1409SOL    HW2 5127   6.970   0.869   4.576
 1410SOL     OW 5128   0.574   2.830   0.000
 1410SOL    HW1 5129   0.570   2.824   6.923
 1410SOL    HW2 5130   0.485   2.804   0.038
 1411SOL     OW 5131   1.322   6.883   1.604
 1411SOL    HW1 5132   1.339   6.792   1.565
 1411SOL    HW2 5133   1.409   6.931   1.616
 1412SOL     OW 5134   0.989   2.657   0.046
 1412SOL    HW1 5135   0.901   2.657   0.093
 1412SOL    HW2 5136   1.012   2.564   0.018
 1413SOL     OW 5137   2.595   0.644   3.680
 1413SOL    HW1 5138   2.512   0.698   3.663
 1413SOL    HW2 5139   2.590   0.558   3.629
 1414SOL     OW 5140   1.873   1.798   1.873
 1414SOL    HW1 5141   1.962   1.810   1.829
 1414SOL    HW2 5142   1.886   1.771   1.968
 1415SOL     OW 5143   4.170   5.997   5.681
 1415SOL    HW1 5144   4.170   6.068   5.752
 1415SOL    HW2 5145   4.247   5.936   5.695
 1416SOL     OW 5146   4.569   5.282   1.818
 1416SOL    HW1 5147   4.569   5.291   1.718
 1416SOL    HW2 5148   4.655   5.239   1.848
 1417SOL     OW 5149   3.062   1.751   6.195
 1417SOL    HW1 5150   3.004   1.821   6.152
 1417SOL    HW2 5151   3.069   1.672   6.134
 1418SOL     OW 5152   3.861   4.027   3.087
 1418SOL    HW1 5153   3.928   3.959   3.060
 1418SOL    HW2 5154   3.880   4.058   3.180
 1419SOL     OW 5155   4.021   6.740   4.556
 1419SOL    HW1 5156   4.020   6.671   4.484
 1419SOL    HW2 5157   4.070   6.821   4.525
 1420SOL     OW 5158   0.764   5.993   2.028
 1420SOL    HW1 5159   0.796   5.903   1.999
 1420SOL    HW2 5160   0.685   6.020   1.973
 1421SOL     OW 5161   3.466   1.555   2.234
 1421SOL    HW1 5162   3.420   1.467   2.220
 1421SOL    HW2 5163   3.515   1.580   2.151
 1422SOL     OW 5164   3.131   5.213   0.676
 1422SOL    HW1 5165   3.170   5.305   0.684
 1422SOL    HW2 5166   3.156   5.173   0.588
 1423SOL     OW 5167   5.273   0.305   2.705
 1423SOL    HW1 5168   5.259   0.212   2.670
 1423SOL    HW2 5169   5.315   0.300   2.796
 1424SOL     OW 5170   6.201   5.185   4.979
 1424SOL    HW1 5171   6.198   5.095   5.021
 1424SOL    HW2 5172   6.203   5.255   5.051
 1425SOL     OW 5173   2.354   6.971   4.091
 1425SOL    HW1 5174   2.311   6.989   4.179
 1425SOL    HW2 5175   2.334   0.023   4.028
 1426SOL     OW 5176   0.713   1.493   5.444
 1426SOL    HW1 5177   0.771   1.515   5.366
 1426SOL    HW2 5178   0.674   1.402   5.433
 1427SOL     OW 5179   5.908   0.651   4.168
 1427SOL    HW1 5180   5.908   0.683   4.074
 1427SOL    HW2 5181   5.814   0.649   4.203
 1428SOL     OW 5182   5.626   1.872   6.711
 1428SOL    HW1 5183   5.706   1.871   6.651
 1428SOL    HW2 5184   5.543   1.874   6.656
 1429SOL     OW 5185   0.347   0.856   0.635
 1429SOL    HW1 5186   0.414   0.858   0.561
 1429SOL    HW2 5187   0.262   0.899   0.605
 1430SOL     OW 5188   1.787   5.405   3.650
 1430SOL    HW1 5189   1.827   5.427   3.739
 1430SOL    HW2 5190   1.757   5.310   3.650
 1431SOL     OW 5191   1.925   1.097   0.916
 1431SOL    HW1 5192   1.846   1.055   0.872
 1431SOL    HW2 5193   2.009   1.066   0.871
 1432SOL     OW 5194   1.922   1.356   2.381
 1432SOL    HW1 5195   1.901   1.369   2.284
 1432SOL    HW2 5196   1.872   1.276   2.416
 1433SOL     OW 5197   3.986   0.908   4.099
 1433SOL    HW1 5198   3.999   0.994   4.049
 1433SOL    HW2 5199   3.896   0.870   4.076
 1434SOL     OW 5200   1.214   0.890   5.616
 1434SOL    HW1 5201   1.210   0.949   5.696
 1434SOL    HW2 5202   1.166   0.933   5.540
 1435SOL     OW 5203   6.437   2.166   2.624
 1435SOL    HW1 5204   6.405   2.076   2.594
 1435SOL    HW2 5205   6.476   2.159   2.716
 1436SOL     OW 5206   4.175   3.680   0.365
 1436SOL    HW1 5207   4.172   3.640   0.274
 1436SOL    HW2 5208   4.153   3.778   0.359
 1437SOL     OW 5209   3.593   0.501   2.235
 1437SOL    HW1 5210   3.608   0.451   2.150
 1437SOL    HW2 5211   3.576   0.597   2.215
 1438SOL     OW 5212   2.811   6.764   1.301
 1438SOL    HW1 5213   2.807   6.674   1.345
 1438SOL    HW2 5214   2.846   6.831   1.366
 1439SOL     OW 5215   0.534   5.921   2.627
 1439SOL    HW1 5216   0.630   5.948   2.635
 1439SOL    HW2 5217   0.480   5.967   2.697
 1440SOL     OW 5218   3.066   3.394   1.314
 1440SOL    HW1 5219   3.081   3.319   1.378
 1440SOL    HW2 5220   3.028   3.359   1.228
 1441SOL     OW 5221   6.289   6.405   1.064
 1441SOL    HW1 5222   6.354   6.358   1.006
 1441SOL    HW2 5223   6.201   6.357   1.063
 1442SOL     OW 5224   5.826   5.236   0.585
 1442SOL    HW1 5225   5.886   5.160   0.561
 1442SOL    HW2 5226   5.793   5.281   0.502
 1443SOL     OW 5227   0.606   2.906   2.949
 1443SOL    HW1 5228   0.564   2.906   2.858
 1443SOL    HW2 5229   0.544   2.863   3.015
 1444SOL     OW 5230   6.085   5.238   0.383
 1444SOL    HW1 5231   6.174   5.226   0.338
 1444SOL    HW2 5232   6.097   5.289   0.468
 1445SOL     OW 5233   1.557   3.474   2.292
 1445SOL    HW1 5234   1.491   3.545   2.267
 1445SOL    HW2 5235   1.556   3.402   2.224
 1446SOL     OW 5236   6.962   0.486   6.763
 1446SOL    HW1 5237   6.971   0.446   6.854
 1446SOL    HW2 5238   6.873   0.532   6.755
 1447SOL     OW 5239   6.244   5.052   4.445
 1447SOL    HW1 5240   6.293   5.028   4.361
 1447SOL    HW2 5241   6.280   5.138   4.481
 1448SOL     OW 5242   1.235   3.359   5.886
 1448SOL    HW1 5243   1.239   3.418   5.805
 1448SOL    HW2 5244   1.258   3.414   5.967
 1449SOL     OW 5245   2.113   4.065   4.179
 1449SOL    HW1 5246   2.178   4.012   4.233
 1449SOL    HW2 5247   2.132   4.052   4.081
 1450SOL     OW 5248   2.287   2.333   4.486
 1450SOL    HW1 5249   2.351   2.277   4.434
 1450SOL    HW2 5250   2.202   2.283   4.500
 1451SOL     OW 5251   2.497   0.552   2.087
 1451SOL    HW1 5252   2.448   0.598   2.013
 1451SOL    HW2 5253   2.442   0.475   2.120
 1452SOL     OW 5254   4.818   2.887   5.530
 1452SOL    HW1 5255   4.913   2.887   5.560
 1452SOL    HW2 5256   4.760   2.922   5.604
 1453SOL     OW 5257   0.658   4.924   5.228
 1453SOL    HW1 5258   0.745   4.970   5.211
 1453SOL    HW2 5259   0.603   4.979   5.291
 1454SOL     OW 5260   3.451   1.708   3.645
 1454SOL    HW1 5261   3.354   1.723   3.663
 1454SOL    HW2 5262   3.497   1.797   3.636
 1455SOL     OW 5263   0.887   5.756   1.940
 1455SOL    HW1 5264   0.875   5.743   1.842
 1455SOL    HW2 5265   0.959   5.695   1.973
 1456SOL     OW 5266   6.149   5.470   5.181
 1456SOL    HW1 5267   6.175   5.473   5.085
 1456SOL    HW2 5268   6.074   5.405   5.194
 1457SOL     OW 5269   0.753   4.442   5.973
 1457SOL    HW1 5270   0.736   4.421   6.069
 1457SOL    HW2 5271   0.833   4.503   5.966
 1458SOL     OW 5272   4.995   5.411   4.999
 1458SOL    HW1 5273   4.919   5.359   5.039
 1458SOL    HW2 5274   5.080   5.359   5.009
 1459SOL     OW 5275   5.263   6.247   5.303
 1459SOL    HW1 5276   5.179   6.216   5.257
 1459SOL    HW2 5277   5.341   6.228   5.244
 1460SOL     OW 5278   1.813   6.418   5.620
 1460SOL    HW1 5279   1.865   6.384   5.542
 1460SOL    HW2 5280   1.738   6.475   5.587
 1461SOL     OW 5281   0.367   3.170   3.614
 1461SOL    HW1 5282   0.404   3.217   3.534
 1461SOL    HW2 5283   0.434   3.104   3.648
 1462SOL     OW 5284   1.049   0.586   0.664
 1462SOL    HW1 5285   0.968   0.586   0.723
 1462SOL    HW2 5286   1.056   0.499   0.616
 1463SOL     OW 5287   2.098   5.759   6.776
 1463SOL    HW1 5288   2.016   5.814   6.759
 1463SOL    HW2 5289   2.123   5.709   6.693
 1464SOL     OW 5290   0.601   4.275   4.326
 1464SOL    HW1 5291   0.699   4.285   4.342
 1464SOL    HW2 5292   0.574   4.181   4.344
 1465SOL     OW 5293   1.227   2.423   3.573
 1465SOL    HW1 5294   1.209   2.351   3.639
 1465SOL    HW2 5295   1.206   2.390   3.481
 1466SOL     OW 5296   4.790   2.414   1.410
 1466SOL    HW1 5297   4.861   2.383   1.475
 1466SOL    HW2 5298   4.830   2.422   1.319
 1467SOL     OW 5299   1.160   1.106   4.240
 1467SOL    HW1 5300   1.214   1.058   4.309
 1467SOL    HW2 5301   1.077   1.053   4.220
 1468SOL     OW 5302   2.604   5.817   2.498
 1468SOL    HW1 5303   2.504   5.827   2.495
 1468SOL    HW2 5304   2.634   5.812   2.594
 1469SOL     OW 5305   6.289   4.424   3.344
 1469SOL    HW1 5306   6.272   4.515   3.305
 1469SOL    HW2 5307   6.254   4.421   3.438
 1470SOL     OW 5308   6.494   1.841   0.760
 1470SOL    HW1 5309   6.588   1.855   0.792
 1470SOL    HW2 5310   6.464   1.749   0.785
 1471SOL     OW 5311   4.949   6.809   1.717
 1471SOL    HW1 5312   5.003   6.870   1.774
 1471SOL    HW2 5313   4.896   6.863   1.651
 1472SOL     OW 5314   1.690   6.934   6.078
 1472SOL    HW1 5315   1.776   6.885   6.093
 1472SOL    HW2 5316   1.645   6.949   6.166
 1473SOL     OW 5317   2.481   5.677   4.248
 1473SOL    HW1 5318   2.444   5.585   4.237
 1473SOL    HW2 5319   2.576   5.678   4.216
 1474SOL     OW 5320   3.539   5.086   1.306
 1474SOL    HW1 5321   3.475   5.059   1.377
 1474SOL    HW2 5322   3.519   5.180   1.276
 1475SOL     OW 5323   5.016   0.350   0.041
 1475SOL    HW1 5324   5.092   0.408   0.069
 1475SOL    HW2 5325   4.930   0.393   0.068
 1476SOL     OW 5326   4.983   0.767   1.193
 1476SOL    HW1 5327   5.004   0.692   1.255
 1476SOL    HW2 5328   4.938   0.841   1.243
 1477SOL     OW 5329   4.041   5.037   1.375
 1477SOL    HW1 5330   3.952   5.082   1.386
 1477SOL    HW2 5331   4.027   4.939   1.358
 1478SOL     OW 5332   5.172   5.757   6.308
 1478SOL    HW1 5333   5.093   5.701   6.332
 1478SOL    HW2 5334   5.169   5.780   6.211
 1479SOL     OW 5335   3.811   4.024   1.373
 1479SOL    HW1 5336   3.750   4.014   1.451
 1479SOL    HW2 5337   3.901   4.053   1.405
 1480SOL     OW 5338   2.951   0.194   4.922
 1480SOL    HW1 5339   2.976   0.224   4.830
 1480SOL    HW2 5340   3.032   0.195   4.981
 1481SOL     OW 5341   5.511   2.581   6.155
 1481SOL    HW1 5342   5.419   2.570   6.193
 1481SOL    HW2 5343   5.529   2.508   6.090
 1482SOL     OW 5344   4.736   1.105   0.645
 1482SOL    HW1 5345   4.753   1.190   0.595
 1482SOL    HW2 5346   4.638   1.087   0.648
 1483SOL     OW 5347   5.469   1.419   5.863
 1483SOL    HW1 5348   5.533   1.477   5.812
 1483SOL    HW2 5349   5.462   1.330   5.818
 1484SOL     OW 5350   3.058   5.621   4.971
 1484SOL    HW1 5351   3.081   5.574   4.886
 1484SOL    HW2 5352   2.994   5.696   4.952
 1485SOL     OW 5353   5.195   2.343   3.265
 1485SOL    HW1 5354   5.112   2.353   3.209
 1485SOL    HW2 5355   5.204   2.423   3.324
 1486SOL     OW 5356   5.331   6.904   4.112
 1486SOL    HW1 5357   5.310   6.965   4.036
 1486SOL    HW2 5358   5.298   6.943   4.197
 1487SOL     OW 5359   6.734   0.304   1.125
 1487SOL    HW1 5360   6.754   0.372   1.055
 1487SOL    HW2 5361   6.818   0.256   1.152
 1488SOL     OW 5362   5.906   0.779   2.564
 1488SOL    HW1 5363   5.874   0.872   2.582
 1488SOL    HW2 5364   5.868   0.718   2.633
 1489SOL     OW 5365   3.530   4.127   6.729
 1489SOL    HW1 5366   3.597   4.190   6.768
 1489SOL    HW2 5367   3.452   4.178   6.693
 1490SOL     OW 5368   7.007   2.249   2.872
 1490SOL    HW1 5369   0.039   2.319   2.828
 1490SOL    HW2 5370   6.954   2.199   2.803
 1491SOL     OW 5371   6.654   2.905   3.119
 1491SOL    HW1 5372   6.588   2.935   3.188
 1491SOL    HW2 5373   6.734   2.866   3.164
 1492SOL     OW 5374   5.713   1.176   3.003
 1492SOL    HW1 5375   5.681   1.222   2.920
 1492SOL    HW2 5376   5.766   1.095   2.978
 1493SOL     OW 5377   4.603   2.430   5.688
 1493SOL    HW1 5378   4.694   2.431   5.729
 1493SOL    HW2 5379   4.534   2.430   5.760
 1494SOL     OW 5380   6.241   4.439   5.553
 1494SOL    HW1 5381   6.149   4.439   5.514
 1494SOL    HW2 5382   6.266   4.532   5.579
 1495SOL     OW 5383   6.467   4.280   4.529
 1495SOL    HW1 5384   6.484   4.308   4.624
 1495SOL    HW2 5385   6.502   4.349   4.467
 1496SOL     OW 5386   6.365   5.503   6.568
 1496SOL    HW1 5387   6.401   5.487   6.660
 1496SOL    HW2 5388   6.422   5.456   6.501
 1497SOL     OW 5389   5.984   3.564   3.171
 1497SOL    HW1 5390   5.917   3.495   3.197
 1497SOL    HW2 5391   6.072   3.520   3.151
 1498SOL     OW 5392   3.383   4.396   0.742
 1498SOL    HW1 5393   3.350   4.463   0.675
 1498SOL    HW2 5394   3.443   4.331   0.697
 1499SOL     OW 5395   0.629   4.064   5.293
 1499SOL    HW1 5396   0.676   4.148   5.320
 1499SOL    HW2 5397   0.532   4.081   5.282
 1500SOL     OW 5398   0.742   5.493   1.846
 1500SOL    HW1 5399   0.745   5.575   1.789
 1500SOL    HW2 5400   0.648   5.459   1.850
 1501SOL     OW 5401   5.587   1.603   0.203
 1501SOL    HW1 5402   5.628   1.618   0.113
 1501SOL    HW2 5403   5.650   1.636   0.273
 1502SOL     OW 5404   6.512   0.216   6.876
 1502SOL    HW1 5405   6.575   0.169   6.815
 1502SOL    HW2 5406   6.426   0.165   6.881
 1503SOL     OW 5407   0.584   4.606   1.767
 1503SOL    HW1 5408   0.511   4.664   1.729
 1503SOL    HW2 5409   0.610   4.537   1.700
 1504SOL     OW 5410   0.858   0.102   2.507
 1504SOL    HW1 5411   0.760   0.106   2.526
 1504SOL    HW2 5412   0.884   0.008   2.488
 1505SOL     OW 5413   4.990   6.040   5.017
 1505SOL    HW1 5414   4.993   5.947   4.979
 1505SOL    HW2 5415   4.990   6.035   5.117
 1506SOL     OW 5416   0.565   1.693   0.720
 1506SOL    HW1 5417   0.645   1.640   0.748
 1506SOL    HW2 5418   0.498   1.631   0.678
 1507SOL     OW 5419   1.914   2.721   4.474
 1507SOL    HW1 5420   1.899   2.745   4.378
 1507SOL    HW2 5421   2.011   2.709   4.490
 1508SOL     OW 5422   1.210   0.866   0.676
 1508SOL    HW1 5423   1.179   0.780   0.716
 1508SOL    HW2 5424   1.213   0.857   0.576
 1509SOL     OW 5425   5.107   0.617   4.324
 1509SOL    HW1 5426   5.123   0.535   4.377
 1509SOL    HW2 5427   5.142   0.605   4.231
 1510SOL     OW 5428   3.491   5.660   4.192
 1510SOL    HW1 5429   3.466   5.689   4.100
 1510SOL    HW2 5430   3.498   5.560   4.194
 1511SOL     OW 5431   3.442   3.543   4.713
 1511SOL    HW1 5432   3.426   3.537   4.614
 1511SOL    HW2 5433   3.364   3.587   4.757
 1512SOL     OW 5434   6.436   6.298   0.873
 1512SOL    HW1 5435   6.526   6.261   0.898
 1512SOL    HW2 5436   6.405   6.256   0.787
 1513SOL     OW 5437   2.913   0.006   6.274
 1513SOL    HW1 5438   2.923   0.019   6.373
 1513SOL    HW2 5439   2.994   0.042   6.228
 1514SOL     OW 5440   3.373   2.046   5.699
 1514SOL    HW1 5441   3.360   2.123   5.762
 1514SOL    HW2 5442   3.353   1.960   5.745
 1515SOL     OW 5443   5.749   1.959   1.967
 1515SOL    HW1 5444   5.764   1.871   2.011
 1515SOL    HW2 5445   5.704   1.946   1.880
 1516SOL     OW 5446   5.749   6.554   5.004
 1516SOL    HW1 5447   5.658   6.587   5.030
 1516SOL    HW2 5448   5.748   6.455   4.996
 1517SOL     OW 5449   4.148   6.347   3.663
 1517SOL    HW1 5450   4.166   6.410   3.587
 1517SOL    HW2 5451   4.235   6.326   3.709
 1518SOL     OW 5452   0.401   2.429   0.043
 1518SOL    HW1 5453   0.321   2.412   0.100
 1518SOL    HW2 5454   0.372   2.462   6.976
 1519SOL     OW 5455   7.009   4.237   6.569
 1519SOL    HW1 5456   6.934   4.176   6.542
 1519SOL    HW2 5457   0.057   4.237   6.498
 1520SOL     OW 5458   7.013   6.060   2.444
 1520SOL    HW1 5459   0.022   6.112   2.364
 1520SOL    HW2 5460   0.055   5.987   2.463
 1521SOL     OW 5461   1.716   5.291   6.359
 1521SOL    HW1 5462   1.730   5.196   6.384
 1521SOL    HW2 5463   1.620   5.305   6.333
 1522SOL     OW 5464   4.776   5.984   4.092
 1522SOL    HW1 5465   4.758   5.897   4.138
 1522SOL    HW2 5466   4.874   6.003   4.094
 1523SOL     OW 5467   3.840   5.990   0.082
 1523SOL    HW1 5468   3.786   5.978   7.022
 1523SOL    HW2 5469   3.934   5.960   0.065
 1524SOL     OW 5470   2.162   1.781   2.278
 1524SOL    HW1 5471   2.241   1.730   2.314
 1524SOL    HW2 5472   2.195   1.860   2.226
 1525SOL     OW 5473   5.860   2.417   6.888
 1525SOL    HW1 5474   5.767   2.433   6.853
 1525SOL    HW2 5475   5.857   2.346   6.958
 1526SOL     OW 5476   0.766   1.363   0.552
 1526SOL    HW1 5477   0.830   1.289   0.530
 1526SOL    HW2 5478   0.809   1.451   0.534
 1527SOL     OW 5479   3.771   0.948   3.894
 1527SOL    HW1 5480   3.693   0.899   3.855
 1527SOL    HW2 5481   3.817   1.001   3.823
 1528SOL     OW 5482   4.387   3.646   1.195
 1528SOL    HW1 5483   4.289   3.658   1.209
 1528SOL    HW2 5484   4.431   3.630   1.284
 1529SOL     OW 5485   4.981   1.465   5.704
 1529SOL    HW1 5486   5.026   1.468   5.615
 1529SOL    HW2 5487   4.942   1.374   5.719
 1530SOL     OW 5488   3.494   6.477   1.858
 1530SOL    HW1 5489   3.556   6.478   1.779
 1530SOL    HW2 5490   3.523   6.547   1.924
 1531SOL     OW 5491   3.471   6.872   4.068
 1531SOL    HW1 5492   3.389   6.872   4.011
 1531SOL    HW2 5493   3.445   6.894   4.163
 1532SOL     OW 5494   2.386   5.130   6.437
 1532SOL    HW1 5495   2.321   5.166   6.371
 1532SOL    HW2 5496   2.346   5.050   6.483
 1533SOL     OW 5497   5.925   5.422   1.557
 1533SOL    HW1 5498   5.942   5.501   1.498
 1533SOL    HW2 5499   5.843   5.374   1.525
 1534SOL     OW 5500   3.532   5.040   6.454
 1534SOL    HW1 5501   3.595   5.117   6.440
 1534SOL    HW2 5502   3.474   5.030   6.373
 1535SOL     OW 5503   6.135   6.480   4.948
 1535SOL    HW1 5504   6.127   6.487   5.047
 1535SOL    HW2 5505   6.092   6.560   4.905
 1536SOL     OW 5506   4.475   4.067   6.801
 1536SOL    HW1 5507   4.394   4.124   6.790
 1536SOL    HW2 5508   4.481   4.003   6.724
 1537SOL     OW 5509   2.719   5.412   3.723
 1537SOL    HW1 5510   2.651   5.482   3.745
 1537SOL    HW2 5511   2.682   5.350   3.655
 1538SOL     OW 5512   3.103   1.384   0.068
 1538SOL    HW1 5513   3.152   1.398   7.004
 1538SOL    HW2 5514   3.055   1.297   0.066
 1539SOL     OW 5515   5.973   3.494   0.919
 1539SOL    HW1 5516   6.051   3.523   0.863
 1539SOL    HW2 5517   5.910   3.440   0.863
 1540SOL     OW 5518   3.428   6.928   4.720
 1540SOL    HW1 5519   3.516   6.896   4.755
 1540SOL    HW2 5520   3.432   6.935   4.620
 1541SOL     OW 5521   3.379   3.102   5.140
 1541SOL    HW1 5522   3.305   3.041   5.116
 1541SOL    HW2 5523   3.456   3.088   5.077
 1542SOL     OW 5524   6.737   0.173   2.711
 1542SOL    HW1 5525   6.678   0.094   2.729
 1542SOL    HW2 5526   6.690   0.236   2.648
 1543SOL     OW 5527   2.669   4.405   6.965
 1543SOL    HW1 5528   2.656   4.502   6.942
 1543SOL    HW2 5529   2.676   4.352   6.880
 1544SOL     OW 5530   3.941   3.011   4.519
 1544SOL    HW1 5531   4.020   3.012   4.457
 1544SOL    HW2 5532   3.883   2.932   4.498
 1545SOL     OW 5533   6.078   6.542   2.610
 1545SOL    HW1 5534   6.085   6.539   2.510
 1545SOL    HW2 5535   6.149   6.485   2.650
 1546SOL     OW 5536   5.332   6.405   5.903
 1546SOL    HW1 5537   5.397   6.481   5.896
 1546SOL    HW2 5538   5.308   6.373   5.811
 1547SOL     OW 5539   1.797   3.402   6.924
 1547SOL    HW1 5540   1.793   3.485   6.868
 1547SOL    HW2 5541   1.823   3.325   6.867
 1548SOL     OW 5542   6.344   2.241   6.474
 1548SOL    HW1 5543   6.252   2.218   6.504
 1548SOL    HW2 5544   6.352   2.341   6.465
 1549SOL     OW 5545   4.423   0.901   5.441
 1549SOL    HW1 5546   4.454   0.957   5.364
 1549SOL    HW2 5547   4.357   0.833   5.409
 1550SOL     OW 5548   3.057   3.076   3.341
 1550SOL    HW1 5549   3.063   3.136   3.261
 1550SOL    HW2 5550   2.983   3.011   3.328
 1551SOL     OW 5551   0.111   5.106   6.169
 1551SOL    HW1 5552   0.093   5.179   6.235
 1551SOL    HW2 5553   0.035   5.042   6.168
 1552SOL     OW 5554   2.301   4.255   2.246
 1552SOL    HW1 5555   2.240   4.288   2.318
 1552SOL    HW2 5556   2.358   4.181   2.282
 1553SOL     OW 5557   0.859   1.821   5.657
 1553SOL    HW1 5558   0.890   1.804   5.750
 1553SOL    HW2 5559   0.762   1.796   5.649
 1554SOL     OW 5560   2.728   1.775   3.477
 1554SOL    HW1 5561   2.817   1.819   3.464
 1554SOL    HW2 5562   2.737   1.676   3.469
 1555SOL     OW 5563   6.971   3.447   6.283
 1555SOL    HW1 5564   7.019   3.397   6.356
 1555SOL    HW2 5565   6.913   3.384   6.232
 1556SOL     OW 5566   1.995   1.231   5.834
 1556SOL    HW1 5567   2.034   1.232   5.742
 1556SOL    HW2 5568   1.913   1.174   5.835
 1557SOL     OW 5569   0.435   3.115   6.687
 1557SOL    HW1 5570   0.448   3.152   6.779
 1557SOL    HW2 5571   0.460   3.019   6.686
 1558SOL     OW 5572   6.525   6.951   4.702
 1558SOL    HW1 5573   6.609   7.004   4.699
 1558SOL    HW2 5574   6.462   6.984   4.631
 1559SOL     OW 5575   0.425   1.877   6.066
 1559SOL    HW1 5576   0.396   1.890   5.971
 1559SOL    HW2 5577   0.522   1.900   6.075
 1560SOL     OW 5578   0.046   0.952   6.508
 1560SOL    HW1 5579   0.097   0.950   6.422
 1560SOL    HW2 5580   0.093   0.897   6.576
 1561SOL     OW 5581   5.616   5.701   2.972
 1561SOL    HW1 5582   5.520   5.684   2.952
 1561SOL    HW2 5583   5.623   5.765   3.049
 1562SOL     OW 5584   5.850   0.801   3.627
 1562SOL    HW1 5585   5.772   0.818   3.567
 1562SOL    HW2 5586   5.908   0.883   3.631
 1563SOL     OW 5587   3.628   0.442   5.539
 1563SOL    HW1 5588   3.569   0.522   5.551
 1563SOL    HW2 5589   3.712   0.455   5.593
 1564SOL     OW 5590   1.273   2.260   2.785
 1564SOL    HW1 5591   1.335   2.186   2.757
 1564SOL    HW2 5592   1.273   2.331   2.715
 1565SOL     OW 5593   5.022   3.698   1.744
 1565SOL    HW1 5594   5.020   3.601   1.721
 1565SOL    HW2 5595   4.928   3.734   1.745
 1566SOL     OW 5596   5.554   4.209   3.645
 1566SOL    HW1 5597   5.530   4.280   3.580
 1566SOL    HW2 5598   5.483   4.202   3.715
 1567SOL     OW 5599   6.881   5.572   5.816
 1567SOL    HW1 5600   6.978   5.580   5.795
 1567SOL    HW2 5601   6.862   5.617   5.903
 1568SOL     OW 5602   0.222   0.587   0.944
 1568SOL    HW1 5603   0.128   0.556   0.934
 1568SOL    HW2 5604   0.271   0.577   0.857
 1569SOL     OW 5605   3.549   5.889   5.235
 1569SOL    HW1 5606   3.629   5.883   5.175
 1569SOL    HW2 5607   3.474   5.836   5.195
 1570SOL     OW 5608   3.763   2.071   1.563
 1570SOL    HW1 5609   3.789   2.046   1.470
 1570SOL    HW2 5610   3.707   1.999   1.603
 1571SOL     OW 5611   6.690   4.257   1.564
 1571SOL    HW1 5612   6.774   4.204   1.578
 1571SOL    HW2 5613   6.615   4.212   1.613
 1572SOL     OW 5614   1.596   6.994   2.402
 1572SOL    HW1 5615   1.664   6.938   2.449
 1572SOL    HW2 5616   1.640   0.053   2.365
 1573SOL     OW 5617   4.269   0.231   1.044
 1573SOL    HW1 5618   4.252   0.134   1.064
 1573SOL    HW2 5619   4.229   0.254   0.956
 1574SOL     OW 5620   6.741   2.460   2.243
 1574SOL    HW1 5621   6.665   2.496   2.189
 1574SOL    HW2 5622   6.742   2.504   2.333
 1575SOL     OW 5623   2.393   2.307   0.564
 1575SOL    HW1 5624   2.380   2.228   0.624
 1575SOL    HW2 5625   2.447   2.281   0.484
 1576SOL     OW 5626   6.422   6.335   3.971
 1576SOL    HW1 5627   6.365   6.254   3.954
 1576SOL    HW2 5628   6.412   6.399   3.895
 1577SOL     OW 5629   2.186   0.417   6.780
 1577SOL    HW1 5630   2.140   0.457   6.701
 1577SOL    HW2 5631   2.173   0.475   6.860
 1578SOL     OW 5632   5.693   4.856   5.082
 1578SOL    HW1 5633   5.693   4.777   5.144
 1578SOL    HW2 5634   5.600   4.888   5.069
 1579SOL     OW 5635   1.211   0.694   3.905
 1579SOL    HW1 5636   1.137   0.761   3.910
 1579SOL    HW2 5637   1.272   0.704   3.984
 1580SOL     OW 5638   3.300   4.202   5.492
 1580SOL    HW1 5639   3.374   4.261   5.525
 1580SOL    HW2 5640   3.308   4.112   5.535
 1581SOL     OW 5641   6.637   4.074   4.507
 1581SOL    HW1 5642   6.587   4.004   4.558
 1581SOL    HW2 5643   6.580   4.157   4.501
 1582SOL     OW 5644   6.262   5.201   4.724
 1582SOL    HW1 5645   6.199   5.244   4.660
 1582SOL    HW2 5646   6.220   5.196   4.815
 1583SOL     OW 5647   1.549   2.985   3.006
 1583SOL    HW1 5648   1.582   3.079   3.021
 1583SOL    HW2 5649   1.601   2.943   2.931
 1584SOL     OW 5650   2.362   6.954   6.258
 1584SOL    HW1 5651   2.416   6.928   6.178
 1584SOL    HW2 5652   2.420   6.953   6.340
 1585SOL     OW 5653   5.264   1.784   5.250
 1585SOL    HW1 5654   5.254   1.867   5.196
 1585SOL    HW2 5655   5.233   1.705   5.197
 1586SOL     OW 5656   3.695   3.815   3.131
 1586SOL    HW1 5657   3.733   3.775   3.214
 1586SOL    HW2 5658   3.752   3.892   3.101
 1587SOL     OW 5659   2.988   6.470   6.695
 1587SOL    HW1 5660   3.016   6.428   6.781
 1587SOL    HW2 5661   3.027   6.419   6.618
 1588SOL     OW 5662   5.959   3.226   1.954
 1588SOL    HW1 5663   6.002   3.147   1.912
 1588SOL    HW2 5664   5.947   3.210   2.052
 1589SOL     OW 5665   5.799   3.812   4.013
 1589SOL    HW1 5666   5.699   3.807   4.011
 1589SOL    HW2 5667   5.828   3.900   4.052
 1590SOL     OW 5668   1.699   0.823   5.892
 1590SOL    HW1 5669   1.687   0.908   5.943
 1590SOL    HW2 5670   1.637   0.753   5.927
 1591SOL     OW 5671   1.353   4.437   1.719
 1591SOL    HW1 5672   1.309   4.421   1.807
 1591SOL    HW2 5673   1.446   4.400   1.720
 1592SOL     OW 5674   3.072   3.477   2.871
 1592SOL    HW1 5675   3.015   3.555   2.894
 1592SOL    HW2 5676   3.015   3.403   2.835
 1593SOL     OW 5677   0.968   5.422   5.344
 1593SOL    HW1 5678   0.883   5.387   5.383
 1593SOL    HW2 5679   1.046   5.370   5.380
 1594SOL     OW 5680   6.670   5.187   2.998
 1594SOL    HW1 5681   6.690   5.127   3.075
 1594SOL    HW2 5682   6.572   5.209   2.996
 1595SOL     OW 5683   6.802   5.007   5.962
 1595SOL    HW1 5684   6.881   4.945   5.965
 1595SOL    HW2 5685   6.832   5.098   5.935
 1596SOL     OW 5686   2.921   4.927   6.378
 1596SOL    HW1 5687   2.922   4.836   6.419
 1596SOL    HW2 5688   2.835   4.939   6.327
 1597SOL     OW 5689   2.548   6.886   1.308
 1597SOL    HW1 5690   2.610   6.945   1.361
 1597SOL    HW2 5691   2.596   6.802   1.283
 1598SOL     OW 5692   0.206   5.351   1.368
 1598SOL    HW1 5693   0.296   5.389   1.390
 1598SOL    HW2 5694   0.195   5.346   1.269
 1599SOL     OW 5695   3.964   4.749   6.962
 1599SOL    HW1 5696   3.963   4.756   0.039
 1599SOL    HW2 5697   4.019   4.823   6.923
 1600SOL     OW 5698   3.713   1.526   4.228
 1600SOL    HW1 5699   3.706   1.431   4.197
 1600SOL    HW2 5700   3.793   1.537   4.287
 1601SOL     OW 5701   0.590   4.911   3.693
 1601SOL    HW1 5702   0.573   4.846   3.618
 1601SOL    HW2 5703   0.610   4.861   3.777
 1602SOL     OW 5704   0.919   4.817   3.660
 1602SOL    HW1 5705   0.863   4.858   3.732
 1602SOL    HW2 5706   0.967   4.889   3.610
 1603SOL     OW 5707   6.961   6.575   1.194
 1603SOL    HW1 5708   0.038   6.568   1.187
 1603SOL    HW2 5709   6.937   6.641   1.264
 1604SOL     OW 5710   0.444   5.352   6.266
 1604SOL    HW1 5711   0.417   5.448   6.278
 1604SOL    HW2 5712   0.366   5.299   6.232
 1605SOL     OW 5713   5.137   6.395   3.170
 1605SOL    HW1 5714   5.124   6.454   3.090
 1605SOL    HW2 5715   5.098   6.305   3.151
 1606SOL     OW 5716   4.948   6.669   6.378
 1606SOL    HW1 5717   5.000   6.686   6.461
 1606SOL    HW2 5718   4.850   6.669   6.399
 1607SOL     OW 5719   4.045   2.338   0.570
 1607SOL    HW1 5720   4.131   2.287   0.583
 1607SOL    HW2 5721   3.968   2.275   0.581
 1608SOL     OW 5722   2.616   0.135   0.847
 1608SOL    HW1 5723   2.673   0.119   0.767
 1608SOL    HW2 5724   2.669   0.116   0.930
 1609SOL     OW 5725   4.909   2.144   5.439
 1609SOL    HW1 5726   4.932   2.235   5.406
 1609SOL    HW2 5727   4.985   2.107   5.492
 1610SOL     OW 5728   6.049   5.455   4.774
 1610SOL    HW1 5729   5.951   5.462   4.795
 1610SOL    HW2 5730   6.060   5.426   4.679
 1611SOL     OW 5731   2.895   3.474   1.533
 1611SOL    HW1 5732   2.815   3.506   1.584
 1611SOL    HW2 5733   2.963   3.547   1.530
 1612SOL     OW 5734   3.130   0.846   4.174
 1612SOL    HW1 5735   3.211   0.801   4.136
 1612SOL    HW2 5736   3.145   0.945   4.175
 1613SOL     OW 5737   2.459   5.943   0.672
 1613SOL    HW1 5738   2.492   6.038   0.667
 1613SOL    HW2 5739   2.467   5.911   0.766
 1614SOL     OW 5740   6.507   2.585   6.856
 1614SOL    HW1 5741   6.510   2.586   6.956
 1614SOL    HW2 5742   6.466   2.499   6.825
 1615SOL     OW 5743   6.614   4.902   6.346
 1615SOL    HW1 5744   6.696   4.951   6.373
 1615SOL    HW2 5745   6.592   4.833   6.415
 1616SOL     OW 5746   2.878   1.789   5.711
 1616SOL    HW1 5747   2.888   1.718   5.641
 1616SOL    HW2 5748   2.942   1.864   5.692
 1617SOL     OW 5749   4.419   0.428   3.860
 1617SOL    HW1 5750   4.403   0.526   3.862
 1617SOL    HW2 5751   4.407   0.394   3.766
 1618SOL     OW 5752   5.791   2.315   0.957
 1618SOL    HW1 5753   5.832   2.384   1.017
 1618SOL    HW2 5754   5.789   2.227   1.005
 1619SOL     OW 5755   1.714   3.221   4.609
 1619SOL    HW1 5756   1.756   3.307   4.639
 1619SOL    HW2 5757   1.786   3.158   4.581
 1620SOL     OW 5758   3.588   5.413   0.754
 1620SOL    HW1 5759   3.668   5.458   0.713
 1620SOL    HW2 5760   3.580   5.442   0.850
 1621SOL     OW 5761   1.805   1.143   1.604
 1621SOL    HW1 5762   1.895   1.184   1.594
 1621SOL    HW2 5763   1.737   1.214   1.623
 1622SOL     OW 5764   2.211   1.953   4.171
 1622SOL    HW1 5765   2.192   1.891   4.094
 1622SOL    HW2 5766   2.306   1.945   4.198
 1623SOL     OW 5767   2.684   2.013   5.074
 1623SOL    HW1 5768   2.701   2.051   5.165
 1623SOL    HW2 5769   2.642   2.082   5.016
 1624SOL     OW 5770   2.178   1.163   0.380
 1624SOL    HW1 5771   2.090   1.202   0.407
 1624SOL    HW2 5772   2.203   1.196   0.289
 1625SOL     OW 5773   0.228   4.765   1.979
 1625SOL    HW1 5774   0.270   4.846   1.939
 1625SOL    HW2 5775   0.217   4.778   2.078
 1626SOL     OW 5776   2.104   1.891   6.511
 1626SOL    HW1 5777   2.093   1.931   6.602
 1626SOL    HW2 5778   2.191   1.843   6.506
 1627SOL     OW 5779   5.375   2.949   3.828
 1627SOL    HW1 5780   5.410   2.882   3.763
 1627SOL    HW2 5781   5.417   2.932   3.918
 1628SOL     OW 5782   2.991   3.394   0.194
 1628SOL    HW1 5783   2.963   3.454   0.119
 1628SOL    HW2 5784   3.086   3.365   0.180
 1629SOL     OW 5785   4.450   2.394   3.769
 1629SOL    HW1 5786   4.356   2.368   3.748
 1629SOL    HW2 5787   4.453   2.443   3.856
 1630SOL     OW 5788   0.120   4.789   4.186
 1630SOL    HW1 5789   0.158   4.771   4.277
 1630SOL    HW2 5790   0.194   4.817   4.125
 1631SOL     OW 5791   0.509   6.699   5.462
 1631SOL    HW1 5792   0.415   6.681   5.432
 1631SOL    HW2 5793   0.546   6.617   5.505
 1632SOL     OW 5794   6.064   0.637   1.813
 1632SOL    HW1 5795   6.111   0.608   1.730
 1632SOL    HW2 5796   5.972   0.667   1.789
 1633SOL     OW 5797   5.097   2.876   3.858
 1633SOL    HW1 5798   5.053   2.896   3.946
 1633SOL    HW2 5799   5.192   2.907   3.861
 1634SOL     OW 5800   3.176   0.942   6.707
 1634SOL    HW1 5801   3.238   1.006   6.754
 1634SOL    HW2 5802   3.100   0.920   6.767
 1635SOL     OW 5803   0.421   5.443   3.720
 1635SOL    HW1 5804   0.422   5.539   3.692
 1635SOL    HW2 5805   0.493   5.427   3.787
 1636SOL     OW 5806   1.943   5.844   1.229
 1636SOL    HW1 5807   2.024   5.836   1.170
 1636SOL    HW2 5808   1.944   5.932   1.276
 1637SOL     OW 5809   0.127   3.209   2.032
 1637SOL    HW1 5810   0.076   3.127   2.058
 1637SOL    HW2 5811   0.222   3.185   2.013
 1638SOL     OW 5812   1.282   2.864   5.108
 1638SOL    HW1 5813   1.273   2.798   5.034
 1638SOL    HW2 5814   1.200   2.920   5.112
 1639SOL     OW 5815   5.128   4.982   2.054
 1639SOL    HW1 5816   5.101   4.887   2.072
 1639SOL    HW2 5817   5.080   5.043   2.117
 1640SOL     OW 5818   5.630   0.208   1.599
 1640SOL    HW1 5819   5.653   0.292   1.549
 1640SOL    HW2 5820   5.679   0.207   1.686
 1641SOL     OW 5821   6.389   2.417   5.539
 1641SOL    HW1 5822   6.365   2.491   5.477
 1641SOL    HW2 5823   6.486   2.423   5.563
 1642SOL     OW 5824   0.168   2.610   2.055
 1642SOL    HW1 5825   0.148   2.581   1.961
 1642SOL    HW2 5826   0.203   2.704   2.054
 1643SOL     OW 5827   3.945   0.609   5.460
 1643SOL    HW1 5828   3.950   0.604   5.560
 1643SOL    HW2 5829   3.866   0.666   5.434
 1644SOL     OW 5830   3.198   0.694   0.975
 1644SOL    HW1 5831   3.183   0.781   0.928
 1644SOL    HW2 5832   3.159   0.700   1.067
 1645SOL     OW 5833   2.004   0.161   6.342
 1645SOL    HW1 5834   2.008   0.065   6.367
 1645SOL    HW2 5835   1.990   0.169   6.244
 1646SOL     OW 5836   1.372   3.524   1.366
 1646SOL    HW1 5837   1.373   3.523   1.266
 1646SOL    HW2 5838   1.348   3.433   1.401
 1647SOL     OW 5839   6.045   3.009   3.735
 1647SOL    HW1 5840   6.033   3.007   3.636
 1647SOL    HW2 5841   6.018   2.920   3.773
 1648SOL     OW 5842   4.317   6.853   2.181
 1648SOL    HW1 5843   4.233   6.873   2.131
 1648SOL    HW2 5844   4.358   6.938   2.214
 1649SOL     OW 5845   3.131   0.767   3.006
 1649SOL    HW1 5846   3.110   0.677   2.967
 1649SOL    HW2 5847   3.185   0.755   3.089
 1650SOL     OW 5848   2.444   6.249   3.677
 1650SOL    HW1 5849   2.392   6.300   3.745
 1650SOL    HW2 5850   2.530   6.296   3.658
 1651SOL     OW 5851   1.873   6.568   0.627
 1651SOL    HW1 5852   1.890   6.594   0.722
 1651SOL    HW2 5853   1.802   6.498   0.624
 1652SOL     OW 5854   2.978   2.481   1.468
 1652SOL    HW1 5855   3.008   2.406   1.527
 1652SOL    HW2 5856   3.049   2.551   1.465
 1653SOL     OW 5857   1.055   5.861   1.253
 1653SOL    HW1 5858   0.997   5.779   1.251
 1653SOL    HW2 5859   1.149   5.835   1.232
 1654SOL     OW 5860   0.443   3.447   2.942
 1654SOL    HW1 5861   0.497   3.451   3.026
 1654SOL    HW2 5862   0.427   3.351   2.918
 1655SOL     OW 5863   4.618   5.009   5.906
 1655SOL    HW1 5864   4.565   4.956   5.840
 1655SOL    HW2 5865   4.665   4.947   5.968
 1656SOL     OW 5866   0.405   5.179   3.048
 1656SOL    HW1 5867   0.463   5.102   3.024
 1656SOL    HW2 5868   0.414   5.250   2.978
 1657SOL     OW 5869   1.316   0.124   5.568
 1657SOL    HW1 5870   1.335   0.043   5.623
 1657SOL    HW2 5871   1.379   0.125   5.489
 1658SOL     OW 5872   5.958   6.087   2.777
 1658SOL    HW1 5873   6.002   6.176   2.791
 1658SOL    HW2 5874   6.008   6.017   2.828
 1659SOL     OW 5875   4.178   2.121   5.636
 1659SOL    HW1 5876   4.170   2.179   5.718
 1659SOL    HW2 5877   4.118   2.041   5.646
 1660SOL     OW 5878   2.028   5.703   3.220
 1660SOL    HW1 5879   2.039   5.776   3.288
 1660SOL    HW2 5880   1.962   5.636   3.254
 1661SOL     OW 5881   2.974   7.022   2.140
 1661SOL    HW1 5882   3.074   0.003   2.143
 1661SOL    HW2 5883   2.937   0.093   2.139
 1662SOL     OW 5884   0.227   0.677   3.157
 1662SOL    HW1 5885   0.213   0.722   3.068
 1662SOL    HW2 5886   0.199   0.739   3.230
 1663SOL     OW 5887   2.804   6.978   3.379
 1663SOL    HW1 5888   2.874   0.024   3.397
 1663SOL    HW2 5889   2.841   6.887   3.394
 1664SOL     OW 5890   2.208   5.751   4.581
 1664SOL    HW1 5891   2.133   5.812   4.605
 1664SOL    HW2 5892   2.285   5.805   4.546
 1665SOL     OW 5893   0.143   6.917   4.301
 1665SOL    HW1 5894   0.103   7.006   4.280
 1665SOL    HW2 5895   0.089   6.873   4.373
 1666SOL     OW 5896   6.151   2.654   6.025
 1666SOL    HW1 5897   6.228   2.592   6.007
 1666SOL    HW2 5898   6.146   2.723   5.954
 1667SOL     OW 5899   6.482   0.670   6.177
 1667SOL    HW1 5900   6.428   0.691   6.259
 1667SOL    HW2 5901   6.576   0.649   6.204
 1668SOL     OW 5902   3.703   1.029   5.030
 1668SOL    HW1 5903   3.726   1.126   5.020
 1668SOL    HW2 5904   3.611   1.013   4.994
 1669SOL     OW 5905   6.081   0.170   6.672
 1669SOL    HW1 5906   5.983   0.150   6.667
 1669SOL    HW2 5907   6.128   0.126   6.596
 1670SOL     OW 5908   5.601   4.408   5.684
 1670SOL    HW1 5909   5.576   4.490   5.735
 1670SOL    HW2 5910   5.528   4.385   5.620
 1671SOL     OW 5911   5.516   4.045   0.415
 1671SOL    HW1 5912   5.422   4.072   0.391
 1671SOL    HW2 5913   5.556   4.114   0.475
 1672SOL     OW 5914   1.641   5.481   2.496
 1672SOL    HW1 5915   1.565   5.499   2.432
 1672SOL    HW2 5916   1.723   5.457   2.443
 1673SOL     OW 5917   6.368   2.226   4.238
 1673SOL    HW1 5918   6.315   2.196   4.158
 1673SOL    HW2 5919   6.369   2.153   4.306
 1674SOL     OW 5920   0.430   4.390   6.569
 1674SOL    HW1 5921   0.361   4.425   6.632
 1674SOL    HW2 5922   0.393   4.392   6.476
 1675SOL     OW 5923   4.742   2.414   6.912
 1675SOL    HW1 5924   4.738   2.347   6.986
 1675SOL    HW2 5925   4.772   2.502   6.948
 1676SOL     OW 5926   1.373   0.457   3.144
 1676SOL    HW1 5927   1.341   0.389   3.210
 1676SOL    HW2 5928   1.469   0.479   3.162
 1677SOL     OW 5929   6.512   1.540   5.511
 1677SOL    HW1 5930   6.421   1.500   5.522
 1677SOL    HW2 5931   6.572   1.472   5.468
 1678SOL     OW 5932   5.466   6.818   1.637
 1678SOL    HW1 5933   5.433   6.734   1.594
 1678SOL    HW2 5934   5.504   6.879   1.567
 1679SOL     OW 5935   6.866   3.656   6.805
 1679SOL    HW1 5936   6.825   3.603   6.879
 1679SOL    HW2 5937   6.965   3.657   6.816
 1680SOL     OW 5938   1.296   1.332   4.505
 1680SOL    HW1 5939   1.285   1.431   4.500
 1680SOL    HW2 5940   1.291   1.303   4.600
 1681SOL     OW 5941   6.384   5.520   1.152
 1681SOL    HW1 5942   6.409   5.546   1.246
 1681SOL    HW2 5943   6.417   5.589   1.088
 1682SOL     OW 5944   6.321   3.177   5.673
 1682SOL    HW1 5945   6.414   3.145   5.691
 1682SOL    HW2 5946   6.311   3.270   5.709
 1683SOL     OW 5947   5.422   5.621   0.577
 1683SOL    HW1 5948   5.330   5.658   0.592
 1683SOL    HW2 5949   5.417   5.522   0.566
 1684SOL     OW 5950   0.682   5.862   5.328
 1684SOL    HW1 5951   0.600   5.915   5.307
 1684SOL    HW2 5952   0.680   5.776   5.276
 1685SOL     OW 5953   1.188   1.879   6.874
 1685SOL    HW1 5954   1.277   1.834   6.872
 1685SOL    HW2 5955   1.115   1.812   6.859
 1686SOL     OW 5956   1.817   6.649   0.148
 1686SOL    HW1 5957   1.914   6.673   0.144
 1686SOL    HW2 5958   1.805   6.568   0.206
 1687SOL     OW 5959   1.792   0.211   1.796
 1687SOL    HW1 5960   1.751   0.255   1.716
 1687SOL    HW2 5961   1.743   0.126   1.817
 1688SOL     OW 5962   0.537   2.003   3.541
 1688SOL    HW1 5963   0.441   2.002   3.512
 1688SOL    HW2 5964   0.592   2.050   3.472
 1689SOL     OW 5965   1.906   1.472   2.717
 1689SOL    HW1 5966   1.899   1.567   2.688
 1689SOL    HW2 5967   1.973   1.425   2.660
 1690SOL     OW 5968   0.927   2.278   1.006
 1690SOL    HW1 5969   0.878   2.269   0.919
 1690SOL    HW2 5970   0.928   2.375   1.033
 1691SOL     OW 5971   5.431   4.374   2.172
 1691SOL    HW1 5972   5.503   4.419   2.225
 1691SOL    HW2 5973   5.351   4.360   2.230
 1692SOL     OW 5974   1.355   0.741   3.516
 1692SOL    HW1 5975   1.425   0.812   3.510
 1692SOL    HW2 5976   1.398   0.652   3.530
 1693SOL     OW 5977   2.838   2.234   3.259
 1693SOL    HW1 5978   2.763   2.289   3.220
 1693SOL    HW2 5979   2.825   2.225   3.358
 1694SOL     OW 5980   4.790   6.289   5.157
 1694SOL    HW1 5981   4.719   6.341   5.110
 1694SOL    HW2 5982   4.876   6.340   5.157
 1695SOL     OW 5983   3.017   2.135   5.744
 1695SOL    HW1 5984   2.935   2.092   5.781
 1695SOL    HW2 5985   3.058   2.075   5.675
 1696SOL     OW 5986   3.282   5.456   0.650
 1696SOL    HW1 5987   3.375   5.447   0.614
 1696SOL    HW2 5988   3.286   5.480   0.747
 1697SOL     OW 5989   0.750   1.128   1.889
 1697SOL    HW1 5990   0.742   1.224   1.863
 1697SOL    HW2 5991   0.844   1.096   1.872
 1698SOL     OW 5992   4.736   2.122   1.105
 1698SOL    HW1 5993   4.666   2.163   1.163
 1698SOL    HW2 5994   4.703   2.118   1.011
 1699SOL     OW 5995   2.100   3.569   0.999
 1699SOL    HW1 5996   2.158   3.546   0.921
 1699SOL    HW2 5997   2.125   3.660   1.032
 1700SOL     OW 5998   6.314   3.226   4.037
 1700SOL    HW1 5999   6.357   3.285   4.106
 1700SOL    HW2 6000   6.283   3.282   3.960
 1701SOL     OW 6001   5.588   3.544   4.638
 1701SOL    HW1 6002   5.569   3.575   4.545
 1701SOL    HW2 6003   5.682   3.510   4.643
 1702SOL     OW 6004   5.037   3.125   0.420
 1702SOL    HW1 6005   4.970   3.151   0.491
 1702SOL    HW2 6006   5.097   3.054   0.456
 1703SOL     OW 6007   2.012   3.784   0.200
 1703SOL    HW1 6008   2.044   3.751   0.289
 1703SOL    HW2 6009   1.926   3.739   0.176
 1704SOL     OW 6010   1.022   1.041   1.877
 1704SOL    HW1 6011   0.991   0.966   1.819
 1704SOL    HW2 6012   1.079   1.004   1.950
 1705SOL     OW 6013   3.597   3.198   1.913
 1705SOL    HW1 6014   3.605   3.262   1.837
 1705SOL    HW2 6015   3.665   3.125   1.903
 1706SOL     OW 6016   2.849   1.149   6.852
 1706SOL    HW1 6017   2.827   1.244   6.871
 1706SOL    HW2 6018   2.814   1.123   6.762
 1707SOL     OW 6019   5.445   1.968   3.090
 1707SOL    HW1 6020   5.419   1.882   3.046
 1707SOL    HW2 6021   5.540   1.962   3.122
 1708SOL     OW 6022   6.965   4.659   2.790
 1708SOL    HW1 6023   6.954   4.662   2.890
 1708SOL    HW2 6024   6.956   4.751   2.752
 1709SOL     OW 6025   3.148   6.060   3.126
 1709SOL    HW1 6026   3.102   5.972   3.114
 1709SOL    HW2 6027   3.083   6.134   3.111
 1710SOL     OW 6028   6.968   6.215   3.699
 1710SOL    HW1 6029   6.874   6.214   3.732
 1710SOL    HW2 6030   0.005   6.253   3.769
 1711SOL     OW 6031   1.625   4.797   5.652
 1711SOL    HW1 6032   1.689   4.785   5.729
 1711SOL    HW2 6033   1.666   4.757   5.569
 1712SOL     OW 6034   0.885   4.877   0.588
 1712SOL    HW1 6035   0.891   4.779   0.572
 1712SOL    HW2 6036   0.934   4.926   0.516
 1713SOL     OW 6037   1.129   3.371   1.031
 1713SOL    HW1 6038   1.059   3.390   0.962
 1713SOL    HW2 6039   1.141   3.272   1.040
 1714SOL     OW 6040   3.532   1.425   0.667
 1714SOL    HW1 6041   3.485   1.511   0.646
 1714SOL    HW2 6042   3.624   1.427   0.628
 1715SOL     OW 6043   0.324   3.196   4.056
 1715SOL    HW1 6044   0.259   3.234   4.123
 1715SOL    HW2 6045   0.320   3.249   3.972
 1716SOL     OW 6046   0.385   0.027   0.224
 1716SOL    HW1 6047   0.484   0.028   0.209
 1716SOL    HW2 6048   0.338   0.020   0.136
 1717SOL     OW 6049   3.032   0.295   0.197
 1717SOL    HW1 6050   3.060   0.280   0.102
 1717SOL    HW2 6051   2.933   0.284   0.205
 1718SOL     OW 6052   0.984   4.915   5.492
 1718SOL    HW1 6053   0.982   5.003   5.539
 1718SOL    HW2 6054   1.035   4.924   5.406
 1719SOL     OW 6055   2.031   3.579   1.640
 1719SOL    HW1 6056   1.997   3.611   1.728
 1719SOL    HW2 6057   1.968   3.608   1.568
 1720SOL     OW 6058   6.727   1.808   1.374
 1720SOL    HW1 6059   6.639   1.823   1.420
 1720SOL    HW2 6060   6.775   1.896   1.364
 1721SOL     OW 6061   1.611   6.306   4.048
 1721SOL    HW1 6062   1.660   6.370   3.989
 1721SOL    HW2 6063   1.513   6.324   4.043
 1722SOL     OW 6064   5.758   6.063   1.934
 1722SOL    HW1 6065   5.775   6.005   2.014
 1722SOL    HW2 6066   5.792   6.155   1.952
 1723SOL     OW 6067   6.003   1.405   2.342
 1723SOL    HW1 6068   5.909   1.431   2.319
 1723SOL    HW2 6069   6.052   1.485   2.377
 1724SOL     OW 6070   4.718   0.519   0.315
 1724SOL    HW1 6071   4.744   0.615   0.306
 1724SOL    HW2 6072   4.748   0.484   0.403
 1725SOL     OW 6073   3.999   4.776   1.394
 1725SOL    HW1 6074   3.953   4.781   1.482
 1725SOL    HW2 6075   3.956   4.705   1.337
 1726SOL     OW 6076   0.756   4.998   4.488
 1726SOL    HW1 6077   0.839   4.952   4.457
 1726SOL    HW2 6078   0.776   5.095   4.505
 1727SOL     OW 6079   3.219   3.850   5.552
 1727SOL    HW1 6080   3.184   3.907   5.478
 1727SOL    HW2 6081   3.301   3.802   5.522
 1728SOL     OW 6082   4.645   4.285   3.132
 1728SOL    HW1 6083   4.563   4.327   3.092
 1728SOL    HW2 6084   4.727   4.329   3.094
 1729SOL     OW 6085   1.743   3.547   3.074
 1729SOL    HW1 6086   1.691   3.467   3.044
 1729SOL    HW2 6087   1.762   3.539   3.172
 1730SOL     OW 6088   5.903   2.528   4.841
 1730SOL    HW1 6089   5.860   2.618   4.845
 1730SOL    HW2 6090   5.996   2.533   4.875
 1731SOL     OW 6091   1.669   5.222   0.266
 1731SOL    HW1 6092   1.739   5.196   0.332
 1731SOL    HW2 6093   1.688   5.314   0.231
 1732SOL     OW 6094   0.214   4.811   0.022
 1732SOL    HW1 6095   0.296   4.757   0.037
 1732SOL    HW2 6096   0.151   4.762   6.985
 1733SOL     OW 6097   1.415   4.061   0.651
 1733SOL    HW1 6098   1.466   3.976   0.646
 1733SOL    HW2 6099   1.444   4.113   0.732
 1734SOL     OW 6100   4.948   3.326   0.646
 1734SOL    HW1 6101   4.890   3.392   0.693
 1734SOL    HW2 6102   5.001   3.374   0.576
 1735SOL     OW 6103   6.051   5.006   1.773
 1735SOL    HW1 6104   6.029   5.059   1.691
 1735SOL    HW2 6105   5.977   5.017   1.840
 1736SOL     OW 6106   3.626   3.796   0.642
 1736SOL    HW1 6107   3.649   3.748   0.726
 1736SOL    HW2 6108   3.538   3.842   0.652
 1737SOL     OW 6109   1.525   6.695   3.727
 1737SOL    HW1 6110   1.624   6.706   3.734
 1737SOL    HW2 6111   1.503   6.598   3.714
 1738SOL     OW 6112   1.531   2.474   2.223
 1738SOL    HW1 6113   1.444   2.523   2.232
 1738SOL    HW2 6114   1.596   2.511   2.290
 1739SOL     OW 6115   4.154   1.755   5.242
 1739SOL    HW1 6116   4.201   1.769   5.329
 1739SOL    HW2 6117   4.072   1.700   5.258
 1740SOL     OW 6118   0.562   0.964   5.555
 1740SOL    HW1 6119   0.635   0.925   5.498
 1740SOL    HW2 6120   0.517   0.891   5.607
 1741SOL     OW 6121   1.612   0.062   2.921
 1741SOL    HW1 6122   1.619   0.004   3.003
 1741SOL    HW2 6123   1.653   0.151   2.940
 1742SOL     OW 6124   5.850   0.313   4.645
 1742SOL    HW1 6125   5.876   0.217   4.635
 1742SOL    HW2 6126   5.852   0.358   4.556
 1743SOL     OW 6127   4.268   0.685   0.987
 1743SOL    HW1 6128   4.244   0.626   0.910
 1743SOL    HW2 6129   4.302   0.630   1.063
 1744SOL     OW 6130   2.253   0.631   1.442
 1744SOL    HW1 6131   2.218   0.607   1.532
 1744SOL    HW2 6132   2.260   0.549   1.385
 1745SOL     OW 6133   6.681   2.269   3.817
 1745SOL    HW1 6134   6.685   2.229   3.908
 1745SOL    HW2 6135   6.772   2.271   3.777
 1746SOL     OW 6136   3.099   0.371   6.027
 1746SOL    HW1 6137   3.093   0.276   6.058
 1746SOL    HW2 6138   3.057   0.431   6.095
 1747SOL     OW 6139   3.887   0.509   1.279
 1747SOL    HW1 6140   3.890   0.555   1.190
 1747SOL    HW2 6141   3.905   0.575   1.351
 1748SOL     OW 6142   5.652   2.288   1.974
 1748SOL    HW1 6143   5.570   2.232   1.970
 1748SOL    HW2 6144   5.628   2.381   2.003
 1749SOL     OW 6145   4.211   6.531   6.180
 1749SOL    HW1 6146   4.119   6.511   6.146
 1749SOL    HW2 6147   4.205   6.575   6.269
 1750SOL     OW 6148   5.178   0.478   4.076
 1750SOL    HW1 6149   5.180   0.571   4.039
 1750SOL    HW2 6150   5.098   0.430   4.041
 1751SOL     OW 6151   1.984   5.766   3.507
 1751SOL    HW1 6152   1.928   5.814   3.575
 1751SOL    HW2 6153   1.926   5.703   3.455
 1752SOL     OW 6154   6.100   2.238   0.480
 1752SOL    HW1 6155   6.056   2.310   0.535
 1752SOL    HW2 6156   6.039   2.160   0.472
 1753SOL     OW 6157   2.245   0.389   2.211
 1753SOL    HW1 6158   2.319   0.322   2.204
 1753SOL    HW2 6159   2.179   0.359   2.279
 1754SOL     OW 6160   4.013   2.972   0.850
 1754SOL    HW1 6161   3.938   2.908   0.834
 1754SOL    HW2 6162   4.099   2.931   0.821
 1755SOL     OW 6163   5.298   3.603   0.514
 1755SOL    HW1 6164   5.379   3.654   0.541
 1755SOL    HW2 6165   5.225   3.619   0.581
 1756SOL     OW 6166   6.431   5.532   4.659
 1756SOL    HW1 6167   6.513   5.478   4.640
 1756SOL    HW2 6168   6.350   5.481   4.630
 1757SOL     OW 6169   2.978   6.701   4.458
 1757SOL    HW1 6170   3.077   6.717   4.460
 1757SOL    HW2 6171   2.934   6.772   4.402
 1758SOL     OW 6172   1.950   0.810   3.072
 1758SOL    HW1 6173   1.909   0.780   3.158
 1758SOL    HW2 6174   1.878   0.819   3.002
 1759SOL     OW 6175   0.983   5.722   6.419
 1759SOL    HW1 6176   0.974   5.704   6.517
 1759SOL    HW2 6177   0.975   5.637   6.368
 1760SOL     OW 6178   5.857   0.690   2.310
 1760SOL    HW1 6179   5.909   0.754   2.254
 1760SOL    HW2 6180   5.875   0.707   2.406
 1761SOL     OW 6181   6.474   2.782   1.178
 1761SOL    HW1 6182   6.556   2.807   1.127
 1761SOL    HW2 6183   6.497   2.714   1.247
 1762SOL     OW 6184   6.371   1.740   6.342
 1762SOL    HW1 6185   6.437   1.710   6.272
 1762SOL    HW2 6186   6.297   1.674   6.348
 1763SOL     OW 6187   2.116   4.324   4.167
 1763SOL    HW1 6188   2.120   4.355   4.072
 1763SOL    HW2 6189   2.108   4.224   4.169
 1764SOL     OW 6190   6.596   3.016   3.832
 1764SOL    HW1 6191   6.511   2.976   3.797
 1764SOL    HW2 6192   6.659   2.943   3.857
 1765SOL     OW 6193   2.891   2.965   6.438
 1765SOL    HW1 6194   2.836   2.902   6.384
 1765SOL    HW2 6195   2.942   3.025   6.377
 1766SOL     OW 6196   5.473   3.258   5.081
 1766SOL    HW1 6197   5.541   3.256   5.155
 1766SOL    HW2 6198   5.475   3.348   5.037
 1767SOL     OW 6199   5.906   3.426   2.294
 1767SOL    HW1 6200   5.890   3.457   2.388
 1767SOL    HW2 6201   5.930   3.329   2.295
 1768SOL     OW 6202   5.685   6.902   4.525
 1768SOL    HW1 6203   5.639   6.818   4.552
 1768SOL    HW2 6204   5.702   6.901   4.426
 1769SOL     OW 6205   4.450   1.532   2.575
 1769SOL    HW1 6206   4.529   1.481   2.540
 1769SOL    HW2 6207   4.379   1.535   2.506
 1770SOL     OW 6208   2.505   5.582   5.263
 1770SOL    HW1 6209   2.495   5.531   5.177
 1770SOL    HW2 6210   2.579   5.543   5.317
 1771SOL     OW 6211   4.966   6.019   6.149
 1771SOL    HW1 6212   4.998   5.944   6.090
 1771SOL    HW2 6213   4.929   5.981   6.234
 1772SOL     OW 6214   3.453   6.571   2.610
 1772SOL    HW1 6215   3.369   6.622   2.630
 1772SOL    HW2 6216   3.529   6.609   2.662
 1773SOL     OW 6217   0.853   5.040   6.716
 1773SOL    HW1 6218   0.932   5.102   6.724
 1773SOL    HW2 6219   0.877   4.951   6.753
 1774SOL     OW 6220   4.120   5.478   1.653
 1774SOL    HW1 6221   4.126   5.378   1.647
 1774SOL    HW2 6222   4.030   5.504   1.688
 1775SOL     OW 6223   0.781   4.198   2.208
 1775SOL    HW1 6224   0.878   4.220   2.194
 1775SOL    HW2 6225   0.753   4.130   2.140
 1776SOL     OW 6226   2.925   5.860   4.947
 1776SOL    HW1 6227   2.838   5.817   4.924
 1776SOL    HW2 6228   2.918   5.904   5.037
 1777SOL     OW 6229   4.399   6.128   0.463
 1777SOL    HW1 6230   4.329   6.141   0.533
 1777SOL    HW2 6231   4.369   6.057   0.399
 1778SOL     OW 6232   5.426   3.592   5.716
 1778SOL    HW1 6233   5.386   3.546   5.636
 1778SOL    HW2 6234   5.469   3.524   5.775
 1779SOL     OW 6235   3.147   6.545   5.069
 1779SOL    HW1 6236   3.182   6.543   5.163
 1779SOL    HW2 6237   3.214   6.590   5.010
 1780SOL     OW 6238   3.269   2.944   6.306
 1780SOL    HW1 6239   3.279   2.946   6.406
 1780SOL    HW2 6240   3.343   2.890   6.266
 1781SOL     OW 6241   3.469   5.551   3.209
 1781SOL    HW1 6242   3.434   5.588   3.294
 1781SOL    HW2 6243   3.457   5.451   3.208
 1782SOL     OW 6244   3.187   1.831   3.683
 1782SOL    HW1 6245   3.128   1.834   3.602
 1782SOL    HW2 6246   3.150   1.891   3.754
 1783SOL     OW 6247   2.024   5.989   0.167
 1783SOL    HW1 6248   1.941   6.033   0.133
 1783SOL    HW2 6249   2.067   6.048   0.236
 1784SOL     OW 6250   3.597   6.736   5.397
 1784SOL    HW1 6251   3.578   6.724   5.495
 1784SOL    HW2 6252   3.580   6.650   5.349
 1785SOL     OW 6253   6.853   4.131   2.805
 1785SOL    HW1 6254   6.816   4.051   2.851
 1785SOL    HW2 6255   6.845   4.121   2.706
 1786SOL     OW 6256   3.217   2.491   1.272
 1786SOL    HW1 6257   3.173   2.483   1.183
 1786SOL    HW2 6258   3.203   2.408   1.325
 1787SOL     OW 6259   3.368   0.642   6.238
 1787SOL    HW1 6260   3.451   0.645   6.294
 1787SOL    HW2 6261   3.378   0.702   6.159
 1788SOL     OW 6262   1.955   5.410   5.273
 1788SOL    HW1 6263   2.052   5.414   5.295
 1788SOL    HW2 6264   1.910   5.492   5.308
 1789SOL     OW 6265   6.535   1.667   0.060
 1789SOL    HW1 6266   6.577   1.751   0.095
 1789SOL    HW2 6267   6.556   1.658   6.985
 1790SOL     OW 6268   3.473   6.931   3.650
 1790SOL    HW1 6269   3.479   7.018   3.601
 1790SOL    HW2 6270   3.557   6.879   3.634
 1791SOL     OW 6271   6.797   6.527   2.888
 1791SOL    HW1 6272   6.757   6.513   2.797
 1791SOL    HW2 6273   6.724   6.550   2.953
 1792SOL     OW 6274   0.998   3.012   4.644
 1792SOL    HW1 6275   0.922   2.990   4.704
 1792SOL    HW2 6276   1.029   2.930   4.597
 1793SOL     OW 6277   6.717   0.044   3.706
 1793SOL    HW1 6278   6.757   6.981   3.673
 1793SOL    HW2 6279   6.758   0.067   3.794
 1794SOL     OW 6280   4.499   5.254   5.992
 1794SOL    HW1 6281   4.402   5.238   5.976
 1794SOL    HW2 6282   4.549   5.169   5.978
 1795SOL     OW 6283   0.880   2.725   0.760
 1795SOL    HW1 6284   0.962   2.674   0.736
 1795SOL    HW2 6285   0.831   2.676   0.832
 1796SOL     OW 6286   3.156   0.618   6.415
 1796SOL    HW1 6287   3.231   0.630   6.349
 1796SOL    HW2 6288   3.108   0.705   6.427
 1797SOL     OW 6289   1.238   6.961   0.793
 1797SOL    HW1 6290   1.213   7.001   0.705
 1797SOL    HW2 6291   1.183   6.879   0.810
 1798SOL     OW 6292   4.789   2.725   2.947
 1798SOL    HW1 6293   4.697   2.686   2.950
 1798SOL    HW2 6294   4.855   2.653   2.927
 1799SOL     OW 6295   1.614   1.845   6.782
 1799SOL    HW1 6296   1.537   1.869   6.840
 1799SOL    HW2 6297   1.587   1.849   6.686
 1800SOL     OW 6298   4.240   5.027   1.780
 1800SOL    HW1 6299   4.231   4.958   1.852
 1800SOL    HW2 6300   4.319   5.005   1.723
 1801SOL     OW 6301   6.785   6.602   1.609
 1801SOL    HW1 6302   6.705   6.649   1.648
 1801SOL    HW2 6303   6.809   6.646   1.522
 1802SOL     OW 6304   5.460   5.531   4.522
 1802SOL    HW1 6305   5.391   5.601   4.502
 1802SOL    HW2 6306   5.464   5.516   4.621
 1803SOL     OW 6307   0.033   6.018   0.769
 1803SOL    HW1 6308   6.975   6.075   0.751
 1803SOL    HW2 6309   0.007   5.941   0.829
 1804SOL     OW 6310   2.796   3.357   5.283
 1804SOL    HW1 6311   2.733   3.281   5.303
 1804SOL    HW2 6312   2.744   3.442   5.275
 1805SOL     OW 6313   4.743   3.243   6.361
 1805SOL    HW1 6314   4.783   3.265   6.272
 1805SOL    HW2 6315   4.661   3.187   6.347
 1806SOL     OW 6316   0.841   0.074   1.679
 1806SOL    HW1 6317   0.865   0.093   1.584
 1806SOL    HW2 6318   0.749   0.035   1.684
 1807SOL     OW 6319   6.098   1.187   5.159
 1807SOL    HW1 6320   6.066   1.282   5.157
 1807SOL    HW2 6321   6.195   1.184   5.136
 1808SOL     OW 6322   1.168   4.851   4.062
 1808SOL    HW1 6323   1.266   4.844   4.081
 1808SOL    HW2 6324   1.124   4.763   4.076
 1809SOL     OW 6325   3.538   1.303   6.220
 1809SOL    HW1 6326   3.443   1.288   6.246
 1809SOL    HW2 6327   3.578   1.373   6.279
 1810SOL     OW 6328   2.725   6.375   2.947
 1810SOL    HW1 6329   2.756   6.344   3.037
 1810SOL    HW2 6330   2.753   6.470   2.933
 1811SOL     OW 6331   5.918   5.547   3.288
 1811SOL    HW1 6332   5.820   5.554   3.270
 1811SOL    HW2 6333   5.932   5.517   3.383
 1812SOL     OW 6334   4.406   5.348   6.537
 1812SOL    HW1 6335   4.461   5.388   6.464
 1812SOL    HW2 6336   4.346   5.418   6.576
 1813SOL     OW 6337   6.596   4.809   6.778
 1813SOL    HW1 6338   6.530   4.880   6.801
 1813SOL    HW2 6339   6.682   4.851   6.750
 1814SOL     OW 6340   4.485   6.696   2.697
 1814SOL    HW1 6341   4.468   6.746   2.782
 1814SOL    HW2 6342   4.582   6.702   2.673
 1815SOL     OW 6343   0.191   0.220   3.123
 1815SOL    HW1 6344   0.116   0.183   3.068
 1815SOL    HW2 6345   0.174   0.317   3.142
 1816SOL     OW 6346   1.282   4.224   0.362
 1816SOL    HW1 6347   1.263   4.257   0.455
 1816SOL    HW2 6348   1.308   4.127   0.366
 1817SOL     OW 6349   2.041   5.589   2.418
 1817SOL    HW1 6350   1.985   5.605   2.337
 1817SOL    HW2 6351   2.133   5.563   2.390
 1818SOL     OW 6352   1.686   1.050   3.296
 1818SOL    HW1 6353   1.638   1.096   3.222
 1818SOL    HW2 6354   1.727   1.118   3.357
 1819SOL     OW 6355   1.920   4.835   1.678
 1819SOL    HW1 6356   1.925   4.919   1.624
 1819SOL    HW2 6357   1.999   4.778   1.658
 1820SOL     OW 6358   4.855   0.499   2.550
 1820SOL    HW1 6359   4.949   0.466   2.547
 1820SOL    HW2 6360   4.796   0.436   2.500
 1821SOL     OW 6361   3.152   1.970   2.580
 1821SOL    HW1 6362   3.192   2.019   2.656
 1821SOL    HW2 6363   3.052   1.969   2.589
 1822SOL     OW 6364   3.144   3.211   1.727
 1822SOL    HW1 6365   3.079   3.234   1.800
 1822SOL    HW2 6366   3.093   3.185   1.645
 1823SOL     OW 6367   4.215   6.724   2.673
 1823SOL    HW1 6368   4.314   6.717   2.658
 1823SOL    HW2 6369   4.179   6.804   2.625
 1824SOL     OW 6370   5.248   2.815   1.423
 1824SOL    HW1 6371   5.286   2.785   1.510
 1824SOL    HW2 6372   5.213   2.908   1.433
 1825SOL     OW 6373   1.154   0.614   1.975
 1825SOL    HW1 6374   1.137   0.518   1.955
 1825SOL    HW2 6375   1.108   0.670   1.905
 1826SOL     OW 6376   3.392   6.540   6.674
 1826SOL    HW1 6377   3.455   6.509   6.603
 1826SOL    HW2 6378   3.356   6.461   6.723
 1827SOL     OW 6379   0.023   6.290   1.752
 1827SOL    HW1 6380   0.114   6.296   1.794
 1827SOL    HW2 6381   0.023   6.340   1.665
 1828SOL     OW 6382   1.102   2.266   6.300
 1828SOL    HW1 6383   1.154   2.328   6.359
 1828SOL    HW2 6384   1.067   2.317   6.221
 1829SOL     OW 6385   5.429   5.784   2.600
 1829SOL    HW1 6386   5.468   5.866   2.642
 1829SOL    HW2 6387   5.428   5.709   2.666
 1830SOL     OW 6388   4.627   6.271   3.334
 1830SOL    HW1 6389   4.644   6.365   3.304
 1830SOL    HW2 6390   4.670   6.207   3.269
 1831SOL     OW 6391   5.082   6.880   2.156
 1831SOL    HW1 6392   5.115   6.974   2.145
 1831SOL    HW2 6393   5.104   6.848   2.248
 1832SOL     OW 6394   4.761   3.093   0.740
 1832SOL    HW1 6395   4.713   3.059   0.821
 1832SOL    HW2 6396   4.842   3.144   0.769
 1833SOL     OW 6397   5.406   1.398   5.309
 1833SOL    HW1 6398   5.391   1.467   5.380
 1833SOL    HW2 6399   5.326   1.394   5.249
 1834SOL     OW 6400   2.961   3.318   1.076
 1834SOL    HW1 6401   2.896   3.328   1.000
 1834SOL    HW2 6402   3.054   3.320   1.040
 1835SOL     OW 6403   1.648   5.207   0.702
 1835SOL    HW1 6404   1.575   5.242   0.762
 1835SOL    HW2 6405   1.736   5.217   0.748
 1836SOL     OW 6406   0.424   6.704   0.462
 1836SOL    HW1 6407   0.462   6.677   0.550
 1836SOL    HW2 6408   0.486   6.677   0.388
 1837SOL     OW 6409   1.063   2.221   4.724
 1837SOL    HW1 6410   1.013   2.229   4.638
 1837SOL    HW2 6411   1.118   2.304   4.738
 1838SOL     OW 6412   6.719   2.354   4.391
 1838SOL    HW1 6413   6.633   2.402   4.371
 1838SOL    HW2 6414   6.730   2.278   4.327
 1839SOL     OW 6415   0.003   2.445   5.385
 1839SOL    HW1 6416   0.073   2.512   5.360
 1839SOL    HW2 6417   0.036   2.353   5.364
 1840SOL     OW 6418   2.218   6.074   0.794
 1840SOL    HW1 6419   2.237   6.083   0.697
 1840SOL    HW2 6420   2.145   6.137   0.820
 1841SOL     OW 6421   1.895   2.817   3.312
 1841SOL    HW1 6422   1.827   2.864   3.369
 1841SOL    HW2 6423   1.962   2.772   3.369
 1842SOL     OW 6424   0.835   4.876   0.136
 1842SOL    HW1 6425   0.890   4.949   0.177
 1842SOL    HW2 6426   0.895   4.800   0.109
 1843SOL     OW 6427   2.797   2.067   4.677
 1843SOL    HW1 6428   2.698   2.062   4.692
 1843SOL    HW2 6429   2.845   2.032   4.757
 1844SOL     OW 6430   4.517   2.575   3.967
 1844SOL    HW1 6431   4.560   2.647   3.912
 1844SOL    HW2 6432   4.584   2.502   3.984
 1845SOL     OW 6433   4.408   0.704   6.820
 1845SOL    HW1 6434   4.380   0.613   6.850
 1845SOL    HW2 6435   4.359   0.728   6.736
 1846SOL     OW 6436   2.967   1.373   5.711
 1846SOL    HW1 6437   3.018   1.456   5.731
 1846SOL    HW2 6438   2.965   1.357   5.612
 1847SOL     OW 6439   0.363   0.560   0.685
 1847SOL    HW1 6440   0.438   0.537   0.623
 1847SOL    HW2 6441   0.346   0.659   0.680
 1848SOL     OW 6442   2.855   6.794   1.969
 1848SOL    HW1 6443   2.894   6.871   2.020
 1848SOL    HW2 6444   2.823   6.724   2.033
 1849SOL     OW 6445   3.155   1.613   6.430
 1849SOL    HW1 6446   3.117   1.680   6.367
 1849SOL    HW2 6447   3.225   1.657   6.487
 1850SOL     OW 6448   6.053   2.538   2.690
 1850SOL    HW1 6449   6.033   2.594   2.610
 1850SOL    HW2 6450   6.061   2.442   2.663
 1851SOL     OW 6451   0.075   2.761   2.899
 1851SOL    HW1 6452   0.070   2.847   2.951
 1851SOL    HW2 6453   0.159   2.713   2.923
 1852SOL     OW 6454   4.848   2.940   0.282
 1852SOL    HW1 6455   4.917   2.994   0.330
 1852SOL    HW2 6456   4.767   2.930   0.340
 1853SOL     OW 6457   1.093   4.734   0.774
 1853SOL    HW1 6458   1.191   4.734   0.798
 1853SOL    HW2 6459   1.059   4.828   0.771
 1854SOL     OW 6460   2.658   5.727   4.910
 1854SOL    HW1 6461   2.578   5.672   4.935
 1854SOL    HW2 6462   2.628   5.808   4.859
 1855SOL     OW 6463   5.211   5.210   1.085
 1855SOL    HW1 6464   5.129   5.268   1.084
 1855SOL    HW2 6465   5.240   5.193   0.991
 1856SOL     OW 6466   5.367   2.321   5.291
 1856SOL    HW1 6467   5.317   2.401   5.257
 1856SOL    HW2 6468   5.357   2.316   5.390
 1857SOL     OW 6469   4.342   0.766   3.289
 1857SOL    HW1 6470   4.389   0.853   3.278
 1857SOL    HW2 6471   4.347   0.737   3.385
 1858SOL     OW 6472   4.919   3.485   3.597
 1858SOL    HW1 6473   5.018   3.474   3.588
 1858SOL    HW2 6474   4.875   3.395   3.594
 1859SOL     OW 6475   4.717   2.071   3.032
 1859SOL    HW1 6476   4.677   2.159   3.056
 1859SOL    HW2 6477   4.647   2.015   2.987
 1860SOL     OW 6478   5.350   0.994   4.727
 1860SOL    HW1 6479   5.379   1.008   4.821
 1860SOL    HW2 6480   5.311   0.902   4.718
 1861SOL     OW 6481   5.333   6.669   3.043
 1861SOL    HW1 6482   5.260   6.613   3.002
 1861SOL    HW2 6483   5.417   6.658   2.990
 1862SOL     OW 6484   1.954   1.514   0.315
 1862SOL    HW1 6485   1.912   1.580   0.377
 1862SOL    HW2 6486   2.047   1.495   0.344
 1863SOL     OW 6487   3.185   2.817   1.274
 1863SOL    HW1 6488   3.218   2.727   1.245
 1863SOL    HW2 6489   3.158   2.870   1.194
 1864SOL     OW 6490   1.728   6.717   4.323
 1864SOL    HW1 6491   1.780   6.650   4.270
 1864SOL    HW2 6492   1.742   6.700   4.421
 1865SOL     OW 6493   4.699   2.520   6.406
 1865SOL    HW1 6494   4.616   2.556   6.364
 1865SOL    HW2 6495   4.675   2.457   6.480
 1866SOL     OW 6496   4.817   4.650   2.485
 1866SOL    HW1 6497   4.788   4.673   2.578
 1866SOL    HW2 6498   4.738   4.647   2.425
 1867SOL     OW 6499   0.936   3.970   6.909
 1867SOL    HW1 6500   0.999   3.959   6.986
 1867SOL    HW2 6501   0.843   3.946   6.938
 1868SOL     OW 6502   6.008   4.563   5.867
 1868SOL    HW1 6503   5.908   4.558   5.877
 1868SOL    HW2 6504   6.046   4.470   5.869
 1869SOL     OW 6505   6.399   0.917   5.201
 1869SOL    HW1 6506   6.308   0.879   5.181
 1869SOL    HW2 6507   6.389   1.001   5.253
 1870SOL     OW 6508   1.574   5.743   4.213
 1870SOL    HW1 6509   1.658   5.700   4.246
 1870SOL    HW2 6510   1.598   5.821   4.154
 1871SOL     OW 6511   1.684   0.050   0.824
 1871SOL    HW1 6512   1.670   6.974   0.833
 1871SOL    HW2 6513   1.668   0.094   0.912
 1872SOL     OW 6514   2.143   4.529   0.059
 1872SOL    HW1 6515   2.209   4.458   0.085
 1872SOL    HW2 6516   2.104   4.571   0.141
 1873SOL     OW 6517   4.826   1.445   6.747
 1873SOL    HW1 6518   4.738   1.477   6.782
 1873SOL    HW2 6519   4.812   1.367   6.685
 1874SOL     OW 6520   1.054   2.086   2.733
 1874SOL    HW1 6521   1.123   2.158   2.737
 1874SOL    HW2 6522   0.966   2.123   2.763
 1875SOL     OW 6523   1.193   6.839   6.718
 1875SOL    HW1 6524   1.132   6.771   6.679
 1875SOL    HW2 6525   1.244   6.799   6.794
 1876SOL     OW 6526   2.755   0.131   4.331
 1876SOL    HW1 6527   2.759   0.036   4.360
 1876SOL    HW2 6528   2.752   0.136   4.231
 1877SOL     OW 6529   0.597   0.218   3.275
 1877SOL    HW1 6530   0.552   0.236   3.187
 1877SOL    HW2 6531   0.559   0.277   3.345
 1878SOL     OW 6532   6.149   2.498   4.945
 1878SOL    HW1 6533   6.104   2.426   4.998
 1878SOL    HW2 6534   6.126   2.587   4.984
 1879SOL     OW 6535   1.199   3.727   5.538
 1879SOL    HW1 6536   1.271   3.755   5.475
 1879SOL    HW2 6537   1.114   3.715   5.488
 1880SOL     OW 6538   6.083   0.817   5.785
 1880SOL    HW1 6539   6.140   0.885   5.739
 1880SOL    HW2 6540   6.039   0.759   5.716
 1881SOL     OW 6541   6.491   2.289   0.443
 1881SOL    HW1 6542   6.502   2.365   0.507
 1881SOL    HW2 6543   6.565   2.223   0.456
 1882SOL     OW 6544   0.448   4.207   6.222
 1882SOL    HW1 6545   0.396   4.212   6.137
 1882SOL    HW2 6546   0.528   4.266   6.216
 1883SOL     OW 6547   0.071   2.078   3.648
 1883SOL    HW1 6548   0.016   2.010   3.600
 1883SOL    HW2 6549   0.113   2.036   3.729
 1884SOL     OW 6550   0.439   2.616   1.290
 1884SOL    HW1 6551   0.469   2.708   1.263
 1884SOL    HW2 6552   0.456   2.603   1.387
 1885SOL     OW 6553   2.126   1.920   5.095
 1885SOL    HW1 6554   2.042   1.897   5.046
 1885SOL    HW2 6555   2.126   1.876   5.185
 1886SOL     OW 6556   1.044   6.467   3.217
 1886SOL    HW1 6557   1.068   6.466   3.120
 1886SOL    HW2 6558   1.124   6.438   3.270
 1887SOL     OW 6559   1.599   5.993   6.669
 1887SOL    HW1 6560   1.621   6.042   6.585
 1887SOL    HW2 6561   1.682   5.949   6.704
 1888SOL     OW 6562   2.293   0.877   1.513
 1888SOL    HW1 6563   2.380   0.870   1.563
 1888SOL    HW2 6564   2.270   0.788   1.475
 1889SOL     OW 6565   0.949   3.138   3.735
 1889SOL    HW1 6566   1.047   3.140   3.755
 1889SOL    HW2 6567   0.931   3.076   3.659
 1890SOL     OW 6568   0.568   5.959   3.415
 1890SOL    HW1 6569   0.547   6.026   3.344
 1890SOL    HW2 6570   0.484   5.933   3.462
 1891SOL     OW 6571   4.173   3.523   2.969
 1891SOL    HW1 6572   4.123   3.437   2.961
 1891SOL    HW2 6573   4.260   3.507   3.014
 1892SOL     OW 6574   0.480   0.851   2.296
 1892SOL    HW1 6575   0.550   0.852   2.224
 1892SOL    HW2 6576   0.514   0.799   2.375
 1893SOL     OW 6577   3.333   3.244   3.635
 1893SOL    HW1 6578   3.356   3.295   3.718
 1893SOL    HW2 6579   3.324   3.308   3.558
 1894SOL     OW 6580   3.252   4.122   4.398
 1894SOL    HW1 6581   3.348   4.121   4.370
 1894SOL    HW2 6582   3.199   4.059   4.342
 1895SOL     OW 6583   2.854   6.046   6.780
 1895SOL    HW1 6584   2.866   5.963   6.834
 1895SOL    HW2 6585   2.813   6.023   6.691
 1896SOL     OW 6586   5.510   2.352   1.142
 1896SOL    HW1 6587   5.543   2.430   1.196
 1896SOL    HW2 6588   5.429   2.314   1.186
 1897SOL     OW 6589   1.986   5.222   4.079
 1897SOL    HW1 6590   1.915   5.229   4.149
 1897SOL    HW2 6591   2.052   5.151   4.105
 1898SOL     OW 6592   1.505   6.031   3.452
 1898SOL    HW1 6593   1.601   6.027   3.426
 1898SOL    HW2 6594   1.450   6.063   3.374
 1899SOL     OW 6595   0.241   0.339   2.251
 1899SOL    HW1 6596   0.168   0.304   2.193
 1899SOL    HW2 6597   0.241   0.439   2.248
 1900SOL     OW 6598   2.670   6.709   0.214
 1900SOL    HW1 6599   2.618   6.733   0.297
 1900SOL    HW2 6600   2.710   6.618   0.226
 1901SOL     OW 6601   2.747   3.627   1.341
 1901SOL    HW1 6602   2.673   3.690   1.366
 1901SOL    HW2 6603   2.780   3.579   1.422
 1902SOL     OW 6604   1.130   6.648   4.310
 1902SOL    HW1 6605   1.179   6.734   4.325
 1902SOL    HW2 6606   1.157   6.609   4.222
 1903SOL     OW 6607   1.369   2.818   4.677
 1903SOL    HW1 6608   1.461   2.790   4.650
 1903SOL    HW2 6609   1.356   2.915   4.657
 1904SOL     OW 6610   5.219   5.244   2.423
 1904SOL    HW1 6611   5.214   5.322   2.360
 1904SOL    HW2 6612   5.310   5.203   2.418
 1905SOL     OW 6613   6.638   0.525   3.768
 1905SOL    HW1 6614   6.673   0.618   3.759
 1905SOL    HW2 6615   6.542   0.527   3.797
 1906SOL     OW 6616   2.144   0.084   5.150
 1906SOL    HW1 6617   2.191   0.171   5.159
 1906SOL    HW2 6618   2.174   0.039   5.065
 1907SOL     OW 6619   5.667   2.285   0.534
 1907SOL    HW1 6620   5.648   2.365   0.590
 1907SOL    HW2 6621   5.712   2.314   0.449
 1908SOL     OW 6622   3.315   1.079   1.057
 1908SOL    HW1 6623   3.274   1.170   1.046
 1908SOL    HW2 6624   3.296   1.046   1.149
 1909SOL     OW 6625   6.863   4.624   5.059
 1909SOL    HW1 6626   6.933   4.560   5.089
 1909SOL    HW2 6627   6.883   4.715   5.094
 1910SOL     OW 6628   6.843   6.527   5.555
 1910SOL    HW1 6629   6.925   6.580   5.535
 1910SOL    HW2 6630   6.838   6.449   5.493
 1911SOL     OW 6631   6.906   4.870   4.046
 1911SOL    HW1 6632   6.979   4.851   4.113
 1911SOL    HW2 6633   6.838   4.929   4.089
 1912SOL     OW 6634   2.798   5.552   2.549
 1912SOL    HW1 6635   2.739   5.603   2.611
 1912SOL    HW2 6636   2.748   5.473   2.513
 1913SOL     OW 6637   2.728   4.562   5.690
 1913SOL    HW1 6638   2.773   4.510   5.618
 1913SOL    HW2 6639   2.728   4.659   5.667
 1914SOL     OW 6640   2.555   4.266   6.494
 1914SOL    HW1 6641   2.543   4.184   6.439
 1914SOL    HW2 6642   2.471   4.320   6.494
 1915SOL     OW 6643   4.212   2.199   6.252
 1915SOL    HW1 6644   4.235   2.287   6.293
 1915SOL    HW2 6645   4.240   2.198   6.156
 1916SOL     OW 6646   4.124   0.693   2.163
 1916SOL    HW1 6647   4.044   0.728   2.114
 1916SOL    HW2 6648   4.117   0.716   2.260
 1917SOL     OW 6649   2.563   3.862   1.660
 1917SOL    HW1 6650   2.575   3.960   1.643
 1917SOL    HW2 6651   2.495   3.849   1.732
 1918SOL     OW 6652   5.631   2.657   3.978
 1918SOL    HW1 6653   5.577   2.733   4.015
 1918SOL    HW2 6654   5.570   2.591   3.934
 1919SOL     OW 6655   0.699   1.902   1.143
 1919SOL    HW1 6656   0.768   1.899   1.071
 1919SOL    HW2 6657   0.716   1.828   1.209
 1920SOL     OW 6658   5.042   2.415   0.632
 1920SOL    HW1 6659   5.073   2.484   0.567
 1920SOL    HW2 6660   5.086   2.429   0.720
 1921SOL     OW 6661   2.011   2.783   0.266
 1921SOL    HW1 6662   1.954   2.729   0.203
 1921SOL    HW2 6663   2.083   2.828   0.214
 1922SOL     OW 6664   3.141   3.175   2.567
 1922SOL    HW1 6665   3.129   3.094   2.510
 1922SOL    HW2 6666   3.088   3.251   2.529
 1923SOL     OW 6667   4.087   0.452   5.297
 1923SOL    HW1 6668   4.027   0.481   5.371
 1923SOL    HW2 6669   4.061   0.497   5.212
 1924SOL     OW 6670   3.845   0.156   0.319
 1924SOL    HW1 6671   3.842   0.226   0.390
 1924SOL    HW2 6672   3.919   0.092   0.338
 1925SOL     OW 6673   1.485   4.452   0.772
 1925SOL    HW1 6674   1.434   4.532   0.801
 1925SOL    HW2 6675   1.581   4.461   0.800
 1926SOL     OW 6676   3.683   0.080   1.941
 1926SOL    HW1 6677   3.677   0.060   1.844
 1926SOL    HW2 6678   3.708   7.020   1.991
 1927SOL     OW 6679   2.295   5.218   1.737
 1927SOL    HW1 6680   2.292   5.146   1.667
 1927SOL    HW2 6681   2.297   5.176   1.828
 1928SOL     OW 6682   5.275   4.364   2.958
 1928SOL    HW1 6683   5.296   4.415   3.041
 1928SOL    HW2 6684   5.286   4.423   2.879
 1929SOL     OW 6685   3.089   6.750   2.955
 1929SOL    HW1 6686   3.155   6.793   3.017
 1929SOL    HW2 6687   3.010   6.811   2.943
 1930SOL     OW 6688   4.649   3.286   6.640
 1930SOL    HW1 6689   4.710   3.350   6.687
 1930SOL    HW2 6690   4.683   3.269   6.548
 1931SOL     OW 6691   0.159   1.867   4.349
 1931SOL    HW1 6692   0.186   1.936   4.282
 1931SOL    HW2 6693   0.218   1.786   4.339
 1932SOL     OW 6694   4.254   2.759   1.588
 1932SOL    HW1 6695   4.332   2.786   1.532
 1932SOL    HW2 6696   4.281   2.684   1.648
 1933SOL     OW 6697   1.350   1.650   1.288
 1933SOL    HW1 6698   1.419   1.677   1.220
 1933SOL    HW2 6699   1.270   1.709   1.279
 1934SOL     OW 6700   0.214   0.339   6.556
 1934SOL    HW1 6701   0.115   0.351   6.549
 1934SOL    HW2 6702   0.233   0.252   6.604
 1935SOL     OW 6703   6.567   5.250   3.990
 1935SOL    HW1 6704   6.590   5.246   3.893
 1935SOL    HW2 6705   6.601   5.336   4.028
 1936SOL     OW 6706   4.615   2.751   5.442
 1936SOL    HW1 6707   4.585   2.679   5.504
 1936SOL    HW2 6708   4.689   2.803   5.485
 1937SOL     OW 6709   5.724   5.100   6.765
 1937SOL    HW1 6710   5.628   5.075   6.777
 1937SOL    HW2 6711   5.779   5.016   6.758
 1938SOL     OW 6712   0.271   3.191   6.510
 1938SOL    HW1 6713   0.329   3.161   6.586
 1938SOL    HW2 6714   0.320   3.257   6.454
 1939SOL     OW 6715   0.937   0.353   4.757
 1939SOL    HW1 6716   1.020   0.402   4.732
 1939SOL    HW2 6717   0.961   0.268   4.805
 1940SOL     OW 6718   6.837   4.922   0.752
 1940SOL    HW1 6719   6.928   4.905   0.789
 1940SOL    HW2 6720   6.770   4.927   0.827
 1941SOL     OW 6721   6.161   2.181   4.014
 1941SOL    HW1 6722   6.110   2.113   3.960
 1941SOL    HW2 6723   6.198   2.251   3.953
 1942SOL     OW 6724   6.341   3.594   2.506
 1942SOL    HW1 6725   6.399   3.675   2.503
 1942SOL    HW2 6726   6.245   3.622   2.513
 1943SOL     OW 6727   0.768   1.733   2.963
 1943SOL    HW1 6728   0.836   1.739   3.036
 1943SOL    HW2 6729   0.752   1.824   2.926
 1944SOL     OW 6730   6.865   2.853   3.263
 1944SOL    HW1 6731   6.882   2.765   3.219
 1944SOL    HW2 6732   6.824   2.838   3.354
 1945SOL     OW 6733   4.460   1.264   1.729
 1945SOL    HW1 6734   4.433   1.352   1.689
 1945SOL    HW2 6735   4.554   1.243   1.702
 1946SOL     OW 6736   6.208   5.081   1.137
 1946SOL    HW1 6737   6.254   5.152   1.084
 1946SOL    HW2 6738   6.261   5.063   1.220
 1947SOL     OW 6739   5.797   4.800   3.662
 1947SOL    HW1 6740   5.773   4.897   3.674
 1947SOL    HW2 6741   5.897   4.790   3.663
 1948SOL     OW 6742   4.904   3.527   3.287
 1948SOL    HW1 6743   4.859   3.597   3.232
 1948SOL    HW2 6744   4.877   3.537   3.383
 1949SOL     OW 6745   3.801   4.520   6.937
 1949SOL    HW1 6746   3.887   4.571   6.941
 1949SOL    HW2 6747   3.724   4.584   6.935
 1950SOL     OW 6748   3.148   3.819   3.487
 1950SOL    HW1 6749   3.069   3.774   3.530
 1950SOL    HW2 6750   3.136   3.918   3.490
 1951SOL     OW 6751   5.928   5.091   5.328
 1951SOL    HW1 6752   5.978   5.115   5.412
 1951SOL    HW2 6753   5.933   4.992   5.315
 1952SOL     OW 6754   5.961   5.002   0.513
 1952SOL    HW1 6755   5.918   4.918   0.480
 1952SOL    HW2 6756   5.981   5.061   0.435
 1953SOL     OW 6757   0.986   1.228   6.948
 1953SOL    HW1 6758   1.031   1.142   6.969
 1953SOL    HW2 6759   0.904   1.238   7.005
 1954SOL     OW 6760   4.565   6.869   1.960
 1954SOL    HW1 6761   4.547   6.878   2.058
 1954SOL    HW2 6762   4.611   6.952   1.927
 1955SOL     OW 6763   0.173   2.349   3.299
 1955SOL    HW1 6764   0.167   2.401   3.384
 1955SOL    HW2 6765   0.082   2.318   3.272
 1956SOL     OW 6766   5.796   0.369   1.965
 1956SOL    HW1 6767   5.755   0.460   1.957
 1956SOL    HW2 6768   5.725   0.300   1.958
 1957SOL     OW 6769   5.522   2.031   4.835
 1957SOL    HW1 6770   5.569   2.031   4.747
 1957SOL    HW2 6771   5.532   1.941   4.878
 1958SOL     OW 6772   4.522   1.886   0.667
 1958SOL    HW1 6773   4.427   1.910   0.645
 1958SOL    HW2 6774   4.577   1.885   0.583
 1959SOL     OW 6775   0.307   0.564   4.678
 1959SOL    HW1 6776   0.351   0.653   4.686
 1959SOL    HW2 6777   0.210   0.571   4.701
 1960SOL     OW 6778   6.199   4.139   3.979
 1960SOL    HW1 6779   6.244   4.190   4.053
 1960SOL    HW2 6780   6.214   4.041   3.993
 1961SOL     OW 6781   7.012   3.891   4.387
 1961SOL    HW1 6782   6.956   3.966   4.423
 1961SOL    HW2 6783   0.085   3.908   4.408
 1962SOL     OW 6784   1.161   0.489   2.562
 1962SOL    HW1 6785   1.158   0.453   2.655
 1962SOL    HW2 6786   1.068   0.491   2.524
 1963SOL     OW 6787   0.517   2.864   0.981
 1963SOL    HW1 6788   0.460   2.945   0.972
 1963SOL    HW2 6789   0.548   2.856   1.076
 1964SOL     OW 6790   6.018   3.553   1.318
 1964SOL    HW1 6791   6.112   3.520   1.322
 1964SOL    HW2 6792   6.012   3.633   1.259
 1965SOL     OW 6793   6.716   4.432   4.043
 1965SOL    HW1 6794   6.785   4.452   3.973
 1965SOL    HW2 6795   6.655   4.361   4.008
 1966SOL     OW 6796   1.549   5.012   0.157
 1966SOL    HW1 6797   1.572   4.932   0.213
 1966SOL    HW2 6798   1.594   5.093   0.194
 1967SOL     OW 6799   6.239   3.458   3.926
 1967SOL    HW1 6800   6.227   3.505   4.013
 1967SOL    HW2 6801   6.149   3.444   3.883
 1968SOL     OW 6802   2.861   1.223   5.200
 1968SOL    HW1 6803   2.908   1.270   5.126
 1968SOL    HW2 6804   2.763   1.215   5.179
 1969SOL     OW 6805   2.690   6.619   6.939
 1969SOL    HW1 6806   2.788   6.619   6.920
 1969SOL    HW2 6807   2.673   6.661   0.005
 1970SOL     OW 6808   5.619   5.451   4.820
 1970SOL    HW1 6809   5.698   5.451   4.758
 1970SOL    HW2 6810   5.607   5.543   4.858
 1971SOL     OW 6811   1.831   5.808   5.107
 1971SOL    HW1 6812   1.768   5.830   5.033
 1971SOL    HW2 6813   1.787   5.827   5.195
 1972SOL     OW 6814   6.106   3.090   2.915
 1972SOL    HW1 6815   6.066   3.017   2.860
 1972SOL    HW2 6816   6.205   3.085   2.911
 1973SOL     OW 6817   2.649   2.848   0.525
 1973SOL    HW1 6818   2.597   2.928   0.492
 1973SOL    HW2 6819   2.744   2.856   0.497
 1974SOL     OW 6820   2.699   6.143   4.945
 1974SOL    HW1 6821   2.783   6.137   4.890
 1974SOL    HW2 6822   2.719   6.111   5.038
 1975SOL     OW 6823   1.978   2.880   3.610
 1975SOL    HW1 6824   1.890   2.907   3.651
 1975SOL    HW2 6825   1.978   2.781   3.592
 1976SOL     OW 6826   0.203   0.163   6.265
 1976SOL    HW1 6827   0.279   0.133   6.208
 1976SOL    HW2 6828   0.227   0.249   6.311
 1977SOL     OW 6829   2.051   4.644   5.593
 1977SOL    HW1 6830   2.041   4.731   5.545
 1977SOL    HW2 6831   2.114   4.655   5.670
 1978SOL     OW 6832   2.485   0.102   1.609
 1978SOL    HW1 6833   2.542   0.101   1.691
 1978SOL    HW2 6834   2.544   0.098   1.528
 1979SOL     OW 6835   6.898   4.694   6.268
 1979SOL    HW1 6836   6.849   4.607   6.274
 1979SOL    HW2 6837   6.994   4.677   6.247
 1980SOL     OW 6838   3.764   1.488   0.524
 1980SOL    HW1 6839   3.781   1.584   0.544
 1980SOL    HW2 6840   3.837   1.432   0.562
 1981SOL     OW 6841   3.259   2.128   2.783
 1981SOL    HW1 6842   3.316   2.123   2.865
 1981SOL    HW2 6843   3.317   2.113   2.702
 1982SOL     OW 6844   0.820   2.383   5.289
 1982SOL    HW1 6845   0.791   2.467   5.334
 1982SOL    HW2 6846   0.914   2.393   5.256
 1983SOL     OW 6847   7.016   0.551   2.367
 1983SOL    HW1 6848   0.073   0.609   2.352
 1983SOL    HW2 6849   6.956   0.554   2.287
 1984SOL     OW 6850   4.495   2.766   5.833
 1984SOL    HW1 6851   4.470   2.719   5.748
 1984SOL    HW2 6852   4.413   2.793   5.882
 1985SOL     OW 6853   6.351   3.445   2.268
 1985SOL    HW1 6854   6.307   3.515   2.212
 1985SOL    HW2 6855   6.331   3.462   2.365
 1986SOL     OW 6856   3.777   2.803   1.825
 1986SOL    HW1 6857   3.702   2.737   1.819
 1986SOL    HW2 6858   3.862   2.760   1.795
 1987SOL     OW 6859   2.520   1.326   1.126
 1987SOL    HW1 6860   2.544   1.420   1.099
 1987SOL    HW2 6861   2.581   1.262   1.080
 1988SOL     OW 6862   0.054   2.286   1.958
 1988SOL    HW1 6863   0.109   2.344   1.898
 1988SOL    HW2 6864   0.107   2.263   2.040
 1989SOL     OW 6865   2.913   4.891   4.587
 1989SOL    HW1 6866   2.871   4.807   4.621
 1989SOL    HW2 6867   2.844   4.947   4.541
 1990SOL     OW 6868   3.572   0.143   0.306
 1990SOL    HW1 6869   3.537   0.122   0.215
 1990SOL    HW2 6870   3.672   0.151   0.302
 1991SOL     OW 6871   2.677   4.943   0.707
 1991SOL    HW1 6872   2.757   4.918   0.762
 1991SOL    HW2 6873   2.679   5.041   0.688
 1992SOL     OW 6874   0.431   6.757   1.340
 1992SOL    HW1 6875   0.509   6.694   1.329
 1992SOL    HW2 6876   0.369   6.721   1.410
 1993SOL     OW 6877   2.512   2.538   3.621
 1993SOL    HW1 6878   2.483   2.584   3.537
 1993SOL    HW2 6879   2.479   2.589   3.701
 1994SOL     OW 6880   3.233   2.700   0.585
 1994SOL    HW1 6881   3.201   2.706   0.491
 1994SOL    HW2 6882   3.277   2.611   0.600
 1995SOL     OW 6883   5.837   1.961   4.127
 1995SOL    HW1 6884   5.849   2.017   4.209
 1995SOL    HW2 6885   5.827   2.020   4.047
 1996SOL     OW 6886   3.981   1.189   0.943
 1996SOL    HW1 6887   4.057   1.242   0.904
 1996SOL    HW2 6888   3.929   1.146   0.869
 1997SOL     OW 6889   3.976   0.305   4.152
 1997SOL    HW1 6890   4.043   0.342   4.087
 1997SOL    HW2 6891   3.885   0.310   4.112
 1998SOL     OW 6892   1.962   3.952   1.710
 1998SOL    HW1 6893   1.972   3.969   1.612
 1998SOL    HW2 6894   1.903   4.022   1.750
 1999SOL     OW 6895   1.556   0.048   0.367
 1999SOL    HW1 6896   1.491   7.000   0.340
 1999SOL    HW2 6897   1.529   0.085   0.457
 2000SOL     OW 6898   3.568   4.224   5.917
 2000SOL    HW1 6899   3.610   4.314   5.909
 2000SOL    HW2 6900   3.637   4.157   5.945
 2001SOL     OW 6901   2.116   2.074   0.831
 2001SOL    HW1 6902   2.018   2.056   0.837
 2001SOL    HW2 6903   2.161   1.997   0.786
 2002SOL     OW 6904   0.091   5.283   0.638
 2002SOL    HW1 6905   0.053   5.273   0.730
 2002SOL    HW2 6906   0.059   5.207   0.580
 2003SOL     OW 6907   6.504   4.686   3.060
 2003SOL    HW1 6908   6.451   4.607   3.091
 2003SOL    HW2 6909   6.600   4.660   3.050
 2004SOL     OW 6910   3.337   6.956   3.335
 2004SOL    HW1 6911   3.410   7.020   3.357
 2004SOL    HW2 6912   3.358   6.910   3.249
 2005SOL     OW 6913   1.584   6.229   0.355
 2005SOL    HW1 6914   1.681   6.224   0.330
 2005SOL    HW2 6915   1.537   6.290   0.290
 2006SOL     OW 6916   5.728   6.092   2.570
 2006SOL    HW1 6917   5.765   6.000   2.563
 2006SOL    HW2 6918   5.638   6.088   2.614
 2007SOL     OW 6919   5.479   4.572   6.729
 2007SOL    HW1 6920   5.392   4.538   6.693
 2007SOL    HW2 6921   5.479   4.568   6.829
 2008SOL     OW 6922   1.683   3.487   3.895
 2008SOL    HW1 6923   1.750   3.557   3.871
 2008SOL    HW2 6924   1.662   3.431   3.815
 2009SOL     OW 6925   6.017   0.259   2.686
 2009SOL    HW1 6926   6.092   0.202   2.653
 2009SOL    HW2 6927   5.930   0.209   2.676
 2010SOL     OW 6928   0.745   1.943   1.560
 2010SOL    HW1 6929   0.745   2.034   1.519
 2010SOL    HW2 6930   0.779   1.948   1.654
 2011SOL     OW 6931   1.104   6.693   5.585
 2011SOL    HW1 6932   1.037   6.759   5.551
 2011SOL    HW2 6933   1.093   6.683   5.684
 2012SOL     OW 6934   1.539   3.098   2.016
 2012SOL    HW1 6935   1.629   3.054   2.009
 2012SOL    HW2 6936   1.549   3.197   2.005
 2013SOL     OW 6937   0.561   3.393   2.204
 2013SOL    HW1 6938   0.564   3.438   2.294
 2013SOL    HW2 6939   0.653   3.389   2.166
 2014SOL     OW 6940   3.927   0.759   4.324
 2014SOL    HW1 6941   3.970   0.720   4.405
 2014SOL    HW2 6942   3.989   0.824   4.281
 2015SOL     OW 6943   4.327   0.527   2.290
 2015SOL    HW1 6944   4.267   0.586   2.236
 2015SOL    HW2 6945   4.419   0.531   2.253
 2016SOL     OW 6946   1.788   0.256   5.021
 2016SOL    HW1 6947   1.823   0.193   5.090
 2016SOL    HW2 6948   1.865   0.294   4.969
 2017SOL     OW 6949   3.689   6.342   3.294
 2017SOL    HW1 6950   3.725   6.299   3.377
 2017SOL    HW2 6951   3.697   6.278   3.217
 2018SOL     OW 6952   1.486   1.026   3.937
 2018SOL    HW1 6953   1.458   1.004   3.844
 2018SOL    HW2 6954   1.427   1.099   3.973
 2019SOL     OW 6955   5.732   5.289   6.571
 2019SOL    HW1 6956   5.723   5.209   6.630
 2019SOL    HW2 6957   5.696   5.267   6.480
 2020SOL     OW 6958   1.862   6.000   6.925
 2020SOL    HW1 6959   1.907   6.076   6.879
 2020SOL    HW2 6960   1.862   5.920   6.866
 2021SOL     OW 6961   6.834   5.750   4.313
 2021SOL    HW1 6962   6.916   5.695   4.327
 2021SOL    HW2 6963   6.835   5.788   4.220
 2022SOL     OW 6964   1.991   4.331   4.595
 2022SOL    HW1 6965   1.911   4.381   4.564
 2022SOL    HW2 6966   1.974   4.232   4.587
 2023SOL     OW 6967   6.778   6.730   0.503
 2023SOL    HW1 6968   6.682   6.702   0.513
 2023SOL    HW2 6969   6.836   6.649   0.496
 2024SOL     OW 6970   0.416   5.721   4.591
 2024SOL    HW1 6971   0.477   5.645   4.568
 2024SOL    HW2 6972   0.351   5.690   4.661
 2025SOL     OW 6973   1.561   6.276   4.320
 2025SOL    HW1 6974   1.579   6.292   4.223
 2025SOL    HW2 6975   1.526   6.360   4.361
 2026SOL     OW 6976   6.794   0.269   5.992
 2026SOL    HW1 6977   6.800   0.300   6.087
 2026SOL    HW2 6978   6.836   0.179   5.983
 2027SOL     OW 6979   6.690   5.959   1.948
 2027SOL    HW1 6980   6.653   5.867   1.930
 2027SOL    HW2 6981   6.666   5.986   2.041
 2028SOL     OW 6982   3.007   5.398   4.431
 2028SOL    HW1 6983   2.934   5.343   4.392
 2028SOL    HW2 6984   3.095   5.356   4.411
 2029SOL     OW 6985   6.781   2.846   6.598
 2029SOL    HW1 6986   6.707   2.865   6.533
 2029SOL    HW2 6987   6.845   2.782   6.557
 2030SOL     OW 6988   1.956   0.045   2.000
 2030SOL    HW1 6989   2.045   0.026   1.958
 2030SOL    HW2 6990   1.896   0.087   1.932
 2031SOL     OW 6991   0.061   5.907   4.309
 2031SOL    HW1 6992   0.119   5.827   4.327
 2031SOL    HW2 6993   6.989   5.885   4.336
 2032SOL     OW 6994   2.501   2.079   5.919
 2032SOL    HW1 6995   2.434   2.134   5.870
 2032SOL    HW2 6996   2.460   2.041   6.002
 2033SOL     OW 6997   2.742   2.082   1.028
 2033SOL    HW1 6998   2.799   2.160   1.001
 2033SOL    HW2 6999   2.646   2.110   1.028
 2034SOL     OW 7000   0.150   3.731   4.680
 2034SOL    HW1 7001   0.221   3.754   4.747
 2034SOL    HW2 7002   0.185   3.662   4.617
 2035SOL     OW 7003   5.407   0.254   2.984
 2035SOL    HW1 7004   5.460   0.317   2.927
 2035SOL    HW2 7005   5.465   0.215   3.055
 2036SOL     OW 7006   0.520   4.360   0.412
 2036SOL    HW1 7007   0.595   4.295   0.424
 2036SOL    HW2 7008   0.536   4.441   0.469
 2037SOL     OW 7009   0.674   2.231   6.478
 2037SOL    HW1 7010   0.595   2.277   6.517
 2037SOL    HW2 7011   0.709   2.164   6.544
 2038SOL     OW 7012   1.277   0.799   6.470
 2038SOL    HW1 7013   1.310   0.874   6.527
 2038SOL    HW2 7014   1.331   0.717   6.490
 2039SOL     OW 7015   5.516   6.230   3.024
 2039SOL    HW1 7016   5.590   6.176   2.984
 2039SOL    HW2 7017   5.457   6.265   2.951
 2040SOL     OW 7018   1.769   2.492   0.798
 2040SOL    HW1 7019   1.705   2.436   0.744
 2040SOL    HW2 7020   1.722   2.573   0.831
 2041SOL     OW 7021   2.350   0.920   6.797
 2041SOL    HW1 7022   2.283   0.896   6.727
 2041SOL    HW2 7023   2.373   1.017   6.789
 2042SOL     OW 7024   5.928   1.440   5.784
 2042SOL    HW1 7025   5.897   1.509   5.719
 2042SOL    HW2 7026   5.928   1.350   5.740
 2043SOL     OW 7027   0.693   4.025   1.133
 2043SOL    HW1 7028   0.677   3.959   1.059
 2043SOL    HW2 7029   0.625   4.011   1.205
 2044SOL     OW 7030   4.095   0.803   1.205
 2044SOL    HW1 7031   4.188   0.802   1.169
 2044SOL    HW2 7032   4.032   0.766   1.137
 2045SOL     OW 7033   1.309   6.716   4.799
 2045SOL    HW1 7034   1.286   6.804   4.840
 2045SOL    HW2 7035   1.243   6.695   4.727
 2046SOL     OW 7036   0.660   2.083   4.763
 2046SOL    HW1 7037   0.595   2.158   4.777
 2046SOL    HW2 7038   0.752   2.113   4.788
 2047SOL     OW 7039   0.403   1.012   0.858
 2047SOL    HW1 7040   0.496   1.046   0.866
 2047SOL    HW2 7041   0.392   0.962   0.772
 2048SOL     OW 7042   0.925   2.147   4.078
 2048SOL    HW1 7043   0.954   2.124   4.171
 2048SOL    HW2 7044   0.981   2.223   4.044
 2049SOL     OW 7045   4.502   1.809   4.700
 2049SOL    HW1 7046   4.452   1.895   4.708
 2049SOL    HW2 7047   4.537   1.782   4.790
 2050SOL     OW 7048   0.651   0.882   4.348
 2050SOL    HW1 7049   0.664   0.852   4.254
 2050SOL    HW2 7050   0.712   0.959   4.368
 2051SOL     OW 7051   2.909   6.691   6.818
 2051SOL    HW1 7052   2.934   6.615   6.759
 2051SOL    HW2 7053   2.992   6.730   6.859
 2052SOL     OW 7054   1.302   4.086   6.384
 2052SOL    HW1 7055   1.274   4.015   6.448
 2052SOL    HW2 7056   1.350   4.159   6.434
 2053SOL     OW 7057   0.250   5.948   3.184
 2053SOL    HW1 7058   0.158   5.961   3.222
 2053SOL    HW2 7059   0.244   5.941   3.084
 2054SOL     OW 7060   3.020   3.917   3.247
 2054SOL    HW1 7061   3.080   3.887   3.321
 2054SOL    HW2 7062   3.074   3.931   3.164
 2055SOL     OW 7063   3.487   2.197   5.502
 2055SOL    HW1 7064   3.452   2.139   5.575
 2055SOL    HW2 7065   3.529   2.279   5.541
 2056SOL     OW 7066   3.660   4.826   1.331
 2056SOL    HW1 7067   3.572   4.784   1.309
 2056SOL    HW2 7068   3.658   4.922   1.304
 2057SOL     OW 7069   5.015   2.877   4.673
 2057SOL    HW1 7070   4.951   2.953   4.680
 2057SOL    HW2 7071   5.102   2.903   4.717
 2058SOL     OW 7072   6.968   0.067   3.124
 2058SOL    HW1 7073   6.896   0.120   3.168
 2058SOL    HW2 7074   6.970   6.997   3.162
 2059SOL     OW 7075   1.335   0.863   5.304
 2059SOL    HW1 7076   1.382   0.816   5.379
 2059SOL    HW2 7077   1.400   0.881   5.230
 2060SOL     OW 7078   1.658   2.774   7.001
 2060SOL    HW1 7079   1.607   2.860   6.997
 2060SOL    HW2 7080   1.754   2.793   7.021
 2061SOL     OW 7081   2.003   2.506   2.747
 2061SOL    HW1 7082   2.012   2.406   2.754
 2061SOL    HW2 7083   2.093   2.548   2.757
 2062SOL     OW 7084   0.294   5.083   5.216
 2062SOL    HW1 7085   0.264   5.124   5.302
 2062SOL    HW2 7086   0.335   4.994   5.234
 2063SOL     OW 7087   1.144   1.457   4.767
 2063SOL    HW1 7088   1.197   1.372   4.760
 2063SOL    HW2 7089   1.056   1.445   4.720
 2064SOL     OW 7090   0.919   3.424   3.755
 2064SOL    HW1 7091   0.920   3.337   3.805
 2064SOL    HW2 7092   0.949   3.498   3.815
 2065SOL     OW 7093   4.063   3.794   5.472
 2065SOL    HW1 7094   4.144   3.824   5.522
 2065SOL    HW2 7095   4.079   3.703   5.434
 2066SOL     OW 7096   0.971   3.336   5.977
 2066SOL    HW1 7097   0.944   3.431   5.964
 2066SOL    HW2 7098   1.067   3.326   5.952
 2067SOL     OW 7099   6.489   5.391   1.535
 2067SOL    HW1 7100   6.472   5.367   1.631
 2067SOL    HW2 7101   6.492   5.490   1.525
 2068SOL     OW 7102   4.318   0.674   4.969
 2068SOL    HW1 7103   4.390   0.735   5.001
 2068SOL    HW2 7104   4.356   0.610   4.903
 2069SOL     OW 7105   0.082   1.286   3.440
 2069SOL    HW1 7106   0.170   1.334   3.436
 2069SOL    HW2 7107   0.010   1.348   3.409
 2070SOL     OW 7108   1.029   4.786   1.106
 2070SOL    HW1 7109   0.950   4.823   1.056
 2070SOL    HW2 7110   0.998   4.716   1.170
 2071SOL     OW 7111   0.198   1.903   5.423
 2071SOL    HW1 7112   0.237   1.826   5.373
 2071SOL    HW2 7113   0.104   1.881   5.451
 2072SOL     OW 7114   5.101   4.135   5.676
 2072SOL    HW1 7115   5.133   4.230   5.681
 2072SOL    HW2 7116   5.058   4.110   5.763
 2073SOL     OW 7117   3.005   5.372   6.733
 2073SOL    HW1 7118   3.094   5.355   6.692
 2073SOL    HW2 7119   2.996   5.318   6.817
 2074SOL     OW 7120   1.292   4.770   5.820
 2074SOL    HW1 7121   1.272   4.673   5.806
 2074SOL    HW2 7122   1.292   4.818   5.732
 2075SOL     OW 7123   6.097   2.800   1.435
 2075SOL    HW1 7124   6.007   2.770   1.465
 2075SOL    HW2 7125   6.114   2.765   1.342
 2076SOL     OW 7126   6.067   6.427   4.668
 2076SOL    HW1 7127   5.978   6.397   4.636
 2076SOL    HW2 7128   6.061   6.452   4.765
 2077SOL     OW 7129   6.437   4.925   1.289
 2077SOL    HW1 7130   6.521   4.887   1.328
 2077SOL    HW2 7131   6.379   4.850   1.256
 2078SOL     OW 7132   0.648   3.122   5.594
 2078SOL    HW1 7133   0.649   3.220   5.573
 2078SOL    HW2 7134   0.575   3.078   5.542
 2079SOL     OW 7135   5.122   1.128   2.426
 2079SOL    HW1 7136   5.173   1.057   2.377
 2079SOL    HW2 7137   5.067   1.180   2.361
 2080SOL     OW 7138   2.835   3.239   6.313
 2080SOL    HW1 7139   2.802   3.321   6.267
 2080SOL    HW2 7140   2.919   3.208   6.268
 2081SOL     OW 7141   5.943   5.723   2.028
 2081SOL    HW1 7142   5.925   5.757   2.120
 2081SOL    HW2 7143   6.038   5.743   2.003
 2082SOL     OW 7144   6.529   6.229   4.330
 2082SOL    HW1 7145   6.472   6.238   4.412
 2082SOL    HW2 7146   6.625   6.242   4.355
 2083SOL     OW 7147   0.201   6.750   3.669
 2083SOL    HW1 7148   0.112   6.706   3.660
 2083SOL    HW2 7149   0.224   6.759   3.766
 2084SOL     OW 7150   6.302   2.688   0.342
 2084SOL    HW1 7151   6.267   2.595   0.331
 2084SOL    HW2 7152   6.325   2.705   0.438
 2085SOL     OW 7153   5.861   5.652   1.174
 2085SOL    HW1 7154   5.822   5.658   1.082
 2085SOL    HW2 7155   5.946   5.599   1.171
 2086SOL     OW 7156   4.949   1.038   0.123
 2086SOL    HW1 7157   4.918   1.109   0.186
 2086SOL    HW2 7158   4.883   1.030   0.047
 2087SOL     OW 7159   3.908   1.426   6.916
 2087SOL    HW1 7160   3.982   1.493   6.924
 2087SOL    HW2 7161   3.936   1.341   6.961
 2088SOL     OW 7162   1.079   5.474   5.814
 2088SOL    HW1 7163   1.028   5.543   5.865
 2088SOL    HW2 7164   1.033   5.385   5.825
 2089SOL     OW 7165   2.535   3.259   6.986
 2089SOL    HW1 7166   2.616   3.203   6.971
 2089SOL    HW2 7167   2.524   3.323   6.910
 2090SOL     OW 7168   5.345   2.971   5.857
 2090SOL    HW1 7169   5.367   2.874   5.847
 2090SOL    HW2 7170   5.335   2.993   5.954
 2091SOL     OW 7171   5.393   6.593   1.227
 2091SOL    HW1 7172   5.319   6.654   1.201
 2091SOL    HW2 7173   5.472   6.646   1.256
 2092SOL     OW 7174   3.818   3.565   1.117
 2092SOL    HW1 7175   3.756   3.507   1.065
 2092SOL    HW2 7176   3.765   3.627   1.175
 2093SOL     OW 7177   4.430   0.889   1.253
 2093SOL    HW1 7178   4.444   0.930   1.162
 2093SOL    HW2 7179   4.417   0.791   1.243
 2094SOL     OW 7180   5.522   2.093   6.355
 2094SOL    HW1 7181   5.483   2.022   6.415
 2094SOL    HW2 7182   5.477   2.089   6.266
 2095SOL     OW 7183   5.021   5.945   3.831
 2095SOL    HW1 7184   5.101   5.923   3.776
 2095SOL    HW2 7185   5.045   5.941   3.928
 2096SOL     OW 7186   4.037   6.582   1.663
 2096SOL    HW1 7187   3.942   6.610   1.671
 2096SOL    HW2 7188   4.045   6.484   1.682
 2097SOL     OW 7189   0.846   5.992   5.999
 2097SOL    HW1 7190   0.769   6.040   6.043
 2097SOL    HW2 7191   0.929   6.048   6.007
 2098SOL     OW 7192   2.898   6.019   3.392
 2098SOL    HW1 7193   2.852   5.942   3.437
 2098SOL    HW2 7194   2.901   6.003   3.294
 2099SOL     OW 7195   4.552   1.660   6.414
 2099SOL    HW1 7196   4.595   1.608   6.341
 2099SOL    HW2 7197   4.452   1.654   6.405
 2100SOL     OW 7198   5.340   6.857   1.875
 2100SOL    HW1 7199   5.366   6.803   1.955
 2100SOL    HW2 7200   5.416   6.858   1.810
 2101SOL     OW 7201   0.648   0.617   2.721
 2101SOL    HW1 7202   0.735   0.627   2.768
 2101SOL    HW2 7203   0.595   0.543   2.764
 2102SOL     OW 7204   4.135   2.497   0.878
 2102SOL    HW1 7205   4.133   2.481   0.976
 2102SOL    HW2 7206   4.230   2.498   0.846
 2103SOL     OW 7207   2.102   6.435   0.227
 2103SOL    HW1 7208   2.005   6.417   0.244
 2103SOL    HW2 7209   2.128   6.398   0.137
 2104SOL     OW 7210   1.836   4.215   3.486
 2104SOL    HW1 7211   1.742   4.186   3.502
 2104SOL    HW2 7212   1.843   4.258   3.396
 2105SOL     OW 7213   5.264   6.444   5.036
 2105SOL    HW1 7214   5.351   6.442   5.084
 2105SOL    HW2 7215   5.280   6.457   4.939
 2106SOL     OW 7216   4.413   3.166   0.976
 2106SOL    HW1 7217   4.435   3.257   1.012
 2106SOL    HW2 7218   4.458   3.096   1.031
 2107SOL     OW 7219   5.396   4.699   5.062
 2107SOL    HW1 7220   5.351   4.768   5.119
 2107SOL    HW2 7221   5.414   4.737   4.971
 2108SOL     OW 7222   4.768   0.316   4.962
 2108SOL    HW1 7223   4.695   0.293   4.899
 2108SOL    HW2 7224   4.741   0.292   5.056
 2109SOL     OW 7225   3.021   6.037   1.910
 2109SOL    HW1 7226   3.032   6.125   1.958
 2109SOL    HW2 7227   3.111   5.996   1.896
 2110SOL     OW 7228   3.324   6.338   6.846
 2110SOL    HW1 7229   3.375   6.284   6.913
 2110SOL    HW2 7230   3.226   6.317   6.854
 2111SOL     OW 7231   1.494   2.326   6.181
 2111SOL    HW1 7232   1.521   2.421   6.195
 2111SOL    HW2 7233   1.416   2.322   6.118
 2112SOL     OW 7234   1.269   0.651   0.161
 2112SOL    HW1 7235   1.364   0.662   0.131
 2112SOL    HW2 7236   1.217   0.604   0.090
 2113SOL     OW 7237   6.715   1.075   4.375
 2113SOL    HW1 7238   6.685   1.135   4.301
 2113SOL    HW2 7239   6.713   0.980   4.344
 2114SOL     OW 7240   1.727   1.463   6.140
 2114SOL    HW1 7241   1.757   1.554   6.171
 2114SOL    HW2 7242   1.770   1.442   6.052
 2115SOL     OW 7243   6.291   6.110   3.096
 2115SOL    HW1 7244   6.245   6.197   3.112
 2115SOL    HW2 7245   6.333   6.078   3.181
 2116SOL     OW 7246   1.796   2.076   6.806
 2116SOL    HW1 7247   1.759   2.143   6.870
 2116SOL    HW2 7248   1.800   1.986   6.851
 2117SOL     OW 7249   6.359   1.870   2.528
 2117SOL    HW1 7250   6.356   1.818   2.613
 2117SOL    HW2 7251   6.445   1.850   2.480
 2118SOL     OW 7252   6.708   2.564   3.164
 2118SOL    HW1 7253   6.661   2.594   3.247
 2118SOL    HW2 7254   6.806   2.583   3.172
 2119SOL     OW 7255   1.115   1.794   0.679
 2119SOL    HW1 7256   1.137   1.717   0.619
 2119SOL    HW2 7257   1.110   1.761   0.774
 2120SOL     OW 7258   6.055   1.255   1.056
 2120SOL    HW1 7259   5.956   1.246   1.049
 2120SOL    HW2 7260   6.086   1.322   0.988
 2121SOL     OW 7261   1.835   0.415   6.934
 2121SOL    HW1 7262   1.760   0.367   6.889
 2121SOL    HW2 7263   1.921   0.365   6.919
 2122SOL     OW 7264   6.293   0.792   4.498
 2122SOL    HW1 7265   6.284   0.891   4.487
 2122SOL    HW2 7266   6.224   0.745   4.443
 2123SOL     OW 7267   1.483   5.027   2.846
 2123SOL    HW1 7268   1.546   4.985   2.781
 2123SOL    HW2 7269   1.535   5.083   2.910
 2124SOL     OW 7270   4.164   3.785   6.480
 2124SOL    HW1 7271   4.068   3.775   6.452
 2124SOL    HW2 7272   4.176   3.742   6.570
 2125SOL     OW 7273   1.779   5.963   4.299
 2125SOL    HW1 7274   1.835   5.881   4.289
 2125SOL    HW2 7275   1.734   5.962   4.389
 2126SOL     OW 7276   2.586   3.985   6.784
 2126SOL    HW1 7277   2.507   4.041   6.807
 2126SOL    HW2 7278   2.626   3.946   6.867
 2127SOL     OW 7279   0.794   2.488   4.591
 2127SOL    HW1 7280   0.887   2.513   4.563
 2127SOL    HW2 7281   0.729   2.554   4.551
 2128SOL     OW 7282   5.242   3.357   1.988
 2128SOL    HW1 7283   5.282   3.304   1.913
 2128SOL    HW2 7284   5.142   3.346   1.988
 2129SOL     OW 7285   5.381   4.278   4.475
 2129SOL    HW1 7286   5.392   4.370   4.439
 2129SOL    HW2 7287   5.389   4.279   4.575
 2130SOL     OW 7288   3.154   1.016   1.299
 2130SOL    HW1 7289   3.135   1.109   1.331
 2130SOL    HW2 7290   3.069   0.972   1.270
 2131SOL     OW 7291   5.237   0.451   5.552
 2131SOL    HW1 7292   5.251   0.460   5.453
 2131SOL    HW2 7293   5.170   0.519   5.582
 2132SOL     OW 7294   2.462   2.220   0.255
 2132SOL    HW1 7295   2.534   2.178   0.310
 2132SOL    HW2 7296   2.503   2.265   0.175
 2133SOL     OW 7297   3.084   2.309   1.702
 2133SOL    HW1 7298   3.057   2.215   1.723
 2133SOL    HW2 7299   3.035   2.372   1.762
 2134SOL     OW 7300   2.211   6.478   5.316
 2134SOL    HW1 7301   2.159   6.563   5.310
 2134SOL    HW2 7302   2.294   6.486   5.261
 2135SOL     OW 7303   0.834   6.281   4.210
 2135SOL    HW1 7304   0.922   6.244   4.243
 2135SOL    HW2 7305   0.797   6.343   4.279
 2136SOL     OW 7306   1.351   4.513   3.774
 2136SOL    HW1 7307   1.424   4.535   3.709
 2136SOL    HW2 7308   1.269   4.565   3.750
 2137SOL     OW 7309   1.303   1.234   4.771
 2137SOL    HW1 7310   1.282   1.172   4.847
 2137SOL    HW2 7311   1.402   1.247   4.765
 2138SOL     OW 7312   1.288   2.589   5.965
 2138SOL    HW1 7313   1.278   2.666   5.902
 2138SOL    HW2 7314   1.358   2.611   6.033
 2139SOL     OW 7315   2.357   0.728   4.559
 2139SOL    HW1 7316   2.304   0.810   4.579
 2139SOL    HW2 7317   2.367   0.674   4.642
 2140SOL     OW 7318   1.850   6.006   3.593
 2140SOL    HW1 7319   1.836   6.069   3.669
 2140SOL    HW2 7320   1.763   5.965   3.567
 2141SOL     OW 7321   6.729   1.570   0.401
 2141SOL    HW1 7322   6.756   1.488   0.351
 2141SOL    HW2 7323   6.659   1.547   0.468
 2142SOL     OW 7324   2.708   1.339   3.724
 2142SOL    HW1 7325   2.763   1.263   3.688
 2142SOL    HW2 7326   2.718   1.419   3.664
 2143SOL     OW 7327   3.968   6.126   6.343
 2143SOL    HW1 7328   3.922   6.154   6.427
 2143SOL    HW2 7329   3.922   6.168   6.264
 2144SOL     OW 7330   0.227   0.678   2.302
 2144SOL    HW1 7331   0.281   0.719   2.375
 2144SOL    HW2 7332   0.179   0.750   2.251
 2145SOL     OW 7333   3.852   5.513   3.111
 2145SOL    HW1 7334   3.929   5.456   3.082
 2145SOL    HW2 7335   3.879   5.567   3.192
 2146SOL     OW 7336   3.506   2.498   1.118
 2146SOL    HW1 7337   3.430   2.475   1.178
 2146SOL    HW2 7338   3.537   2.592   1.137
 2147SOL     OW 7339   7.006   0.951   5.089
 2147SOL    HW1 7340   7.002   0.963   5.188
 2147SOL    HW2 7341   0.060   1.002   5.052
 2148SOL     OW 7342   5.180   2.965   2.742
 2148SOL    HW1 7343   5.208   3.021   2.663
 2148SOL    HW2 7344   5.129   3.022   2.806
 2149SOL     OW 7345   3.623   0.719   3.036
 2149SOL    HW1 7346   3.597   0.716   2.940
 2149SOL    HW2 7347   3.686   0.795   3.052
 2150SOL     OW 7348   3.797   1.242   1.760
 2150SOL    HW1 7349   3.849   1.166   1.719
 2150SOL    HW2 7350   3.861   1.310   1.795
 2151SOL     OW 7351   3.564   2.906   5.824
 2151SOL    HW1 7352   3.553   2.871   5.731
 2151SOL    HW2 7353   3.584   3.004   5.820
 2152SOL     OW 7354   5.966   6.070   1.527
 2152SOL    HW1 7355   5.921   5.981   1.534
 2152SOL    HW2 7356   5.899   6.141   1.508
 2153SOL     OW 7357   4.970   2.451   2.398
 2153SOL    HW1 7358   5.003   2.537   2.360
 2153SOL    HW2 7359   5.042   2.411   2.455
 2154SOL     OW 7360   4.241   6.026   5.155
 2154SOL    HW1 7361   4.322   5.967   5.161
 2154SOL    HW2 7362   4.237   6.067   5.064
 2155SOL     OW 7363   5.801   3.860   6.671
 2155SOL    HW1 7364   5.879   3.846   6.732
 2155SOL    HW2 7365   5.834   3.897   6.584
 2156SOL     OW 7366   0.672   0.850   1.553
 2156SOL    HW1 7367   0.682   0.950   1.554
 2156SOL    HW2 7368   0.575   0.826   1.560
 2157SOL     OW 7369   6.978   1.202   4.457
 2157SOL    HW1 7370   6.890   1.155   4.449
 2157SOL    HW2 7371   0.024   1.137   4.490
 2158SOL     OW 7372   4.438   6.502   2.520
 2158SOL    HW1 7373   4.459   6.568   2.593
 2158SOL    HW2 7374   4.413   6.551   2.437
 2159SOL     OW 7375   1.764   6.506   5.279
 2159SOL    HW1 7376   1.696   6.517   5.207
 2159SOL    HW2 7377   1.718   6.500   5.368
 2160SOL     OW 7378   2.834   3.039   0.865
 2160SOL    HW1 7379   2.764   3.062   0.932
 2160SOL    HW2 7380   2.838   2.940   0.854
 2161SOL     OW 7381   4.639   2.126   3.941
 2161SOL    HW1 7382   4.731   2.138   3.903
 2161SOL    HW2 7383   4.638   2.044   3.999
 2162SOL     OW 7384   1.544   1.417   6.983
 2162SOL    HW1 7385   1.603   1.447   0.035
 2162SOL    HW2 7386   1.599   1.377   6.910
 2163SOL     OW 7387   2.991   1.944   1.109
 2163SOL    HW1 7388   2.906   1.989   1.079
 2163SOL    HW2 7389   3.064   2.012   1.117
 2164SOL     OW 7390   0.786   0.415   1.699
 2164SOL    HW1 7391   0.796   0.452   1.607
 2164SOL    HW2 7392   0.744   0.324   1.694
 2165SOL     OW 7393   2.957   7.012   1.601
 2165SOL    HW1 7394   2.914   6.921   1.597
 2165SOL    HW2 7395   2.964   0.018   1.696
 2166SOL     OW 7396   6.206   2.676   6.450
 2166SOL    HW1 7397   6.141   2.631   6.388
 2166SOL    HW2 7398   6.269   2.732   6.397
 2167SOL     OW 7399   2.728   0.463   1.862
 2167SOL    HW1 7400   2.805   0.453   1.799
 2167SOL    HW2 7401   2.643   0.439   1.815
 2168SOL     OW 7402   5.643   5.721   4.867
 2168SOL    HW1 7403   5.727   5.773   4.880
 2168SOL    HW2 7404   5.595   5.754   4.785
 2169SOL     OW 7405   6.083   1.886   5.129
 2169SOL    HW1 7406   6.152   1.896   5.201
 2169SOL    HW2 7407   6.004   1.837   5.165
 2170SOL     OW 7408   5.759   5.293   4.050
 2170SOL    HW1 7409   5.799   5.203   4.064
 2170SOL    HW2 7410   5.662   5.291   4.076
 2171SOL     OW 7411   6.718   2.786   0.728
 2171SOL    HW1 7412   6.815   2.763   0.717
 2171SOL    HW2 7413   6.681   2.813   0.640
 2172SOL     OW 7414   2.427   0.482   1.035
 2172SOL    HW1 7415   2.482   0.536   0.970
 2172SOL    HW2 7416   2.430   0.386   1.009
 2173SOL     OW 7417   5.107   1.842   4.853
 2173SOL    HW1 7418   5.188   1.803   4.807
 2173SOL    HW2 7419   5.027   1.788   4.829
 2174SOL     OW 7420   1.301   5.101   4.570
 2174SOL    HW1 7421   1.366   5.177   4.575
 2174SOL    HW2 7422   1.309   5.044   4.652
 2175SOL     OW 7423   1.980   6.368   5.400
 2175SOL    HW1 7424   2.070   6.411   5.401
 2175SOL    HW2 7425   1.916   6.426   5.349
 2176SOL     OW 7426   2.069   2.697   2.424
 2176SOL    HW1 7427   2.068   2.707   2.325
 2176SOL    HW2 7428   2.066   2.600   2.448
 2177SOL     OW 7429   6.788   1.165   2.413
 2177SOL    HW1 7430   6.837   1.086   2.377
 2177SOL    HW2 7431   6.807   1.245   2.357
 2178SOL     OW 7432   0.961   5.342   0.930
 2178SOL    HW1 7433   0.962   5.442   0.923
 2178SOL    HW2 7434   0.890   5.313   0.995
 2179SOL     OW 7435   1.307   4.386   4.002
 2179SOL    HW1 7436   1.334   4.435   3.918
 2179SOL    HW2 7437   1.237   4.318   3.979
 2180SOL     OW 7438   3.988   3.274   1.673
 2180SOL    HW1 7439   3.944   3.363   1.680
 2180SOL    HW2 7440   3.920   3.201   1.681
 2181SOL     OW 7441   4.255   6.579   0.850
 2181SOL    HW1 7442   4.167   6.531   0.859
 2181SOL    HW2 7443   4.299   6.549   0.765
 2182SOL     OW 7444   5.318   1.815   0.544
 2182SOL    HW1 7445   5.400   1.809   0.600
 2182SOL    HW2 7446   5.270   1.900   0.564
 2183SOL     OW 7447   2.775   2.361   0.578
 2183SOL    HW1 7448   2.732   2.287   0.528
 2183SOL    HW2 7449   2.773   2.445   0.524
 2184SOL     OW 7450   4.139   2.902   5.719
 2184SOL    HW1 7451   4.221   2.845   5.706
 2184SOL    HW2 7452   4.167   2.997   5.731
 2185SOL     OW 7453   1.126   0.675   1.435
 2185SOL    HW1 7454   1.120   0.774   1.446
 2185SOL    HW2 7455   1.125   0.652   1.338
 2186SOL     OW 7456   0.010   4.910   2.612
 2186SOL    HW1 7457   0.068   4.955   2.679
 2186SOL    HW2 7458   0.065   4.850   2.555
 2187SOL     OW 7459   6.955   1.528   6.391
 2187SOL    HW1 7460   7.013   1.576   6.325
 2187SOL    HW2 7461   6.974   1.430   6.388
 2188SOL     OW 7462   5.254   1.128   3.276
 2188SOL    HW1 7463   5.297   1.169   3.357
 2188SOL    HW2 7464   5.187   1.192   3.238
 2189SOL     OW 7465   3.142   6.958   6.859
 2189SOL    HW1 7466   3.068   6.979   6.924
 2189SOL    HW2 7467   3.131   7.014   6.777
 2190SOL     OW 7468   4.997   2.091   1.072
 2190SOL    HW1 7469   4.906   2.131   1.080
 2190SOL    HW2 7470   5.008   2.018   1.139
 2191SOL     OW 7471   3.273   1.807   0.133
 2191SOL    HW1 7472   3.210   1.732   0.153
 2191SOL    HW2 7473   3.360   1.790   0.180
 2192SOL     OW 7474   3.764   5.364   3.564
 2192SOL    HW1 7475   3.840   5.418   3.600
 2192SOL    HW2 7476   3.707   5.421   3.505
 2193SOL     OW 7477   6.922   5.369   5.484
 2193SOL    HW1 7478   6.914   5.337   5.390
 2193SOL    HW2 7479   6.908   5.292   5.547
 2194SOL     OW 7480   3.222   6.990   1.205
 2194SOL    HW1 7481   3.129   6.996   1.167
 2194SOL    HW2 7482   3.220   7.019   1.301
 2195SOL     OW 7483   1.259   4.747   2.563
 2195SOL    HW1 7484   1.201   4.687   2.508
 2195SOL    HW2 7485   1.355   4.733   2.539
 2196SOL     OW 7486   4.830   2.661   6.610
 2196SOL    HW1 7487   4.806   2.593   6.541
 2196SOL    HW2 7488   4.887   2.732   6.568
 2197SOL     OW 7489   4.328   4.244   0.048
 2197SOL    HW1 7490   4.285   4.330   0.076
 2197SOL    HW2 7491   4.349   4.248   6.973
 2198SOL     OW 7492   6.351   4.368   0.784
 2198SOL    HW1 7493   6.430   4.350   0.725
 2198SOL    HW2 7494   6.341   4.466   0.798
 2199SOL     OW 7495   4.229   0.258   2.273
 2199SOL    HW1 7496   4.140   0.257   2.318
 2199SOL    HW2 7497   4.252   0.352   2.247
 2200SOL     OW 7498   2.067   6.909   4.360
 2200SOL    HW1 7499   2.116   6.835   4.406
 2200SOL    HW2 7500   2.084   6.904   4.262
 2201SOL     OW 7501   4.810   4.064   3.053
 2201SOL    HW1 7502   4.876   4.121   3.004
 2201SOL    HW2 7503   4.732   4.120   3.081
 2202SOL     OW 7504   4.902   6.166   3.687
 2202SOL    HW1 7505   4.934   6.103   3.758
 2202SOL    HW2 7506   4.804   6.180   3.696
 2203SOL     OW 7507   3.742   2.111   2.932
 2203SOL    HW1 7508   3.649   2.086   2.956
 2203SOL    HW2 7509   3.746   2.140   2.836
 2204SOL     OW 7510   2.817   2.892   1.239
 2204SOL    HW1 7511   2.866   2.824   1.184
 2204SOL    HW2 7512   2.819   2.980   1.192
 2205SOL     OW 7513   1.892   0.662   1.445
 2205SOL    HW1 7514   1.932   0.597   1.381
 2205SOL    HW2 7515   1.862   0.743   1.396
 2206SOL     OW 7516   2.291   3.156   7.021
 2206SOL    HW1 7517   2.377   3.200   6.996
 2206SOL    HW2 7518   2.255   3.197   0.082
 2207SOL     OW 7519   0.742   4.619   4.440
 2207SOL    HW1 7520   0.669   4.686   4.432
 2207SOL    HW2 7521   0.759   4.598   4.536
 2208SOL     OW 7522   6.541   4.604   2.041
 2208SOL    HW1 7523   6.489   4.564   1.966
 2208SOL    HW2 7524   6.638   4.606   2.017
 2209SOL     OW 7525   1.523   6.573   1.341
 2209SOL    HW1 7526   1.528   6.612   1.249
 2209SOL    HW2 7527   1.501   6.476   1.336
 2210SOL     OW 7528   1.699   5.141   3.655
 2210SOL    HW1 7529   1.619   5.092   3.620
 2210SOL    HW2 7530   1.690   5.153   3.754
 2211SOL     OW 7531   6.936   1.484   5.302
 2211SOL    HW1 7532   6.868   1.441   5.243
 2211SOL    HW2 7533   6.916   1.464   5.397
 2212SOL     OW 7534   2.069   6.918   6.364
 2212SOL    HW1 7535   2.163   6.940   6.337
 2212SOL    HW2 7536   2.070   6.845   6.431
 2213SOL     OW 7537   3.430   0.952   3.352
 2213SOL    HW1 7538   3.406   0.979   3.445
 2213SOL    HW2 7539   3.517   0.994   3.327
 2214SOL     OW 7540   4.253   6.976   5.443
 2214SOL    HW1 7541   4.257   0.034   5.385
 2214SOL    HW2 7542   4.158   6.951   5.459
 2215SOL     OW 7543   5.907   2.702   5.314
 2215SOL    HW1 7544   5.854   2.749   5.385
 2215SOL    HW2 7545   5.861   2.616   5.291
 2216SOL     OW 7546   2.240   0.930   2.290
 2216SOL    HW1 7547   2.148   0.893   2.276
 2216SOL    HW2 7548   2.303   0.856   2.314
 2217SOL     OW 7549   4.399   0.828   1.722
 2217SOL    HW1 7550   4.423   0.773   1.802
 2217SOL    HW2 7551   4.468   0.899   1.708
 2218SOL     OW 7552   1.223   6.459   2.955
 2218SOL    HW1 7553   1.315   6.496   2.946
 2218SOL    HW2 7554   1.159   6.515   2.903
 2219SOL     OW 7555   1.308   2.302   3.073
 2219SOL    HW1 7556   1.270   2.265   2.988
 2219SOL    HW2 7557   1.317   2.402   3.065
 2220SOL     OW 7558   0.825   0.368   1.033
 2220SOL    HW1 7559   0.921   0.351   1.056
 2220SOL    HW2 7560   0.766   0.318   1.096
 2221SOL     OW 7561   0.858   1.652   6.883
 2221SOL    HW1 7562   0.937   1.592   6.872
 2221SOL    HW2 7563   0.838   1.663   6.981
 2222SOL     OW 7564   6.094   5.950   3.015
 2222SOL    HW1 7565   6.096   5.873   3.078
 2222SOL    HW2 7566   6.172   6.010   3.033
 2223SOL     OW 7567   6.279   5.778   1.503
 2223SOL    HW1 7568   6.205   5.715   1.481
 2223SOL    HW2 7569   6.260   5.867   1.461
 2224SOL     OW 7570   1.014   4.912   2.269
 2224SOL    HW1 7571   1.071   4.842   2.224
 2224SOL    HW2 7572   1.070   4.990   2.294
 2225SOL     OW 7573   0.386   4.584   1.346
 2225SOL    HW1 7574   0.351   4.676   1.360
 2225SOL    HW2 7575   0.319   4.531   1.294
 2226SOL     OW 7576   4.242   3.932   1.333
 2226SOL    HW1 7577   4.180   3.970   1.401
 2226SOL    HW2 7578   4.191   3.872   1.272
 2227SOL     OW 7579   0.236   3.051   4.714
 2227SOL    HW1 7580   0.188   2.969   4.682
 2227SOL    HW2 7581   0.243   3.048   4.814
 2228SOL     OW 7582   3.171   4.968   4.491
 2228SOL    HW1 7583   3.084   4.947   4.535
 2228SOL    HW2 7584   3.189   5.066   4.499
 2229SOL     OW 7585   5.494   0.287   3.273
 2229SOL    HW1 7586   5.580   0.297   3.224
 2229SOL    HW2 7587   5.434   0.364   3.252
 2230SOL     OW 7588   2.737   5.244   1.067
 2230SOL    HW1 7589   2.812   5.178   1.079
 2230SOL    HW2 7590   2.704   5.273   1.157
 2231SOL     OW 7591   2.490   5.600   1.056
 2231SOL    HW1 7592   2.553   5.584   0.980
 2231SOL    HW2 7593   2.444   5.688   1.043
 2232SOL     OW 7594   5.689   2.970   3.625
 2232SOL    HW1 7595   5.751   2.919   3.685
 2232SOL    HW2 7596   5.666   3.057   3.667
 2233SOL     OW 7597   2.912   2.028   6.168
 2233SOL    HW1 7598   2.842   1.993   6.104
 2233SOL    HW2 7599   2.935   1.956   6.234
 2234SOL     OW 7600   3.881   2.467   1.326
 2234SOL    HW1 7601   3.829   2.413   1.392
 2234SOL    HW2 7602   3.865   2.565   1.342
 2235SOL     OW 7603   2.240   1.299   1.084
 2235SOL    HW1 7604   2.332   1.291   1.123
 2235SOL    HW2 7605   2.235   1.246   0.999
 2236SOL     OW 7606   0.097   4.055   5.933
 2236SOL    HW1 7607   0.162   3.982   5.911
 2236SOL    HW2 7608   0.030   4.021   6.000
 2237SOL     OW 7609   6.125   3.047   4.029
 2237SOL    HW1 7610   6.102   3.028   3.934
 2237SOL    HW2 7611   6.201   3.112   4.032
 2238SOL     OW 7612   6.475   6.436   1.736
 2238SOL    HW1 7613   6.530   6.402   1.659
 2238SOL    HW2 7614   6.379   6.437   1.710
 2239SOL     OW 7615   5.245   5.556   2.722
 2239SOL    HW1 7616   5.151   5.575   2.751
 2239SOL    HW2 7617   5.256   5.458   2.708
 2240SOL     OW 7618   5.669   3.461   2.017
 2240SOL    HW1 7619   5.728   3.500   2.088
 2240SOL    HW2 7620   5.724   3.434   1.938
 2241SOL     OW 7621   0.931   6.877   2.419
 2241SOL    HW1 7622   0.932   6.916   2.327
 2241SOL    HW2 7623   0.929   6.777   2.412
 2242SOL     OW 7624   4.016   1.870   2.960
 2242SOL    HW1 7625   4.059   1.865   3.050
 2242SOL    HW2 7626   3.924   1.908   2.969
 2243SOL     OW 7627   2.865   6.128   5.605
 2243SOL    HW1 7628   2.946   6.177   5.574
 2243SOL    HW2 7629   2.802   6.191   5.650
 2244SOL     OW 7630   3.275   0.799   5.117
 2244SOL    HW1 7631   3.260   0.786   5.019
 2244SOL    HW2 7632   3.187   0.815   5.162
 2245SOL     OW 7633   0.181   2.233   2.208
 2245SOL    HW1 7634   0.118   2.294   2.256
 2245SOL    HW2 7635   0.272   2.239   2.249
 2246SOL     OW 7636   1.949   4.729   5.054
 2246SOL    HW1 7637   2.022   4.689   5.000
 2246SOL    HW2 7638   1.948   4.687   5.145
 2247SOL     OW 7639   2.272   1.384   4.983
 2247SOL    HW1 7640   2.312   1.475   4.974
 2247SOL    HW2 7641   2.333   1.316   4.943
 2248SOL     OW 7642   4.449   4.237   5.287
 2248SOL    HW1 7643   4.532   4.254   5.235
 2248SOL    HW2 7644   4.372   4.284   5.243
 2249SOL     OW 7645   4.019   5.354   4.632
 2249SOL    HW1 7646   3.926   5.390   4.643
 2249SOL    HW2 7647   4.083   5.410   4.684
 2250SOL     OW 7648   5.386   5.147   0.852
 2250SOL    HW1 7649   5.341   5.058   0.847
 2250SOL    HW2 7650   5.475   5.142   0.807
 2251SOL     OW 7651   0.139   0.494   5.981
 2251SOL    HW1 7652   0.047   0.531   5.968
 2251SOL    HW2 7653   0.163   0.494   6.078
 2252SOL     OW 7654   3.743   1.121   6.094
 2252SOL    HW1 7655   3.819   1.081   6.145
 2252SOL    HW2 7656   3.679   1.164   6.158
 2253SOL     OW 7657   1.460   2.631   6.193
 2253SOL    HW1 7658   1.426   2.701   6.255
 2253SOL    HW2 7659   1.509   2.674   6.117
 2254SOL     OW 7660   1.495   3.524   5.820
 2254SOL    HW1 7661   1.591   3.553   5.831
 2254SOL    HW2 7662   1.490   3.425   5.824
 2255SOL     OW 7663   5.246   3.286   0.587
 2255SOL    HW1 7664   5.215   3.381   0.592
 2255SOL    HW2 7665   5.178   3.231   0.538
 2256SOL     OW 7666   3.494   5.010   1.948
 2256SOL    HW1 7667   3.554   5.085   1.975
 2256SOL    HW2 7668   3.549   4.927   1.937
 2257SOL     OW 7669   2.204   3.888   4.353
 2257SOL    HW1 7670   2.227   3.910   4.448
 2257SOL    HW2 7671   2.163   3.797   4.349
 2258SOL     OW 7672   2.061   4.925   5.492
 2258SOL    HW1 7673   2.150   4.969   5.499
 2258SOL    HW2 7674   2.001   4.980   5.434
 2259SOL     OW 7675   6.518   3.186   6.395
 2259SOL    HW1 7676   6.515   3.239   6.480
 2259SOL    HW2 7677   6.435   3.205   6.342
 2260SOL     OW 7678   4.669   3.812   1.059
 2260SOL    HW1 7679   4.636   3.730   1.013
 2260SOL    HW2 7680   4.602   3.841   1.128
 2261SOL     OW 7681   3.561   6.476   4.711
 2261SOL    HW1 7682   3.622   6.426   4.773
 2261SOL    HW2 7683   3.492   6.414   4.675
 2262SOL     OW 7684   3.530   1.602   3.165
 2262SOL    HW1 7685   3.629   1.595   3.154
 2262SOL    HW2 7686   3.507   1.593   3.262
 2263SOL     OW 7687   0.138   4.178   5.447
 2263SOL    HW1 7688   0.194   4.102   5.480
 2263SOL    HW2 7689   0.053   4.143   5.408
 2264SOL     OW 7690   3.138   4.095   3.565
 2264SOL    HW1 7691   3.120   4.193   3.563
 2264SOL    HW2 7692   3.153   4.065   3.659
 2265SOL     OW 7693   0.732   0.159   2.939
 2265SOL    HW1 7694   0.636   0.136   2.959
 2265SOL    HW2 7695   0.747   0.256   2.959
 2266SOL     OW 7696   6.257   0.629   6.629
 2266SOL    HW1 7697   6.197   0.557   6.594
 2266SOL    HW2 7698   6.293   0.602   6.718
 2267SOL     OW 7699   5.592   1.863   5.541
 2267SOL    HW1 7700   5.511   1.900   5.496
 2267SOL    HW2 7701   5.674   1.905   5.500
 2268SOL     OW 7702   6.509   5.004   0.396
 2268SOL    HW1 7703   6.596   5.012   0.444
 2268SOL    HW2 7704   6.524   4.970   0.304
 2269SOL     OW 7705   0.478   5.690   3.582
 2269SOL    HW1 7706   0.550   5.655   3.522
 2269SOL    HW2 7707   0.411   5.741   3.527
 2270SOL     OW 7708   4.102   3.249   2.784
 2270SOL    HW1 7709   4.114   3.306   2.702
 2270SOL    HW2 7710   4.123   3.154   2.762
 2271SOL     OW 7711   0.486   4.151   2.638
 2271SOL    HW1 7712   0.553   4.206   2.587
 2271SOL    HW2 7713   0.481   4.060   2.599
 2272SOL     OW 7714   5.229   2.535   5.918
 2272SOL    HW1 7715   5.187   2.559   5.830
 2272SOL    HW2 7716   5.176   2.576   5.992
 2273SOL     OW 7717   0.793   0.555   3.699
 2273SOL    HW1 7718   0.796   0.628   3.631
 2273SOL    HW2 7719   0.833   0.472   3.660
 2274SOL     OW 7720   1.255   3.955   3.076
 2274SOL    HW1 7721   1.263   4.054   3.073
 2274SOL    HW2 7722   1.307   3.919   3.154
 2275SOL     OW 7723   4.614   6.577   3.285
 2275SOL    HW1 7724   4.658   6.629   3.212
 2275SOL    HW2 7725   4.677   6.571   3.363
 2276SOL     OW 7726   3.211   5.388   1.752
 2276SOL    HW1 7727   3.282   5.342   1.805
 2276SOL    HW2 7728   3.247   5.475   1.717
 2277SOL     OW 7729   3.527   3.897   1.238
 2277SOL    HW1 7730   3.523   3.886   1.139
 2277SOL    HW2 7731   3.582   3.824   1.278
 2278SOL     OW 7732   4.909   6.502   1.064
 2278SOL    HW1 7733   4.921   6.515   1.163
 2278SOL    HW2 7734   4.812   6.502   1.042
 2279SOL     OW 7735   5.231   3.958   5.307
 2279SOL    HW1 7736   5.294   3.967   5.230
 2279SOL    HW2 7737   5.282   3.938   5.390
 2280SOL     OW 7738   5.837   6.917   5.779
 2280SOL    HW1 7739   5.911   6.973   5.741
 2280SOL    HW2 7740   5.868   6.874   5.863
 2281SOL     OW 7741   3.473   2.530   0.363
 2281SOL    HW1 7742   3.543   2.507   0.295
 2281SOL    HW2 7743   3.467   2.456   0.431
 2282SOL     OW 7744   4.340   5.822   1.972
 2282SOL    HW1 7745   4.374   5.816   2.065
 2282SOL    HW2 7746   4.389   5.759   1.913
 2283SOL     OW 7747   0.347   3.902   1.894
 2283SOL    HW1 7748   0.434   3.852   1.896
 2283SOL    HW2 7749   0.303   3.895   1.983
 2284SOL     OW 7750   2.722   2.306   2.243
 2284SOL    HW1 7751   2.756   2.215   2.266
 2284SOL    HW2 7752   2.772   2.342   2.164
 2285SOL     OW 7753   1.876   3.580   6.547
 2285SOL    HW1 7754   1.902   3.619   6.458
 2285SOL    HW2 7755   1.950   3.523   6.582
 2286SOL     OW 7756   5.429   0.127   4.520
 2286SOL    HW1 7757   5.408   0.036   4.555
 2286SOL    HW2 7758   5.519   0.126   4.477
 2287SOL     OW 7759   2.482   2.091   1.188
 2287SOL    HW1 7760   2.458   2.012   1.133
 2287SOL    HW2 7761   2.405   2.154   1.193
 2288SOL     OW 7762   1.779   5.657   4.527
 2288SOL    HW1 7763   1.733   5.740   4.560
 2288SOL    HW2 7764   1.843   5.681   4.454
 2289SOL     OW 7765   4.489   1.614   0.228
 2289SOL    HW1 7766   4.523   1.683   0.164
 2289SOL    HW2 7767   4.418   1.560   0.184
 2290SOL     OW 7768   3.243   3.433   3.085
 2290SOL    HW1 7769   3.197   3.442   2.996
 2290SOL    HW2 7770   3.175   3.437   3.158
 2291SOL     OW 7771   1.050   2.869   6.193
 2291SOL    HW1 7772   1.087   2.957   6.164
 2291SOL    HW2 7773   1.096   2.795   6.142
 2292SOL     OW 7774   4.797   1.862   2.591
 2292SOL    HW1 7775   4.735   1.893   2.519
 2292SOL    HW2 7776   4.824   1.940   2.648
 2293SOL     OW 7777   0.749   1.009   0.144
 2293SOL    HW1 7778   0.690   0.986   0.066
 2293SOL    HW2 7779   0.833   0.955   0.138
 2294SOL     OW 7780   6.653   0.974   5.889
 2294SOL    HW1 7781   6.672   1.022   5.803
 2294SOL    HW2 7782   6.590   1.029   5.944
 2295SOL     OW 7783   6.231   6.000   0.779
 2295SOL    HW1 7784   6.178   5.939   0.719
 2295SOL    HW2 7785   6.329   5.983   0.766
 2296SOL     OW 7786   3.849   4.987   4.090
 2296SOL    HW1 7787   3.887   5.070   4.047
 2296SOL    HW2 7788   3.793   4.938   4.023
 2297SOL     OW 7789   5.252   3.646   5.503
 2297SOL    HW1 7790   5.209   3.729   5.540
 2297SOL    HW2 7791   5.201   3.615   5.423
 2298SOL     OW 7792   3.525   4.185   4.313
 2298SOL    HW1 7793   3.614   4.161   4.352
 2298SOL    HW2 7794   3.538   4.252   4.240
 2299SOL     OW 7795   5.312   2.933   4.278
 2299SOL    HW1 7796   5.253   3.006   4.244
 2299SOL    HW2 7797   5.405   2.969   4.291
 2300SOL     OW 7798   5.091   0.139   2.091
 2300SOL    HW1 7799   5.152   0.179   2.159
 2300SOL    HW2 7800   5.003   0.186   2.093
 2301SOL     OW 7801   3.825   2.957   4.993
 2301SOL    HW1 7802   3.793   2.869   5.026
 2301SOL    HW2 7803   3.852   3.015   5.070
 2302SOL     OW 7804   6.293   3.046   6.031
 2302SOL    HW1 7805   6.286   3.009   5.939
 2302SOL    HW2 7806   6.364   3.117   6.033
 2303SOL     OW 7807   2.972   2.538   0.106
 2303SOL    HW1 7808   3.068   2.511   0.114
 2303SOL    HW2 7809   2.957   2.582   0.017
 2304SOL     OW 7810   6.728   5.988   2.435
 2304SOL    HW1 7811   6.807   5.936   2.404
 2304SOL    HW2 7812   6.751   6.040   2.518
 2305SOL     OW 7813   2.682   0.233   4.978
 2305SOL    HW1 7814   2.627   0.228   4.894
 2305SOL    HW2 7815   2.779   0.240   4.954
 2306SOL     OW 7816   1.629   4.855   4.529
 2306SOL    HW1 7817   1.603   4.827   4.621
 2306SOL    HW2 7818   1.691   4.934   4.534
 2307SOL     OW 7819   6.333   3.059   5.423
 2307SOL    HW1 7820   6.265   3.108   5.368
 2307SOL    HW2 7821   6.336   3.099   5.515
 2308SOL     OW 7822   1.566   4.977   1.837
 2308SOL    HW1 7823   1.514   5.038   1.777
 2308SOL    HW2 7824   1.534   4.883   1.826
 2309SOL     OW 7825   2.067   0.143   4.801
 2309SOL    HW1 7826   1.980   0.099   4.782
 2309SOL    HW2 7827   2.051   0.232   4.844
 2310SOL     OW 7828   4.489   0.016   0.908
 2310SOL    HW1 7829   4.542   0.032   0.825
 2310SOL    HW2 7830   4.548   0.029   0.988
 2311SOL     OW 7831   2.370   5.104   1.208
 2311SOL    HW1 7832   2.451   5.054   1.178
 2311SOL    HW2 7833   2.397   5.196   1.236
 2312SOL     OW 7834   3.291   4.995   1.768
 2312SOL    HW1 7835   3.326   4.930   1.700
 2312SOL    HW2 7836   3.366   5.024   1.827
 2313SOL     OW 7837   5.043   5.444   0.923
 2313SOL    HW1 7838   5.004   5.360   0.885
 2313SOL    HW2 7839   5.141   5.447   0.904
 2314SOL     OW 7840   2.424   5.008   4.548
 2314SOL    HW1 7841   2.381   4.969   4.629
 2314SOL    HW2 7842   2.476   5.090   4.573
 2315SOL     OW 7843   4.477   2.680   6.375
 2315SOL    HW1 7844   4.415   2.731   6.316
 2315SOL    HW2 7845   4.424   2.635   6.448
 2316SOL     OW 7846   5.466   3.771   2.145
 2316SOL    HW1 7847   5.431   3.856   2.183
 2316SOL    HW2 7848   5.394   3.724   2.095
 2317SOL     OW 7849   0.478   6.110   3.194
 2317SOL    HW1 7850   0.394   6.057   3.207
 2317SOL    HW2 7851   0.469   6.168   3.113
 2318SOL     OW 7852   6.446   0.570   3.947
 2318SOL    HW1 7853   6.365   0.573   3.888
 2318SOL    HW2 7854   6.421   0.537   4.037
 2319SOL     OW 7855   1.017   5.553   2.510
 2319SOL    HW1 7856   0.966   5.613   2.449
 2319SOL    HW2 7857   0.963   5.470   2.528
 2320SOL     OW 7858   6.476   5.200   5.235
 2320SOL    HW1 7859   6.492   5.253   5.152
 2320SOL    HW2 7860   6.427   5.256   5.302
 2321SOL     OW 7861   4.104   4.950   4.736
 2321SOL    HW1 7862   4.025   5.012   4.737
 2321SOL    HW2 7863   4.115   4.908   4.826
 2322SOL     OW 7864   3.249   0.388   5.209
 2322SOL    HW1 7865   3.153   0.395   5.182
 2322SOL    HW2 7866   3.256   0.325   5.287
 2323SOL     OW 7867   5.208   3.740   1.968
 2323SOL    HW1 7868   5.157   3.744   1.882
 2323SOL    HW2 7869   5.189   3.653   2.014
 2324SOL     OW 7870   0.081   5.107   3.472
 2324SOL    HW1 7871   0.002   5.055   3.441
 2324SOL    HW2 7872   0.058   5.204   3.478
 2325SOL     OW 7873   0.689   2.489   0.680
 2325SOL    HW1 7874   0.753   2.536   0.620
 2325SOL    HW2 7875   0.643   2.556   0.738
 2326SOL     OW 7876   1.268   4.386   0.588
 2326SOL    HW1 7877   1.186   4.414   0.638
 2326SOL    HW2 7878   1.341   4.364   0.653
 2327SOL     OW 7879   5.466   1.823   3.978
 2327SOL    HW1 7880   5.430   1.854   4.065
 2327SOL    HW2 7881   5.496   1.902   3.924
 2328SOL     OW 7882   6.032   6.634   3.651
 2328SOL    HW1 7883   6.017   6.558   3.715
 2328SOL    HW2 7884   6.128   6.637   3.625
 2329SOL     OW 7885   6.604   5.648   3.420
 2329SOL    HW1 7886   6.675   5.610   3.361
 2329SOL    HW2 7887   6.644   5.673   3.508
 2330SOL     OW 7888   0.671   3.476   1.407
 2330SOL    HW1 7889   0.690   3.555   1.349
 2330SOL    HW2 7890   0.647   3.508   1.499
 2331SOL     OW 7891   1.006   4.944   5.876
 2331SOL    HW1 7892   0.913   4.928   5.842
 2331SOL    HW2 7893   1.071   4.938   5.801
 2332SOL     OW 7894   5.355   2.549   4.896
 2332SOL    HW1 7895   5.407   2.474   4.856
 2332SOL    HW2 7896   5.267   2.515   4.929
 2333SOL     OW 7897   2.561   4.612   3.598
 2333SOL    HW1 7898   2.578   4.691   3.540
 2333SOL    HW2 7899   2.579   4.528   3.546
 2334SOL     OW 7900   2.880   0.073   0.433
 2334SOL    HW1 7901   2.805   0.137   0.451
 2334SOL    HW2 7902   2.966   0.123   0.427
 2335SOL     OW 7903   4.621   5.494   4.314
 2335SOL    HW1 7904   4.627   5.426   4.241
 2335SOL    HW2 7905   4.550   5.468   4.379
 2336SOL     OW 7906   4.247   2.449   5.635
 2336SOL    HW1 7907   4.160   2.489   5.663
 2336SOL    HW2 7908   4.235   2.395   5.552
 2337SOL     OW 7909   6.212   0.297   4.174
 2337SOL    HW1 7910   6.136   0.261   4.229
 2337SOL    HW2 7911   6.177   0.362   4.107
 2338SOL     OW 7912   1.199   0.465   6.227
 2338SOL    HW1 7913   1.135   0.487   6.300
 2338SOL    HW2 7914   1.167   0.505   6.141
 2339SOL     OW 7915   4.343   4.827   6.279
 2339SOL    HW1 7916   4.327   4.923   6.303
 2339SOL    HW2 7917   4.361   4.774   6.362
 2340SOL     OW 7918   4.072   5.094   2.909
 2340SOL    HW1 7919   4.029   5.024   2.966
 2340SOL    HW2 7920   4.014   5.114   2.831
 2341SOL     OW 7921   5.689   4.775   5.998
 2341SOL    HW1 7922   5.693   4.681   5.965
 2341SOL    HW2 7923   5.648   4.778   6.088
 2342SOL     OW 7924   6.552   0.319   5.437
 2342SOL    HW1 7925   6.623   0.371   5.484
 2342SOL    HW2 7926   6.593   0.266   5.363
 2343SOL     OW 7927   1.103   0.072   0.546
 2343SOL    HW1 7928   1.025   0.028   0.501
 2343SOL    HW2 7929   1.096   0.171   0.535
 2344SOL     OW 7930   2.740   1.556   2.914
 2344SOL    HW1 7931   2.645   1.552   2.886
 2344SOL    HW2 7932   2.772   1.464   2.939
 2345SOL     OW 7933   1.220   1.582   3.489
 2345SOL    HW1 7934   1.303   1.582   3.544
 2345SOL    HW2 7935   1.140   1.582   3.549
 2346SOL     OW 7936   5.153   2.965   5.361
 2346SOL    HW1 7937   5.123   3.053   5.324
 2346SOL    HW2 7938   5.117   2.955   5.454
 2347SOL     OW 7939   1.362   3.523   1.087
 2347SOL    HW1 7940   1.288   3.463   1.056
 2347SOL    HW2 7941   1.445   3.505   1.034
 2348SOL     OW 7942   2.577   5.715   1.872
 2348SOL    HW1 7943   2.610   5.658   1.797
 2348SOL    HW2 7944   2.650   5.775   1.904
 2349SOL     OW 7945   4.230   4.661   6.094
 2349SOL    HW1 7946   4.192   4.580   6.138
 2349SOL    HW2 7947   4.289   4.709   6.158
 2350SOL     OW 7948   2.166   5.626   5.420
 2350SOL    HW1 7949   2.168   5.714   5.468
 2350SOL    HW2 7950   2.162   5.642   5.321
 2351SOL     OW 7951   2.340   5.313   3.172
 2351SOL    HW1 7952   2.260   5.332   3.116
 2351SOL    HW2 7953   2.334   5.219   3.208
 2352SOL     OW 7954   6.295   3.973   1.736
 2352SOL    HW1 7955   6.302   3.876   1.713
 2352SOL    HW2 7956   6.203   4.006   1.713
 2353SOL     OW 7957   2.889   3.634   6.395
 2353SOL    HW1 7958   2.802   3.677   6.422
 2353SOL    HW2 7959   2.955   3.705   6.372
 2354SOL     OW 7960   4.059   2.362   1.703
 2354SOL    HW1 7961   3.980   2.304   1.724
 2354SOL    HW2 7962   4.131   2.345   1.770
 2355SOL     OW 7963   6.786   1.554   1.512
 2355SOL    HW1 7964   6.757   1.646   1.485
 2355SOL    HW2 7965   6.859   1.560   1.581
 2356SOL     OW 7966   2.586   5.303   3.492
 2356SOL    HW1 7967   2.531   5.372   3.446
 2356SOL    HW2 7968   2.529   5.223   3.512
 2357SOL     OW 7969   6.890   4.337   1.251
 2357SOL    HW1 7970   6.793   4.320   1.267
 2357SOL    HW2 7971   6.909   4.332   1.153
 2358SOL     OW 7972   3.535   1.696   4.988
 2358SOL    HW1 7973   3.477   1.777   4.979
 2358SOL    HW2 7974   3.555   1.680   5.085
 2359SOL     OW 7975   1.708   1.813   5.794
 2359SOL    HW1 7976   1.664   1.870   5.864
 2359SOL    HW2 7977   1.660   1.726   5.786
 2360SOL     OW 7978   3.676   5.010   0.034
 2360SOL    HW1 7979   3.615   5.079   0.072
 2360SOL    HW2 7980   3.664   5.007   6.957
 2361SOL     OW 7981   3.725   5.709   1.618
 2361SOL    HW1 7982   3.757   5.616   1.636
 2361SOL    HW2 7983   3.713   5.757   1.704
 2362SOL     OW 7984   3.488   5.062   3.429
 2362SOL    HW1 7985   3.487   5.156   3.463
 2362SOL    HW2 7986   3.558   5.052   3.359
 2363SOL     OW 7987   2.157   3.866   0.432
 2363SOL    HW1 7988   2.108   3.800   0.489
 2363SOL    HW2 7989   2.106   3.952   0.430
 2364SOL     OW 7990   3.820   1.324   2.719
 2364SOL    HW1 7991   3.911   1.326   2.761
 2364SOL    HW2 7992   3.830   1.311   2.620
 2365SOL     OW 7993   4.935   4.633   3.139
 2365SOL    HW1 7994   4.882   4.686   3.072
 2365SOL    HW2 7995   5.032   4.652   3.127
 2366SOL     OW 7996   2.746   4.531   5.377
 2366SOL    HW1 7997   2.812   4.507   5.306
 2366SOL    HW2 7998   2.654   4.503   5.348
 2367SOL     OW 7999   5.678   4.952   5.811
 2367SOL    HW1 8000   5.733   5.033   5.832
 2367SOL    HW2 8001   5.681   4.889   5.888
 2368SOL     OW 8002   6.005   6.685   4.814
 2368SOL    HW1 8003   6.047   6.773   4.789
 2368SOL    HW2 8004   5.906   6.694   4.812
 2369SOL     OW 8005   3.414   1.880   4.128
 2369SOL    HW1 8006   3.445   1.785   4.126
 2369SOL    HW2 8007   3.317   1.883   4.151
 2370SOL     OW 8008   5.560   2.369   1.649
 2370SOL    HW1 8009   5.646   2.328   1.680
 2370SOL    HW2 8010   5.525   2.317   1.571
 2371SOL     OW 8011   0.994   6.395   2.222
 2371SOL    HW1 8012   1.029   6.311   2.264
 2371SOL    HW2 8013   1.064   6.436   2.164
 2372SOL     OW 8014   6.310   6.632   6.668
 2372SOL    HW1 8015   6.245   6.632   6.744
 2372SOL    HW2 8016   6.280   6.697   6.599
 2373SOL     OW 8017   6.607   5.097   6.609
 2373SOL    HW1 8018   6.672   5.067   6.680
 2373SOL    HW2 8019   6.514   5.090   6.644
 2374SOL     OW 8020   5.727   6.411   2.354
 2374SOL    HW1 8021   5.779   6.496   2.358
 2374SOL    HW2 8022   5.788   6.334   2.371
 2375SOL     OW 8023   1.662   0.442   4.457
 2375SOL    HW1 8024   1.752   0.453   4.498
 2375SOL    HW2 8025   1.670   0.392   4.371
 2376SOL     OW 8026   5.174   2.129   2.716
 2376SOL    HW1 8027   5.239   2.098   2.647
 2376SOL    HW2 8028   5.203   2.095   2.806
 2377SOL     OW 8029   4.814   3.923   5.743
 2377SOL    HW1 8030   4.847   3.934   5.837
 2377SOL    HW2 8031   4.826   3.828   5.715
 2378SOL     OW 8032   0.283   1.083   0.393
 2378SOL    HW1 8033   0.291   1.128   0.304
 2378SOL    HW2 8034   0.333   0.996   0.390
 2379SOL     OW 8035   6.907   5.609   2.611
 2379SOL    HW1 8036   6.845   5.531   2.597
 2379SOL    HW2 8037   7.000   5.575   2.625
 2380SOL     OW 8038   5.069   5.524   6.072
 2380SOL    HW1 8039   5.119   5.480   6.147
 2380SOL    HW2 8040   5.065   5.461   5.995
 2381SOL     OW 8041   2.307   4.509   4.247
 2381SOL    HW1 8042   2.244   4.434   4.226
 2381SOL    HW2 8043   2.258   4.580   4.298
 2382SOL     OW 8044   6.975   5.788   2.847
 2382SOL    HW1 8045   7.015   5.744   2.767
 2382SOL    HW2 8046   6.875   5.785   2.840
 2383SOL     OW 8047   5.140   4.488   5.770
 2383SOL    HW1 8048   5.188   4.532   5.694
 2383SOL    HW2 8049   5.078   4.554   5.812
 2384SOL     OW 8050   6.967   1.622   3.110
 2384SOL    HW1 8051   0.035   1.623   3.067
 2384SOL    HW2 8052   6.899   1.591   3.044
 2385SOL     OW 8053   0.616   1.527   0.949
 2385SOL    HW1 8054   0.559   1.468   0.893
 2385SOL    HW2 8055   0.694   1.559   0.895
 2386SOL     OW 8056   5.876   5.869   4.837
 2386SOL    HW1 8057   5.955   5.813   4.861
 2386SOL    HW2 8058   5.905   5.963   4.820
 2387SOL     OW 8059   1.031   1.587   3.698
 2387SOL    HW1 8060   1.054   1.607   3.793
 2387SOL    HW2 8061   0.998   1.670   3.654
 2388SOL     OW 8062   0.383   2.934   5.560
 2388SOL    HW1 8063   0.337   2.850   5.588
 2388SOL    HW2 8064   0.406   2.929   5.463
 2389SOL     OW 8065   3.839   5.104   3.508
 2389SOL    HW1 8066   3.834   5.201   3.534
 2389SOL    HW2 8067   3.927   5.066   3.535
 2390SOL     OW 8068   4.769   2.933   6.117
 2390SOL    HW1 8069   4.824   2.925   6.033
 2390SOL    HW2 8070   4.784   2.852   6.174
 2391SOL     OW 8071   3.376   4.153   6.117
 2391SOL    HW1 8072   3.291   4.199   6.092
 2391SOL    HW2 8073   3.443   4.165   6.043
 2392SOL     OW 8074   4.318   4.143   5.518
 2392SOL    HW1 8075   4.306   4.215   5.588
 2392SOL    HW2 8076   4.383   4.175   5.449
 2393SOL     OW 8077   4.803   4.442   1.346
 2393SOL    HW1 8078   4.720   4.497   1.342
 2393SOL    HW2 8079   4.861   4.462   1.267
 2394SOL     OW 8080   0.557   2.118   3.802
 2394SOL    HW1 8081   0.551   2.078   3.711
 2394SOL    HW2 8082   0.638   2.081   3.849
 2395SOL     OW 8083   1.051   2.577   4.430
 2395SOL    HW1 8084   1.126   2.514   4.409
 2395SOL    HW2 8085   1.081   2.641   4.502
 2396SOL     OW 8086   0.709   0.611   5.687
 2396SOL    HW1 8087   0.744   0.704   5.670
 2396SOL    HW2 8088   0.659   0.579   5.606
 2397SOL     OW 8089   0.376   3.808   4.859
 2397SOL    HW1 8090   0.463   3.758   4.853
 2397SOL    HW2 8091   0.369   3.852   4.948
 2398SOL     OW 8092   3.494   6.476   3.829
 2398SOL    HW1 8093   3.525   6.472   3.734
 2398SOL    HW2 8094   3.394   6.473   3.831
 2399SOL     OW 8095   3.312   2.105   3.528
 2399SOL    HW1 8096   3.407   2.133   3.532
 2399SOL    HW2 8097   3.293   2.038   3.599
 2400SOL     OW 8098   1.586   4.224   0.469
 2400SOL    HW1 8099   1.510   4.180   0.516
 2400SOL    HW2 8100   1.551   4.295   0.408
 2401SOL     OW 8101   1.403   0.189   6.666
 2401SOL    HW1 8102   1.359   0.099   6.664
 2401SOL    HW2 8103   1.424   0.218   6.573
 2402SOL     OW 8104   1.270   4.392   2.229
 2402SOL    HW1 8105   1.347   4.339   2.264
 2402SOL    HW2 8106   1.225   4.438   2.305
 2403SOL     OW 8107   3.824   3.808   4.441
 2403SOL    HW1 8108   3.823   3.712   4.468
 2403SOL    HW2 8109   3.732   3.847   4.449
 2404SOL     OW 8110   6.276   1.094   0.994
 2404SOL    HW1 8111   6.186   1.124   1.026
 2404SOL    HW2 8112   6.339   1.090   1.072
 2405SOL     OW 8113   1.608   3.234   0.606
 2405SOL    HW1 8114   1.619   3.136   0.624
 2405SOL    HW2 8115   1.545   3.273   0.673
 2406SOL     OW 8116   2.375   6.373   4.464
 2406SOL    HW1 8117   2.458   6.398   4.413
 2406SOL    HW2 8118   2.346   6.281   4.437
 2407SOL     OW 8119   2.654   1.109   3.098
 2407SOL    HW1 8120   2.677   1.083   3.191
 2407SOL    HW2 8121   2.614   1.031   3.050
 2408SOL     OW 8122   3.096   6.289   5.523
 2408SOL    HW1 8123   3.134   6.363   5.467
 2408SOL    HW2 8124   3.158   6.270   5.599
 2409SOL     OW 8125   1.224   3.451   0.191
 2409SOL    HW1 8126   1.257   3.427   0.282
 2409SOL    HW2 8127   1.276   3.528   0.156
 2410SOL     OW 8128   0.361   2.590   4.460
 2410SOL    HW1 8129   0.310   2.523   4.406
 2410SOL    HW2 8130   0.374   2.674   4.407
 2411SOL     OW 8131   3.404   2.019   6.996
 2411SOL    HW1 8132   3.389   1.936   0.027
 2411SOL    HW2 8133   3.384   2.099   0.031
 2412SOL     OW 8134   3.164   1.574   5.461
 2412SOL    HW1 8135   3.170   1.487   5.412
 2412SOL    HW2 8136   3.069   1.606   5.459
 2413SOL     OW 8137   0.491   3.181   0.336
 2413SOL    HW1 8138   0.472   3.141   0.426
 2413SOL    HW2 8139   0.559   3.126   0.289
 2414SOL     OW 8140   6.710   1.553   4.954
 2414SOL    HW1 8141   6.800   1.540   4.913
 2414SOL    HW2 8142   6.653   1.608   4.893
 2415SOL     OW 8143   2.623   4.834   6.546
 2415SOL    HW1 8144   2.713   4.791   6.550
 2415SOL    HW2 8145   2.620   4.911   6.610
 2416SOL     OW 8146   0.087   3.144   2.970
 2416SOL    HW1 8147   0.045   3.088   2.899
 2416SOL    HW2 8148   0.096   3.238   2.938
 2417SOL     OW 8149   3.082   2.677   1.808
 2417SOL    HW1 8150   3.029   2.596   1.834
 2417SOL    HW2 8151   3.084   2.741   1.884
 2418SOL     OW 8152   4.792   4.033   6.942
 2418SOL    HW1 8153   4.784   4.037   6.843
 2418SOL    HW2 8154   4.727   3.966   6.979
 2419SOL     OW 8155   2.810   0.763   3.481
 2419SOL    HW1 8156   2.799   0.682   3.424
 2419SOL    HW2 8157   2.743   0.760   3.556
 2420SOL     OW 8158   1.431   4.199   2.823
 2420SOL    HW1 8159   1.363   4.207   2.896
 2420SOL    HW2 8160   1.436   4.105   2.791
 2421SOL     OW 8161   3.116   6.802   3.296
 2421SOL    HW1 8162   3.109   6.852   3.210
 2421SOL    HW2 8163   3.170   6.854   3.361
 2422SOL     OW 8164   4.334   5.563   1.039
 2422SOL    HW1 8165   4.270   5.516   0.978
 2422SOL    HW2 8166   4.337   5.515   1.126
 2423SOL     OW 8167   2.260   5.620   2.852
 2423SOL    HW1 8168   2.164   5.616   2.880
 2423SOL    HW2 8169   2.316   5.567   2.916
 2424SOL     OW 8170   5.083   6.745   6.609
 2424SOL    HW1 8171   5.088   6.837   6.649
 2424SOL    HW2 8172   5.171   6.723   6.567
 2425SOL     OW 8173   4.908   5.660   4.530
 2425SOL    HW1 8174   4.941   5.570   4.559
 2425SOL    HW2 8175   4.833   5.689   4.590
 2426SOL     OW 8176   1.970   2.790   5.494
 2426SOL    HW1 8177   2.004   2.843   5.416
 2426SOL    HW2 8178   1.877   2.819   5.515
 2427SOL     OW 8179   5.493   0.606   0.686
 2427SOL    HW1 8180   5.411   0.619   0.741
 2427SOL    HW2 8181   5.566   0.666   0.720
 2428SOL     OW 8182   0.732   1.022   3.350
 2428SOL    HW1 8183   0.781   1.031   3.264
 2428SOL    HW2 8184   0.797   1.018   3.426
 2429SOL     OW 8185   5.518   5.024   1.382
 2429SOL    HW1 8186   5.486   5.098   1.440
 2429SOL    HW2 8187   5.531   4.941   1.437
 2430SOL     OW 8188   6.009   0.803   6.577
 2430SOL    HW1 8189   5.923   0.770   6.614
 2430SOL    HW2 8190   6.072   0.725   6.566
 2431SOL     OW 8191   0.624   3.178   1.756
 2431SOL    HW1 8192   0.530   3.144   1.755
 2431SOL    HW2 8193   0.660   3.177   1.663
 2432SOL     OW 8194   2.400   5.130   1.983
 2432SOL    HW1 8195   2.466   5.200   1.958
 2432SOL    HW2 8196   2.443   5.040   1.975
 2433SOL     OW 8197   6.936   3.949   5.402
 2433SOL    HW1 8198   6.959   3.862   5.358
 2433SOL    HW2 8199   6.874   4.001   5.343
 2434SOL     OW 8200   4.361   0.538   2.580
 2434SOL    HW1 8201   4.363   0.556   2.482
 2434SOL    HW2 8202   4.322   0.448   2.597
 2435SOL     OW 8203   6.230   0.135   6.922
 2435SOL    HW1 8204   6.216   0.213   6.982
 2435SOL    HW2 8205   6.162   0.137   6.848
 2436SOL     OW 8206   1.284   2.149   2.017
 2436SOL    HW1 8207   1.279   2.217   2.090
 2436SOL    HW2 8208   1.211   2.166   1.950
 2437SOL     OW 8209   0.005   4.119   3.148
 2437SOL    HW1 8210   0.003   4.210   3.107
 2437SOL    HW2 8211   6.993   4.052   3.082
 2438SOL     OW 8212   3.694   1.328   4.564
 2438SOL    HW1 8213   3.716   1.423   4.586
 2438SOL    HW2 8214   3.627   1.294   4.631
 2439SOL     OW 8215   1.350   5.948   1.443
 2439SOL    HW1 8216   1.434   5.938   1.390
 2439SOL    HW2 8217   1.334   6.045   1.462
 2440SOL     OW 8218   5.813   1.314   5.340
 2440SOL    HW1 8219   5.827   1.222   5.304
 2440SOL    HW2 8220   5.775   1.309   5.432
 2441SOL     OW 8221   6.159   0.315   0.298
 2441SOL    HW1 8222   6.242   0.359   0.333
 2441SOL    HW2 8223   6.162   0.313   0.198
 2442SOL     OW 8224   5.434   3.158   1.300
 2442SOL    HW1 8225   5.389   3.164   1.389
 2442SOL    HW2 8226   5.522   3.112   1.310
 2443SOL     OW 8227   1.240   3.200   2.161
 2443SOL    HW1 8228   1.194   3.287   2.147
 2443SOL    HW2 8229   1.338   3.216   2.176
 2444SOL     OW 8230   3.297   5.657   2.245
 2444SOL    HW1 8231   3.300   5.689   2.150
 2444SOL    HW2 8232   3.325   5.731   2.306
 2445SOL     OW 8233   0.476   2.710   1.593
 2445SOL    HW1 8234   0.530   2.762   1.659
 2445SOL    HW2 8235   0.383   2.746   1.590
 2446SOL     OW 8236   1.362   5.499   1.578
 2446SOL    HW1 8237   1.316   5.558   1.512
 2446SOL    HW2 8238   1.294   5.459   1.640
 2447SOL     OW 8239   2.141   6.818   6.853
 2447SOL    HW1 8240   2.236   6.787   6.859
 2447SOL    HW2 8241   2.137   6.907   6.807
 2448SOL     OW 8242   5.536   1.249   4.545
 2448SOL    HW1 8243   5.583   1.163   4.529
 2448SOL    HW2 8244   5.437   1.233   4.546
 2449SOL     OW 8245   1.579   4.338   1.987
 2449SOL    HW1 8246   1.548   4.279   2.061
 2449SOL    HW2 8247   1.648   4.402   2.021
 2450SOL     OW 8248   1.296   6.887   5.991
 2450SOL    HW1 8249   1.313   6.906   6.087
 2450SOL    HW2 8250   1.301   6.971   5.938
 2451SOL     OW 8251   0.932   6.157   5.532
 2451SOL    HW1 8252   0.920   6.124   5.439
 2451SOL    HW2 8253   0.842   6.168   5.575
 2452SOL     OW 8254   1.997   2.393   3.398
 2452SOL    HW1 8255   1.995   2.295   3.377
 2452SOL    HW2 8256   1.982   2.444   3.313
 2453SOL     OW 8257   0.375   1.032   6.083
 2453SOL    HW1 8258   0.409   1.071   5.998
 2453SOL    HW2 8259   0.429   1.067   6.160
 2454SOL     OW 8260   3.577   5.758   0.762
 2454SOL    HW1 8261   3.661   5.714   0.729
 2454SOL    HW2 8262   3.595   5.803   0.850
 2455SOL     OW 8263   4.300   2.767   0.416
 2455SOL    HW1 8264   4.346   2.851   0.446
 2455SOL    HW2 8265   4.275   2.712   0.496
 2456SOL     OW 8266   0.715   3.588   6.730
 2456SOL    HW1 8267   0.650   3.664   6.741
 2456SOL    HW2 8268   0.664   3.504   6.712
 2457SOL     OW 8269   5.061   2.150   4.787
 2457SOL    HW1 8270   5.096   2.061   4.816
 2457SOL    HW2 8271   5.120   2.223   4.823
 2458SOL     OW 8272   0.911   0.368   2.451
 2458SOL    HW1 8273   0.956   0.361   2.362
 2458SOL    HW2 8274   0.878   0.278   2.479
 2459SOL     OW 8275   2.543   7.000   0.173
 2459SOL    HW1 8276   2.461   7.017   0.228
 2459SOL    HW2 8277   2.580   6.910   0.194
 2460SOL     OW 8278   1.185   1.034   4.560
 2460SOL    HW1 8279   1.228   1.110   4.609
 2460SOL    HW2 8280   1.089   1.054   4.544
 2461SOL     OW 8281   4.619   0.045   3.682
 2461SOL    HW1 8282   4.606   0.092   3.769
 2461SOL    HW2 8283   4.616   6.968   3.697
 2462SOL     OW 8284   0.210   4.153   0.124
 2462SOL    HW1 8285   0.197   4.057   0.099
 2462SOL    HW2 8286   0.284   4.160   0.192
 2463SOL     OW 8287   0.053   0.525   0.306
 2463SOL    HW1 8288   0.094   0.447   0.260
 2463SOL    HW2 8289   0.088   0.530   0.400
 2464SOL     OW 8290   0.773   2.707   3.778
 2464SOL    HW1 8291   0.682   2.694   3.738
 2464SOL    HW2 8292   0.840   2.655   3.726
 2465SOL     OW 8293   0.062   6.665   6.045
 2465SOL    HW1 8294   0.085   6.763   6.051
 2465SOL    HW2 8295   0.144   6.611   6.057
 2466SOL     OW 8296   0.490   2.278   1.893
 2466SOL    HW1 8297   0.556   2.287   1.967
 2466SOL    HW2 8298   0.504   2.351   1.826
 2467SOL     OW 8299   6.012   2.408   5.421
 2467SOL    HW1 8300   5.952   2.404   5.341
 2467SOL    HW2 8301   6.096   2.456   5.396
 2468SOL     OW 8302   3.231   6.561   5.323
 2468SOL    HW1 8303   3.327   6.535   5.317
 2468SOL    HW2 8304   3.208   6.582   5.418
 2469SOL     OW 8305   3.649   1.973   6.078
 2469SOL    HW1 8306   3.557   2.008   6.098
 2469SOL    HW2 8307   3.644   1.875   6.061
 2470SOL     OW 8308   2.918   4.435   6.258
 2470SOL    HW1 8309   2.942   4.522   6.215
 2470SOL    HW2 8310   2.870   4.453   6.344
 2471SOL     OW 8311   2.638   6.043   2.311
 2471SOL    HW1 8312   2.570   6.045   2.385
 2471SOL    HW2 8313   2.668   5.949   2.296
 2472SOL     OW 8314   4.733   1.655   3.542
 2472SOL    HW1 8315   4.677   1.738   3.547
 2472SOL    HW2 8316   4.679   1.581   3.500
 2473SOL     OW 8317   0.601   4.081   5.007
 2473SOL    HW1 8318   0.651   4.003   4.970
 2473SOL    HW2 8319   0.605   4.079   5.107
 2474SOL     OW 8320   1.446   6.146   1.690
 2474SOL    HW1 8321   1.392   6.091   1.754
 2474SOL    HW2 8322   1.541   6.148   1.719
 2475SOL     OW 8323   5.225   0.923   1.079
 2475SOL    HW1 8324   5.136   0.898   1.117
 2475SOL    HW2 8325   5.213   0.982   1.000
 2476SOL     OW 8326   5.452   0.809   0.148
 2476SOL    HW1 8327   5.470   0.892   0.200
 2476SOL    HW2 8328   5.454   0.828   0.050
 2477SOL     OW 8329   3.789   0.235   3.421
 2477SOL    HW1 8330   3.877   0.238   3.374
 2477SOL    HW2 8331   3.803   0.216   3.519
 2478SOL     OW 8332   4.494   6.876   4.753
 2478SOL    HW1 8333   4.396   6.879   4.771
 2478SOL    HW2 8334   4.517   6.793   4.702
 2479SOL     OW 8335   5.918   2.923   7.010
 2479SOL    HW1 8336   5.988   2.853   6.998
 2479SOL    HW2 8337   5.873   2.910   0.076
 2480SOL     OW 8338   3.308   2.509   1.744
 2480SOL    HW1 8339   3.238   2.578   1.763
 2480SOL    HW2 8340   3.278   2.420   1.778
 2481SOL     OW 8341   3.250   0.242   1.055
 2481SOL    HW1 8342   3.200   0.327   1.035
 2481SOL    HW2 8343   3.194   0.164   1.026
 2482SOL     OW 8344   5.952   3.199   6.376
 2482SOL    HW1 8345   5.940   3.106   6.411
 2482SOL    HW2 8346   5.937   3.265   6.450
 2483SOL     OW 8347   1.046   2.512   0.713
 2483SOL    HW1 8348   1.033   2.459   0.629
 2483SOL    HW2 8349   1.077   2.451   0.786
 2484SOL     OW 8350   5.024   1.407   1.287
 2484SOL    HW1 8351   4.926   1.425   1.279
 2484SOL    HW2 8352   5.039   1.309   1.298
 2485SOL     OW 8353   6.245   2.250   6.206
 2485SOL    HW1 8354   6.308   2.179   6.237
 2485SOL    HW2 8355   6.174   2.265   6.275
 2486SOL     OW 8356   6.836   4.308   5.345
 2486SOL    HW1 8357   6.803   4.214   5.337
 2486SOL    HW2 8358   6.912   4.322   5.281
 2487SOL     OW 8359   5.017   5.625   6.735
 2487SOL    HW1 8360   4.995   5.708   6.786
 2487SOL    HW2 8361   4.966   5.624   6.649
 2488SOL     OW 8362   6.677   3.877   1.155
 2488SOL    HW1 8363   6.735   3.809   1.200
 2488SOL    HW2 8364   6.601   3.832   1.109
 2489SOL     OW 8365   0.390   6.301   4.269
 2489SOL    HW1 8366   0.315   6.251   4.313
 2489SOL    HW2 8367   0.394   6.394   4.306
 2490SOL     OW 8368   2.463   6.116   2.542
 2490SOL    HW1 8369   2.506   6.174   2.611
 2490SOL    HW2 8370   2.367   6.100   2.567
 2491SOL     OW 8371   3.758   4.653   1.504
 2491SOL    HW1 8372   3.821   4.595   1.453
 2491SOL    HW2 8373   3.715   4.719   1.442
 2492SOL     OW 8374   0.257   4.531   1.582
 2492SOL    HW1 8375   0.301   4.538   1.492
 2492SOL    HW2 8376   0.170   4.580   1.580
 2493SOL     OW 8377   6.852   6.737   1.367
 2493SOL    HW1 8378   6.765   6.743   1.318
 2493SOL    HW2 8379   6.879   6.828   1.397
 2494SOL     OW 8380   6.248   3.482   1.890
 2494SOL    HW1 8381   6.344   3.490   1.919
 2494SOL    HW2 8382   6.203   3.570   1.901
 2495SOL     OW 8383   6.216   4.923   4.175
 2495SOL    HW1 8384   6.201   4.829   4.145
 2495SOL    HW2 8385   6.281   4.968   4.114
 2496SOL     OW 8386   6.333   4.940   6.444
 2496SOL    HW1 8387   6.410   4.980   6.395
 2496SOL    HW2 8388   6.307   5.001   6.520
 2497SOL     OW 8389   0.481   0.152   2.259
 2497SOL    HW1 8390   0.402   0.212   2.247
 2497SOL    HW2 8391   0.504   0.147   2.356
 2498SOL     OW 8392   1.803   3.539   5.855
 2498SOL    HW1 8393   1.812   3.440   5.843
 2498SOL    HW2 8394   1.894   3.580   5.865
 2499SOL     OW 8395   0.071   3.303   1.612
 2499SOL    HW1 8396   0.162   3.300   1.571
 2499SOL    HW2 8397   0.076   3.351   1.700
 2500SOL     OW 8398   4.100   4.084   6.676
 2500SOL    HW1 8399   4.005   4.097   6.646
 2500SOL    HW2 8400   4.104   4.010   6.742
 2501SOL     OW 8401   5.989   5.565   0.071
 2501SOL    HW1 8402   5.988   5.506   0.151
 2501SOL    HW2 8403   5.920   5.534   0.005
 2502SOL     OW 8404   3.070   5.356   4.089
 2502SOL    HW1 8405   2.981   5.343   4.134
 2502SOL    HW2 8406   3.060   5.420   4.013
 2503SOL     OW 8407   2.509   6.342   5.913
 2503SOL    HW1 8408   2.428   6.294   5.880
 2503SOL    HW2 8409   2.525   6.321   6.009
 2504SOL     OW 8410   3.347   5.755   2.741
 2504SOL    HW1 8411   3.305   5.843   2.724
 2504SOL    HW2 8412   3.412   5.763   2.817
 2505SOL     OW 8413   0.016   5.543   3.009
 2505SOL    HW1 8414   6.951   5.495   3.009
 2505SOL    HW2 8415   0.004   5.635   2.971
 2506SOL     OW 8416   5.016   5.312   5.844
 2506SOL    HW1 8417   4.992   5.230   5.791
 2506SOL    HW2 8418   5.064   5.377   5.784
 2507SOL     OW 8419   6.958   3.422   0.138
 2507SOL    HW1 8420   0.034   3.415   0.120
 2507SOL    HW2 8421   6.935   3.370   0.220
 2508SOL     OW 8422   4.482   1.828   3.757
 2508SOL    HW1 8423   4.423   1.888   3.812
 2508SOL    HW2 8424   4.512   1.877   3.676
 2509SOL     OW 8425   0.132   3.682   5.494
 2509SOL    HW1 8426   0.090   3.679   5.585
 2509SOL    HW2 8427   0.060   3.689   5.425
 2510SOL     OW 8428   3.210   3.984   1.977
 2510SOL    HW1 8429   3.291   3.981   1.919
 2510SOL    HW2 8430   3.128   3.983   1.920
 2511SOL     OW 8431   2.203   0.625   4.983
 2511SOL    HW1 8432   2.223   0.634   5.080
 2511SOL    HW2 8433   2.140   0.698   4.955
 2512SOL     OW 8434   3.858   4.956   4.371
 2512SOL    HW1 8435   3.950   4.945   4.408
 2512SOL    HW2 8436   3.862   4.952   4.271
 2513SOL     OW 8437   2.165   5.956   6.178
 2513SOL    HW1 8438   2.250   5.922   6.138
 2513SOL    HW2 8439   2.182   5.986   6.272
 2514SOL     OW 8440   0.919   2.964   3.524
 2514SOL    HW1 8441   0.845   2.998   3.466
 2514SOL    HW2 8442   1.000   2.947   3.467
 2515SOL     OW 8443   1.711   1.450   1.742
 2515SOL    HW1 8444   1.805   1.474   1.717
 2515SOL    HW2 8445   1.681   1.508   1.817
 2516SOL     OW 8446   5.553   1.639   3.659
 2516SOL    HW1 8447   5.593   1.551   3.633
 2516SOL    HW2 8448   5.599   1.712   3.608
 2517SOL     OW 8449   1.439   1.229   4.307
 2517SOL    HW1 8450   1.397   1.273   4.387
 2517SOL    HW2 8451   1.438   1.130   4.318
 2518SOL     OW 8452   2.930   4.352   1.471
 2518SOL    HW1 8453   2.901   4.354   1.567
 2518SOL    HW2 8454   2.981   4.267   1.454
 2519SOL     OW 8455   1.906   1.468   0.757
 2519SOL    HW1 8456   1.934   1.438   0.848
 2519SOL    HW2 8457   1.811   1.500   0.762
 2520SOL     OW 8458   3.432   2.236   1.240
 2520SOL    HW1 8459   3.443   2.189   1.327
 2520SOL    HW2 8460   3.502   2.308   1.231
 2521SOL     OW 8461   4.955   1.631   5.301
 2521SOL    HW1 8462   4.865   1.590   5.287
 2521SOL    HW2 8463   4.952   1.691   5.382
 2522SOL     OW 8464   0.599   2.037   5.556
 2522SOL    HW1 8465   0.614   2.078   5.466
 2522SOL    HW2 8466   0.631   1.942   5.556
 2523SOL     OW 8467   1.502   4.783   6.911
 2523SOL    HW1 8468   1.594   4.744   6.916
 2523SOL    HW2 8469   1.506   4.879   6.940
 2524SOL     OW 8470   1.376   6.672   3.951
 2524SOL    HW1 8471   1.355   6.581   3.988
 2524SOL    HW2 8472   1.437   6.662   3.873
 2525SOL     OW 8473   6.670   2.185   4.140
 2525SOL    HW1 8474   6.677   2.086   4.130
 2525SOL    HW2 8475   6.575   2.209   4.161
 2526SOL     OW 8476   1.248   6.480   0.543
 2526SOL    HW1 8477   1.303   6.397   0.531
 2526SOL    HW2 8478   1.305   6.551   0.583
 2527SOL     OW 8479   5.402   5.157   6.554
 2527SOL    HW1 8480   5.324   5.109   6.515
 2527SOL    HW2 8481   5.401   5.147   6.654
 2528SOL     OW 8482   4.806   4.996   6.515
 2528SOL    HW1 8483   4.719   5.001   6.564
 2528SOL    HW2 8484   4.795   5.036   6.424
 2529SOL     OW 8485   0.583   0.132   6.215
 2529SOL    HW1 8486   0.599   0.072   6.293
 2529SOL    HW2 8487   0.671   0.165   6.180
 2530SOL     OW 8488   2.460   5.701   5.523
 2530SOL    HW1 8489   2.416   5.693   5.434
 2530SOL    HW2 8490   2.541   5.760   5.515
 2531SOL     OW 8491   6.313   5.437   6.163
 2531SOL    HW1 8492   6.259   5.419   6.081
 2531SOL    HW2 8493   6.268   5.395   6.242
 2532SOL     OW 8494   0.387   0.130   0.981
 2532SOL    HW1 8495   0.363   0.104   0.888
 2532SOL    HW2 8496   0.303   0.144   1.034
 2533SOL     OW 8497   5.370   0.508   3.193
 2533SOL    HW1 8498   5.288   0.502   3.137
 2533SOL    HW2 8499   5.431   0.578   3.156
 2534SOL     OW 8500   4.407   1.989   1.954
 2534SOL    HW1 8501   4.321   1.985   2.004
 2534SOL    HW2 8502   4.405   1.921   1.880
 2535SOL     OW 8503   3.466   2.858   6.059
 2535SOL    HW1 8504   3.489   2.876   5.963
 2535SOL    HW2 8505   3.546   2.819   6.105
 2536SOL     OW 8506   1.563   0.709   6.763
 2536SOL    HW1 8507   1.614   0.624   6.748
 2536SOL    HW2 8508   1.604   0.783   6.709
 2537SOL     OW 8509   4.217   1.228   0.358
 2537SOL    HW1 8510   4.215   1.285   0.275
 2537SOL    HW2 8511   4.124   1.200   0.381
 2538SOL     OW 8512   6.943   3.813   4.105
 2538SOL    HW1 8513   6.964   3.835   4.200
 2538SOL    HW2 8514   6.995   3.873   4.044
 2539SOL     OW 8515   5.299   1.584   4.889
 2539SOL    HW1 8516   5.211   1.561   4.848
 2539SOL    HW2 8517   5.372   1.536   4.840
 2540SOL     OW 8518   3.538   1.189   2.394
 2540SOL    HW1 8519   3.556   1.278   2.436
 2540SOL    HW2 8520   3.543   1.198   2.295
 2541SOL     OW 8521   3.713   6.206   5.140
 2541SOL    HW1 8522   3.796   6.246   5.103
 2541SOL    HW2 8523   3.708   6.109   5.115
 2542SOL     OW 8524   0.937   4.770   6.742
 2542SOL    HW1 8525   0.865   4.710   6.708
 2542SOL    HW2 8526   1.026   4.734   6.714
 2543SOL     OW 8527   1.462   1.741   4.499
 2543SOL    HW1 8528   1.380   1.703   4.543
 2543SOL    HW2 8529   1.450   1.740   4.400
 2544SOL     OW 8530   1.138   5.530   0.428
 2544SOL    HW1 8531   1.100   5.438   0.442
 2544SOL    HW2 8532   1.072   5.598   0.460
 2545SOL     OW 8533   2.132   6.237   3.011
 2545SOL    HW1 8534   2.118   6.151   2.961
 2545SOL    HW2 8535   2.127   6.314   2.947
 2546SOL     OW 8536   6.303   1.975   0.614
 2546SOL    HW1 8537   6.332   2.051   0.556
 2546SOL    HW2 8538   6.383   1.933   0.656
 2547SOL     OW 8539   0.140   3.980   5.158
 2547SOL    HW1 8540   0.042   3.964   5.172
 2547SOL    HW2 8541   0.191   3.899   5.187
 2548SOL     OW 8542   0.445   6.535   3.900
 2548SOL    HW1 8543   0.405   6.446   3.880
 2548SOL    HW2 8544   0.519   6.525   3.966
 2549SOL     OW 8545   0.587   1.099   1.495
 2549SOL    HW1 8546   0.627   1.178   1.449
 2549SOL    HW2 8547   0.493   1.085   1.462
 2550SOL     OW 8548   5.799   6.451   0.616
 2550SOL    HW1 8549   5.824   6.481   0.708
 2550SOL    HW2 8550   5.706   6.413   0.619
 2551SOL     OW 8551   1.808   3.990   6.462
 2551SOL    HW1 8552   1.768   4.079   6.438
 2551SOL    HW2 8553   1.794   3.927   6.385
 2552SOL     OW 8554   2.592   5.425   3.083
 2552SOL    HW1 8555   2.498   5.398   3.101
 2552SOL    HW2 8556   2.651   5.344   3.087
 2553SOL     OW 8557   3.908   3.779   6.399
 2553SOL    HW1 8558   3.934   3.779   6.302
 2553SOL    HW2 8559   3.849   3.700   6.417
 2554SOL     OW 8560   1.445   1.790   0.495
 2554SOL    HW1 8561   1.353   1.750   0.503
 2554SOL    HW2 8562   1.469   1.835   0.581
 2555SOL     OW 8563   5.769   2.562   6.241
 2555SOL    HW1 8564   5.783   2.540   6.338
 2555SOL    HW2 8565   5.674   2.541   6.216
 2556SOL     OW 8566   3.596   5.932   0.991
 2556SOL    HW1 8567   3.680   5.967   1.033
 2556SOL    HW2 8568   3.561   5.999   0.925
 2557SOL     OW 8569   2.023   4.143   6.493
 2557SOL    HW1 8570   1.946   4.080   6.480
 2557SOL    HW2 8571   1.999   4.233   6.455
 2558SOL     OW 8572   4.636   0.991   5.595
 2558SOL    HW1 8573   4.564   0.940   5.548
 2558SOL    HW2 8574   4.633   1.087   5.566
 2559SOL     OW 8575   0.421   4.654   4.968
 2559SOL    HW1 8576   0.331   4.677   5.005
 2559SOL    HW2 8577   0.415   4.647   4.869
 2560SOL     OW 8578   6.036   1.977   6.038
 2560SOL    HW1 8579   6.007   2.066   6.072
 2560SOL    HW2 8580   5.972   1.907   6.070
 2561SOL     OW 8581   2.759   5.590   4.690
 2561SOL    HW1 8582   2.740   5.497   4.722
 2561SOL    HW2 8583   2.714   5.655   4.751
 2562SOL     OW 8584   1.844   3.543   0.618
 2562SOL    HW1 8585   1.801   3.512   0.533
 2562SOL    HW2 8586   1.917   3.608   0.596
 2563SOL     OW 8587   2.818   1.397   6.942
 2563SOL    HW1 8588   2.840   1.494   6.946
 2563SOL    HW2 8589   2.722   1.384   6.967
 2564SOL     OW 8590   1.409   5.145   1.703
 2564SOL    HW1 8591   1.498   5.188   1.693
 2564SOL    HW2 8592   1.342   5.212   1.734
 2565SOL     OW 8593   1.392   0.567   1.714
 2565SOL    HW1 8594   1.320   0.583   1.646
 2565SOL    HW2 8595   1.361   0.498   1.779
 2566SOL     OW 8596   1.935   6.700   6.712
 2566SOL    HW1 8597   1.973   6.672   6.623
 2566SOL    HW2 8598   2.008   6.739   6.768
 2567SOL     OW 8599   1.617   6.393   0.688
 2567SOL    HW1 8600   1.543   6.348   0.638
 2567SOL    HW2 8601   1.679   6.324   0.724
 2568SOL     OW 8602   4.411   2.318   6.837
 2568SOL    HW1 8603   4.477   2.246   6.817
 2568SOL    HW2 8604   4.446   2.376   6.910
 2569SOL     OW 8605   3.331   0.388   3.437
 2569SOL    HW1 8606   3.274   0.465   3.465
 2569SOL    HW2 8607   3.427   0.416   3.436
 2570SOL     OW 8608   5.461   1.613   6.288
 2570SOL    HW1 8609   5.408   1.607   6.372
 2570SOL    HW2 8610   5.402   1.593   6.209
 2571SOL     OW 8611   1.306   5.065   3.652
 2571SOL    HW1 8612   1.294   5.146   3.709
 2571SOL    HW2 8613   1.220   5.044   3.605
 2572SOL     OW 8614   2.478   4.865   3.143
 2572SOL    HW1 8615   2.432   4.951   3.119
 2572SOL    HW2 8616   2.409   4.795   3.159
 2573SOL     OW 8617   0.577   0.651   1.261
 2573SOL    HW1 8618   0.527   0.584   1.207
 2573SOL    HW2 8619   0.650   0.605   1.312
 2574SOL     OW 8620   6.092   3.457   0.292
 2574SOL    HW1 8621   6.078   3.549   0.256
 2574SOL    HW2 8622   6.056   3.452   0.385
 2575SOL     OW 8623   0.053   5.683   6.611
 2575SOL    HW1 8624   0.119   5.609   6.625
 2575SOL    HW2 8625   0.098   5.756   6.559
 2576SOL     OW 8626   4.712   6.460   3.847
 2576SOL    HW1 8627   4.688   6.395   3.775
 2576SOL    HW2 8628   4.791   6.426   3.898
 2577SOL     OW 8629   2.602   4.694   2.175
 2577SOL    HW1 8630   2.654   4.712   2.258
 2577SOL    HW2 8631   2.664   4.667   2.102
 2578SOL     OW 8632   4.102   1.779   3.628
 2578SOL    HW1 8633   4.083   1.770   3.530
 2578SOL    HW2 8634   4.043   1.717   3.680
 2579SOL     OW 8635   0.631   6.769   3.509
 2579SOL    HW1 8636   0.650   6.867   3.507
 2579SOL    HW2 8637   0.538   6.751   3.479
 2580SOL     OW 8638   2.274   2.626   0.254
 2580SOL    HW1 8639   2.374   2.620   0.250
 2580SOL    HW2 8640   2.243   2.594   0.344
 2581SOL     OW 8641   3.058   0.167   5.326
 2581SOL    HW1 8642   3.017   0.075   5.323
 2581SOL    HW2 8643   3.014   0.220   5.399
 2582SOL     OW 8644   0.254   3.075   1.253
 2582SOL    HW1 8645   0.169   3.053   1.301
 2582SOL    HW2 8646   0.330   3.026   1.296
 2583SOL     OW 8647   6.169   6.750   1.347
 2583SOL    HW1 8648   6.156   6.670   1.288
 2583SOL    HW2 8649   6.136   6.832   1.300
 2584SOL     OW 8650   4.458   4.695   5.393
 2584SOL    HW1 8651   4.555   4.708   5.371
 2584SOL    HW2 8652   4.449   4.669   5.489
 2585SOL     OW 8653   3.276   4.818   6.953
 2585SOL    HW1 8654   3.311   4.911   6.944
 2585SOL    HW2 8655   3.183   4.815   6.918
 2586SOL     OW 8656   2.022   0.390   4.914
 2586SOL    HW1 8657   2.103   0.445   4.932
 2586SOL    HW2 8658   1.966   0.435   4.844
 2587SOL     OW 8659   6.613   1.636   3.457
 2587SOL    HW1 8660   6.514   1.645   3.471
 2587SOL    HW2 8661   6.632   1.606   3.364
 2588SOL     OW 8662   4.479   1.096   5.233
 2588SOL    HW1 8663   4.547   1.169   5.245
 2588SOL    HW2 8664   4.429   1.112   5.149
 2589SOL     OW 8665   1.468   6.395   0.154
 2589SOL    HW1 8666   1.520   6.454   0.092
 2589SOL    HW2 8667   1.400   6.450   0.203
 2590SOL     OW 8668   2.980   5.019   0.256
 2590SOL    HW1 8669   2.902   5.056   0.306
 2590SOL    HW2 8670   2.973   4.919   0.253
 2591SOL     OW 8671   5.760   5.340   3.774
 2591SOL    HW1 8672   5.781   5.327   3.871
 2591SOL    HW2 8673   5.815   5.416   3.739
 2592SOL     OW 8674   2.406   4.419   0.067
 2592SOL    HW1 8675   2.459   4.469   0.136
 2592SOL    HW2 8676   2.449   4.430   7.000
 2593SOL     OW 8677   3.181   4.189   0.517
 2593SOL    HW1 8678   3.227   4.121   0.574
 2593SOL    HW2 8679   3.197   4.280   0.554
 2594SOL     OW 8680   1.821   3.804   4.708
 2594SOL    HW1 8681   1.722   3.811   4.698
 2594SOL    HW2 8682   1.849   3.852   4.791
 2595SOL     OW 8683   1.483   0.503   3.597
 2595SOL    HW1 8684   1.541   0.488   3.677
 2595SOL    HW2 8685   1.471   0.417   3.548
 2596SOL     OW 8686   1.112   2.450   6.942
 2596SOL    HW1 8687   1.146   2.434   6.849
 2596SOL    HW2 8688   1.048   2.377   6.967
 2597SOL     OW 8689   6.896   6.358   6.533
 2597SOL    HW1 8690   6.920   6.267   6.568
 2597SOL    HW2 8691   6.894   6.355   6.433
 2598SOL     OW 8692   5.588   2.947   2.426
 2598SOL    HW1 8693   5.621   3.039   2.406
 2598SOL    HW2 8694   5.488   2.946   2.421
 2599SOL     OW 8695   2.749   6.463   1.699
 2599SOL    HW1 8696   2.675   6.452   1.632
 2599SOL    HW2 8697   2.714   6.506   1.782
 2600SOL     OW 8698   6.229   4.161   4.515
 2600SOL    HW1 8699   6.206   4.149   4.612
 2600SOL    HW2 8700   6.325   4.190   4.507
 2601SOL     OW 8701   0.802   2.339   3.226
 2601SOL    HW1 8702   0.796   2.421   3.283
 2601SOL    HW2 8703   0.757   2.356   3.138
 2602SOL     OW 8704   1.671   5.597   3.886
 2602SOL    HW1 8705   1.744   5.531   3.906
 2602SOL    HW2 8706   1.589   5.573   3.938
 2603SOL     OW 8707   3.285   0.447   2.781
 2603SOL    HW1 8708   3.215   0.497   2.833
 2603SOL    HW2 8709   3.241   0.397   2.706
 2604SOL     OW 8710   4.372   2.109   2.951
 2604SOL    HW1 8711   4.314   2.121   2.870
 2604SOL    HW2 8712   4.430   2.028   2.938
 2605SOL     OW 8713   1.732   3.576   1.957
 2605SOL    HW1 8714   1.672   3.528   1.893
 2605SOL    HW2 8715   1.803   3.625   1.906
 2606SOL     OW 8716   4.322   3.848   1.002
 2606SOL    HW1 8717   4.274   3.763   0.984
 2606SOL    HW2 8718   4.361   3.845   1.094
 2607SOL     OW 8719   2.915   1.684   1.076
 2607SOL    HW1 8720   2.914   1.636   1.164
 2607SOL    HW2 8721   2.949   1.777   1.089
 2608SOL     OW 8722   2.327   5.566   6.239
 2608SOL    HW1 8723   2.338   5.514   6.155
 2608SOL    HW2 8724   2.416   5.595   6.273
 2609SOL     OW 8725   7.002   1.035   1.243
 2609SOL    HW1 8726   0.001   1.069   1.334
 2609SOL    HW2 8727   0.032   1.086   1.175
 2610SOL     OW 8728   1.522   4.674   4.752
 2610SOL    HW1 8729   1.600   4.687   4.813
 2610SOL    HW2 8730   1.514   4.578   4.727
 2611SOL     OW 8731   5.615   7.000   6.612
 2611SOL    HW1 8732   5.516   6.992   6.613
 2611SOL    HW2 8733   5.656   6.916   6.649
 2612SOL     OW 8734   6.028   0.107   5.711
 2612SOL    HW1 8735   6.030   0.199   5.671
 2612SOL    HW2 8736   6.085   0.105   5.794
 2613SOL     OW 8737   1.045   5.829   0.080
 2613SOL    HW1 8738   1.126   5.773   0.061
 2613SOL    HW2 8739   1.073   5.922   0.105
 2614SOL     OW 8740   6.981   1.341   6.876
 2614SOL    HW1 8741   6.987   1.418   6.940
 2614SOL    HW2 8742   7.000   1.372   6.783
 2615SOL     OW 8743   1.076   3.233   0.584
 2615SOL    HW1 8744   1.146   3.164   0.568
 2615SOL    HW2 8745   0.992   3.189   0.616
 2616SOL     OW 8746   1.852   0.280   5.417
 2616SOL    HW1 8747   1.870   0.205   5.353
 2616SOL    HW2 8748   1.764   0.322   5.395
 2617SOL     OW 8749   5.457   0.015   1.215
 2617SOL    HW1 8750   5.547   0.032   1.175
 2617SOL    HW2 8751   5.459   0.036   1.313
 2618SOL     OW 8752   1.435   6.471   6.277
 2618SOL    HW1 8753   1.406   6.524   6.198
 2618SOL    HW2 8754   1.363   6.406   6.301
 2619SOL     OW 8755   4.454   1.256   2.351
 2619SOL    HW1 8756   4.461   1.157   2.364
 2619SOL    HW2 8757   4.513   1.285   2.276
 2620SOL     OW 8758   6.477   0.347   0.995
 2620SOL    HW1 8759   6.448   0.435   1.032
 2620SOL    HW2 8760   6.565   0.321   1.035
 2621SOL     OW 8761   1.722   6.169   1.951
 2621SOL    HW1 8762   1.757   6.138   1.863
 2621SOL    HW2 8763   1.780   6.133   2.024
 2622SOL     OW 8764   3.671   3.343   6.406
 2622SOL    HW1 8765   3.669   3.269   6.339
 2622SOL    HW2 8766   3.631   3.313   6.492
 2623SOL     OW 8767   0.721   6.795   3.222
 2623SOL    HW1 8768   0.787   6.740   3.273
 2623SOL    HW2 8769   0.757   6.888   3.212
 2624SOL     OW 8770   0.265   2.002   4.546
 2624SOL    HW1 8771   0.353   1.958   4.560
 2624SOL    HW2 8772   0.207   1.943   4.490
 2625SOL     OW 8773   1.967   5.379   6.468
 2625SOL    HW1 8774   1.991   5.308   6.534
 2625SOL    HW2 8775   1.879   5.358   6.426
 2626SOL     OW 8776   6.836   5.084   6.461
 2626SOL    HW1 8777   6.755   5.142   6.472
 2626SOL    HW2 8778   6.905   5.110   6.529
 2627SOL     OW 8779   2.220   6.796   5.547
 2627SOL    HW1 8780   2.187   6.889   5.529
 2627SOL    HW2 8781   2.167   6.755   5.621
 2628SOL     OW 8782   0.372   4.975   2.218
 2628SOL    HW1 8783   0.455   4.922   2.235
 2628SOL    HW2 8784   0.388   5.041   2.145
 2629SOL     OW 8785   3.392   3.716   3.361
 2629SOL    HW1 8786   3.308   3.736   3.411
 2629SOL    HW2 8787   3.469   3.761   3.406
 2630SOL     OW 8788   3.788   0.734   3.654
 2630SOL    HW1 8789   3.742   0.645   3.660
 2630SOL    HW2 8790   3.859   0.739   3.724
 2631SOL     OW 8791   6.085   0.632   0.128
 2631SOL    HW1 8792   6.024   0.633   0.207
 2631SOL    HW2 8793   6.042   0.682   0.053
 2632SOL     OW 8794   5.365   4.008   2.301
 2632SOL    HW1 8795   5.301   4.040   2.232
 2632SOL    HW2 8796   5.421   4.084   2.333
 2633SOL     OW 8797   0.056   2.911   5.669
 2633SOL    HW1 8798   0.101   2.905   5.580
 2633SOL    HW2 8799   6.983   2.882   5.660
 2634SOL     OW 8800   6.913   1.164   6.004
 2634SOL    HW1 8801   6.893   1.127   5.914
 2634SOL    HW2 8802   6.840   1.137   6.068
 2635SOL     OW 8803   5.573   5.095   3.534
 2635SOL    HW1 8804   5.567   5.135   3.443
 2635SOL    HW2 8805   5.493   5.122   3.588
 2636SOL     OW 8806   3.832   5.691   5.220
 2636SOL    HW1 8807   3.793   5.723   5.307
 2636SOL    HW2 8808   3.885   5.608   5.236
 2637SOL     OW 8809   0.661   1.802   3.684
 2637SOL    HW1 8810   0.631   1.875   3.622
 2637SOL    HW2 8811   0.616   1.717   3.658
 2638SOL     OW 8812   0.909   6.457   4.466
 2638SOL    HW1 8813   0.834   6.523   4.464
 2638SOL    HW2 8814   0.996   6.505   4.453
 2639SOL     OW 8815   4.121   4.758   5.228
 2639SOL    HW1 8816   4.076   4.772   5.316
 2639SOL    HW2 8817   4.067   4.799   5.155
 2640SOL     OW 8818   1.423   6.712   4.318
 2640SOL    HW1 8819   1.380   6.794   4.279
 2640SOL    HW2 8820   1.518   6.733   4.343
 2641SOL     OW 8821   5.725   3.069   6.644
 2641SOL    HW1 8822   5.775   3.150   6.612
 2641SOL    HW2 8823   5.663   3.037   6.573
 2642SOL     OW 8824   6.074   1.242   3.653
 2642SOL    HW1 8825   5.979   1.272   3.662
 2642SOL    HW2 8826   6.134   1.323   3.648
 2643SOL     OW 8827   2.309   4.934   3.990
 2643SOL    HW1 8828   2.370   4.867   4.031
 2643SOL    HW2 8829   2.236   4.956   4.055
 2644SOL     OW 8830   4.764   4.885   4.380
 2644SOL    HW1 8831   4.673   4.899   4.420
 2644SOL    HW2 8832   4.764   4.802   4.325
 2645SOL     OW 8833   5.078   5.329   3.178
 2645SOL    HW1 8834   5.162   5.379   3.158
 2645SOL    HW2 8835   5.101   5.240   3.218
 2646SOL     OW 8836   0.585   2.707   6.752
 2646SOL    HW1 8837   0.548   2.764   6.678
 2646SOL    HW2 8838   0.682   2.693   6.737
 2647SOL     OW 8839   5.284   0.598   1.605
 2647SOL    HW1 8840   5.244   0.564   1.690
 2647SOL    HW2 8841   5.298   0.522   1.542
 2648SOL     OW 8842   0.957   0.487   6.369
 2648SOL    HW1 8843   0.883   0.468   6.304
 2648SOL    HW2 8844   0.984   0.402   6.414
 2649SOL     OW 8845   5.116   2.366   1.818
 2649SOL    HW1 8846   5.083   2.272   1.821
 2649SOL    HW2 8847   5.110   2.406   1.909
 2650SOL     OW 8848   2.617   6.415   4.332
 2650SOL    HW1 8849   2.711   6.421   4.365
 2650SOL    HW2 8850   2.605   6.474   4.253
 2651SOL     OW 8851   4.182   2.211   4.327
 2651SOL    HW1 8852   4.114   2.232   4.257
 2651SOL    HW2 8853   4.248   2.286   4.334
 2652SOL     OW 8854   4.996   4.085   5.418
 2652SOL    HW1 8855   5.051   4.014   5.375
 2652SOL    HW2 8856   5.037   4.110   5.506
 2653SOL     OW 8857   2.502   5.493   0.400
 2653SOL    HW1 8858   2.408   5.458   0.407
 2653SOL    HW2 8859   2.525   5.507   0.303
 2654SOL     OW 8860   6.533   1.268   0.006
 2654SOL    HW1 8861   6.535   1.335   6.954
 2654SOL    HW2 8862   6.502   1.313   0.090
 2655SOL     OW 8863   4.479   6.184   2.402
 2655SOL    HW1 8864   4.390   6.229   2.402
 2655SOL    HW2 8865   4.466   6.085   2.390
 2656SOL     OW 8866   3.871   6.188   2.659
 2656SOL    HW1 8867   3.808   6.222   2.729
 2656SOL    HW2 8868   3.959   6.167   2.701
 2657SOL     OW 8869   0.656   4.107   0.477
 2657SOL    HW1 8870   0.688   4.103   0.382
 2657SOL    HW2 8871   0.624   4.017   0.506
 2658SOL     OW 8872   3.327   5.404   6.789
 2658SOL    HW1 8873   3.295   5.430   6.699
 2658SOL    HW2 8874   3.424   5.428   6.799
 2659SOL     OW 8875   0.169   2.063   5.018
 2659SOL    HW1 8876   0.228   2.020   4.950
 2659SOL    HW2 8877   0.132   2.149   4.981
 2660SOL     OW 8878   0.442   2.029   2.252
 2660SOL    HW1 8879   0.352   1.987   2.255
 2660SOL    HW2 8880   0.454   2.088   2.332
 2661SOL     OW 8881   1.994   1.356   0.976
 2661SOL    HW1 8882   2.093   1.369   0.985
 2661SOL    HW2 8883   1.975   1.262   0.948
 2662SOL     OW 8884   2.747   0.868   2.118
 2662SOL    HW1 8885   2.736   0.906   2.026
 2662SOL    HW2 8886   2.764   0.770   2.112
 2663SOL     OW 8887   4.159   6.202   0.178
 2663SOL    HW1 8888   4.242   6.252   0.154
 2663SOL    HW2 8889   4.164   6.110   0.141
 2664SOL     OW 8890   4.325   3.895   5.620
 2664SOL    HW1 8891   4.255   3.880   5.690
 2664SOL    HW2 8892   4.319   3.989   5.586
 2665SOL     OW 8893   1.938   4.050   4.548
 2665SOL    HW1 8894   1.885   4.015   4.471
 2665SOL    HW2 8895   2.033   4.020   4.541
 2666SOL     OW 8896   2.085   3.711   2.394
 2666SOL    HW1 8897   1.987   3.720   2.378
 2666SOL    HW2 8898   2.127   3.802   2.393
 2667SOL     OW 8899   6.679   3.054   4.942
 2667SOL    HW1 8900   6.765   3.031   4.988
 2667SOL    HW2 8901   6.603   3.009   4.989
 2668SOL     OW 8902   6.234   0.463   3.720
 2668SOL    HW1 8903   6.184   0.482   3.804
 2668SOL    HW2 8904   6.230   0.544   3.660
 2669SOL     OW 8905   2.422   0.528   6.936
 2669SOL    HW1 8906   2.447   0.594   6.865
 2669SOL    HW2 8907   2.325   0.538   6.958
 2670SOL     OW 8908   0.216   6.989   6.989
 2670SOL    HW1 8909   0.228   6.893   6.964
 2670SOL    HW2 8910   0.118   7.012   6.987
 2671SOL     OW 8911   5.178   4.248   6.134
 2671SOL    HW1 8912   5.209   4.157   6.164
 2671SOL    HW2 8913   5.141   4.298   6.213
 2672SOL     OW 8914   3.413   1.034   2.037
 2672SOL    HW1 8915   3.429   0.936   2.029
 2672SOL    HW2 8916   3.343   1.061   1.971
 2673SOL     OW 8917   4.239   0.282   2.629
 2673SOL    HW1 8918   4.165   0.310   2.569
 2673SOL    HW2 8919   4.209   0.206   2.686
 2674SOL     OW 8920   0.447   5.169   2.404
 2674SOL    HW1 8921   0.524   5.201   2.348
 2674SOL    HW2 8922   0.396   5.099   2.353
 2675SOL     OW 8923   5.652   0.651   4.255
 2675SOL    HW1 8924   5.587   0.725   4.274
 2675SOL    HW2 8925   5.660   0.593   4.336
 2676SOL     OW 8926   4.024   3.812   3.028
 2676SOL    HW1 8927   4.098   3.767   2.979
 2676SOL    HW2 8928   4.026   3.784   3.124
 2677SOL     OW 8929   2.612   4.993   1.101
 2677SOL    HW1 8930   2.585   4.933   1.026
 2677SOL    HW2 8931   2.647   5.079   1.063
 2678SOL     OW 8932   4.170   1.884   3.208
 2678SOL    HW1 8933   4.182   1.786   3.194
 2678SOL    HW2 8934   4.258   1.925   3.232
 2679SOL     OW 8935   2.149   3.518   3.173
 2679SOL    HW1 8936   2.104   3.478   3.093
 2679SOL    HW2 8937   2.215   3.587   3.142
 2680SOL     OW 8938   6.070   1.632   0.018
 2680SOL    HW1 8939   6.130   1.711   0.024
 2680SOL    HW2 8940   6.119   1.550   0.046
 2681SOL     OW 8941   2.144   1.822   4.782
 2681SOL    HW1 8942   2.232   1.859   4.815
 2681SOL    HW2 8943   2.146   1.722   4.787
 2682SOL     OW 8944   3.949   4.079   1.745
 2682SOL    HW1 8945   3.960   3.982   1.766
 2682SOL    HW2 8946   4.036   4.127   1.760
 2683SOL     OW 8947   2.400   4.468   2.102
 2683SOL    HW1 8948   2.441   4.522   2.175
 2683SOL    HW2 8949   2.384   4.375   2.135
 2684SOL     OW 8950   6.766   6.614   3.604
 2684SOL    HW1 8951   6.683   6.639   3.653
 2684SOL    HW2 8952   6.743   6.565   3.521
 2685SOL     OW 8953   1.318   5.867   5.577
 2685SOL    HW1 8954   1.396   5.905   5.626
 2685SOL    HW2 8955   1.297   5.776   5.613
 2686SOL     OW 8956   0.228   1.324   5.130
 2686SOL    HW1 8957   0.212   1.405   5.074
 2686SOL    HW2 8958   0.197   1.342   5.224
 2687SOL     OW 8959   4.075   1.947   1.405
 2687SOL    HW1 8960   4.051   1.922   1.498
 2687SOL    HW2 8961   3.996   1.933   1.345
 2688SOL     OW 8962   3.829   2.928   6.009
 2688SOL    HW1 8963   3.854   3.024   6.021
 2688SOL    HW2 8964   3.846   2.901   5.914
 2689SOL     OW 8965   1.493   4.222   3.215
 2689SOL    HW1 8966   1.551   4.149   3.177
 2689SOL    HW2 8967   1.551   4.296   3.249
 2690SOL     OW 8968   3.906   1.451   5.468
 2690SOL    HW1 8969   3.937   1.515   5.539
 2690SOL    HW2 8970   3.975   1.379   5.456
 2691SOL     OW 8971   6.500   3.869   4.596
 2691SOL    HW1 8972   6.516   3.787   4.540
 2691SOL    HW2 8973   6.493   3.842   4.692
 2692SOL     OW 8974   2.368   5.800   2.238
 2692SOL    HW1 8975   2.311   5.854   2.300
 2692SOL    HW2 8976   2.375   5.848   2.150
 2693SOL     OW 8977   1.488   5.945   2.690
 2693SOL    HW1 8978   1.515   5.859   2.733
 2693SOL    HW2 8979   1.523   6.022   2.744
 2694SOL     OW 8980   2.966   0.682   2.619
 2694SOL    HW1 8981   2.983   0.698   2.716
 2694SOL    HW2 8982   2.876   0.720   2.594
 2695SOL     OW 8983   6.850   5.843   3.401
 2695SOL    HW1 8984   6.824   5.799   3.315
 2695SOL    HW2 8985   6.921   5.911   3.382
 2696SOL     OW 8986   5.330   4.657   5.961
 2696SOL    HW1 8987   5.343   4.615   6.051
 2696SOL    HW2 8988   5.253   4.721   5.965
 2697SOL     OW 8989   4.296   2.724   6.705
 2697SOL    HW1 8990   4.395   2.742   6.704
 2697SOL    HW2 8991   4.276   2.645   6.646
 2698SOL     OW 8992   1.478   5.018   5.713
 2698SOL    HW1 8993   1.531   4.933   5.720
 2698SOL    HW2 8994   1.534   5.095   5.744
 2699SOL     OW 8995   2.830   6.169   1.747
 2699SOL    HW1 8996   2.904   6.114   1.786
 2699SOL    HW2 8997   2.838   6.263   1.779
 2700SOL     OW 8998   3.603   1.882   1.655
 2700SOL    HW1 8999   3.630   1.787   1.643
 2700SOL    HW2 9000   3.511   1.887   1.695
 2701SOL     OW 9001   5.493   2.972   4.998
 2701SOL    HW1 9002   5.482   3.058   5.047
 2701SOL    HW2 9003   5.569   2.920   5.038
 2702SOL     OW 9004   2.817   0.768   4.459
 2702SOL    HW1 9005   2.728   0.739   4.422
 2702SOL    HW2 9006   2.887   0.701   4.435
 2703SOL     OW 9007   1.882   6.872   2.811
 2703SOL    HW1 9008   1.938   6.924   2.746
 2703SOL    HW2 9009   1.871   6.925   2.895
 2704SOL     OW 9010   5.298   0.677   3.719
 2704SOL    HW1 9011   5.206   0.693   3.754
 2704SOL    HW2 9012   5.320   0.580   3.728
 2705SOL     OW 9013   0.094   0.730   5.783
 2705SOL    HW1 9014   0.063   0.814   5.739
 2705SOL    HW2 9015   0.087   0.739   5.882
 2706SOL     OW 9016   6.987   3.558   3.752
 2706SOL    HW1 9017   7.017   3.488   3.687
 2706SOL    HW2 9018   0.011   3.544   3.839
 2707SOL     OW 9019   4.444   1.288   3.006
 2707SOL    HW1 9020   4.510   1.215   3.019
 2707SOL    HW2 9021   4.472   1.369   3.057
 2708SOL     OW 9022   5.797   3.683   6.209
 2708SOL    HW1 9023   5.780   3.601   6.154
 2708SOL    HW2 9024   5.835   3.755   6.151
 2709SOL     OW 9025   4.921   1.711   5.555
 2709SOL    HW1 9026   4.902   1.625   5.602
 2709SOL    HW2 9027   4.893   1.788   5.613
 2710SOL     OW 9028   0.859   2.677   4.247
 2710SOL    HW1 9029   0.939   2.636   4.291
 2710SOL    HW2 9030   0.784   2.684   4.313
 2711SOL     OW 9031   3.433   1.062   1.639
 2711SOL    HW1 9032   3.339   1.038   1.614
 2711SOL    HW2 9033   3.485   1.083   1.557
 2712SOL     OW 9034   3.546   6.191   2.027
 2712SOL    HW1 9035   3.637   6.157   2.051
 2712SOL    HW2 9036   3.550   6.238   1.938
 2713SOL     OW 9037   3.690   5.058   5.759
 2713SOL    HW1 9038   3.747   5.039   5.840
 2713SOL    HW2 9039   3.603   5.096   5.789
 2714SOL     OW 9040   3.187   4.652   6.397
 2714SOL    HW1 9041   3.221   4.558   6.396
 2714SOL    HW2 9042   3.251   4.710   6.448
 2715SOL     OW 9043   4.109   0.864   7.016
 2715SOL    HW1 9044   4.084   0.771   6.988
 2715SOL    HW2 9045   4.033   0.905   0.045
 2716SOL     OW 9046   4.006   1.342   2.973
 2716SOL    HW1 9047   4.039   1.268   3.031
 2716SOL    HW2 9048   4.083   1.400   2.945
 2717SOL     OW 9049   0.429   1.070   2.464
 2717SOL    HW1 9050   0.411   0.994   2.402
 2717SOL    HW2 9051   0.440   1.035   2.557
 2718SOL     OW 9052   6.828   0.840   6.051
 2718SOL    HW1 9053   6.763   0.858   5.976
 2718SOL    HW2 9054   6.920   0.832   6.014
 2719SOL     OW 9055   1.755   4.499   2.588
 2719SOL    HW1 9056   1.850   4.508   2.618
 2719SOL    HW2 9057   1.746   4.532   2.494
 2720SOL     OW 9058   2.322   6.449   6.647
 2720SOL    HW1 9059   2.396   6.391   6.682
 2720SOL    HW2 9060   2.319   6.535   6.698
 2721SOL     OW 9061   3.268   6.298   1.808
 2721SOL    HW1 9062   3.188   6.299   1.869
 2721SOL    HW2 9063   3.331   6.371   1.836
 2722SOL     OW 9064   4.328   6.029   6.794
 2722SOL    HW1 9065   4.363   6.079   6.873
 2722SOL    HW2 9066   4.404   5.988   6.744
 2723SOL     OW 9067   3.340   6.316   6.086
 2723SOL    HW1 9068   3.393   6.378   6.027
 2723SOL    HW2 9069   3.361   6.221   6.062
 2724SOL     OW 9070   0.794   6.513   0.912
 2724SOL    HW1 9071   0.713   6.568   0.934
 2724SOL    HW2 9072   0.782   6.420   0.947
 2725SOL     OW 9073   6.187   3.732   5.187
 2725SOL    HW1 9074   6.181   3.786   5.271
 2725SOL    HW2 9075   6.222   3.641   5.208
 2726SOL     OW 9076   5.926   1.963   2.366
 2726SOL    HW1 9077   5.859   2.018   2.316
 2726SOL    HW2 9078   5.943   1.878   2.316
 2727SOL     OW 9079   1.289   5.368   3.855
 2727SOL    HW1 9080   1.287   5.369   3.755
 2727SOL    HW2 9081   1.199   5.391   3.891
 2728SOL     OW 9082   5.091   5.126   5.336
 2728SOL    HW1 9083   5.182   5.157   5.364
 2728SOL    HW2 9084   5.098   5.033   5.299
 2729SOL     OW 9085   5.318   0.048   6.363
 2729SOL    HW1 9086   5.400   7.022   6.332
 2729SOL    HW2 9087   5.254   0.057   6.286
 2730SOL     OW 9088   1.279   6.008   1.839
 2730SOL    HW1 9089   1.298   5.910   1.841
 2730SOL    HW2 9090   1.210   6.029   1.908
 2731SOL     OW 9091   3.532   4.027   3.966
 2731SOL    HW1 9092   3.589   3.945   3.970
 2731SOL    HW2 9093   3.574   4.100   4.020
 2732SOL     OW 9094   5.634   0.589   1.888
 2732SOL    HW1 9095   5.545   0.544   1.888
 2732SOL    HW2 9096   5.644   0.643   1.804
 2733SOL     OW 9097   1.481   6.683   6.659
 2733SOL    HW1 9098   1.411   6.733   6.609
 2733SOL    HW2 9099   1.552   6.652   6.596
 2734SOL     OW 9100   3.110   6.442   2.292
 2734SOL    HW1 9101   3.190   6.408   2.340
 2734SOL    HW2 9102   3.070   6.368   2.238
 2735SOL     OW 9103   0.646   1.650   2.151
 2735SOL    HW1 9104   0.550   1.673   2.164
 2735SOL    HW2 9105   0.674   1.582   2.220
 2736SOL     OW 9106   5.550   4.440   2.719
 2736SOL    HW1 9107   5.472   4.393   2.677
 2736SOL    HW2 9108   5.634   4.393   2.695
 2737SOL     OW 9109   2.927   0.722   5.133
 2737SOL    HW1 9110   2.928   0.818   5.162
 2737SOL    HW2 9111   2.834   0.685   5.143
 2738SOL     OW 9112   4.963   6.390   1.607
 2738SOL    HW1 9113   4.975   6.355   1.700
 2738SOL    HW2 9114   4.867   6.381   1.581
 2739SOL     OW 9115   6.692   5.818   1.655
 2739SOL    HW1 9116   6.769   5.865   1.612
 2739SOL    HW2 9117   6.611   5.877   1.652
 2740SOL     OW 9118   6.651   5.650   3.713
 2740SOL    HW1 9119   6.578   5.625   3.777
 2740SOL    HW2 9120   6.737   5.609   3.743
 2741SOL     OW 9121   1.295   1.235   5.610
 2741SOL    HW1 9122   1.228   1.309   5.604
 2741SOL    HW2 9123   1.281   1.184   5.696
 2742SOL     OW 9124   3.178   5.925   1.646
 2742SOL    HW1 9125   3.139   6.012   1.618
 2742SOL    HW2 9126   3.104   5.864   1.675
 2743SOL     OW 9127   5.702   3.172   2.366
 2743SOL    HW1 9128   5.662   3.260   2.394
 2743SOL    HW2 9129   5.742   3.182   2.276
 2744SOL     OW 9130   3.233   3.743   2.772
 2744SOL    HW1 9131   3.239   3.748   2.672
 2744SOL    HW2 9132   3.137   3.738   2.800
 2745SOL     OW 9133   0.643   6.683   0.267
 2745SOL    HW1 9134   0.593   6.748   0.209
 2745SOL    HW2 9135   0.733   6.720   0.288
 2746SOL     OW 9136   0.798   1.265   3.590
 2746SOL    HW1 9137   0.835   1.172   3.587
 2746SOL    HW2 9138   0.813   1.310   3.502
 2747SOL     OW 9139   3.917   4.959   0.977
 2747SOL    HW1 9140   3.968   4.984   0.895
 2747SOL    HW2 9141   3.964   4.883   1.023
 2748SOL     OW 9142   3.775   6.554   0.949
 2748SOL    HW1 9143   3.820   6.632   0.905
 2748SOL    HW2 9144   3.769   6.571   1.047
 2749SOL     OW 9145   3.577   2.882   0.149
 2749SOL    HW1 9146   3.591   2.836   0.237
 2749SOL    HW2 9147   3.489   2.855   0.110
 2750SOL     OW 9148   2.774   5.906   1.921
 2750SOL    HW1 9149   2.868   5.935   1.935
 2750SOL    HW2 9150   2.712   5.982   1.942
 2751SOL     OW 9151   5.869   3.893   1.010
 2751SOL    HW1 9152   5.892   3.965   1.076
 2751SOL    HW2 9153   5.833   3.936   0.927
 2752SOL     OW 9154   4.481   5.310   0.227
 2752SOL    HW1 9155   4.558   5.263   0.272
 2752SOL    HW2 9156   4.477   5.284   0.131
 2753SOL     OW 9157   6.351   5.882   5.410
 2753SOL    HW1 9158   6.315   5.882   5.504
 2753SOL    HW2 9159   6.343   5.790   5.371
 2754SOL     OW 9160   0.979   6.933   6.292
 2754SOL    HW1 9161   0.907   6.876   6.252
 2754SOL    HW2 9162   1.000   7.008   6.229
 2755SOL     OW 9163   2.961   0.430   2.465
 2755SOL    HW1 9164   3.006   0.356   2.515
 2755SOL    HW2 9165   2.973   0.516   2.515
 2756SOL     OW 9166   4.534   6.329   0.717
 2756SOL    HW1 9167   4.560   6.233   0.723
 2756SOL    HW2 9168   4.438   6.336   0.691
 2757SOL     OW 9169   0.441   5.470   1.425
 2757SOL    HW1 9170   0.482   5.393   1.475
 2757SOL    HW2 9171   0.468   5.556   1.468
 2758SOL     OW 9172   4.870   0.571   5.957
 2758SOL    HW1 9173   4.782   0.543   5.918
 2758SOL    HW2 9174   4.884   0.523   6.044
 2759SOL     OW 9175   5.246   5.641   4.380
 2759SOL    HW1 9176   5.238   5.543   4.365
 2759SOL    HW2 9177   5.158   5.685   4.363
 2760SOL     OW 9178   2.713   5.663   3.181
 2760SOL    HW1 9179   2.671   5.585   3.135
 2760SOL    HW2 9180   2.747   5.636   3.271
 2761SOL     OW 9181   2.244   5.902   3.086
 2761SOL    HW1 9182   2.255   5.885   3.184
 2761SOL    HW2 9183   2.220   5.817   3.040
 2762SOL     OW 9184   1.114   6.513   4.988
 2762SOL    HW1 9185   1.178   6.437   5.002
 2762SOL    HW2 9186   1.164   6.591   4.950
 2763SOL     OW 9187   5.626   1.898   1.725
 2763SOL    HW1 9188   5.587   1.833   1.660
 2763SOL    HW2 9189   5.568   1.980   1.729
 2764SOL     OW 9190   6.193   1.302   2.188
 2764SOL    HW1 9191   6.140   1.354   2.255
 2764SOL    HW2 9192   6.174   1.205   2.198
 2765SOL     OW 9193   5.644   1.577   1.690
 2765SOL    HW1 9194   5.644   1.553   1.593
 2765SOL    HW2 9195   5.737   1.596   1.720
 2766SOL     OW 9196   5.800   1.039   2.671
 2766SOL    HW1 9197   5.717   1.056   2.618
 2766SOL    HW2 9198   5.869   1.108   2.649
 2767SOL     OW 9199   5.441   4.567   6.231
 2767SOL    HW1 9200   5.492   4.588   6.315
 2767SOL    HW2 9201   5.486   4.490   6.184
 2768SOL     OW 9202   5.965   1.317   6.658
 2768SOL    HW1 9203   5.989   1.246   6.724
 2768SOL    HW2 9204   5.999   1.405   6.691
 2769SOL     OW 9205   1.094   3.726   1.259
 2769SOL    HW1 9206   1.010   3.768   1.294
 2769SOL    HW2 9207   1.171   3.788   1.276
 2770SOL     OW 9208   0.028   5.762   1.347
 2770SOL    HW1 9209   0.061   5.736   1.257
 2770SOL    HW2 9210   0.026   5.862   1.354
 2771SOL     OW 9211   4.930   1.093   1.720
 2771SOL    HW1 9212   4.935   1.023   1.649
 2771SOL    HW2 9213   4.930   1.050   1.810
 2772SOL     OW 9214   3.136   2.864   5.921
 2772SOL    HW1 9215   3.111   2.954   5.886
 2772SOL    HW2 9216   3.236   2.859   5.933
 2773SOL     OW 9217   3.467   3.714   6.480
 2773SOL    HW1 9218   3.543   3.687   6.420
 2773SOL    HW2 9219   3.498   3.785   6.543
 2774SOL     OW 9220   5.666   3.492   2.713
 2774SOL    HW1 9221   5.721   3.558   2.662
 2774SOL    HW2 9222   5.598   3.451   2.653
 2775SOL     OW 9223   0.196   6.032   1.600
 2775SOL    HW1 9224   0.099   6.023   1.578
 2775SOL    HW2 9225   0.211   6.115   1.654
 2776SOL     OW 9226   3.069   5.643   6.322
 2776SOL    HW1 9227   3.004   5.612   6.252
 2776SOL    HW2 9228   3.138   5.572   6.336
 2777SOL     OW 9229   3.543   1.344   2.801
 2777SOL    HW1 9230   3.514   1.249   2.789
 2777SOL    HW2 9231   3.638   1.354   2.772
 2778SOL     OW 9232   2.206   1.860   5.458
 2778SOL    HW1 9233   2.249   1.856   5.549
 2778SOL    HW2 9234   2.249   1.932   5.404
 2779SOL     OW 9235   6.003   1.106   6.845
 2779SOL    HW1 9236   6.000   1.021   6.897
 2779SOL    HW2 9237   6.036   1.088   6.753
 2780SOL     OW 9238   5.047   5.178   6.861
 2780SOL    HW1 9239   5.058   5.123   6.778
 2780SOL    HW2 9240   5.074   5.125   6.941
 2781SOL     OW 9241   5.168   4.683   0.484
 2781SOL    HW1 9242   5.080   4.639   0.498
 2781SOL    HW2 9243   5.175   4.716   0.390
 2782SOL     OW 9244   2.771   2.416   6.381
 2782SOL    HW1 9245   2.716   2.344   6.422
 2782SOL    HW2 9246   2.746   2.505   6.421
 2783SOL     OW 9247   0.398   4.818   5.241
 2783SOL    HW1 9248   0.468   4.827   5.311
 2783SOL    HW2 9249   0.419   4.740   5.182
 2784SOL     OW 9250   1.935   1.777   2.136
 2784SOL    HW1 9251   1.865   1.824   2.190
 2784SOL    HW2 9252   2.016   1.761   2.193
 2785SOL     OW 9253   6.203   1.088   1.347
 2785SOL    HW1 9254   6.167   1.000   1.381
 2785SOL    HW2 9255   6.275   1.071   1.281
 2786SOL     OW 9256   3.906   6.676   1.288
 2786SOL    HW1 9257   3.961   6.602   1.248
 2786SOL    HW2 9258   3.810   6.648   1.292
 2787SOL     OW 9259   2.371   2.590   6.002
 2787SOL    HW1 9260   2.318   2.508   5.981
 2787SOL    HW2 9261   2.402   2.586   6.097
 2788SOL     OW 9262   1.155   3.665   0.917
 2788SOL    HW1 9263   1.154   3.619   1.006
 2788SOL    HW2 9264   1.098   3.748   0.923
 2789SOL     OW 9265   0.312   2.083   4.204
 2789SOL    HW1 9266   0.393   2.056   4.257
 2789SOL    HW2 9267   0.326   2.175   4.166
 2790SOL     OW 9268   3.653   5.304   3.219
 2790SOL    HW1 9269   3.678   5.377   3.155
 2790SOL    HW2 9270   3.708   5.313   3.302
 2791SOL     OW 9271   1.639   3.038   4.028
 2791SOL    HW1 9272   1.541   3.051   4.015
 2791SOL    HW2 9273   1.678   3.121   4.069
 2792SOL     OW 9274   1.240   2.076   5.554
 2792SOL    HW1 9275   1.261   1.997   5.496
 2792SOL    HW2 9276   1.289   2.156   5.520
 2793SOL     OW 9277   5.028   1.341   3.318
 2793SOL    HW1 9278   5.035   1.281   3.398
 2793SOL    HW2 9279   5.055   1.434   3.344
 2794SOL     OW 9280   0.998   0.812   0.978
 2794SOL    HW1 9281   0.919   0.852   0.933
 2794SOL    HW2 9282   1.079   0.867   0.957
 2795SOL     OW 9283   2.577   4.109   1.537
 2795SOL    HW1 9284   2.609   4.145   1.450
 2795SOL    HW2 9285   2.577   4.181   1.606
 2796SOL     OW 9286   5.589   3.770   2.565
 2796SOL    HW1 9287   5.622   3.728   2.480
 2796SOL    HW2 9288   5.666   3.785   2.627
 2797SOL     OW 9289   4.537   4.591   4.843
 2797SOL    HW1 9290   4.476   4.591   4.923
 2797SOL    HW2 9291   4.548   4.497   4.811
 2798SOL     OW 9292   1.235   3.878   4.275
 2798SOL    HW1 9293   1.316   3.821   4.286
 2798SOL    HW2 9294   1.255   3.971   4.305
 2799SOL     OW 9295   6.261   4.979   5.775
 2799SOL    HW1 9296   6.245   5.067   5.821
 2799SOL    HW2 9297   6.226   4.905   5.833
 2800SOL     OW 9298   3.315   3.884   6.958
 2800SOL    HW1 9299   3.311   3.957   6.890
 2800SOL    HW2 9300   3.299   3.796   6.913
 2801SOL     OW 9301   5.162   5.469   2.237
 2801SOL    HW1 9302   5.196   5.522   2.315
 2801SOL    HW2 9303   5.115   5.529   2.173
 2802SOL     OW 9304   4.851   1.122   5.998
 2802SOL    HW1 9305   4.869   1.202   6.055
 2802SOL    HW2 9306   4.886   1.040   6.044
 2803SOL     OW 9307   2.998   6.184   6.365
 2803SOL    HW1 9308   3.047   6.271   6.355
 2803SOL    HW2 9309   2.925   6.195   6.432
 2804SOL     OW 9310   6.994   4.487   3.497
 2804SOL    HW1 9311   6.955   4.417   3.438
 2804SOL    HW2 9312   6.924   4.518   3.562
 2805SOL     OW 9313   5.665   3.587   0.090
 2805SOL    HW1 9314   5.583   3.584   0.147
 2805SOL    HW2 9315   5.674   3.678   0.049
 2806SOL     OW 9316   6.388   5.912   3.881
 2806SOL    HW1 9317   6.335   5.849   3.938
 2806SOL    HW2 9318   6.371   5.893   3.784
 2807SOL     OW 9319   4.670   5.248   3.390
 2807SOL    HW1 9320   4.762   5.288   3.387
 2807SOL    HW2 9321   4.674   5.160   3.436
 2808SOL     OW 9322   5.334   0.380   4.454
 2808SOL    HW1 9323   5.379   0.295   4.481
 2808SOL    HW2 9324   5.263   0.403   4.520
 2809SOL     OW 9325   5.464   2.843   0.562
 2809SOL    HW1 9326   5.556   2.811   0.583
 2809SOL    HW2 9327   5.426   2.787   0.489
 2810SOL     OW 9328   2.186   0.043   5.424
 2810SOL    HW1 9329   2.134   0.102   5.486
 2810SOL    HW2 9330   2.151   0.053   5.331
 2811SOL     OW 9331   0.007   1.084   3.586
 2811SOL    HW1 9332   0.010   1.157   3.518
 2811SOL    HW2 9333   0.100   1.065   3.619
 2812SOL     OW 9334   4.815   3.960   2.368
 2812SOL    HW1 9335   4.814   4.022   2.447
 2812SOL    HW2 9336   4.808   3.865   2.400
 2813SOL     OW 9337   5.834   1.224   6.434
 2813SOL    HW1 9338   5.749   1.277   6.432
 2813SOL    HW2 9339   5.883   1.243   6.519
 2814SOL     OW 9340   4.716   3.999   5.175
 2814SOL    HW1 9341   4.693   3.974   5.269
 2814SOL    HW2 9342   4.661   4.078   5.147
 2815SOL     OW 9343   0.064   0.540   4.822
 2815SOL    HW1 9344   0.062   0.527   4.921
 2815SOL    HW2 9345   7.019   0.609   4.797
 2816SOL     OW 9346   5.652   7.020   3.340
 2816SOL    HW1 9347   5.675   6.923   3.339
 2816SOL    HW2 9348   5.699   0.042   3.415
 2817SOL     OW 9349   1.129   2.186   1.735
 2817SOL    HW1 9350   1.040   2.231   1.744
 2817SOL    HW2 9351   1.115   2.089   1.716
 2818SOL     OW 9352   0.178   4.700   5.022
 2818SOL    HW1 9353   0.146   4.677   5.114
 2818SOL    HW2 9354   0.140   4.789   4.995
 2819SOL     OW 9355   6.957   3.019   1.019
 2819SOL    HW1 9356   0.020   3.007   0.968
 2819SOL    HW2 9357   6.946   3.115   1.042
 2820SOL     OW 9358   6.433   3.425   4.178
 2820SOL    HW1 9359   6.506   3.405   4.244
 2820SOL    HW2 9360   6.394   3.515   4.197
 2821SOL     OW 9361   1.300   4.144   4.603
 2821SOL    HW1 9362   1.330   4.138   4.508
 2821SOL    HW2 9363   1.358   4.085   4.660
 2822SOL     OW 9364   4.697   1.485   0.023
 2822SOL    HW1 9365   4.662   1.496   6.952
 2822SOL    HW2 9366   4.632   1.432   0.077
 2823SOL     OW 9367   1.523   6.591   3.438
 2823SOL    HW1 9368   1.604   6.648   3.450
 2823SOL    HW2 9369   1.552   6.497   3.418
 2824SOL     OW 9370   3.439   1.467   4.845
 2824SOL    HW1 9371   3.490   1.542   4.888
 2824SOL    HW2 9372   3.367   1.504   4.788
 2825SOL     OW 9373   6.525   5.742   1.039
 2825SOL    HW1 9374   6.568   5.761   1.127
 2825SOL    HW2 9375   6.530   5.824   0.981
 2826SOL     OW 9376   4.855   2.278   4.245
 2826SOL    HW1 9377   4.889   2.234   4.162
 2826SOL    HW2 9378   4.863   2.214   4.322
 2827SOL     OW 9379   5.706   0.565   5.560
 2827SOL    HW1 9380   5.616   0.546   5.600
 2827SOL    HW2 9381   5.696   0.585   5.463
 2828SOL     OW 9382   3.569   1.666   5.261
 2828SOL    HW1 9383   3.504   1.668   5.337
 2828SOL    HW2 9384   3.659   1.637   5.294
 2829SOL     OW 9385   2.313   6.741   6.534
 2829SOL    HW1 9386   2.330   6.754   6.632
 2829SOL    HW2 9387   2.400   6.732   6.486
 2830SOL     OW 9388   3.618   3.819   0.143
 2830SOL    HW1 9389   3.523   3.790   0.154
 2830SOL    HW2 9390   3.664   3.817   0.232
 2831SOL     OW 9391   5.775   6.176   4.522
 2831SOL    HW1 9392   5.842   6.145   4.589
 2831SOL    HW2 9393   5.683   6.151   4.553
 2832SOL     OW 9394   0.302   0.907   1.962
 2832SOL    HW1 9395   0.283   0.922   1.865
 2832SOL    HW2 9396   0.344   0.817   1.974
 2833SOL     OW 9397   6.242   2.613   2.250
 2833SOL    HW1 9398   6.206   2.649   2.336
 2833SOL    HW2 9399   6.215   2.673   2.175
 2834SOL     OW 9400   3.599   1.008   5.476
 2834SOL    HW1 9401   3.511   1.029   5.433
 2834SOL    HW2 9402   3.649   1.092   5.492
 2835SOL     OW 9403   0.148   6.301   2.593
 2835SOL    HW1 9404   0.081   6.330   2.661
 2835SOL    HW2 9405   0.176   6.381   2.538
 2836SOL     OW 9406   6.650   0.830   1.303
 2836SOL    HW1 9407   6.565   0.782   1.281
 2836SOL    HW2 9408   6.726   0.765   1.300
 2837SOL     OW 9409   5.439   3.710   3.817
 2837SOL    HW1 9410   5.459   3.649   3.741
 2837SOL    HW2 9411   5.456   3.805   3.788
 2838SOL     OW 9412   3.460   5.128   2.822
 2838SOL    HW1 9413   3.443   5.031   2.805
 2838SOL    HW2 9414   3.527   5.138   2.896
 2839SOL     OW 9415   5.330   2.006   1.226
 2839SOL    HW1 9416   5.325   1.933   1.157
 2839SOL    HW2 9417   5.244   2.008   1.278
 2840SOL     OW 9418   6.606   1.508   5.201
 2840SOL    HW1 9419   6.610   1.520   5.102
 2840SOL    HW2 9420   6.673   1.569   5.244
 2841SOL     OW 9421   0.989   6.387   1.167
 2841SOL    HW1 9422   0.901   6.356   1.131
 2841SOL    HW2 9423   1.002   6.352   1.260
 2842SOL     OW 9424   6.853   3.338   3.020
 2842SOL    HW1 9425   6.823   3.247   2.989
 2842SOL    HW2 9426   6.930   3.368   2.964
 2843SOL     OW 9427   4.477   1.376   4.829
 2843SOL    HW1 9428   4.520   1.408   4.744
 2843SOL    HW2 9429   4.495   1.442   4.902
 2844SOL     OW 9430   6.842   4.194   6.040
 2844SOL    HW1 9431   6.819   4.127   5.969
 2844SOL    HW2 9432   6.857   4.147   6.127
 2845SOL     OW 9433   0.282   4.589   5.593
 2845SOL    HW1 9434   0.269   4.507   5.539
 2845SOL    HW2 9435   0.195   4.638   5.602
 2846SOL     OW 9436   5.125   1.861   6.285
 2846SOL    HW1 9437   5.158   1.767   6.280
 2846SOL    HW2 9438   5.094   1.881   6.378
 2847SOL     OW 9439   5.741   4.488   4.465
 2847SOL    HW1 9440   5.831   4.454   4.438
 2847SOL    HW2 9441   5.698   4.533   4.387
 2848SOL     OW 9442   0.714   5.319   4.397
 2848SOL    HW1 9443   0.631   5.281   4.356
 2848SOL    HW2 9444   0.795   5.274   4.359
 2849SOL     OW 9445   2.943   2.312   1.264
 2849SOL    HW1 9446   2.963   2.370   1.343
 2849SOL    HW2 9447   3.027   2.269   1.233
 2850SOL     OW 9448   3.693   0.854   0.277
 2850SOL    HW1 9449   3.610   0.859   0.220
 2850SOL    HW2 9450   3.774   0.859   0.219
 2851SOL     OW 9451   1.392   4.267   6.129
 2851SOL    HW1 9452   1.398   4.239   6.225
 2851SOL    HW2 9453   1.298   4.290   6.107
 2852SOL     OW 9454   0.103   3.395   6.532
 2852SOL    HW1 9455   0.156   3.311   6.526
 2852SOL    HW2 9456   0.070   3.407   6.626
 2853SOL     OW 9457   3.499   3.854   0.985
 2853SOL    HW1 9458   3.422   3.828   0.926
 2853SOL    HW2 9459   3.515   3.952   0.978
 2854SOL     OW 9460   2.374   1.351   3.501
 2854SOL    HW1 9461   2.312   1.428   3.516
 2854SOL    HW2 9462   2.409   1.355   3.407
 2855SOL     OW 9463   2.608   1.100   4.652
 2855SOL    HW1 9464   2.542   1.114   4.726
 2855SOL    HW2 9465   2.649   1.009   4.661
 2856SOL     OW 9466   2.345   2.739   5.246
 2856SOL    HW1 9467   2.348   2.818   5.185
 2856SOL    HW2 9468   2.407   2.755   5.323
 2857SOL     OW 9469   3.167   3.357   1.998
 2857SOL    HW1 9470   3.260   3.321   2.003
 2857SOL    HW2 9471   3.169   3.448   1.956
 2858SOL     OW 9472   0.039   3.436   2.863
 2858SOL    HW1 9473   0.128   3.415   2.823
 2858SOL    HW2 9474   0.035   3.532   2.888
 2859SOL     OW 9475   5.927   6.929   0.430
 2859SOL    HW1 9476   5.889   6.935   0.338
 2859SOL    HW2 9477   6.005   6.992   0.438
 2860SOL     OW 9478   4.161   1.629   2.103
 2860SOL    HW1 9479   4.209   1.576   2.033
 2860SOL    HW2 9480   4.095   1.571   2.150
 2861SOL     OW 9481   3.695   5.680   5.940
 2861SOL    HW1 9482   3.625   5.611   5.959
 2861SOL    HW2 9483   3.780   5.635   5.915
 2862SOL     OW 9484   5.648   1.238   4.278
 2862SOL    HW1 9485   5.619   1.313   4.337
 2862SOL    HW2 9486   5.576   1.219   4.211
 2863SOL     OW 9487   6.644   2.366   6.648
 2863SOL    HW1 9488   6.572   2.355   6.717
 2863SOL    HW2 9489   6.658   2.280   6.600
 2864SOL     OW 9490   3.541   1.426   0.321
 2864SOL    HW1 9491   3.522   1.339   0.276
 2864SOL    HW2 9492   3.628   1.421   0.370
 2865SOL     OW 9493   4.645   4.361   5.074
 2865SOL    HW1 9494   4.725   4.348   5.014
 2865SOL    HW2 9495   4.579   4.421   5.029
 2866SOL     OW 9496   0.283   6.609   6.663
 2866SOL    HW1 9497   0.344   6.541   6.621
 2866SOL    HW2 9498   0.188   6.580   6.651
 2867SOL     OW 9499   6.958   4.215   4.221
 2867SOL    HW1 9500   6.882   4.151   4.209
 2867SOL    HW2 9501   7.012   4.219   4.137
 2868SOL     OW 9502   1.608   4.155   5.520
 2868SOL    HW1 9503   1.681   4.157   5.452
 2868SOL    HW2 9504   1.519   4.161   5.474
 2869SOL     OW 9505   6.055   1.184   2.580
 2869SOL    HW1 9506   6.039   1.093   2.542
 2869SOL    HW2 9507   6.031   1.253   2.512
 2870SOL     OW 9508   5.608   2.341   2.359
 2870SOL    HW1 9509   5.664   2.321   2.440
 2870SOL    HW2 9510   5.651   2.415   2.307
 2871SOL     OW 9511   1.496   1.890   6.515
 2871SOL    HW1 9512   1.449   1.802   6.503
 2871SOL    HW2 9513   1.454   1.958   6.456
 2872SOL     OW 9514   2.441   0.221   3.644
 2872SOL    HW1 9515   2.481   0.146   3.591
 2872SOL    HW2 9516   2.355   0.250   3.602
 2873SOL     OW 9517   0.517   5.279   1.590
 2873SOL    HW1 9518   0.540   5.300   1.684
 2873SOL    HW2 9519   0.544   5.185   1.569
 2874SOL     OW 9520   5.741   2.249   2.587
 2874SOL    HW1 9521   5.714   2.153   2.581
 2874SOL    HW2 9522   5.837   2.255   2.612
 2875SOL     OW 9523   3.382   4.798   6.521
 2875SOL    HW1 9524   3.399   4.895   6.504
 2875SOL    HW2 9525   3.438   4.767   6.598
 2876SOL     OW 9526   6.913   1.087   1.629
 2876SOL    HW1 9527   6.850   1.027   1.580
 2876SOL    HW2 9528   6.966   1.141   1.564
 2877SOL     OW 9529   2.875   2.764   5.853
 2877SOL    HW1 9530   2.965   2.792   5.887
 2877SOL    HW2 9531   2.840   2.690   5.909
 2878SOL     OW 9532   2.729   4.596   5.976
 2878SOL    HW1 9533   2.697   4.579   5.883
 2878SOL    HW2 9534   2.829   4.599   5.977
 2879SOL     OW 9535   5.401   4.565   0.596
 2879SOL    HW1 9536   5.382   4.544   0.691
 2879SOL    HW2 9537   5.318   4.603   0.553
 2880SOL     OW 9538   1.379   6.315   1.297
 2880SOL    HW1 9539   1.472   6.278   1.290
 2880SOL    HW2 9540   1.321   6.273   1.227
 2881SOL     OW 9541   6.960   6.676   0.761
 2881SOL    HW1 9542   0.005   6.747   0.743
 2881SOL    HW2 9543   6.957   6.612   0.684
 2882SOL     OW 9544   0.080   2.973   3.495
 2882SOL    HW1 9545   0.178   2.960   3.506
 2882SOL    HW2 9546   0.032   2.933   3.574
 2883SOL     OW 9547   3.749   6.903   2.091
 2883SOL    HW1 9548   3.747   6.890   2.190
 2883SOL    HW2 9549   3.737   6.814   2.046
 2884SOL     OW 9550   1.091   6.114   2.970
 2884SOL    HW1 9551   1.131   6.153   2.887
 2884SOL    HW2 9552   1.155   6.123   3.045
 2885SOL     OW 9553   0.828   2.672   3.499
 2885SOL    HW1 9554   0.907   2.648   3.443
 2885SOL    HW2 9555   0.842   2.762   3.540
 2886SOL     OW 9556   2.425   2.216   6.189
 2886SOL    HW1 9557   2.510   2.224   6.136
 2886SOL    HW2 9558   2.443   2.161   6.271
 2887SOL     OW 9559   1.644   0.507   5.050
 2887SOL    HW1 9560   1.706   0.437   5.015
 2887SOL    HW2 9561   1.565   0.516   4.989
 2888SOL     OW 9562   6.126   4.811   6.849
 2888SOL    HW1 9563   6.184   4.806   6.930
 2888SOL    HW2 9564   6.120   4.906   6.819
 2889SOL     OW 9565   0.244   0.006   1.719
 2889SOL    HW1 9566   0.292   0.045   1.798
 2889SOL    HW2 9567   0.155   0.051   1.710
 2890SOL     OW 9568   4.176   0.232   1.697
 2890SOL    HW1 9569   4.258   0.288   1.706
 2890SOL    HW2 9570   4.176   0.187   1.608
 2891SOL     OW 9571   2.704   4.713   3.840
 2891SOL    HW1 9572   2.647   4.689   3.919
 2891SOL    HW2 9573   2.668   4.668   3.758
 2892SOL     OW 9574   4.661   3.909   6.045
 2892SOL    HW1 9575   4.642   3.826   6.097
 2892SOL    HW2 9576   4.591   3.922   5.975
 2893SOL     OW 9577   2.667   0.059   5.269
 2893SOL    HW1 9578   2.657   0.059   5.169
 2893SOL    HW2 9579   2.589   0.105   5.311
 2894SOL     OW 9580   3.934   2.979   0.232
 2894SOL    HW1 9581   3.881   2.895   0.245
 2894SOL    HW2 9582   3.933   3.033   0.316
 2895SOL     OW 9583   3.730   3.586   6.271
 2895SOL    HW1 9584   3.782   3.541   6.198
 2895SOL    HW2 9585   3.714   3.521   6.346
 2896SOL     OW 9586   2.933   4.901   0.782
 2896SOL    HW1 9587   3.012   4.953   0.815
 2896SOL    HW2 9588   2.964   4.811   0.750
 2897SOL     OW 9589   1.884   5.968   3.971
 2897SOL    HW1 9590   1.875   6.038   4.042
 2897SOL    HW2 9591   1.948   5.999   3.901
 2898SOL     OW 9592   3.439   5.302   1.871
 2898SOL    HW1 9593   3.503   5.226   1.885
 2898SOL    HW2 9594   3.433   5.357   1.954
 2899SOL     OW 9595   6.961   6.675   0.153
 2899SOL    HW1 9596   6.897   6.605   0.184
 2899SOL    HW2 9597   6.909   6.754   0.118
 2900SOL     OW 9598   1.793   5.622   5.383
 2900SOL    HW1 9599   1.857   5.646   5.456
 2900SOL    HW2 9600   1.713   5.577   5.422
 2901SOL     OW 9601   2.787   1.084   1.894
 2901SOL    HW1 9602   2.850   1.045   1.828
 2901SOL    HW2 9603   2.693   1.071   1.862
 2902SOL     OW 9604   5.710   5.973   0.978
 2902SOL    HW1 9605   5.742   5.879   0.988
 2902SOL    HW2 9606   5.749   6.013   0.895
 2903SOL     OW 9607   1.961   1.559   1.664
 2903SOL    HW1 9608   2.026   1.607   1.723
 2903SOL    HW2 9609   1.901   1.625   1.619
 2904SOL     OW 9610   2.063   2.752   4.969
 2904SOL    HW1 9611   2.155   2.776   4.937
 2904SOL    HW2 9612   2.028   2.676   4.915
 2905SOL     OW 9613   2.039   2.389   2.234
 2905SOL    HW1 9614   2.009   2.401   2.139
 2905SOL    HW2 9615   1.960   2.388   2.294
 2906SOL     OW 9616   5.975   5.482   2.302
 2906SOL    HW1 9617   5.965   5.459   2.399
 2906SOL    HW2 9618   5.885   5.490   2.260
 2907SOL     OW 9619   6.287   1.445   4.016
 2907SOL    HW1 9620   6.316   1.352   3.992
 2907SOL    HW2 9621   6.237   1.443   4.103
 2908SOL     OW 9622   3.634   6.034   4.577
 2908SOL    HW1 9623   3.573   5.955   4.589
 2908SOL    HW2 9624   3.681   6.052   4.663
 2909SOL     OW 9625   1.324   5.790   4.755
 2909SOL    HW1 9626   1.363   5.789   4.663
 2909SOL    HW2 9627   1.380   5.736   4.816
 2910SOL     OW 9628   5.109   6.093   6.532
 2910SOL    HW1 9629   5.013   6.085   6.558
 2910SOL    HW2 9630   5.166   6.042   6.597
 2911SOL     OW 9631   1.983   4.275   3.172
 2911SOL    HW1 9632   2.082   4.269   3.180
 2911SOL    HW2 9633   1.949   4.197   3.119
 2912SOL     OW 9634   2.309   6.269   0.577
 2912SOL    HW1 9635   2.392   6.250   0.630
 2912SOL    HW2 9636   2.246   6.322   0.633
 2913SOL     OW 9637   1.430   3.876   3.300
 2913SOL    HW1 9638   1.412   3.789   3.346
 2913SOL    HW2 9639   1.499   3.862   3.229
 2914SOL     OW 9640   5.663   5.456   5.882
 2914SOL    HW1 9641   5.664   5.446   5.981
 2914SOL    HW2 9642   5.588   5.517   5.855
 2915SOL     OW 9643   4.705   1.480   3.768
 2915SOL    HW1 9644   4.745   1.548   3.707
 2915SOL    HW2 9645   4.698   1.393   3.720
 2916SOL     OW 9646   5.386   5.926   5.236
 2916SOL    HW1 9647   5.346   5.962   5.151
 2916SOL    HW2 9648   5.466   5.871   5.214
 2917SOL     OW 9649   4.658   0.339   2.429
 2917SOL    HW1 9650   4.609   0.321   2.514
 2917SOL    HW2 9651   4.608   0.407   2.375
 2918SOL     OW 9652   0.205   3.849   3.727
 2918SOL    HW1 9653   0.299   3.829   3.698
 2918SOL    HW2 9654   0.142   3.794   3.673
 2919SOL     OW 9655   6.188   5.728   0.176
 2919SOL    HW1 9656   6.243   5.731   0.093
 2919SOL    HW2 9657   6.106   5.674   0.159
 2920SOL     OW 9658   4.300   2.258   3.429
 2920SOL    HW1 9659   4.239   2.215   3.363
 2920SOL    HW2 9660   4.252   2.272   3.516
 2921SOL     OW 9661   0.214   0.357   1.805
 2921SOL    HW1 9662   0.298   0.313   1.834
 2921SOL    HW2 9663   0.142   0.289   1.795
 2922SOL     OW 9664   4.269   6.481   5.549
 2922SOL    HW1 9665   4.182   6.434   5.562
 2922SOL    HW2 9666   4.254   6.570   5.508
 2923SOL     OW 9667   6.037   4.810   2.087
 2923SOL    HW1 9668   5.949   4.837   2.125
 2923SOL    HW2 9669   6.026   4.791   1.989
 2924SOL     OW 9670   6.911   1.293   5.035
 2924SOL    HW1 9671   6.945   1.205   5.001
 2924SOL    HW2 9672   6.921   1.362   4.964
 2925SOL     OW 9673   5.239   3.609   1.456
 2925SOL    HW1 9674   5.176   3.681   1.429
 2925SOL    HW2 9675   5.202   3.520   1.430
 2926SOL     OW 9676   0.485   1.208   4.742
 2926SOL    HW1 9677   0.432   1.170   4.666
 2926SOL    HW2 9678   0.580   1.178   4.735
 2927SOL     OW 9679   0.745   2.543   2.264
 2927SOL    HW1 9680   0.823   2.534   2.202
 2927SOL    HW2 9681   0.697   2.628   2.245
 2928SOL     OW 9682   6.111   6.678   0.564
 2928SOL    HW1 9683   6.157   6.593   0.539
 2928SOL    HW2 9684   6.057   6.710   0.486
 2929SOL     OW 9685   0.434   6.866   5.900
 2929SOL    HW1 9686   0.389   6.791   5.948
 2929SOL    HW2 9687   0.398   6.872   5.806
 2930SOL     OW 9688   3.620   6.791   4.518
 2930SOL    HW1 9689   3.601   6.739   4.436
 2930SOL    HW2 9690   3.596   6.737   4.599
 2931SOL     OW 9691   4.402   6.450   5.814
 2931SOL    HW1 9692   4.329   6.475   5.750
 2931SOL    HW2 9693   4.484   6.505   5.795
 2932SOL     OW 9694   1.446   4.283   1.437
 2932SOL    HW1 9695   1.462   4.351   1.365
 2932SOL    HW2 9696   1.486   4.315   1.522
 2933SOL     OW 9697   5.054   2.063   3.396
 2933SOL    HW1 9698   5.096   1.991   3.340
 2933SOL    HW2 9699   5.091   2.060   3.489
 2934SOL     OW 9700   2.416   0.898   0.234
 2934SOL    HW1 9701   2.365   0.978   0.201
 2934SOL    HW2 9702   2.441   0.840   0.157
 2935SOL     OW 9703   5.954   2.401   1.180
 2935SOL    HW1 9704   6.039   2.367   1.141
 2935SOL    HW2 9705   5.898   2.324   1.210
 2936SOL     OW 9706   4.562   5.800   0.237
 2936SOL    HW1 9707   4.568   5.842   0.147
 2936SOL    HW2 9708   4.654   5.777   0.269
 2937SOL     OW 9709   3.272   4.552   0.011
 2937SOL    HW1 9710   3.293   4.647   7.012
 2937SOL    HW2 9711   3.356   4.503   0.032
 2938SOL     OW 9712   4.649   5.564   5.152
 2938SOL    HW1 9713   4.647   5.492   5.221
 2938SOL    HW2 9714   4.688   5.647   5.191
 2939SOL     OW 9715   0.003   6.709   5.460
 2939SOL    HW1 9716   0.096   6.675   5.452
 2939SOL    HW2 9717   6.979   6.699   5.372
 2940SOL     OW 9718   5.078   6.784   4.938
 2940SOL    HW1 9719   5.020   6.703   4.941
 2940SOL    HW2 9720   5.122   6.797   5.028
 2941SOL     OW 9721   2.039   2.071   5.555
 2941SOL    HW1 9722   2.104   2.028   5.493
 2941SOL    HW2 9723   2.006   2.003   5.621
 2942SOL     OW 9724   2.940   6.560   3.053
 2942SOL    HW1 9725   2.862   6.619   3.070
 2942SOL    HW2 9726   3.007   6.608   2.995
 2943SOL     OW 9727   6.151   3.751   3.499
 2943SOL    HW1 9728   6.133   3.799   3.585
 2943SOL    HW2 9729   6.076   3.687   3.481
 2944SOL     OW 9730   4.367   5.840   5.683
 2944SOL    HW1 9731   4.383   5.751   5.726
 2944SOL    HW2 9732   4.413   5.843   5.594
 2945SOL     OW 9733   2.987   3.422   3.255
 2945SOL    HW1 9734   2.934   3.506   3.270
 2945SOL    HW2 9735   3.019   3.387   3.343
 2946SOL     OW 9736   6.939   6.114   6.661
 2946SOL    HW1 9737   6.846   6.078   6.649
 2946SOL    HW2 9738   6.968   6.100   6.756
 2947SOL     OW 9739   6.605   4.513   0.574
 2947SOL    HW1 9740   6.659   4.559   0.645
 2947SOL    HW2 9741   6.623   4.555   0.485
 2948SOL     OW 9742   5.889   4.323   4.717
 2948SOL    HW1 9743   5.911   4.415   4.684
 2948SOL    HW2 9744   5.870   4.263   4.640
 2949SOL     OW 9745   1.452   6.617   0.711
 2949SOL    HW1 9746   1.481   6.704   0.669
 2949SOL    HW2 9747   1.529   6.553   0.711
 2950SOL     OW 9748   4.923   3.476   4.098
 2950SOL    HW1 9749   4.827   3.486   4.126
 2950SOL    HW2 9750   4.965   3.566   4.090
 2951SOL     OW 9751   0.404   1.858   1.565
 2951SOL    HW1 9752   0.441   1.817   1.648
 2951SOL    HW2 9753   0.453   1.822   1.486
 2952SOL     OW 9754   1.899   4.110   2.271
 2952SOL    HW1 9755   1.859   4.158   2.349
 2952SOL    HW2 9756   1.828   4.057   2.224
 2953SOL     OW 9757   4.631   2.350   1.861
 2953SOL    HW1 9758   4.660   2.444   1.877
 2953SOL    HW2 9759   4.634   2.299   1.947
 2954SOL     OW 9760   6.337   6.475   2.372
 2954SOL    HW1 9761   6.422   6.450   2.325
 2954SOL    HW2 9762   6.298   6.393   2.415
 2955SOL     OW 9763   0.814   3.136   0.640
 2955SOL    HW1 9764   0.747   3.075   0.682
 2955SOL    HW2 9765   0.766   3.210   0.593
 2956SOL     OW 9766   6.818   5.125   2.794
 2956SOL    HW1 9767   6.893   5.127   2.860
 2956SOL    HW2 9768   6.732   5.149   2.838
 2957SOL     OW 9769   1.154   3.464   2.137
 2957SOL    HW1 9770   1.116   3.455   2.229
 2957SOL    HW2 9771   1.082   3.495   2.075
 2958SOL     OW 9772   1.926   4.507   6.033
 2958SOL    HW1 9773   1.877   4.552   5.959
 2958SOL    HW2 9774   1.876   4.520   6.119
 2959SOL     OW 9775   4.475   5.307   6.960
 2959SOL    HW1 9776   4.516   5.256   6.885
 2959SOL    HW2 9777   4.474   5.404   6.938
 2960SOL     OW 9778   1.720   1.807   0.274
 2960SOL    HW1 9779   1.732   1.847   0.364
 2960SOL    HW2 9780   1.741   1.709   0.277
 2961SOL     OW 9781   5.822   3.531   4.072
 2961SOL    HW1 9782   5.788   3.625   4.066
 2961SOL    HW2 9783   5.863   3.504   3.985
 2962SOL     OW 9784   4.765   0.857   3.278
 2962SOL    HW1 9785   4.779   0.951   3.309
 2962SOL    HW2 9786   4.794   0.794   3.349
 2963SOL     OW 9787   2.298   2.080   4.798
 2963SOL    HW1 9788   2.241   2.117   4.872
 2963SOL    HW2 9789   2.349   2.155   4.755
 2964SOL     OW 9790   3.319   6.154   0.631
 2964SOL    HW1 9791   3.373   6.117   0.555
 2964SOL    HW2 9792   3.224   6.162   0.603
 2965SOL     OW 9793   0.276   1.861   6.294
 2965SOL    HW1 9794   0.293   1.942   6.350
 2965SOL    HW2 9795   0.333   1.865   6.212
 2966SOL     OW 9796   4.757   4.461   3.984
 2966SOL    HW1 9797   4.789   4.445   4.077
 2966SOL    HW2 9798   4.657   4.461   3.982
 2967SOL     OW 9799   6.259   2.791   4.009
 2967SOL    HW1 9800   6.290   2.885   4.020
 2967SOL    HW2 9801   6.169   2.780   4.051
 2968SOL     OW 9802   0.581   4.024   3.670
 2968SOL    HW1 9803   0.525   4.102   3.698
 2968SOL    HW2 9804   0.530   3.967   3.606
 2969SOL     OW 9805   4.830   1.801   4.787
 2969SOL    HW1 9806   4.820   1.900   4.794
 2969SOL    HW2 9807   4.789   1.768   4.702
 2970SOL     OW 9808   0.765   4.121   6.232
 2970SOL    HW1 9809   0.863   4.102   6.239
 2970SOL    HW2 9810   0.726   4.067   6.157
 2971SOL     OW 9811   5.019   2.347   2.662
 2971SOL    HW1 9812   5.044   2.412   2.734
 2971SOL    HW2 9813   5.089   2.276   2.656
 2972SOL     OW 9814   6.707   3.605   5.298
 2972SOL    HW1 9815   6.647   3.649   5.232
 2972SOL    HW2 9816   6.717   3.508   5.274
 2973SOL     OW 9817   5.045   6.400   3.614
 2973SOL    HW1 9818   5.044   6.436   3.520
 2973SOL    HW2 9819   4.990   6.317   3.618
 2974SOL     OW 9820   0.152   3.773   2.727
 2974SOL    HW1 9821   0.221   3.700   2.732
 2974SOL    HW2 9822   0.168   3.838   2.801
 2975SOL     OW 9823   0.025   0.989   5.355
 2975SOL    HW1 9824   0.115   0.992   5.397
 2975SOL    HW2 9825   6.980   0.959   5.423
 2976SOL     OW 9826   3.375   0.226   2.243
 2976SOL    HW1 9827   3.427   0.251   2.162
 2976SOL    HW2 9828   3.438   0.216   2.321
 2977SOL     OW 9829   3.237   6.208   4.060
 2977SOL    HW1 9830   3.238   6.109   4.042
 2977SOL    HW2 9831   3.217   6.256   3.975
 2978SOL     OW 9832   4.806   5.111   0.142
 2978SOL    HW1 9833   4.861   5.190   0.113
 2978SOL    HW2 9834   4.778   5.059   0.061
 2979SOL     OW 9835   3.886   0.420   3.102
 2979SOL    HW1 9836   3.932   0.392   3.185
 2979SOL    HW2 9837   3.949   0.475   3.046
 2980SOL     OW 9838   0.617   5.942   4.351
 2980SOL    HW1 9839   0.644   5.846   4.349
 2980SOL    HW2 9840   0.567   5.965   4.268
 2981SOL     OW 9841   2.448   0.927   5.677
 2981SOL    HW1 9842   2.371   0.953   5.618
 2981SOL    HW2 9843   2.413   0.896   5.765
 2982SOL     OW 9844   5.165   6.442   2.215
 2982SOL    HW1 9845   5.238   6.379   2.188
 2982SOL    HW2 9846   5.128   6.487   2.134
 2983SOL     OW 9847   6.538   0.854   3.653
 2983SOL    HW1 9848   6.541   0.784   3.582
 2983SOL    HW2 9849   6.630   0.891   3.666
 2984SOL     OW 9850   5.580   5.696   1.834
 2984SOL    HW1 9851   5.497   5.642   1.847
 2984SOL    HW2 9852   5.660   5.636   1.838
 2985SOL     OW 9853   6.058   2.187   3.181
 2985SOL    HW1 9854   5.996   2.157   3.108
 2985SOL    HW2 9855   6.143   2.220   3.140
 2986SOL     OW 9856   1.935   3.618   5.135
 2986SOL    HW1 9857   1.993   3.657   5.064
 2986SOL    HW2 9858   1.899   3.691   5.193
 2987SOL     OW 9859   4.225   2.214   4.593
 2987SOL    HW1 9860   4.178   2.208   4.505
 2987SOL    HW2 9861   4.318   2.178   4.583
 2988SOL     OW 9862   1.016   0.583   1.706
 2988SOL    HW1 9863   0.925   0.548   1.728
 2988SOL    HW2 9864   1.072   0.509   1.669
 2989SOL     OW 9865   6.844   5.036   1.369
 2989SOL    HW1 9866   6.795   5.081   1.443
 2989SOL    HW2 9867   6.797   5.052   1.282
 2990SOL     OW 9868   3.948   1.037   1.665
 2990SOL    HW1 9869   3.921   1.015   1.571
 2990SOL    HW2 9870   4.025   1.100   1.664
 2991SOL     OW 9871   6.827   3.639   0.438
 2991SOL    HW1 9872   6.769   3.561   0.415
 2991SOL    HW2 9873   6.826   3.705   0.362
 2992SOL     OW 9874   3.137   5.273   6.396
 2992SOL    HW1 9875   3.055   5.283   6.341
 2992SOL    HW2 9876   3.162   5.361   6.436
 2993SOL     OW 9877   1.556   5.366   1.286
 2993SOL    HW1 9878   1.583   5.405   1.374
 2993SOL    HW2 9879   1.472   5.410   1.254
 2994SOL     OW 9880   4.949   6.712   0.057
 2994SOL    HW1 9881   5.044   6.738   0.071
 2994SOL    HW2 9882   4.942   6.652   7.000
 2995SOL     OW 9883   2.002   1.259   6.246
 2995SOL    HW1 9884   2.017   1.176   6.299
 2995SOL    HW2 9885   1.908   1.259   6.210
 2996SOL     OW 9886   4.217   5.262   6.213
 2996SOL    HW1 9887   4.243   5.190   6.277
 2996SOL    HW2 9888   4.236   5.231   6.119
 2997SOL     OW 9889   5.746   6.619   0.397
 2997SOL    HW1 9890   5.821   6.662   0.347
 2997SOL    HW2 9891   5.783   6.558   0.467
 2998SOL     OW 9892   6.478   5.853   4.616
 2998SOL    HW1 9893   6.471   5.759   4.583
 2998SOL    HW2 9894   6.566   5.892   4.588
 2999SOL     OW 9895   3.217   0.218   3.224
 2999SOL    HW1 9896   3.267   0.259   3.300
 2999SOL    HW2 9897   3.269   0.230   3.140
 3000SOL     OW 9898   1.015   2.834   5.303
 3000SOL    HW1 9899   1.084   2.826   5.374
 3000SOL    HW2 9900   1.026   2.921   5.255
 3001SOL     OW 9901   5.062   6.974   5.729
 3001SOL    HW1 9902   5.026   6.972   5.822
 3001SOL    HW2 9903   5.080   0.046   5.702
 3002SOL     OW 9904   3.770   0.362   5.977
 3002SOL    HW1 9905   3.674   0.387   5.988
 3002SOL    HW2 9906   3.828   0.440   6.004
 3003SOL     OW 9907   2.834   6.621   5.990
 3003SOL    HW1 9908   2.762   6.644   5.923
 3003SOL    HW2 9909   2.865   6.527   5.974
 3004SOL     OW 9910   5.837   2.717   4.432
 3004SOL    HW1 9911   5.923   2.668   4.441
 3004SOL    HW2 9912   5.766   2.671   4.485
 3005SOL     OW 9913   4.413   2.825   1.026
 3005SOL    HW1 9914   4.402   2.741   1.079
 3005SOL    HW2 9915   4.488   2.813   0.961
 3006SOL     OW 9916   5.629   0.790   1.551
 3006SOL    HW1 9917   5.604   0.880   1.517
 3006SOL    HW2 9918   5.632   0.725   1.474
 3007SOL     OW 9919   5.926   5.031   3.239
 3007SOL    HW1 9920   5.873   5.114   3.223
 3007SOL    HW2 9921   5.869   4.964   3.287
 3008SOL     OW 9922   3.443   6.070   5.945
 3008SOL    HW1 9923   3.537   6.059   5.977
 3008SOL    HW2 9924   3.401   5.980   5.935
 3009SOL     OW 9925   1.251   0.101   2.992
 3009SOL    HW1 9926   1.347   0.121   3.016
 3009SOL    HW2 9927   1.196   0.103   3.075
 3010SOL     OW 9928   3.647   6.046   2.586
 3010SOL    HW1 9929   3.695   6.133   2.594
 3010SOL    HW2 9930   3.585   6.035   2.664
 3011SOL     OW 9931   5.330   0.098   6.955
 3011SOL    HW1 9932   5.322   0.196   6.969
 3011SOL    HW2 9933   5.427   0.074   6.946
 3012SOL     OW 9934   0.460   3.828   3.500
 3012SOL    HW1 9935   0.423   3.738   3.480
 3012SOL    HW2 9936   0.432   3.892   3.428
 3013SOL     OW 9937   6.097   5.181   2.632
 3013SOL    HW1 9938   6.060   5.105   2.579
 3013SOL    HW2 9939   6.080   5.166   2.729
 3014SOL     OW 9940   4.752   0.771   4.613
 3014SOL    HW1 9941   4.765   0.680   4.653
 3014SOL    HW2 9942   4.818   0.785   4.540
 3015SOL     OW 9943   3.320   1.923   0.492
 3015SOL    HW1 9944   3.364   1.839   0.525
 3015SOL    HW2 9945   3.221   1.915   0.503
 3016SOL     OW 9946   3.713   6.623   3.279
 3016SOL    HW1 9947   3.723   6.525   3.296
 3016SOL    HW2 9948   3.630   6.656   3.324
 3017SOL     OW 9949   0.183   5.962   1.077
 3017SOL    HW1 9950   0.171   6.005   1.166
 3017SOL    HW2 9951   0.171   5.863   1.086
 3018SOL     OW 9952   3.929   6.213   6.602
 3018SOL    HW1 9953   3.834   6.221   6.632
 3018SOL    HW2 9954   3.982   6.166   6.672
 3019SOL     OW 9955   3.969   6.921   1.337
 3019SOL    HW1 9956   3.931   6.831   1.318
 3019SOL    HW2 9957   3.899   6.991   1.321
 3020SOL     OW 9958   2.230   2.855   1.339
 3020SOL    HW1 9959   2.208   2.787   1.269
 3020SOL    HW2 9960   2.178   2.938   1.322
 3021SOL     OW 9961   2.351   1.872   6.863
 3021SOL    HW1 9962   2.379   1.966   6.878
 3021SOL    HW2 9963   2.384   1.841   6.773
 3022SOL     OW 9964   5.050   6.995   2.942
 3022SOL    HW1 9965   5.002   6.965   3.025
 3022SOL    HW2 9966   5.104   0.054   2.963
 3023SOL     OW 9967   4.815   6.029   2.348
 3023SOL    HW1 9968   4.881   6.060   2.280
 3023SOL    HW2 9969   4.749   6.102   2.366
 3024SOL     OW 9970   3.263   6.800   6.668
 3024SOL    HW1 9971   3.229   6.841   6.753
 3024SOL    HW2 9972   3.307   6.713   6.689
 3025SOL     OW 9973   2.268   2.459   1.347
 3025SOL    HW1 9974   2.338   2.408   1.397
 3025SOL    HW2 9975   2.308   2.504   1.268
 3026SOL     OW 9976   1.991   4.188   0.655
 3026SOL    HW1 9977   1.961   4.216   0.746
 3026SOL    HW2 9978   2.050   4.107   0.663
 3027SOL     OW 9979   1.421   1.845   3.404
 3027SOL    HW1 9980   1.491   1.900   3.450
 3027SOL    HW2 9981   1.360   1.904   3.353
 3028SOL     OW 9982   1.341   6.769   5.731
 3028SOL    HW1 9983   1.288   6.804   5.808
 3028SOL    HW2 9984   1.284   6.709   5.675
 3029SOL     OW 9985   5.412   5.523   5.211
 3029SOL    HW1 9986   5.453   5.446   5.261
 3029SOL    HW2 9987   5.475   5.601   5.213
 3030SOL     OW 9988   1.624   2.193   5.439
 3030SOL    HW1 9989   1.666   2.225   5.524
 3030SOL    HW2 9990   1.532   2.231   5.431
 3031SOL     OW 9991   0.338   4.696   6.340
 3031SOL    HW1 9992   0.289   4.743   6.413
 3031SOL    HW2 9993   0.274   4.640   6.288
 3032SOL     OW 9994   5.083   0.214   5.617
 3032SOL    HW1 9995   5.168   0.265   5.625
 3032SOL    HW2 9996   5.005   0.276   5.629
 3033SOL     OW 9997   6.180   3.698   6.691
 3033SOL    HW1 9998   6.218   3.767   6.753
 3033SOL    HW2 9999   6.215   3.714   6.598
 3034SOL     OW10000   2.819   6.594   4.806
 3034SOL    HW110001   2.913   6.561   4.822
 3034SOL    HW210002   2.811   6.627   4.712
 3035SOL     OW10003   5.657   1.023   7.008
 3035SOL    HW110004   5.658   1.118   0.018
 3035SOL    HW210005   5.740   0.976   0.016
 3036SOL     OW10006   1.082   4.308   0.110
 3036SOL    HW110007   1.019   4.288   0.035
 3036SOL    HW210008   1.175   4.280   0.083
 3037SOL     OW10009   6.565   6.816   4.944
 3037SOL    HW110010   6.560   6.882   4.869
 3037SOL    HW210011   6.659   6.783   4.954
 3038SOL     OW10012   5.395   6.818   6.017
 3038SOL    HW110013   5.338   6.898   6.034
 3038SOL    HW210014   5.362   6.741   6.073
 3039SOL     OW10015   1.242   4.611   1.154
 3039SOL    HW110016   1.190   4.659   1.083
 3039SOL    HW210017   1.188   4.607   1.238
 3040SOL     OW10018   2.728   3.095   6.946
 3040SOL    HW110019   2.772   3.037   6.877
 3040SOL    HW210020   2.729   3.048   0.012
 3041SOL     OW10021   2.171   2.049   6.029
 3041SOL    HW110022   2.076   2.077   6.045
 3041SOL    HW210023   2.215   2.114   5.967
 3042SOL     OW10024   4.555   0.266   2.071
 3042SOL    HW110025   4.487   0.340   2.073
 3042SOL    HW210026   4.529   0.195   2.136
 3043SOL     OW10027   0.686   5.299   0.397
 3043SOL    HW110028   0.740   5.349   0.464
 3043SOL    HW210029   0.601   5.349   0.379
 3044SOL     OW10030   3.302   4.408   6.313
 3044SOL    HW110031   3.368   4.352   6.363
 3044SOL    HW210032   3.336   4.427   6.221
 3045SOL     OW10033   5.363   2.368   2.951
 3045SOL    HW110034   5.434   2.363   2.880
 3045SOL    HW210035   5.334   2.275   2.976
 3046SOL     OW10036   2.169   2.985   5.719
 3046SOL    HW110037   2.174   3.077   5.681
 3046SOL    HW210038   2.229   2.979   5.799
 3047SOL     OW10039   6.328   5.332   2.618
 3047SOL    HW110040   6.362   5.297   2.705
 3047SOL    HW210041   6.241   5.288   2.596
 3048SOL     OW10042   3.377   2.876   1.627
 3048SOL    HW110043   3.434   2.929   1.564
 3048SOL    HW210044   3.330   2.939   1.690
 3049SOL     OW10045   0.543   0.489   2.402
 3049SOL    HW110046   0.500   0.405   2.436
 3049SOL    HW210047   0.516   0.565   2.461
 3050SOL     OW10048   4.365   6.111   4.084
 3050SOL    HW110049   4.286   6.160   4.048
 3050SOL    HW210050   4.425   6.176   4.131
 3051SOL     OW10051   2.583   4.655   6.829
 3051SOL    HW110052   2.628   4.605   6.755
 3051SOL    HW210053   2.498   4.696   6.796
 3052SOL     OW10054   4.519   0.051   3.096
 3052SOL    HW110055   4.503   0.149   3.095
 3052SOL    HW210056   4.548   0.023   3.188
 3053SOL     OW10057   5.816   6.634   0.034
 3053SOL    HW110058   5.735   6.581   0.060
 3053SOL    HW210059   5.831   6.707   0.101
 3054SOL     OW10060   1.189   3.233   6.717
 3054SOL    HW110061   1.157   3.259   6.809
 3054SOL    HW210062   1.286   3.252   6.709
 3055SOL     OW10063   5.811   6.518   3.456
 3055SOL    HW110064   5.743   6.591   3.447
 3055SOL    HW210065   5.888   6.550   3.511
 3056SOL     OW10066   6.856   0.783   0.909
 3056SOL    HW110067   6.896   0.867   0.871
 3056SOL    HW210068   6.893   0.767   1.000
 3057SOL     OW10069   6.037   5.186   2.917
 3057SOL    HW110070   5.954   5.201   2.863
 3057SOL    HW210071   6.032   5.239   3.002
 3058SOL     OW10072   6.509   5.316   1.793
 3058SOL    HW110073   6.590   5.319   1.853
 3058SOL    HW210074   6.445   5.248   1.827
 3059SOL     OW10075   2.029   2.290   4.527
 3059SOL    HW110076   1.961   2.353   4.490
 3059SOL    HW210077   1.991   2.243   4.606
 3060SOL     OW10078   6.767   6.393   1.243
 3060SOL    HW110079   6.690   6.455   1.230
 3060SOL    HW210080   6.852   6.445   1.252
 3061SOL     OW10081   0.383   0.412   6.372
 3061SOL    HW110082   0.318   0.396   6.446
 3061SOL    HW210083   0.475   0.389   6.402
 3062SOL     OW10084   3.332   6.508   0.209
 3062SOL    HW110085   3.391   6.434   0.240
 3062SOL    HW210086   3.247   6.507   0.262
 3063SOL     OW10087   1.838   4.745   1.247
 3063SOL    HW110088   1.883   4.826   1.284
 3063SOL    HW210089   1.808   4.686   1.323
 3064SOL     OW10090   6.308   4.116   3.656
 3064SOL    HW110091   6.370   4.087   3.728
 3064SOL    HW210092   6.234   4.048   3.647
 3065SOL     OW10093   1.718   1.029   0.108
 3065SOL    HW110094   1.628   1.044   0.067
 3065SOL    HW210095   1.707   1.003   0.204
 3066SOL     OW10096   5.846   4.624   1.634
 3066SOL    HW110097   5.830   4.667   1.545
 3066SOL    HW210098   5.779   4.660   1.700
 3067SOL     OW10099   5.151   6.977   4.335
 3067SOL    HW110100   5.134   6.879   4.318
 3067SOL    HW210101   5.140   6.997   4.432
 3068SOL     OW10102   5.927   4.712   0.805
 3068SOL    HW110103   5.968   4.718   0.896
 3068SOL    HW210104   5.988   4.755   0.738
 3069SOL     OW10105   0.720   5.961   2.328
 3069SOL    HW110106   0.681   6.052   2.344
 3069SOL    HW210107   0.708   5.935   2.232
 3070SOL     OW10108   3.888   1.278   3.760
 3070SOL    HW110109   3.964   1.337   3.735
 3070SOL    HW210110   3.909   1.184   3.736
 3071SOL     OW10111   5.328   0.139   3.447
 3071SOL    HW110112   5.411   0.161   3.396
 3071SOL    HW210113   5.258   0.104   3.384
 3072SOL     OW10114   0.564   0.082   2.554
 3072SOL    HW110115   0.502   0.149   2.595
 3072SOL    HW210116   0.557   7.018   2.603
 3073SOL     OW10117   0.973   3.703   5.395
 3073SOL    HW110118   0.884   3.748   5.390
 3073SOL    HW210119   1.017   3.706   5.305
 3074SOL     OW10120   4.498   2.978   6.109
 3074SOL    HW110121   4.595   2.970   6.086
 3074SOL    HW210122   4.453   2.889   6.095
 3075SOL     OW10123   1.559   5.812   1.314
 3075SOL    HW110124   1.612   5.805   1.398
 3075SOL    HW210125   1.604   5.761   1.241
 3076SOL     OW10126   6.689   0.451   4.866
 3076SOL    HW110127   6.645   0.424   4.951
 3076SOL    HW210128   6.787   0.431   4.870
 3077SOL     OW10129   4.850   5.060   3.991
 3077SOL    HW110130   4.830   5.143   4.044
 3077SOL    HW210131   4.940   5.069   3.949
 3078SOL     OW10132   1.657   3.784   1.708
 3078SOL    HW110133   1.753   3.755   1.711
 3078SOL    HW210134   1.638   3.844   1.785
 3079SOL     OW10135   6.986   2.000   5.168
 3079SOL    HW110136   0.048   2.027   5.123
 3079SOL    HW210137   7.002   1.919   5.225
 3080SOL     OW10138   6.571   4.812   0.820
 3080SOL    HW110139   6.640   4.786   0.753
 3080SOL    HW210140   6.609   4.879   0.883
 3081SOL     OW10141   0.270   5.159   5.474
 3081SOL    HW110142   0.287   5.221   5.551
 3081SOL    HW210143   0.207   5.087   5.502
 3082SOL     OW10144   2.997   0.004   2.555
 3082SOL    HW110145   3.035   0.041   2.640
 3082SOL    HW210146   3.070   6.987   2.500
 3083SOL     OW10147   3.285   0.219   1.766
 3083SOL    HW110148   3.198   0.267   1.757
 3083SOL    HW210149   3.273   0.140   1.827
 3084SOL     OW10150   5.214   5.859   4.735
 3084SOL    HW110151   5.304   5.830   4.704
 3084SOL    HW210152   5.151   5.782   4.733
 3085SOL     OW10153   0.605   5.650   2.331
 3085SOL    HW110154   0.556   5.675   2.414
 3085SOL    HW210155   0.703   5.642   2.351
 3086SOL     OW10156   4.531   0.982   3.542
 3086SOL    HW110157   4.541   0.997   3.443
 3086SOL    HW210158   4.622   0.974   3.583
 3087SOL     OW10159   6.749   3.592   2.923
 3087SOL    HW110160   6.693   3.616   3.002
 3087SOL    HW210161   6.729   3.498   2.896
 3088SOL     OW10162   2.766   4.935   6.058
 3088SOL    HW110163   2.718   4.931   5.970
 3088SOL    HW210164   2.713   4.885   6.127
 3089SOL     OW10165   1.935   2.860   0.513
 3089SOL    HW110166   1.903   2.951   0.486
 3089SOL    HW210167   1.982   2.817   0.436
 3090SOL     OW10168   1.100   1.805   1.218
 3090SOL    HW110169   1.068   1.836   1.308
 3090SOL    HW210170   1.154   1.878   1.174
 3091SOL     OW10171   3.095   6.761   0.471
 3091SOL    HW110172   3.195   6.760   0.477
 3091SOL    HW210173   3.067   6.817   0.393
 3092SOL     OW10174   5.798   6.734   0.905
 3092SOL    HW110175   5.810   6.803   0.834
 3092SOL    HW210176   5.708   6.745   0.947
 3093SOL     OW10177   5.128   5.560   4.779
 3093SOL    HW110178   5.082   5.584   4.864
 3093SOL    HW210179   5.213   5.511   4.799
 3094SOL     OW10180   2.894   5.618   6.121
 3094SOL    HW110181   2.800   5.582   6.121
 3094SOL    HW210182   2.927   5.624   6.026
 3095SOL     OW10183   2.866   4.924   4.975
 3095SOL    HW110184   2.858   4.825   4.979
 3095SOL    HW210185   2.961   4.950   4.956
 3096SOL     OW10186   0.727   0.976   5.867
 3096SOL    HW110187   0.797   0.946   5.803
 3096SOL    HW210188   0.771   1.013   5.949
 3097SOL     OW10189   1.540   3.034   6.982
 3097SOL    HW110190   1.445   3.043   6.952
 3097SOL    HW210191   1.550   3.067   0.053
 3098SOL     OW10192   3.038   2.190   0.656
 3098SOL    HW110193   2.953   2.225   0.616
 3098SOL    HW210194   3.113   2.201   0.591
 3099SOL     OW10195   0.646   5.603   5.661
 3099SOL    HW110196   0.700   5.519   5.662
 3099SOL    HW210197   0.549   5.580   5.670
 3100SOL     OW10198   0.059   0.110   6.685
 3100SOL    HW110199   7.014   0.126   6.757
 3100SOL    HW210200   0.133   0.053   6.720
 3101SOL     OW10201   4.502   0.086   0.431
 3101SOL    HW110202   4.449   0.058   0.512
 3101SOL    HW210203   4.452   0.156   0.381
 3102SOL     OW10204   1.926   4.349   1.174
 3102SOL    HW110205   1.830   4.327   1.156
 3102SOL    HW210206   1.945   4.442   1.145
 3103SOL     OW10207   4.022   3.042   2.042
 3103SOL    HW110208   4.083   2.963   2.050
 3103SOL    HW210209   3.929   3.014   2.068
 3104SOL     OW10210   6.284   5.805   4.211
 3104SOL    HW110211   6.236   5.838   4.130
 3104SOL    HW210212   6.359   5.866   4.232
 3105SOL     OW10213   5.821   6.376   4.345
 3105SOL    HW110214   5.893   6.342   4.284
 3105SOL    HW210215   5.801   6.307   4.415
 3106SOL     OW10216   6.959   2.330   3.695
 3106SOL    HW110217   0.015   2.384   3.727
 3106SOL    HW210218   6.992   2.242   3.660
 3107SOL     OW10219   2.855   0.584   3.860
 3107SOL    HW110220   2.931   0.523   3.835
 3107SOL    HW210221   2.769   0.532   3.858
 3108SOL     OW10222   3.014   1.065   3.184
 3108SOL    HW110223   3.081   1.121   3.135
 3108SOL    HW210224   2.965   1.007   3.119
 3109SOL     OW10225   4.396   5.454   2.849
 3109SOL    HW110226   4.453   5.424   2.926
 3109SOL    HW210227   4.433   5.416   2.764
 3110SOL     OW10228   1.065   2.992   2.539
 3110SOL    HW110229   1.031   2.924   2.474
 3110SOL    HW210230   1.075   3.080   2.493
 3111SOL     OW10231   6.952   5.263   3.681
 3111SOL    HW110232   7.003   5.306   3.607
 3111SOL    HW210233   7.013   5.207   3.736
 3112SOL     OW10234   4.505   4.201   6.294
 3112SOL    HW110235   4.520   4.105   6.316
 3112SOL    HW210236   4.581   4.234   6.237
 3113SOL     OW10237   2.734   6.619   3.930
 3113SOL    HW110238   2.662   6.550   3.937
 3113SOL    HW210239   2.784   6.606   3.844
 3114SOL     OW10240   6.518   5.193   0.913
 3114SOL    HW110241   6.426   5.224   0.936
 3114SOL    HW210242   6.569   5.175   0.997
 3115SOL     OW10243   2.875   3.671   1.106
 3115SOL    HW110244   2.972   3.647   1.114
 3115SOL    HW210245   2.832   3.667   1.197
 3116SOL     OW10246   6.776   2.542   0.549
 3116SOL    HW110247   6.698   2.547   0.612
 3116SOL    HW210248   6.814   2.449   0.551
 3117SOL     OW10249   3.860   3.332   5.427
 3117SOL    HW110250   3.782   3.301   5.482
 3117SOL    HW210251   3.918   3.392   5.482
 3118SOL     OW10252   6.446   3.741   1.001
 3118SOL    HW110253   6.360   3.766   1.046
 3118SOL    HW210254   6.457   3.642   1.003
 3119SOL     OW10255   2.040   4.368   5.566
 3119SOL    HW110256   2.096   4.320   5.633
 3119SOL    HW210257   2.049   4.467   5.580
 3120SOL     OW10258   2.873   5.413   5.079
 3120SOL    HW110259   2.931   5.494   5.070
 3120SOL    HW210260   2.891   5.350   5.004
 3121SOL     OW10261   6.543   0.136   2.093
 3121SOL    HW110262   6.579   0.230   2.090
 3121SOL    HW210263   6.516   0.108   2.001
 3122SOL     OW10264   3.095   5.419   0.139
 3122SOL    HW110265   3.120   5.336   0.090
 3122SOL    HW210266   3.010   5.404   0.189
 3123SOL     OW10267   3.314   6.291   3.554
 3123SOL    HW110268   3.305   6.223   3.482
 3123SOL    HW210269   3.384   6.358   3.528
 3124SOL     OW10270   4.000   1.122   5.669
 3124SOL    HW110271   3.916   1.104   5.619
 3124SOL    HW210272   4.073   1.148   5.606
 3125SOL     OW10273   0.129   1.579   5.965
 3125SOL    HW110274   0.050   1.530   6.000
 3125SOL    HW210275   0.136   1.566   5.866
 3126SOL     OW10276   4.803   6.340   0.198
 3126SOL    HW110277   4.892   6.384   0.204
 3126SOL    HW210278   4.772   6.312   0.289
 3127SOL     OW10279   0.594   1.653   4.169
 3127SOL    HW110280   0.585   1.753   4.163
 3127SOL    HW210281   0.549   1.611   4.091
 3128SOL     OW10282   1.704   1.300   1.326
 3128SOL    HW110283   1.778   1.244   1.363
 3128SOL    HW210284   1.671   1.363   1.396
 3129SOL     OW10285   0.590   3.452   5.132
 3129SOL    HW110286   0.648   3.403   5.196
 3129SOL    HW210287   0.535   3.387   5.080
 3130SOL     OW10288   1.754   5.156   2.499
 3130SOL    HW110289   1.668   5.134   2.454
 3130SOL    HW210290   1.808   5.216   2.441
 3131SOL     OW10291   6.993   3.464   3.230
 3131SOL    HW110292   6.928   3.416   3.170
 3131SOL    HW210293   0.026   3.397   3.279
 3132SOL     OW10294   5.877   5.863   5.800
 3132SOL    HW110295   5.921   5.873   5.711
 3132SOL    HW210296   5.854   5.953   5.837
 3133SOL     OW10297   2.748   1.990   3.074
 3133SOL    HW110298   2.782   2.073   3.118
 3133SOL    HW210299   2.819   1.952   3.014
 3134SOL     OW10300   4.894   3.078   2.184
 3134SOL    HW110301   4.853   3.093   2.274
 3134SOL    HW210302   4.844   3.005   2.138
 3135SOL     OW10303   3.423   1.869   3.161
 3135SOL    HW110304   3.342   1.899   3.211
 3135SOL    HW210305   3.432   1.770   3.170
 3136SOL     OW10306   5.638   6.098   5.616
 3136SOL    HW110307   5.670   6.078   5.709
 3136SOL    HW210308   5.707   6.066   5.550
 3137SOL     OW10309   5.567   2.062   3.854
 3137SOL    HW110310   5.522   2.127   3.915
 3137SOL    HW210311   5.547   2.085   3.759
 3138SOL     OW10312   5.728   1.163   4.965
 3138SOL    HW110313   5.706   1.258   4.987
 3138SOL    HW210314   5.827   1.155   4.948
 3139SOL     OW10315   5.137   5.890   5.570
 3139SOL    HW110316   5.095   5.954   5.635
 3139SOL    HW210317   5.234   5.912   5.560
 3140SOL     OW10318   6.430   5.904   6.812
 3140SOL    HW110319   6.433   5.806   6.830
 3140SOL    HW210320   6.370   5.949   6.877
 3141SOL     OW10321   1.252   5.314   6.961
 3141SOL    HW110322   1.159   5.350   6.964
 3141SOL    HW210323   1.311   5.369   7.021
 3142SOL     OW10324   4.311   6.312   6.651
 3142SOL    HW110325   4.329   6.231   6.707
 3142SOL    HW210326   4.251   6.287   6.575
 3143SOL     OW10327   6.362   1.309   0.843
 3143SOL    HW110328   6.410   1.373   0.904
 3143SOL    HW210329   6.354   1.220   0.887
 3144SOL     OW10330   2.153   3.206   6.426
 3144SOL    HW110331   2.131   3.228   6.521
 3144SOL    HW210332   2.124   3.282   6.367
 3145SOL     OW10333   3.423   5.997   3.075
 3145SOL    HW110334   3.439   5.900   3.095
 3145SOL    HW210335   3.325   6.013   3.064
 3146SOL     OW10336   1.356   0.206   3.303
 3146SOL    HW110337   1.354   0.107   3.293
 3146SOL    HW210338   1.266   0.238   3.334
 3147SOL     OW10339   4.844   4.131   0.288
 3147SOL    HW110340   4.757   4.095   0.321
 3147SOL    HW210341   4.918   4.071   0.318
 3148SOL     OW10342   3.243   5.237   4.538
 3148SOL    HW110343   3.238   5.194   4.628
 3148SOL    HW210344   3.337   5.264   4.519
 3149SOL     OW10345   3.787   6.744   5.769
 3149SOL    HW110346   3.752   6.823   5.819
 3149SOL    HW210347   3.886   6.749   5.763
 3150SOL     OW10348   5.652   6.988   4.803
 3150SOL    HW110349   5.673   6.967   4.707
 3150SOL    HW210350   5.713   6.935   4.862
 3151SOL     OW10351   4.440   1.301   5.859
 3151SOL    HW110352   4.478   1.209   5.871
 3151SOL    HW210353   4.391   1.327   5.942
 3152SOL     OW10354   1.755   5.804   0.849
 3152SOL    HW110355   1.849   5.792   0.818
 3152SOL    HW210356   1.741   5.898   0.879
 3153SOL     OW10357   0.140   4.327   2.189
 3153SOL    HW110358   0.082   4.299   2.264
 3153SOL    HW210359   0.227   4.277   2.193
 3154SOL     OW10360   6.061   2.544   6.264
 3154SOL    HW110361   6.080   2.579   6.173
 3154SOL    HW210362   5.964   2.520   6.272
 3155SOL     OW10363   5.632   5.618   0.782
 3155SOL    HW110364   5.567   5.626   0.707
 3155SOL    HW210365   5.584   5.588   0.864
 3156SOL     OW10366   3.382   3.682   3.906
 3156SOL    HW110367   3.459   3.716   3.959
 3156SOL    HW210368   3.364   3.744   3.829
 3157SOL     OW10369   2.042   3.665   4.696
 3157SOL    HW110370   2.021   3.572   4.728
 3157SOL    HW210371   1.959   3.721   4.701
 3158SOL     OW10372   4.976   6.504   0.548
 3158SOL    HW110373   5.004   6.409   0.534
 3158SOL    HW210374   4.877   6.509   0.555
 3159SOL     OW10375   5.284   4.852   0.655
 3159SOL    HW110376   5.250   4.782   0.593
 3159SOL    HW210377   5.225   4.857   0.735
 3160SOL     OW10378   5.743   3.844   0.035
 3160SOL    HW110379   5.767   3.912   0.105
 3160SOL    HW210380   5.803   3.855   6.978
 3161SOL     OW10381   0.990   2.289   2.990
 3161SOL    HW110382   0.984   2.389   2.982
 3161SOL    HW210383   0.929   2.246   2.924
 3162SOL     OW10384   0.262   6.239   6.412
 3162SOL    HW110385   0.176   6.196   6.439
 3162SOL    HW210386   0.259   6.262   6.314
 3163SOL     OW10387   2.750   3.667   5.948
 3163SOL    HW110388   2.667   3.710   5.911
 3163SOL    HW210389   2.828   3.728   5.933
 3164SOL     OW10390   5.514   5.456   6.903
 3164SOL    HW110391   5.450   5.441   6.978
 3164SOL    HW210392   5.488   5.538   6.853
 3165SOL     OW10393   6.836   1.969   1.685
 3165SOL    HW110394   6.888   1.953   1.601
 3165SOL    HW210395   6.899   1.994   1.759
 3166SOL     OW10396   5.049   3.003   6.289
 3166SOL    HW110397   5.089   2.914   6.269
 3166SOL    HW210398   5.013   3.004   6.382
 3167SOL     OW10399   1.329   4.868   2.207
 3167SOL    HW110400   1.425   4.842   2.196
 3167SOL    HW210401   1.323   4.954   2.257
 3168SOL     OW10402   5.581   3.533   1.148
 3168SOL    HW110403   5.519   3.582   1.210
 3168SOL    HW210404   5.654   3.593   1.118
 3169SOL     OW10405   1.624   2.184   5.738
 3169SOL    HW110406   1.601   2.093   5.773
 3169SOL    HW210407   1.540   2.238   5.730
 3170SOL     OW10408   4.243   0.824   6.555
 3170SOL    HW110409   4.147   0.853   6.565
 3170SOL    HW210410   4.294   0.894   6.506
 3171SOL     OW10411   5.976   6.730   3.277
 3171SOL    HW110412   5.932   6.793   3.213
 3171SOL    HW210413   5.940   6.747   3.369
 3172SOL     OW10414   6.044   0.354   5.182
 3172SOL    HW110415   6.066   0.267   5.138
 3172SOL    HW210416   5.957   0.388   5.146
 3173SOL     OW10417   2.036   0.819   1.636
 3173SOL    HW110418   1.993   0.772   1.559
 3173SOL    HW210419   2.120   0.864   1.606
 3174SOL     OW10420   2.154   3.244   6.022
 3174SOL    HW110421   2.093   3.173   6.055
 3174SOL    HW210422   2.152   3.322   6.085
 3175SOL     OW10423   0.872   0.016   0.360
 3175SOL    HW110424   0.831   0.049   0.445
 3175SOL    HW210425   0.810   0.034   0.284
 3176SOL     OW10426   0.395   4.995   6.901
 3176SOL    HW110427   0.491   4.987   6.926
 3176SOL    HW210428   0.340   5.004   6.985
 3177SOL     OW10429   6.309   6.804   5.895
 3177SOL    HW110430   6.241   6.877   5.900
 3177SOL    HW210431   6.281   6.737   5.826
 3178SOL     OW10432   1.460   3.158   1.632
 3178SOL    HW110433   1.510   3.082   1.674
 3178SOL    HW210434   1.459   3.236   1.696
 3179SOL     OW10435   2.139   1.662   2.907
 3179SOL    HW110436   2.177   1.577   2.871
 3179SOL    HW210437   2.204   1.737   2.892
 3180SOL     OW10438   6.192   0.859   6.224
 3180SOL    HW110439   6.106   0.864   6.173
 3180SOL    HW210440   6.264   0.906   6.173
 3181SOL     OW10441   0.319   1.327   2.801
 3181SOL    HW110442   0.408   1.284   2.787
 3181SOL    HW210443   0.323   1.423   2.773
 3182SOL     OW10444   1.686   4.740   5.392
 3182SOL    HW110445   1.754   4.683   5.346
 3182SOL    HW210446   1.605   4.750   5.334
 3183SOL     OW10447   3.841   3.534   1.675
 3183SOL    HW110448   3.845   3.614   1.615
 3183SOL    HW210449   3.876   3.558   1.766
 3184SOL     OW10450   2.339   1.378   2.423
 3184SOL    HW110451   2.294   1.311   2.364
 3184SOL    HW210452   2.271   1.418   2.485
 3185SOL     OW10453   6.894   6.509   5.880
 3185SOL    HW110454   6.972   6.557   5.920
 3185SOL    HW210455   6.872   6.550   5.791
 3186SOL     OW10456   3.355   0.648   1.961
 3186SOL    HW110457   3.310   0.732   1.932
 3186SOL    HW210458   3.442   0.670   2.005
 3187SOL     OW10459   2.931   4.175   0.179
 3187SOL    HW110460   2.834   4.154   0.183
 3187SOL    HW210461   2.946   4.252   0.117
 3188SOL     OW10462   4.081   6.425   3.384
 3188SOL    HW110463   3.995   6.380   3.361
 3188SOL    HW210464   4.157   6.364   3.362
 3189SOL     OW10465   1.524   6.823   2.210
 3189SOL    HW110466   1.552   6.729   2.226
 3189SOL    HW210467   1.546   6.879   2.290
 3190SOL     OW10468   0.529   6.363   2.015
 3190SOL    HW110469   0.616   6.327   2.048
 3190SOL    HW210470   0.524   6.461   2.033
 3191SOL     OW10471   3.632   0.796   1.012
 3191SOL    HW110472   3.577   0.712   1.013
 3191SOL    HW210473   3.600   0.856   0.939
 3192SOL     OW10474   6.879   3.113   3.286
 3192SOL    HW110475   6.883   3.014   3.298
 3192SOL    HW210476   6.969   3.152   3.304
 3193SOL     OW10477   4.450   3.902   6.562
 3193SOL    HW110478   4.353   3.899   6.535
 3193SOL    HW210479   4.507   3.882   6.483
 3194SOL     OW10480   0.313   3.416   5.802
 3194SOL    HW110481   0.261   3.338   5.837
 3194SOL    HW210482   0.382   3.384   5.738
 3195SOL     OW10483   0.615   3.598   3.576
 3195SOL    HW110484   0.523   3.638   3.573
 3195SOL    HW210485   0.623   3.539   3.657
 3196SOL     OW10486   0.265   0.138   5.572
 3196SOL    HW110487   0.167   0.142   5.591
 3196SOL    HW210488   0.316   0.147   5.658
 3197SOL     OW10489   1.290   4.177   4.330
 3197SOL    HW110490   1.223   4.248   4.354
 3197SOL    HW210491   1.371   4.220   4.290
 3198SOL     OW10492   6.831   1.372   0.226
 3198SOL    HW110493   6.899   1.299   0.229
 3198SOL    HW210494   6.823   1.406   0.132
 3199SOL     OW10495   3.727   2.107   2.646
 3199SOL    HW110496   3.689   2.099   2.554
 3199SOL    HW210497   3.826   2.092   2.643
 3200SOL     OW10498   6.706   2.212   1.251
 3200SOL    HW110499   6.775   2.285   1.250
 3200SOL    HW210500   6.691   2.182   1.345
 3201SOL     OW10501   4.876   4.382   3.007
 3201SOL    HW110502   4.946   4.312   3.013
 3201SOL    HW210503   4.909   4.467   3.049
 3202SOL     OW10504   2.203   5.603   1.579
 3202SOL    HW110505   2.189   5.572   1.485
 3202SOL    HW210506   2.175   5.531   1.643
 3203SOL     OW10507   6.468   0.377   1.774
 3203SOL    HW110508   6.434   0.459   1.820
 3203SOL    HW210509   6.434   0.376   1.680
 3204SOL     OW10510   5.992   5.383   1.805
 3204SOL    HW110511   5.965   5.392   1.709
 3204SOL    HW210512   6.085   5.347   1.810
 3205SOL     OW10513   1.258   4.085   3.321
 3205SOL    HW110514   1.324   4.154   3.291
 3205SOL    HW210515   1.307   4.004   3.354
 3206SOL     OW10516   1.199   0.147   0.094
 3206SOL    HW110517   1.287   0.177   0.129
 3206SOL    HW210518   1.169   0.065   0.144
 3207SOL     OW10519   0.190   0.842   3.954
 3207SOL    HW110520   0.127   0.893   4.013
 3207SOL    HW210521   0.241   0.776   4.009
 3208SOL     OW10522   5.960   0.231   4.917
 3208SOL    HW110523   5.862   0.239   4.936
 3208SOL    HW210524   5.984   0.295   4.843
 3209SOL     OW10525   2.188   0.673   3.190
 3209SOL    HW110526   2.256   0.601   3.206
 3209SOL    HW210527   2.194   0.740   3.263
 3210SOL     OW10528   0.248   4.712   2.876
 3210SOL    HW110529   0.205   4.650   2.811
 3210SOL    HW210530   0.214   4.805   2.861
 3211SOL     OW10531   1.456   4.160   2.161
 3211SOL    HW110532   1.380   4.122   2.109
 3211SOL    HW210533   1.453   4.125   2.255
 3212SOL     OW10534   4.641   2.639   6.007
 3212SOL    HW110535   4.678   2.565   5.949
 3212SOL    HW210536   4.583   2.698   5.952
 3213SOL     OW10537   5.613   6.126   1.710
 3213SOL    HW110538   5.665   6.169   1.636
 3213SOL    HW210539   5.673   6.108   1.788
 3214SOL     OW10540   3.953   4.832   6.204
 3214SOL    HW110541   3.884   4.837   6.276
 3214SOL    HW210542   4.040   4.803   6.244
 3215SOL     OW10543   6.204   1.298   0.100
 3215SOL    HW110544   6.250   1.220   0.056
 3215SOL    HW210545   6.270   1.371   0.116
 3216SOL     OW10546   5.562   6.664   4.559
 3216SOL    HW110547   5.491   6.653   4.490
 3216SOL    HW210548   5.595   6.575   4.589
 3217SOL     OW10549   0.019   3.751   1.258
 3217SOL    HW110550   0.102   3.705   1.289
 3217SOL    HW210551   6.963   3.716   1.310
 3218SOL     OW10552   2.938   0.705   2.301
 3218SOL    HW110553   2.934   0.671   2.207
 3218SOL    HW210554   2.960   0.803   2.300
 3219SOL     OW10555   6.709   0.083   4.018
 3219SOL    HW110556   6.631   0.105   4.077
 3219SOL    HW210557   6.755   0.000   4.051
 3220SOL     OW10558   6.095   3.099   5.310
 3220SOL    HW110559   6.060   3.106   5.403
 3220SOL    HW210560   6.069   3.180   5.258
 3221SOL     OW10561   4.109   0.095   2.755
 3221SOL    HW110562   4.125   0.008   2.802
 3221SOL    HW210563   4.011   0.105   2.737
 3222SOL     OW10564   5.789   3.793   3.102
 3222SOL    HW110565   5.876   3.744   3.103
 3222SOL    HW210566   5.732   3.757   3.029
 3223SOL     OW10567   2.216   4.906   5.135
 3223SOL    HW110568   2.279   4.938   5.206
 3223SOL    HW210569   2.215   4.806   5.134
 3224SOL     OW10570   4.317   5.939   0.257
 3224SOL    HW110571   4.393   5.875   0.272
 3224SOL    HW210572   4.251   5.931   0.332
 3225SOL     OW10573   2.370   2.591   1.136
 3225SOL    HW110574   2.278   2.618   1.109
 3225SOL    HW210575   2.419   2.672   1.169
 3226SOL     OW10576   0.606   0.517   4.132
 3226SOL    HW110577   0.572   0.498   4.040
 3226SOL    HW210578   0.549   0.469   4.199
 3227SOL     OW10579   2.811   0.772   5.425
 3227SOL    HW110580   2.814   0.816   5.515
 3227SOL    HW210581   2.870   0.823   5.362
 3228SOL     OW10582   4.911   3.046   4.997
 3228SOL    HW110583   4.899   3.088   5.088
 3228SOL    HW210584   4.946   2.953   5.008
 3229SOL     OW10585   3.873   2.071   4.926
 3229SOL    HW110586   3.873   1.973   4.907
 3229SOL    HW210587   3.954   2.113   4.885
 3230SOL     OW10588   0.741   0.734   3.419
 3230SOL    HW110589   0.818   0.754   3.358
 3230SOL    HW210590   0.687   0.817   3.433
 3231SOL     OW10591   5.990   5.343   0.827
 3231SOL    HW110592   5.890   5.346   0.818
 3231SOL    HW210593   6.021   5.249   0.812
 3232SOL     OW10594   1.966   4.694   3.717
 3232SOL    HW110595   1.913   4.609   3.721
 3232SOL    HW210596   1.911   4.770   3.750
 3233SOL     OW10597   1.174   4.080   1.225
 3233SOL    HW110598   1.223   4.163   1.199
 3233SOL    HW210599   1.239   4.010   1.254
 3234SOL     OW10600   6.573   1.503   4.287
 3234SOL    HW110601   6.632   1.553   4.224
 3234SOL    HW210602   6.579   1.544   4.378
 3235SOL     OW10603   5.678   0.568   3.118
 3235SOL    HW110604   5.746   0.568   3.192
 3235SOL    HW210605   5.706   0.504   3.047
 3236SOL     OW10606   0.366   2.885   2.396
 3236SOL    HW110607   0.463   2.899   2.375
 3236SOL    HW210608   0.351   2.790   2.422
 3237SOL     OW10609   3.311   6.530   4.379
 3237SOL    HW110610   3.273   6.562   4.293
 3237SOL    HW210611   3.406   6.502   4.366
 3238SOL     OW10612   6.504   6.914   6.635
 3238SOL    HW110613   6.582   6.861   6.602
 3238SOL    HW210614   6.526   7.012   6.630
 3239SOL     OW10615   0.320   6.561   5.989
 3239SOL    HW110616   0.369   6.498   5.929
 3239SOL    HW210617   0.363   6.560   6.080
 3240SOL     OW10618   0.405   0.828   4.644
 3240SOL    HW110619   0.497   0.821   4.682
 3240SOL    HW210620   0.384   0.923   4.624
 3241SOL     OW10621   4.880   1.247   5.101
 3241SOL    HW110622   4.978   1.239   5.117
 3241SOL    HW210623   4.863   1.264   5.004
 3242SOL     OW10624   3.037   6.221   0.580
 3242SOL    HW110625   3.025   6.137   0.633
 3242SOL    HW210626   3.039   6.299   0.642
 3243SOL     OW10627   3.138   5.639   0.472
 3243SOL    HW110628   3.178   5.580   0.543
 3243SOL    HW210629   3.039   5.639   0.481
 3244SOL     OW10630   2.436   5.929   6.090
 3244SOL    HW110631   2.453   5.888   6.001
 3244SOL    HW210632   2.524   5.950   6.134
 3245SOL     OW10633   3.244   1.821   5.906
 3245SOL    HW110634   3.294   1.813   5.992
 3245SOL    HW210635   3.181   1.899   5.912
 3246SOL     OW10636   5.131   6.670   3.876
 3246SOL    HW110637   5.218   6.719   3.871
 3246SOL    HW210638   5.138   6.584   3.826
 3247SOL     OW10639   6.966   1.668   4.289
 3247SOL    HW110640   0.009   1.738   4.316
 3247SOL    HW210641   6.965   1.595   4.357
 3248SOL     OW10642   6.258   4.159   2.170
 3248SOL    HW110643   6.261   4.257   2.151
 3248SOL    HW210644   6.169   4.122   2.143
 3249SOL     OW10645   2.946   4.297   5.293
 3249SOL    HW110646   2.949   4.387   5.249
 3249SOL    HW210647   2.856   4.256   5.278
 3250SOL     OW10648   4.235   6.052   1.841
 3250SOL    HW110649   4.290   5.982   1.885
 3250SOL    HW210650   4.149   6.011   1.808
 3251SOL     OW10651   3.090   1.108   3.444
 3251SOL    HW110652   3.099   1.101   3.345
 3251SOL    HW210653   3.128   1.195   3.476
 3252SOL     OW10654   3.109   2.202   3.143
 3252SOL    HW110655   3.096   2.215   3.045
 3252SOL    HW210656   3.038   2.251   3.194
 3253SOL     OW10657   4.541   3.596   0.929
 3253SOL    HW110658   4.534   3.545   0.843
 3253SOL    HW210659   4.449   3.622   0.960
 3254SOL     OW10660   4.992   4.857   2.355
 3254SOL    HW110661   5.027   4.807   2.276
 3254SOL    HW210662   4.936   4.796   2.411
 3255SOL     OW10663   4.358   4.656   0.718
 3255SOL    HW110664   4.433   4.635   0.655
 3255SOL    HW210665   4.313   4.571   0.745
 3256SOL     OW10666   6.204   6.470   5.981
 3256SOL    HW110667   6.205   6.485   5.882
 3256SOL    HW210668   6.205   6.558   6.028
 3257SOL     OW10669   2.422   1.889   1.031
 3257SOL    HW110670   2.323   1.881   1.043
 3257SOL    HW210671   2.458   1.803   0.995
 3258SOL     OW10672   5.698   6.481   1.672
 3258SOL    HW110673   5.643   6.488   1.589
 3258SOL    HW210674   5.642   6.507   1.751
 3259SOL     OW10675   5.737   6.530   3.117
 3259SOL    HW110676   5.801   6.573   3.182
 3259SOL    HW210677   5.654   6.502   3.166
 3260SOL     OW10678   1.570   3.200   0.188
 3260SOL    HW110679   1.487   3.173   0.237
 3260SOL    HW210680   1.553   3.285   0.138
 3261SOL     OW10681   4.649   0.401   3.634
 3261SOL    HW110682   4.616   0.362   3.548
 3261SOL    HW210683   4.640   0.332   3.706
 3262SOL     OW10684   3.716   1.397   3.925
 3262SOL    HW110685   3.769   1.349   3.855
 3262SOL    HW210686   3.691   1.488   3.892
 3263SOL     OW10687   3.453   5.410   2.140
 3263SOL    HW110688   3.517   5.381   2.211
 3263SOL    HW210689   3.399   5.487   2.173
 3264SOL     OW10690   4.818   4.516   6.061
 3264SOL    HW110691   4.821   4.417   6.047
 3264SOL    HW210692   4.780   4.536   6.152
 3265SOL     OW10693   4.735   0.871   6.204
 3265SOL    HW110694   4.811   0.856   6.141
 3265SOL    HW210695   4.663   0.803   6.186
 3266SOL     OW10696   0.485   1.626   6.363
 3266SOL    HW110697   0.439   1.613   6.275
 3266SOL    HW210698   0.441   1.568   6.432
 3267SOL     OW10699   4.757   2.549   1.182
 3267SOL    HW110700   4.746   2.614   1.258
 3267SOL    HW210701   4.783   2.599   1.099
 3268SOL     OW10702   1.241   4.477   6.495
 3268SOL    HW110703   1.177   4.517   6.430
 3268SOL    HW210704   1.194   4.457   6.581
 3269SOL     OW10705   5.063   3.485   0.452
 3269SOL    HW110706   5.159   3.510   0.441
 3269SOL    HW210707   5.009   3.565   0.478
 3270SOL     OW10708   0.166   5.589   4.662
 3270SOL    HW110709   0.141   5.493   4.678
 3270SOL    HW210710   0.187   5.602   4.565
 3271SOL     OW10711   5.782   1.674   1.337
 3271SOL    HW110712   5.739   1.761   1.361
 3271SOL    HW210713   5.880   1.688   1.322
 3272SOL     OW10714   5.051   6.871   0.349
 3272SOL    HW110715   5.092   6.782   0.370
 3272SOL    HW210716   5.072   6.896   0.254
 3273SOL     OW10717   0.120   6.996   2.913
 3273SOL    HW110718   0.056   7.017   2.988
 3273SOL    HW210719   0.166   6.909   2.933
 3274SOL     OW10720   3.554   1.680   6.906
 3274SOL    HW110721   3.528   1.692   7.002
 3274SOL    HW210722   3.563   1.582   6.886
 3275SOL     OW10723   3.877   0.578   6.996
 3275SOL    HW110724   3.869   0.532   6.907
 3275SOL    HW210725   3.972   0.572   0.005
 3276SOL     OW10726   2.706   6.445   0.252
 3276SOL    HW110727   2.679   6.395   0.335
 3276SOL    HW210728   2.697   6.385   0.173
 3277SOL     OW10729   0.144   6.174   5.681
 3277SOL    HW110730   0.194   6.227   5.750
 3277SOL    HW210731   0.144   6.224   5.594
 3278SOL     OW10732   1.470   1.186   0.588
 3278SOL    HW110733   1.511   1.203   0.499
 3278SOL    HW210734   1.501   1.098   0.624
 3279SOL     OW10735   1.937   6.743   1.136
 3279SOL    HW110736   1.964   6.800   1.058
 3279SOL    HW210737   1.917   6.801   1.215
 3280SOL     OW10738   1.871   5.595   4.810
 3280SOL    HW110739   1.786   5.618   4.858
 3280SOL    HW210740   1.854   5.591   4.712
 3281SOL     OW10741   2.701   6.043   0.406
 3281SOL    HW110742   2.632   5.976   0.379
 3281SOL    HW210743   2.655   6.127   0.437
 3282SOL     OW10744   2.051   5.873   2.349
 3282SOL    HW110745   1.971   5.835   2.302
 3282SOL    HW210746   2.095   5.802   2.404
 3283SOL     OW10747   2.044   0.305   3.898
 3283SOL    HW110748   1.960   0.299   3.844
 3283SOL    HW210749   2.084   0.396   3.888
 3284SOL     OW10750   0.644   4.219   5.884
 3284SOL    HW110751   0.676   4.312   5.906
 3284SOL    HW210752   0.546   4.221   5.868
 3285SOL     OW10753   6.968   2.253   4.704
 3285SOL    HW110754   6.986   2.218   4.612
 3285SOL    HW210755   6.895   2.322   4.699
 3286SOL     OW10756   3.633   4.914   5.505
 3286SOL    HW110757   3.631   4.969   5.588
 3286SOL    HW210758   3.561   4.844   5.510
 3287SOL     OW10759   0.315   4.969   1.815
 3287SOL    HW110760   0.231   5.002   1.772
 3287SOL    HW210761   0.362   5.045   1.858
 3288SOL     OW10762   1.640   6.584   6.963
 3288SOL    HW110763   1.695   6.611   0.019
 3288SOL    HW210764   1.573   6.654   6.943
 3289SOL     OW10765   1.252   5.402   4.483
 3289SOL    HW110766   1.306   5.426   4.564
 3289SOL    HW210767   1.310   5.409   4.402
 3290SOL     OW10768   6.851   5.766   2.332
 3290SOL    HW110769   6.864   5.729   2.424
 3290SOL    HW210770   6.762   5.737   2.297
 3291SOL     OW10771   2.196   7.016   1.895
 3291SOL    HW110772   2.285   0.025   1.928
 3291SOL    HW210773   2.201   6.919   1.874
 3292SOL     OW10774   0.715   5.296   5.397
 3292SOL    HW110775   0.690   5.278   5.492
 3292SOL    HW210776   0.634   5.324   5.345
 3293SOL     OW10777   6.416   0.438   3.017
 3293SOL    HW110778   6.320   0.456   3.039
 3293SOL    HW210779   6.422   0.369   2.945
 3294SOL     OW10780   0.760   0.386   7.021
 3294SOL    HW110781   0.769   0.442   6.939
 3294SOL    HW210782   0.815   0.304   7.013
 3295SOL     OW10783   1.288   2.433   6.425
 3295SOL    HW110784   1.293   2.475   6.515
 3295SOL    HW210785   1.348   2.482   6.362
 3296SOL     OW10786   0.800   6.562   1.797
 3296SOL    HW110787   0.865   6.573   1.721
 3296SOL    HW210788   0.841   6.598   1.881
 3297SOL     OW10789   3.134   1.589   5.768
 3297SOL    HW110790   3.143   1.570   5.671
 3297SOL    HW210791   3.184   1.673   5.790
 3298SOL     OW10792   5.762   3.763   3.369
 3298SOL    HW110793   5.679   3.794   3.414
 3298SOL    HW210794   5.752   3.770   3.270
 3299SOL     OW10795   0.590   0.748   4.845
 3299SOL    HW110796   0.620   0.653   4.853
 3299SOL    HW210797   0.664   0.808   4.876
 3300SOL     OW10798   6.674   0.179   4.724
 3300SOL    HW110799   6.615   0.207   4.801
 3300SOL    HW210800   6.630   0.205   4.638
 3301SOL     OW10801   0.732   3.884   3.115
 3301SOL    HW110802   0.799   3.954   3.141
 3301SOL    HW210803   0.715   3.824   3.193
 3302SOL     OW10804   1.036   4.999   4.357
 3302SOL    HW110805   1.070   5.038   4.271
 3302SOL    HW210806   1.023   5.073   4.423
 3303SOL     OW10807   3.121   4.025   3.827
 3303SOL    HW110808   3.038   3.970   3.842
 3303SOL    HW210809   3.162   4.048   3.915
 3304SOL     OW10810   1.095   0.088   3.205
 3304SOL    HW110811   1.096   0.177   3.251
 3304SOL    HW210812   1.004   0.071   3.168
 3305SOL     OW10813   1.282   1.440   1.648
 3305SOL    HW110814   1.235   1.462   1.563
 3305SOL    HW210815   1.232   1.368   1.697
 3306SOL     OW10816   0.867   3.461   2.568
 3306SOL    HW110817   0.890   3.380   2.623
 3306SOL    HW210818   0.781   3.445   2.521
 3307SOL     OW10819   0.800   6.375   0.687
 3307SOL    HW110820   0.775   6.428   0.768
 3307SOL    HW210821   0.719   6.357   0.632
 3308SOL     OW10822   5.390   6.259   0.900
 3308SOL    HW110823   5.298   6.299   0.894
 3308SOL    HW210824   5.391   6.188   0.969
 3309SOL     OW10825   1.454   5.620   2.305
 3309SOL    HW110826   1.387   5.552   2.276
 3309SOL    HW210827   1.407   5.695   2.351
 3310SOL     OW10828   1.122   6.990   1.896
 3310SOL    HW110829   1.194   0.018   1.849
 3310SOL    HW210830   1.042   0.027   1.908
 3311SOL     OW10831   3.700   6.301   1.397
 3311SOL    HW110832   3.738   6.285   1.488
 3311SOL    HW210833   3.772   6.338   1.337
 3312SOL     OW10834   2.070   3.423   6.689
 3312SOL    HW110835   2.081   3.445   6.786
 3312SOL    HW210836   2.003   3.350   6.679
 3313SOL     OW10837   6.519   5.806   5.054
 3313SOL    HW110838   6.463   5.888   5.065
 3313SOL    HW210839   6.519   5.754   5.140
 3314SOL     OW10840   0.517   3.414   6.642
 3314SOL    HW110841   0.443   3.476   6.667
 3314SOL    HW210842   0.481   3.322   6.628
 3315SOL     OW10843   6.578   3.404   3.118
 3315SOL    HW110844   6.658   3.380   3.061
 3315SOL    HW210845   6.581   3.351   3.202
 3316SOL     OW10846   4.525   0.956   0.722
 3316SOL    HW110847   4.576   0.870   0.732
 3316SOL    HW210848   4.475   0.955   0.635
 3317SOL     OW10849   4.889   2.618   1.729
 3317SOL    HW110850   4.927   2.577   1.812
 3317SOL    HW210851   4.795   2.586   1.716
 3318SOL     OW10852   2.202   5.342   5.008
 3318SOL    HW110853   2.242   5.256   4.979
 3318SOL    HW210854   2.233   5.364   5.101
 3319SOL     OW10855   6.866   6.194   5.929
 3319SOL    HW110856   6.909   6.181   6.019
 3319SOL    HW210857   6.875   6.289   5.902
 3320SOL     OW10858   0.577   1.723   5.627
 3320SOL    HW110859   0.571   1.651   5.696
 3320SOL    HW210860   0.602   1.683   5.539
 3321SOL     OW10861   3.617   3.463   4.195
 3321SOL    HW110862   3.680   3.388   4.178
 3321SOL    HW210863   3.523   3.428   4.200
 3322SOL     OW10864   4.820   2.654   0.920
 3322SOL    HW110865   4.779   2.582   0.864
 3322SOL    HW210866   4.920   2.648   0.915
 3323SOL     OW10867   2.642   4.812   0.031
 3323SOL    HW110868   2.578   4.872   0.079
 3323SOL    HW210869   2.594   4.763   6.981
 3324SOL     OW10870   0.328   3.090   1.003
 3324SOL    HW110871   0.250   3.059   0.949
 3324SOL    HW210872   0.307   3.081   1.100
 3325SOL     OW10873   1.919   3.191   0.349
 3325SOL    HW110874   1.881   3.267   0.297
 3325SOL    HW210875   1.863   3.110   0.334
 3326SOL     OW10876   6.454   0.931   2.058
 3326SOL    HW110877   6.396   0.974   1.988
 3326SOL    HW210878   6.409   0.849   2.093
 3327SOL     OW10879   3.242   6.615   2.007
 3327SOL    HW110880   3.245   6.530   2.059
 3327SOL    HW210881   3.172   6.608   1.936
 3328SOL     OW10882   4.635   0.541   3.357
 3328SOL    HW110883   4.641   0.528   3.258
 3328SOL    HW210884   4.710   0.600   3.387
 3329SOL     OW10885   5.677   0.723   5.881
 3329SOL    HW110886   5.716   0.814   5.894
 3329SOL    HW210887   5.652   0.711   5.785
 3330SOL     OW10888   6.348   5.657   3.326
 3330SOL    HW110889   6.317   5.564   3.349
 3330SOL    HW210890   6.442   5.669   3.357
 3331SOL     OW10891   1.780   3.482   2.730
 3331SOL    HW110892   1.697   3.448   2.775
 3331SOL    HW210893   1.774   3.465   2.631
 3332SOL     OW10894   3.518   4.779   0.677
 3332SOL    HW110895   3.549   4.713   0.608
 3332SOL    HW210896   3.587   4.785   0.749
 3333SOL     OW10897   2.575   3.159   1.650
 3333SOL    HW110898   2.622   3.236   1.693
 3333SOL    HW210899   2.634   3.079   1.652
 3334SOL     OW10900   2.326   1.906   1.923
 3334SOL    HW110901   2.301   1.930   2.017
 3334SOL    HW210902   2.354   1.989   1.875
 3335SOL     OW10903   3.685   4.102   5.255
 3335SOL    HW110904   3.606   4.141   5.207
 3335SOL    HW210905   3.654   4.053   5.336
 3336SOL     OW10906   4.538   5.695   4.722
 3336SOL    HW110907   4.536   5.599   4.692
 3336SOL    HW210908   4.624   5.713   4.770
 3337SOL     OW10909   3.129   2.987   2.366
 3337SOL    HW110910   3.094   3.015   2.276
 3337SOL    HW210911   3.058   2.937   2.416
 3338SOL     OW10912   2.816   2.748   1.497
 3338SOL    HW110913   2.791   2.811   1.424
 3338SOL    HW210914   2.912   2.759   1.520
 3339SOL     OW10915   1.583   0.294   6.855
 3339SOL    HW110916   1.521   0.267   6.782
 3339SOL    HW210917   1.635   0.215   6.886
 3340SOL     OW10918   3.968   0.907   4.620
 3340SOL    HW110919   3.905   0.835   4.592
 3340SOL    HW210920   3.949   0.990   4.567
 3341SOL     OW10921   1.098   4.354   2.611
 3341SOL    HW110922   1.133   4.325   2.700
 3341SOL    HW210923   1.030   4.426   2.624
 3342SOL     OW10924   6.403   0.836   2.630
 3342SOL    HW110925   6.474   0.870   2.569
 3342SOL    HW210926   6.422   0.740   2.653
 3343SOL     OW10927   4.663   5.199   0.381
 3343SOL    HW110928   4.733   5.230   0.445
 3343SOL    HW210929   4.703   5.136   0.315
 3344SOL     OW10930   0.398   3.192   2.046
 3344SOL    HW110931   0.398   3.248   2.129
 3344SOL    HW210932   0.414   3.251   1.967
 3345SOL     OW10933   5.694   5.282   0.350
 3345SOL    HW110934   5.635   5.333   0.413
 3345SOL    HW210935   5.774   5.337   0.328
 3346SOL     OW10936   1.886   1.226   0.001
 3346SOL    HW110937   1.812   1.169   0.036
 3346SOL    HW210938   1.947   1.171   6.967
 3347SOL     OW10939   0.345   3.494   5.464
 3347SOL    HW110940   0.264   3.550   5.449
 3347SOL    HW210941   0.318   3.400   5.485
 3348SOL     OW10942   3.431   4.478   6.079
 3348SOL    HW110943   3.374   4.530   6.016
 3348SOL    HW210944   3.476   4.404   6.029
 3349SOL     OW10945   1.806   5.887   2.629
 3349SOL    HW110946   1.853   5.803   2.658
 3349SOL    HW210947   1.759   5.871   2.542
 3350SOL     OW10948   1.680   5.001   4.241
 3350SOL    HW110949   1.702   4.964   4.151
 3350SOL    HW210950   1.598   4.955   4.277
 3351SOL     OW10951   5.367   0.997   1.444
 3351SOL    HW110952   5.390   1.093   1.433
 3351SOL    HW210953   5.380   0.970   1.540
 3352SOL     OW10954   5.754   1.511   6.889
 3352SOL    HW110955   5.851   1.525   6.868
 3352SOL    HW210956   5.745   1.434   6.953
 3353SOL     OW10957   3.824   6.989   0.103
 3353SOL    HW110958   3.783   0.007   0.022
 3353SOL    HW210959   3.846   0.038   0.169
 3354SOL     OW10960   3.021   3.873   6.334
 3354SOL    HW110961   3.107   3.920   6.317
 3354SOL    HW210962   2.951   3.909   6.272
 3355SOL     OW10963   1.446   0.132   5.341
 3355SOL    HW110964   1.438   0.066   5.266
 3355SOL    HW210965   1.534   0.179   5.335
 3356SOL     OW10966   1.812   0.578   6.275
 3356SOL    HW110967   1.717   0.594   6.250
 3356SOL    HW210968   1.816   0.513   6.351
 3357SOL     OW10969   3.488   2.871   2.583
 3357SOL    HW110970   3.416   2.905   2.643
 3357SOL    HW210971   3.468   2.898   2.489
 3358SOL     OW10972   6.779   1.030   2.023
 3358SOL    HW110973   6.736   0.987   1.943
 3358SOL    HW210974   6.829   1.111   1.995
 3359SOL     OW10975   0.826   6.727   4.862
 3359SOL    HW110976   0.840   6.630   4.844
 3359SOL    HW210977   0.774   6.738   4.947
 3360SOL     OW10978   2.439   4.689   4.030
 3360SOL    HW110979   2.392   4.668   3.944
 3360SOL    HW210980   2.427   4.613   4.094
 3361SOL     OW10981   6.789   0.202   5.734
 3361SOL    HW110982   6.743   0.114   5.748
 3361SOL    HW210983   6.794   0.250   5.821
 3362SOL     OW10984   3.560   0.388   4.205
 3362SOL    HW110985   3.481   0.436   4.165
 3362SOL    HW210986   3.641   0.445   4.196
 3363SOL     OW10987   5.959   4.144   0.217
 3363SOL    HW110988   5.881   4.090   0.248
 3363SOL    HW210989   5.949   4.238   0.249
 3364SOL     OW10990   1.699   4.011   3.303
 3364SOL    HW110991   1.706   3.913   3.285
 3364SOL    HW210992   1.638   4.026   3.380
 3365SOL     OW10993   1.176   3.610   3.618
 3365SOL    HW110994   1.098   3.669   3.596
 3365SOL    HW210995   1.188   3.606   3.717
 3366SOL     OW10996   5.513   3.471   4.910
 3366SOL    HW110997   5.607   3.486   4.940
 3366SOL    HW210998   5.499   3.513   4.821
 3367SOL     OW10999   2.891   3.450   3.947
 3367SOL    HW111000   2.898   3.350   3.943
 3367SOL    HW211001   2.924   3.482   4.035
 3368SOL     OW11002   2.185   0.584   2.496
 3368SOL    HW111003   2.137   0.513   2.445
 3368SOL    HW211004   2.121   0.635   2.552
 3369SOL     OW11005   5.150   2.502   1.169
 3369SOL    HW111006   5.207   2.576   1.204
 3369SOL    HW211007   5.163   2.420   1.223
 3370SOL     OW11008   0.764   5.890   2.765
 3370SOL    HW111009   0.750   5.796   2.797
 3370SOL    HW211010   0.779   5.950   2.843
 3371SOL     OW11011   2.149   2.635   1.912
 3371SOL    HW111012   2.241   2.673   1.896
 3371SOL    HW211013   2.155   2.535   1.913
 3372SOL     OW11014   6.236   3.972   2.978
 3372SOL    HW111015   6.298   3.924   2.916
 3372SOL    HW211016   6.235   3.926   3.067
 3373SOL     OW11017   0.340   3.811   1.486
 3373SOL    HW111018   0.247   3.830   1.515
 3373SOL    HW211019   0.388   3.761   1.557
 3374SOL     OW11020   0.695   6.532   4.262
 3374SOL    HW111021   0.633   6.468   4.307
 3374SOL    HW211022   0.642   6.591   4.200
 3375SOL     OW11023   0.434   5.740   5.982
 3375SOL    HW111024   0.415   5.789   5.896
 3375SOL    HW211025   0.420   5.802   6.059
 3376SOL     OW11026   3.547   2.955   4.204
 3376SOL    HW111027   3.521   3.034   4.259
 3376SOL    HW211028   3.475   2.936   4.137
 3377SOL     OW11029   6.709   5.076   4.152
 3377SOL    HW111030   6.655   5.010   4.204
 3377SOL    HW211031   6.649   5.129   4.092
 3378SOL     OW11032   2.044   6.250   0.877
 3378SOL    HW111033   2.045   6.254   0.977
 3378SOL    HW211034   1.950   6.247   0.845
 3379SOL     OW11035   6.191   3.866   4.084
 3379SOL    HW111036   6.178   3.792   4.149
 3379SOL    HW211037   6.265   3.842   4.021
 3380SOL     OW11038   2.399   4.350   0.655
 3380SOL    HW111039   2.308   4.341   0.614
 3380SOL    HW211040   2.400   4.304   0.744
 3381SOL     OW11041   2.297   3.768   5.713
 3381SOL    HW111042   2.308   3.672   5.688
 3381SOL    HW211043   2.345   3.826   5.646
 3382SOL     OW11044   6.535   3.633   0.112
 3382SOL    HW111045   6.542   3.568   0.188
 3382SOL    HW211046   6.441   3.664   0.103
 3383SOL     OW11047   4.269   5.031   0.509
 3383SOL    HW111048   4.207   5.001   0.436
 3383SOL    HW211049   4.355   4.981   0.502
 3384SOL     OW11050   2.691   3.102   6.579
 3384SOL    HW111051   2.714   3.187   6.625
 3384SOL    HW211052   2.748   3.091   6.498
 3385SOL     OW11053   6.471   2.453   4.328
 3385SOL    HW111054   6.476   2.524   4.258
 3385SOL    HW211055   6.413   2.378   4.295
 3386SOL     OW11056   0.118   6.253   5.195
 3386SOL    HW111057   0.021   6.228   5.188
 3386SOL    HW211058   0.160   6.252   5.105
 3387SOL     OW11059   5.856   0.922   2.922
 3387SOL    HW111060   5.921   0.846   2.914
 3387SOL    HW211061   5.843   0.964   2.832
 3388SOL     OW11062   0.010   4.023   1.270
 3388SOL    HW111063   6.961   4.074   1.222
 3388SOL    HW211064   0.014   3.930   1.233
 3389SOL     OW11065   5.719   5.572   6.505
 3389SOL    HW111066   5.691   5.490   6.555
 3389SOL    HW211067   5.638   5.624   6.479
 3390SOL     OW11068   3.058   5.059   6.558
 3390SOL    HW111069   3.113   5.135   6.523
 3390SOL    HW211070   3.019   5.009   6.481
 3391SOL     OW11071   5.179   4.086   4.258
 3391SOL    HW111072   5.229   4.001   4.244
 3391SOL    HW211073   5.145   4.090   4.352
 3392SOL     OW11074   4.847   6.635   5.989
 3392SOL    HW111075   4.909   6.557   6.003
 3392SOL    HW211076   4.762   6.618   6.039
 3393SOL     OW11077   3.700   6.031   0.588
 3393SOL    HW111078   3.636   6.040   0.512
 3393SOL    HW211079   3.667   6.085   0.666
 3394SOL     OW11080   2.452   5.682   1.509
 3394SOL    HW111081   2.355   5.661   1.494
 3394SOL    HW211082   2.461   5.778   1.535
 3395SOL     OW11083   2.158   6.733   3.208
 3395SOL    HW111084   2.169   6.701   3.113
 3395SOL    HW211085   2.066   6.771   3.220
 3396SOL     OW11086   4.314   0.246   4.191
 3396SOL    HW111087   4.402   0.207   4.164
 3396SOL    HW211088   4.256   0.258   4.110
 3397SOL     OW11089   2.511   5.786   6.578
 3397SOL    HW111090   2.499   5.705   6.637
 3397SOL    HW211091   2.478   5.765   6.486
 3398SOL     OW11092   6.693   1.956   5.191
 3398SOL    HW111093   6.793   1.958   5.182
 3398SOL    HW211094   6.652   1.938   5.102
 3399SOL     OW11095   6.600   6.081   2.208
 3399SOL    HW111096   6.632   6.049   2.297
 3399SOL    HW211097   6.579   6.178   2.213
 3400SOL     OW11098   4.161   3.151   5.575
 3400SOL    HW111099   4.087   3.199   5.622
 3400SOL    HW211100   4.122   3.086   5.510
 3401SOL     OW11101   6.888   3.930   5.104
 3401SOL    HW111102   6.926   3.993   5.036
 3401SOL    HW211103   6.900   3.836   5.073
 3402SOL     OW11104   6.985   3.739   0.948
 3402SOL    HW111105   6.932   3.731   0.863
 3402SOL    HW211106   7.004   3.835   0.967
 3403SOL     OW11107   5.338   6.988   6.664
 3403SOL    HW111108   5.319   0.006   6.575
 3403SOL    HW211109   5.276   0.003   6.732
 3404SOL     OW11110   5.380   4.535   4.363
 3404SOL    HW111111   5.374   4.618   4.417
 3404SOL    HW211112   5.310   4.536   4.292
 3405SOL     OW11113   4.774   6.124   0.047
 3405SOL    HW111114   4.759   6.207   0.102
 3405SOL    HW211115   4.865   6.087   0.066
 3406SOL     OW11116   3.034   5.759   1.269
 3406SOL    HW111117   3.001   5.757   1.363
 3406SOL    HW211118   3.078   5.847   1.251
 3407SOL     OW11119   1.071   4.118   6.224
 3407SOL    HW111120   1.132   4.156   6.293
 3407SOL    HW211121   1.056   4.186   6.152
 3408SOL     OW11122   4.854   0.503   3.785
 3408SOL    HW111123   4.794   0.462   3.716
 3408SOL    HW211124   4.944   0.520   3.745
 3409SOL     OW11125   3.862   0.644   0.476
 3409SOL    HW111126   3.798   0.604   0.541
 3409SOL    HW211127   3.826   0.632   0.383
 3410SOL     OW11128   6.681   0.368   3.142
 3410SOL    HW111129   6.584   0.357   3.119
 3410SOL    HW211130   6.733   0.380   3.057
 3411SOL     OW11131   6.152   3.386   5.961
 3411SOL    HW111132   6.200   3.469   5.987
 3411SOL    HW211133   6.217   3.309   5.962
 3412SOL     OW11134   5.557   3.388   2.382
 3412SOL    HW111135   5.489   3.439   2.435
 3412SOL    HW211136   5.513   3.350   2.301
 3413SOL     OW11137   6.442   1.524   0.673
 3413SOL    HW111138   6.541   1.536   0.675
 3413SOL    HW211139   6.419   1.432   0.707
 3414SOL     OW11140   3.279   3.435   1.620
 3414SOL    HW111141   3.216   3.487   1.678
 3414SOL    HW211142   3.261   3.338   1.631
 3415SOL     OW11143   2.377   1.862   5.712
 3415SOL    HW111144   2.404   1.790   5.775
 3415SOL    HW211145   2.316   1.926   5.758
 3416SOL     OW11146   6.501   6.816   0.029
 3416SOL    HW111147   6.413   6.796   0.072
 3416SOL    HW211148   6.520   6.749   6.980
 3417SOL     OW11149   6.411   0.048   3.130
 3417SOL    HW111150   6.417   0.082   3.036
 3417SOL    HW211151   6.333   0.089   3.176
 3418SOL     OW11152   4.390   5.584   0.195
 3418SOL    HW111153   4.448   5.651   0.241
 3418SOL    HW211154   4.398   5.496   0.242
 3419SOL     OW11155   2.414   5.254   5.487
 3419SOL    HW111156   2.377   5.336   5.530
 3419SOL    HW211157   2.393   5.175   5.545
 3420SOL     OW11158   4.374   1.860   1.695
 3420SOL    HW111159   4.284   1.818   1.704
 3420SOL    HW211160   4.363   1.955   1.666
 3421SOL     OW11161   0.186   1.773   4.818
 3421SOL    HW111162   0.256   1.844   4.810
 3421SOL    HW211163   0.096   1.817   4.826
 3422SOL     OW11164   2.575   6.657   0.739
 3422SOL    HW111165   2.575   6.561   0.769
 3422SOL    HW211166   2.494   6.703   0.773
 3423SOL     OW11167   2.305   4.688   5.729
 3423SOL    HW111168   2.299   4.658   5.633
 3423SOL    HW211169   2.390   4.739   5.743
 3424SOL     OW11170   5.310   1.171   1.973
 3424SOL    HW111171   5.260   1.101   1.922
 3424SOL    HW211172   5.318   1.254   1.918
 3425SOL     OW11173   6.589   3.403   6.140
 3425SOL    HW111174   6.507   3.456   6.162
 3425SOL    HW211175   6.667   3.465   6.132
 3426SOL     OW11176   6.296   3.775   0.165
 3426SOL    HW111177   6.270   3.867   0.192
 3426SOL    HW211178   6.307   3.717   0.246
 3427SOL     OW11179   0.978   2.149   0.251
 3427SOL    HW111180   1.055   2.095   0.287
 3427SOL    HW211181   0.909   2.160   0.322
 3428SOL     OW11182   4.740   6.932   4.841
 3428SOL    HW111183   4.657   6.961   4.793
 3428SOL    HW211184   4.769   6.843   4.806
 3429SOL     OW11185   4.386   6.798   0.640
 3429SOL    HW111186   4.483   6.803   0.616
 3429SOL    HW211187   4.360   6.702   0.654
 3430SOL     OW11188   2.785   4.006   6.210
 3430SOL    HW111189   2.715   4.069   6.245
 3430SOL    HW211190   2.833   4.049   6.133
 3431SOL     OW11191   0.810   4.374   2.715
 3431SOL    HW111192   0.867   4.297   2.743
 3431SOL    HW211193   0.778   4.360   2.621
 3432SOL     OW11194   0.261   4.733   0.391
 3432SOL    HW111195   0.273   4.662   0.322
 3432SOL    HW211196   0.317   4.813   0.366
 3433SOL     OW11197   2.020   1.101   6.822
 3433SOL    HW111198   2.024   1.016   6.771
 3433SOL    HW211199   2.015   1.178   6.758
 3434SOL     OW11200   3.574   2.622   1.726
 3434SOL    HW111201   3.477   2.647   1.735
 3434SOL    HW211202   3.588   2.532   1.765
 3435SOL     OW11203   1.482   2.039   1.444
 3435SOL    HW111204   1.458   1.958   1.498
 3435SOL    HW211205   1.464   2.121   1.498
 3436SOL     OW11206   3.742   6.755   6.483
 3436SOL    HW111207   3.661   6.778   6.431
 3436SOL    HW211208   3.728   6.669   6.531
 3437SOL     OW11209   1.160   0.300   6.890
 3437SOL    HW111210   1.158   0.252   6.977
 3437SOL    HW211211   1.210   0.245   6.823
 3438SOL     OW11212   2.399   3.838   0.968
 3438SOL    HW111213   2.361   3.826   0.876
 3438SOL    HW211214   2.446   3.926   0.973
 3439SOL     OW11215   2.759   5.765   1.091
 3439SOL    HW111216   2.833   5.801   1.147
 3439SOL    HW211217   2.711   5.693   1.142
 3440SOL     OW11218   3.444   3.706   5.452
 3440SOL    HW111219   3.415   3.665   5.538
 3440SOL    HW211220   3.533   3.751   5.464
 3441SOL     OW11221   6.232   5.292   5.419
 3441SOL    HW111222   6.321   5.291   5.465
 3441SOL    HW211223   6.160   5.277   5.486
 3442SOL     OW11224   1.830   3.035   1.420
 3442SOL    HW111225   1.751   3.083   1.381
 3442SOL    HW211226   1.862   3.083   1.501
 3443SOL     OW11227   0.244   6.001   2.054
 3443SOL    HW111228   0.173   5.955   2.106
 3443SOL    HW211229   0.314   5.935   2.026
 3444SOL     OW11230   6.719   4.068   5.273
 3444SOL    HW111231   6.621   4.070   5.293
 3444SOL    HW211232   6.738   3.992   5.211
 3445SOL     OW11233   6.345   4.681   4.415
 3445SOL    HW111234   6.297   4.708   4.498
 3445SOL    HW211235   6.319   4.741   4.340
 3446SOL     OW11236   4.493   1.002   0.986
 3446SOL    HW111237   4.494   0.960   0.896
 3446SOL    HW211238   4.513   1.100   0.978
 3447SOL     OW11239   5.751   0.970   6.279
 3447SOL    HW111240   5.795   1.048   6.324
 3447SOL    HW211241   5.691   1.003   6.206
 3448SOL     OW11242   1.457   4.457   5.172
 3448SOL    HW111243   1.423   4.423   5.084
 3448SOL    HW211244   1.497   4.548   5.159
 3449SOL     OW11245   0.736   4.599   5.309
 3449SOL    HW111246   0.647   4.616   5.350
 3449SOL    HW211247   0.766   4.681   5.260
 3450SOL     OW11248   2.527   0.389   1.702
 3450SOL    HW111249   2.513   0.292   1.684
 3450SOL    HW211250   2.438   0.433   1.719
 3451SOL     OW11251   1.523   2.232   1.019
 3451SOL    HW111252   1.509   2.281   0.933
 3451SOL    HW211253   1.524   2.297   1.095
 3452SOL     OW11254   4.653   1.324   5.248
 3452SOL    HW111255   4.746   1.311   5.214
 3452SOL    HW211256   4.608   1.397   5.197
 3453SOL     OW11257   3.737   6.531   6.615
 3453SOL    HW111258   3.715   6.437   6.644
 3453SOL    HW211259   3.821   6.530   6.562
 3454SOL     OW11260   0.448   3.017   1.432
 3454SOL    HW111261   0.397   2.988   1.513
 3454SOL    HW211262   0.525   3.074   1.459
 3455SOL     OW11263   0.365   3.612   5.985
 3455SOL    HW111264   0.358   3.532   5.926
 3455SOL    HW211265   0.447   3.606   6.041
 3456SOL     OW11266   5.031   5.727   3.391
 3456SOL    HW111267   5.052   5.656   3.459
 3456SOL    HW211268   5.093   5.804   3.404
 3457SOL     OW11269   3.504   4.255   6.428
 3457SOL    HW111270   3.482   4.240   6.525
 3457SOL    HW211271   3.486   4.171   6.377
 3458SOL     OW11272   3.835   1.371   2.426
 3458SOL    HW111273   3.905   1.420   2.374
 3458SOL    HW211274   3.752   1.427   2.429
 3459SOL     OW11275   5.679   5.772   2.389
 3459SOL    HW111276   5.595   5.732   2.353
 3459SOL    HW211277   5.721   5.710   2.454
 3460SOL     OW11278   3.587   1.888   4.546
 3460SOL    HW111279   3.541   1.942   4.616
 3460SOL    HW211280   3.568   1.927   4.456
 3461SOL     OW11281   5.192   4.983   4.582
 3461SOL    HW111282   5.124   4.922   4.542
 3461SOL    HW211283   5.186   4.980   4.682
 3462SOL     OW11284   0.746   3.732   6.357
 3462SOL    HW111285   0.828   3.789   6.352
 3462SOL    HW211286   0.680   3.773   6.420
 3463SOL     OW11287   5.693   4.316   0.181
 3463SOL    HW111288   5.657   4.256   0.110
 3463SOL    HW211289   5.764   4.375   0.143
 3464SOL     OW11290   0.310   4.317   4.057
 3464SOL    HW111291   0.268   4.377   4.124
 3464SOL    HW211292   0.408   4.308   4.077
 3465SOL     OW11293   0.801   2.120   2.796
 3465SOL    HW111294   0.770   2.105   2.702
 3465SOL    HW211295   0.740   2.072   2.859
 3466SOL     OW11296   0.376   3.290   4.743
 3466SOL    HW111297   0.354   3.305   4.839
 3466SOL    HW211298   0.334   3.205   4.712
 3467SOL     OW11299   1.908   2.308   5.807
 3467SOL    HW111300   1.844   2.384   5.792
 3467SOL    HW211301   1.867   2.223   5.774
 3468SOL     OW11302   4.256   6.083   2.261
 3468SOL    HW111303   4.195   6.038   2.327
 3468SOL    HW211304   4.311   6.014   2.214
 3469SOL     OW11305   5.463   3.732   1.318
 3469SOL    HW111306   5.375   3.694   1.348
 3469SOL    HW211307   5.453   3.830   1.300
 3470SOL     OW11308   0.124   5.684   0.706
 3470SOL    HW111309   0.187   5.760   0.689
 3470SOL    HW211310   0.135   5.616   0.633
 3471SOL     OW11311   4.342   0.525   4.524
 3471SOL    HW111312   4.383   0.598   4.471
 3471SOL    HW211313   4.378   0.437   4.495
 3472SOL     OW11314   4.112   1.049   4.873
 3472SOL    HW111315   4.064   0.984   4.815
 3472SOL    HW211316   4.059   1.064   4.957
 3473SOL     OW11317   4.160   6.580   4.122
 3473SOL    HW111318   4.206   6.668   4.133
 3473SOL    HW211319   4.074   6.582   4.175
 3474SOL     OW11320   5.169   4.272   1.140
 3474SOL    HW111321   5.087   4.329   1.144
 3474SOL    HW211322   5.240   4.312   1.197
 3475SOL     OW11323   1.517   6.312   4.738
 3475SOL    HW111324   1.426   6.279   4.714
 3475SOL    HW211325   1.582   6.287   4.666
 3476SOL     OW11326   4.761   1.720   5.067
 3476SOL    HW111327   4.846   1.743   5.113
 3476SOL    HW211328   4.770   1.737   4.969
 3477SOL     OW11329   4.162   5.751   1.633
 3477SOL    HW111330   4.255   5.787   1.630
 3477SOL    HW211331   4.165   5.652   1.620
 3478SOL     OW11332   4.095   4.424   6.975
 3478SOL    HW111333   4.025   4.356   6.997
 3478SOL    HW211334   4.124   4.411   6.880
 3479SOL     OW11335   1.654   0.332   1.578
 3479SOL    HW111336   1.564   0.315   1.617
 3479SOL    HW211337   1.668   0.271   1.499
 3480SOL     OW11338   0.690   0.161   4.289
 3480SOL    HW111339   0.739   0.198   4.210
 3480SOL    HW211340   0.715   0.213   4.371
 3481SOL     OW11341   2.155   6.232   6.997
 3481SOL    HW111342   2.085   6.163   7.013
 3481SOL    HW211343   2.118   6.305   6.940
 3482SOL     OW11344   0.842   2.268   1.733
 3482SOL    HW111345   0.783   2.239   1.657
 3482SOL    HW211346   0.811   2.225   1.817
 3483SOL     OW11347   4.080   2.088   1.048
 3483SOL    HW111348   4.148   2.017   1.066
 3483SOL    HW211349   4.126   2.168   1.010
 3484SOL     OW11350   3.371   2.900   3.629
 3484SOL    HW111351   3.470   2.902   3.641
 3484SOL    HW211352   3.348   2.907   3.532
 3485SOL     OW11353   6.609   1.711   4.507
 3485SOL    HW111354   6.679   1.662   4.560
 3485SOL    HW211355   6.527   1.721   4.563
 3486SOL     OW11356   5.028   1.137   2.683
 3486SOL    HW111357   5.057   1.124   2.588
 3486SOL    HW211358   5.068   1.065   2.740
 3487SOL     OW11359   0.729   0.906   0.583
 3487SOL    HW111360   0.786   0.959   0.520
 3487SOL    HW211361   0.647   0.959   0.605
 3488SOL     OW11362   6.098   3.577   4.181
 3488SOL    HW111363   6.111   3.528   4.267
 3488SOL    HW211364   6.007   3.555   4.144
 3489SOL     OW11365   1.997   5.595   0.472
 3489SOL    HW111366   2.071   5.564   0.532
 3489SOL    HW211367   2.000   5.544   0.386
 3490SOL     OW11368   4.702   2.899   0.959
 3490SOL    HW111369   4.775   2.831   0.955
 3490SOL    HW211370   4.680   2.918   1.055
 3491SOL     OW11371   0.751   2.636   5.598
 3491SOL    HW111372   0.692   2.678   5.666
 3491SOL    HW211373   0.728   2.539   5.589
 3492SOL     OW11374   5.542   4.992   7.017
 3492SOL    HW111375   5.459   5.038   6.984
 3492SOL    HW211376   5.561   5.022   0.088
 3493SOL     OW11377   0.091   5.006   1.681
 3493SOL    HW111378   0.090   4.963   1.591
 3493SOL    HW211379   0.043   4.947   1.746
 3494SOL     OW11380   3.014   6.420   1.192
 3494SOL    HW111381   3.025   6.321   1.202
 3494SOL    HW211382   3.104   6.463   1.188
 3495SOL     OW11383   5.970   4.521   0.350
 3495SOL    HW111384   5.935   4.449   0.411
 3495SOL    HW211385   5.923   4.515   0.262
 3496SOL     OW11386   0.502   4.693   0.733
 3496SOL    HW111387   0.494   4.647   0.822
 3496SOL    HW211388   0.414   4.694   0.687
 3497SOL     OW11389   4.673   6.604   4.287
 3497SOL    HW111390   4.656   6.522   4.342
 3497SOL    HW211391   4.670   6.685   4.346
 3498SOL     OW11392   1.362   1.666   0.910
 3498SOL    HW111393   1.419   1.659   0.992
 3498SOL    HW211394   1.326   1.575   0.887
 3499SOL     OW11395   6.828   3.747   4.556
 3499SOL    HW111396   6.895   3.780   4.488
 3499SOL    HW211397   6.795   3.825   4.609
 3500SOL     OW11398   6.818   3.395   0.778
 3500SOL    HW111399   6.726   3.363   0.800
 3500SOL    HW211400   6.877   3.386   0.858
 3501SOL     OW11401   0.867   4.204   3.716
 3501SOL    HW111402   0.872   4.127   3.652
 3501SOL    HW211403   0.953   4.256   3.712
 3502SOL     OW11404   1.510   4.689   1.822
 3502SOL    HW111405   1.598   4.646   1.805
 3502SOL    HW211406   1.457   4.632   1.885
 3503SOL     OW11407   3.532   6.467   3.517
 3503SOL    HW111408   3.588   6.412   3.456
 3503SOL    HW211409   3.522   6.559   3.480
 3504SOL     OW11410   2.254   2.968   2.742
 3504SOL    HW111411   2.271   2.897   2.674
 3504SOL    HW211412   2.249   2.926   2.833
 3505SOL     OW11413   4.237   6.618   4.832
 3505SOL    HW111414   4.306   6.546   4.842
 3505SOL    HW211415   4.273   6.703   4.871
 3506SOL     OW11416   5.641   4.884   2.078
 3506SOL    HW111417   5.546   4.902   2.052
 3506SOL    HW211418   5.645   4.801   2.132
 3507SOL     OW11419   0.629   0.681   6.517
 3507SOL    HW111420   0.709   0.738   6.534
 3507SOL    HW211421   0.572   0.724   6.447
 3508SOL     OW11422   5.968   3.825   6.877
 3508SOL    HW111423   6.065   3.846   6.890
 3508SOL    HW211424   5.954   3.727   6.891
 3509SOL     OW11425   6.120   0.521   0.564
 3509SOL    HW111426   6.086   0.580   0.637
 3509SOL    HW211427   6.127   0.427   0.599
 3510SOL     OW11428   2.465   2.566   2.484
 3510SOL    HW111429   2.461   2.666   2.494
 3510SOL    HW211430   2.398   2.538   2.415
 3511SOL     OW11431   0.402   0.789   5.685
 3511SOL    HW111432   0.323   0.837   5.722
 3511SOL    HW211433   0.371   0.718   5.621
 3512SOL     OW11434   3.234   2.732   0.903
 3512SOL    HW111435   3.211   2.778   0.817
 3512SOL    HW211436   3.261   2.801   0.971
 3513SOL     OW11437   4.989   4.772   1.144
 3513SOL    HW111438   5.076   4.757   1.098
 3513SOL    HW211439   4.996   4.744   1.240
 3514SOL     OW11440   1.706   6.965   1.817
 3514SOL    HW111441   1.693   6.971   1.719
 3514SOL    HW211442   1.633   6.910   1.858
 3515SOL     OW11443   3.858   5.893   3.077
 3515SOL    HW111444   3.910   5.826   3.023
 3515SOL    HW211445   3.883   5.885   3.173
 3516SOL     OW11446   2.550   0.870   0.687
 3516SOL    HW111447   2.512   0.818   0.611
 3516SOL    HW211448   2.650   0.870   0.681
 3517SOL     OW11449   0.765   0.458   6.174
 3517SOL    HW111450   0.782   0.519   6.097
 3517SOL    HW211451   0.785   0.364   6.147
 3518SOL     OW11452   4.511   3.607   5.872
 3518SOL    HW111453   4.502   3.641   5.966
 3518SOL    HW211454   4.595   3.642   5.832
 3519SOL     OW11455   3.039   6.255   0.310
 3519SOL    HW111456   3.113   6.197   0.277
 3519SOL    HW211457   3.031   6.245   0.410
 3520SOL     OW11458   3.962   5.238   1.100
 3520SOL    HW111459   3.961   5.152   1.049
 3520SOL    HW211460   3.913   5.226   1.187
 3521SOL     OW11461   5.693   2.271   6.164
 3521SOL    HW111462   5.651   2.330   6.095
 3521SOL    HW211463   5.628   2.254   6.238
 3522SOL     OW11464   2.801   6.754   1.613
 3522SOL    HW111465   2.788   6.658   1.584
 3522SOL    HW211466   2.722   6.783   1.666
 3523SOL     OW11467   2.373   4.741   5.409
 3523SOL    HW111468   2.319   4.699   5.336
 3523SOL    HW211469   2.415   4.670   5.465
 3524SOL     OW11470   2.391   0.658   1.856
 3524SOL    HW111471   2.311   0.709   1.887
 3524SOL    HW211472   2.431   0.705   1.777
 3525SOL     OW11473   1.581   3.835   3.070
 3525SOL    HW111474   1.578   3.739   3.042
 3525SOL    HW211475   1.624   3.889   2.998
 3526SOL     OW11476   3.520   0.126   3.441
 3526SOL    HW111477   3.599   0.180   3.414
 3526SOL    HW211478   3.438   0.183   3.437
 3527SOL     OW11479   5.618   2.834   6.135
 3527SOL    HW111480   5.584   2.740   6.142
 3527SOL    HW211481   5.705   2.841   6.183
 3528SOL     OW11482   1.215   6.976   4.339
 3528SOL    HW111483   1.164   6.997   4.256
 3528SOL    HW211484   1.299   0.008   4.341
 3529SOL     OW11485   3.584   5.755   0.056
 3529SOL    HW111486   3.610   5.788   0.147
 3529SOL    HW211487   3.502   5.699   0.063
 3530SOL     OW11488   1.493   6.289   2.898
 3530SOL    HW111489   1.555   6.363   2.872
 3530SOL    HW211490   1.430   6.270   2.823
 3531SOL     OW11491   4.973   4.747   6.842
 3531SOL    HW111492   5.062   4.781   6.813
 3531SOL    HW211493   4.979   4.650   6.862
 3532SOL     OW11494   1.846   6.459   0.388
 3532SOL    HW111495   1.866   6.374   0.438
 3532SOL    HW211496   1.870   6.537   0.446
 3533SOL     OW11497   1.195   1.557   4.159
 3533SOL    HW111498   1.179   1.596   4.069
 3533SOL    HW211499   1.259   1.614   4.210
 3534SOL     OW11500   5.035   0.555   5.254
 3534SOL    HW111501   5.133   0.542   5.265
 3534SOL    HW211502   5.010   0.543   5.157
 3535SOL     OW11503   4.524   6.463   6.864
 3535SOL    HW111504   4.460   6.455   6.787
 3535SOL    HW211505   4.615   6.433   6.836
 3536SOL     OW11506   0.941   4.154   2.844
 3536SOL    HW111507   0.976   4.061   2.850
 3536SOL    HW211508   0.932   4.192   2.936
 3537SOL     OW11509   2.679   3.923   1.206
 3537SOL    HW111510   2.632   3.877   1.281
 3537SOL    HW211511   2.777   3.907   1.213
 3538SOL     OW11512   3.943   1.028   3.656
 3538SOL    HW111513   3.953   0.929   3.662
 3538SOL    HW211514   3.942   1.056   3.560
 3539SOL     OW11515   5.138   6.238   6.784
 3539SOL    HW111516   5.088   6.324   6.794
 3539SOL    HW211517   5.152   6.218   6.687
 3540SOL     OW11518   2.383   4.135   6.056
 3540SOL    HW111519   2.418   4.078   5.981
 3540SOL    HW211520   2.283   4.135   6.055
 3541SOL     OW11521   1.916   2.625   1.739
 3541SOL    HW111522   1.955   2.588   1.823
 3541SOL    HW211523   1.971   2.597   1.660
 3542SOL     OW11524   6.022   1.539   6.792
 3542SOL    HW111525   6.038   1.603   6.867
 3542SOL    HW211526   6.047   1.581   6.705
 3543SOL     OW11527   0.466   2.449   4.167
 3543SOL    HW111528   0.535   2.512   4.133
 3543SOL    HW211529   0.486   2.356   4.135
 3544SOL     OW11530   3.015   3.561   6.932
 3544SOL    HW111531   3.075   3.608   6.868
 3544SOL    HW211532   2.972   3.483   6.886
 3545SOL     OW11533   3.561   6.706   0.701
 3545SOL    HW111534   3.612   6.645   0.640
 3545SOL    HW211535   3.625   6.755   0.761
 3546SOL     OW11536   6.851   4.398   2.188
 3546SOL    HW111537   6.868   4.443   2.100
 3546SOL    HW211538   6.900   4.446   2.260
 3547SOL     OW11539   1.568   3.862   4.667
 3547SOL    HW111540   1.489   3.808   4.698
 3547SOL    HW211541   1.581   3.940   4.729
 3548SOL     OW11542   5.565   0.491   6.137
 3548SOL    HW111543   5.659   0.471   6.108
 3548SOL    HW211544   5.564   0.505   6.236
 3549SOL     OW11545   2.687   6.842   6.728
 3549SOL    HW111546   2.622   6.884   6.791
 3549SOL    HW211547   2.755   6.790   6.780
 3550SOL     OW11548   4.862   0.906   5.496
 3550SOL    HW111549   4.775   0.934   5.536
 3550SOL    HW211550   4.859   0.916   5.397
 3551SOL     OW11551   5.106   1.874   4.419
 3551SOL    HW111552   5.104   1.898   4.322
 3551SOL    HW211553   5.161   1.940   4.469
 3552SOL     OW11554   6.195   0.132   3.245
 3552SOL    HW111555   6.117   0.071   3.258
 3552SOL    HW211556   6.167   0.226   3.264
 3553SOL     OW11557   5.947   5.921   6.739
 3553SOL    HW111558   5.942   5.952   6.644
 3553SOL    HW211559   5.924   5.824   6.743
 3554SOL     OW11560   5.072   4.478   6.836
 3554SOL    HW111561   5.149   4.513   6.888
 3554SOL    HW211562   5.015   4.421   6.895
 3555SOL     OW11563   2.941   1.933   5.310
 3555SOL    HW111564   3.023   1.972   5.269
 3555SOL    HW211565   2.878   2.006   5.336
 3556SOL     OW11566   5.721   0.906   0.573
 3556SOL    HW111567   5.634   0.929   0.530
 3556SOL    HW211568   5.792   0.969   0.542
 3557SOL     OW11569   5.653   6.935   1.482
 3557SOL    HW111570   5.653   7.010   1.548
 3557SOL    HW211571   5.744   6.925   1.443
 3558SOL     OW11572   3.835   5.432   2.249
 3558SOL    HW111573   3.771   5.372   2.298
 3558SOL    HW211574   3.919   5.442   2.303
 3559SOL     OW11575   4.657   6.692   6.481
 3559SOL    HW111576   4.607   6.615   6.522
 3559SOL    HW211577   4.594   6.749   6.429
 3560SOL     OW11578   1.021   5.349   4.275
 3560SOL    HW111579   1.051   5.355   4.370
 3560SOL    HW211580   1.064   5.270   4.232
 3561SOL     OW11581   4.480   3.442   5.317
 3561SOL    HW111582   4.519   3.368   5.371
 3561SOL    HW211583   4.552   3.492   5.271
 3562SOL     OW11584   3.062   1.932   0.294
 3562SOL    HW111585   3.128   1.890   0.232
 3562SOL    HW211586   3.064   1.884   0.382
 3563SOL     OW11587   6.598   2.307   5.903
 3563SOL    HW111588   6.601   2.229   5.966
 3563SOL    HW211589   6.621   2.391   5.953
 3564SOL     OW11590   6.078   3.656   2.219
 3564SOL    HW111591   6.111   3.690   2.131
 3564SOL    HW211592   6.019   3.577   2.204
 3565SOL     OW11593   4.899   5.749   5.763
 3565SOL    HW111594   4.820   5.691   5.785
 3565SOL    HW211595   4.964   5.697   5.708
 3566SOL     OW11596   1.189   0.697   4.687
 3566SOL    HW111597   1.104   0.731   4.647
 3566SOL    HW211598   1.231   0.770   4.742
 3567SOL     OW11599   6.846   3.216   6.547
 3567SOL    HW111600   6.860   3.286   6.618
 3567SOL    HW211601   6.772   3.155   6.574
 3568SOL     OW11602   5.985   3.872   6.383
 3568SOL    HW111603   6.011   3.777   6.372
 3568SOL    HW211604   6.013   3.924   6.303
 3569SOL     OW11605   1.139   0.183   3.722
 3569SOL    HW111606   1.178   0.275   3.725
 3569SOL    HW211607   1.040   0.190   3.708
 3570SOL     OW11608   5.490   1.405   3.971
 3570SOL    HW111609   5.511   1.409   4.068
 3570SOL    HW211610   5.414   1.467   3.950
 3571SOL     OW11611   6.534   6.989   5.160
 3571SOL    HW111612   6.450   6.984   5.212
 3571SOL    HW211613   6.521   6.943   5.072
 3572SOL     OW11614   6.508   6.590   5.532
 3572SOL    HW111615   6.600   6.577   5.568
 3572SOL    HW211616   6.506   6.570   5.434
 3573SOL     OW11617   0.663   2.124   2.533
 3573SOL    HW111618   0.565   2.135   2.550
 3573SOL    HW211619   0.678   2.045   2.474
 3574SOL     OW11620   6.183   4.010   0.258
 3574SOL    HW111621   6.188   4.059   0.345
 3574SOL    HW211622   6.098   4.035   0.211
 3575SOL     OW11623   6.561   5.734   1.901
 3575SOL    HW111624   6.465   5.721   1.877
 3575SOL    HW211625   6.617   5.722   1.818
 3576SOL     OW11626   0.674   1.807   6.743
 3576SOL    HW111627   0.760   1.758   6.758
 3576SOL    HW211628   0.652   1.860   6.825
 3577SOL     OW11629   2.164   3.462   6.993
 3577SOL    HW111630   2.259   3.449   0.001
 3577SOL    HW211631   2.101   3.430   0.041
 3578SOL     OW11632   3.368   4.694   1.632
 3578SOL    HW111633   3.435   4.650   1.691
 3578SOL    HW211634   3.367   4.648   1.543
 3579SOL     OW11635   1.383   4.147   5.323
 3579SOL    HW111636   1.293   4.106   5.339
 3579SOL    HW211637   1.410   4.131   5.228
 3580SOL     OW11638   6.607   2.525   1.207
 3580SOL    HW111639   6.689   2.517   1.264
 3580SOL    HW211640   6.532   2.475   1.249
 3581SOL     OW11641   5.661   1.102   3.253
 3581SOL    HW111642   5.600   1.175   3.285
 3581SOL    HW211643   5.667   1.105   3.154
 3582SOL     OW11644   0.060   0.631   5.374
 3582SOL    HW111645   0.034   0.558   5.311
 3582SOL    HW211646   0.047   0.600   5.469
 3583SOL     OW11647   2.124   5.037   1.065
 3583SOL    HW111648   2.158   4.964   1.004
 3583SOL    HW211649   2.193   5.056   1.135
 3584SOL     OW11650   5.478   6.638   5.838
 3584SOL    HW111651   5.443   6.704   5.904
 3584SOL    HW211652   5.456   6.670   5.745
 3585SOL     OW11653   2.818   5.254   4.211
 3585SOL    HW111654   2.755   5.210   4.276
 3585SOL    HW211655   2.849   5.187   4.144
 3586SOL     OW11656   0.708   1.722   6.007
 3586SOL    HW111657   0.790   1.780   6.002
 3586SOL    HW211658   0.736   1.627   6.018
 3587SOL     OW11659   3.747   0.163   6.894
 3587SOL    HW111660   3.663   0.182   6.842
 3587SOL    HW211661   3.803   0.246   6.899
 3588SOL     OW11662   2.182   1.205   5.207
 3588SOL    HW111663   2.224   1.271   5.146
 3588SOL    HW211664   2.085   1.197   5.186
 3589SOL     OW11665   2.764   0.342   5.259
 3589SOL    HW111666   2.727   0.262   5.211
 3589SOL    HW211667   2.854   0.364   5.222
 3590SOL     OW11668   1.407   5.081   6.952
 3590SOL    HW111669   1.473   5.073   0.005
 3590SOL    HW211670   1.343   5.154   6.971
 3591SOL     OW11671   5.353   2.251   5.911
 3591SOL    HW111672   5.335   2.328   5.973
 3591SOL    HW211673   5.347   2.283   5.816
 3592SOL     OW11674   5.218   2.649   2.075
 3592SOL    HW111675   5.283   2.600   2.016
 3592SOL    HW211676   5.126   2.642   2.037
 3593SOL     OW11677   0.810   4.837   3.938
 3593SOL    HW111678   0.907   4.814   3.943
 3593SOL    HW211679   0.778   4.867   4.028
 3594SOL     OW11680   3.919   1.138   4.503
 3594SOL    HW111681   3.828   1.181   4.508
 3594SOL    HW211682   3.973   1.184   4.432
 3595SOL     OW11683   2.261   6.188   5.807
 3595SOL    HW111684   2.197   6.265   5.799
 3595SOL    HW211685   2.211   6.106   5.835
 3596SOL     OW11686   0.360   3.600   3.678
 3596SOL    HW111687   0.267   3.565   3.663
 3596SOL    HW211688   0.415   3.528   3.720
 3597SOL     OW11689   3.699   6.124   3.108
 3597SOL    HW111690   3.768   6.065   3.067
 3597SOL    HW211691   3.619   6.070   3.134
 3598SOL     OW11692   1.588   0.250   0.638
 3598SOL    HW111693   1.598   0.185   0.714
 3598SOL    HW211694   1.637   0.334   0.661
 3599SOL     OW11695   6.831   1.645   3.665
 3599SOL    HW111696   6.740   1.634   3.627
 3599SOL    HW211697   6.872   1.555   3.679
 3600SOL     OW11698   6.161   0.627   1.552
 3600SOL    HW111699   6.177   0.725   1.539
 3600SOL    HW211700   6.076   0.601   1.508
 3601SOL     OW11701   6.119   3.433   5.450
 3601SOL    HW111702   6.120   3.503   5.521
 3601SOL    HW211703   6.086   3.347   5.489
 3602SOL     OW11704   2.341   1.982   0.662
 3602SOL    HW111705   2.372   2.032   0.742
 3602SOL    HW211706   2.384   1.891   0.661
 3603SOL     OW11707   4.230   4.960   4.316
 3603SOL    HW111708   4.242   5.060   4.315
 3603SOL    HW211709   4.224   4.926   4.222
 3604SOL     OW11710   0.370   3.377   3.411
 3604SOL    HW111711   0.408   3.332   3.330
 3604SOL    HW211712   0.356   3.474   3.392
 3605SOL     OW11713   6.241   2.957   6.510
 3605SOL    HW111714   6.257   2.866   6.546
 3605SOL    HW211715   6.250   3.025   6.583
 3606SOL     OW11716   1.627   4.608   4.189
 3606SOL    HW111717   1.705   4.546   4.188
 3606SOL    HW211718   1.610   4.644   4.097
 3607SOL     OW11719   4.509   6.887   0.178
 3607SOL    HW111720   4.472   6.978   0.191
 3607SOL    HW211721   4.466   6.844   0.099
 3608SOL     OW11722   0.553   2.502   2.475
 3608SOL    HW111723   0.592   2.454   2.553
 3608SOL    HW211724   0.627   2.531   2.413
 3609SOL     OW11725   6.370   7.014   5.378
 3609SOL    HW111726   6.451   0.048   5.392
 3609SOL    HW211727   6.288   0.042   5.405
 3610SOL     OW11728   1.934   6.085   5.016
 3610SOL    HW111729   1.845   6.070   4.973
 3610SOL    HW211730   2.003   6.028   4.973
 3611SOL     OW11731   4.148   5.144   5.121
 3611SOL    HW111732   4.205   5.182   5.048
 3611SOL    HW211733   4.168   5.191   5.207
 3612SOL     OW11734   1.741   6.728   1.496
 3612SOL    HW111735   1.758   6.668   1.574
 3612SOL    HW211736   1.667   6.691   1.440
 3613SOL     OW11737   5.423   5.194   6.813
 3613SOL    HW111738   5.329   5.207   6.844
 3613SOL    HW211739   5.476   5.277   6.830
 3614SOL     OW11740   4.059   3.330   4.029
 3614SOL    HW111741   4.070   3.429   4.020
 3614SOL    HW211742   4.065   3.287   3.938
 3615SOL     OW11743   6.793   6.251   6.257
 3615SOL    HW111744   6.701   6.284   6.237
 3615SOL    HW211745   6.793   6.151   6.257
 3616SOL     OW11746   6.326   0.443   4.856
 3616SOL    HW111747   6.271   0.373   4.810
 3616SOL    HW211748   6.385   0.488   4.789
 3617SOL     OW11749   6.617   1.029   0.300
 3617SOL    HW111750   6.539   0.972   0.325
 3617SOL    HW211751   6.606   1.120   0.340
 3618SOL     OW11752   2.888   0.786   5.891
 3618SOL    HW111753   2.943   0.826   5.964
 3618SOL    HW211754   2.803   0.750   5.928
 3619SOL     OW11755   4.895   3.091   4.086
 3619SOL    HW111756   4.977   3.137   4.120
 3619SOL    HW211757   4.862   3.027   4.155
 3620SOL     OW11758   6.369   0.926   4.867
 3620SOL    HW111759   6.375   1.014   4.913
 3620SOL    HW211760   6.405   0.854   4.927
 3621SOL     OW11761   1.864   3.283   5.799
 3621SOL    HW111762   1.964   3.286   5.803
 3621SOL    HW211763   1.835   3.188   5.788
 3622SOL     OW11764   0.476   2.661   0.783
 3622SOL    HW111765   0.467   2.724   0.860
 3622SOL    HW211766   0.489   2.714   0.699
 3623SOL     OW11767   0.000   5.577   4.362
 3623SOL    HW111768   7.018   5.478   4.380
 3623SOL    HW211769   0.094   5.608   4.376
 3624SOL     OW11770   1.725   0.957   1.854
 3624SOL    HW111771   1.760   1.036   1.903
 3624SOL    HW211772   1.763   0.956   1.761
 3625SOL     OW11773   0.448   3.047   4.476
 3625SOL    HW111774   0.515   3.110   4.437
 3625SOL    HW211775   0.377   3.098   4.524
 3626SOL     OW11776   2.675   3.804   5.272
 3626SOL    HW111777   2.604   3.861   5.229
 3626SOL    HW211778   2.636   3.715   5.294
 3627SOL     OW11779   2.935   3.802   3.870
 3627SOL    HW111780   2.883   3.717   3.861
 3627SOL    HW211781   3.000   3.793   3.945
 3628SOL     OW11782   3.437   5.245   2.533
 3628SOL    HW111783   3.423   5.209   2.626
 3628SOL    HW211784   3.410   5.341   2.531
 3629SOL     OW11785   6.082   2.283   5.110
 3629SOL    HW111786   6.019   2.228   5.054
 3629SOL    HW211787   6.094   2.239   5.199
 3630SOL     OW11788   5.748   1.753   4.728
 3630SOL    HW111789   5.667   1.745   4.786
 3630SOL    HW211790   5.799   1.667   4.730
 3631SOL     OW11791   1.935   1.042   4.201
 3631SOL    HW111792   1.895   1.125   4.161
 3631SOL    HW211793   1.941   0.971   4.131
 3632SOL     OW11794   4.338   0.559   6.508
 3632SOL    HW111795   4.301   0.649   6.528
 3632SOL    HW211796   4.377   0.559   6.416
 3633SOL     OW11797   2.547   3.004   5.925
 3633SOL    HW111798   2.588   3.031   6.012
 3633SOL    HW211799   2.471   2.941   5.942
 3634SOL     OW11800   2.084   5.699   5.174
 3634SOL    HW111801   1.996   5.733   5.141
 3634SOL    HW211802   2.151   5.700   5.100
 3635SOL     OW11803   2.480   1.206   4.879
 3635SOL    HW111804   2.432   1.120   4.893
 3635SOL    HW211805   2.527   1.233   4.963
 3636SOL     OW11806   1.354   5.557   6.634
 3636SOL    HW111807   1.279   5.511   6.588
 3636SOL    HW211808   1.399   5.493   6.697
 3637SOL     OW11809   5.612   1.470   2.067
 3637SOL    HW111810   5.521   1.510   2.078
 3637SOL    HW211811   5.611   1.405   1.992
 3638SOL     OW11812   6.034   5.144   4.216
 3638SOL    HW111813   6.101   5.083   4.258
 3638SOL    HW211814   6.050   5.149   4.118
 3639SOL     OW11815   2.127   5.146   0.281
 3639SOL    HW111816   2.192   5.188   0.343
 3639SOL    HW211817   2.172   5.071   0.232
 3640SOL     OW11818   3.389   5.977   1.466
 3640SOL    HW111819   3.442   5.897   1.438
 3640SOL    HW211820   3.330   5.953   1.544
 3641SOL     OW11821   2.676   0.603   5.171
 3641SOL    HW111822   2.714   0.520   5.212
 3641SOL    HW211823   2.589   0.580   5.126
 3642SOL     OW11824   5.939   0.080   3.574
 3642SOL    HW111825   6.017   0.109   3.631
 3642SOL    HW211826   5.956   7.011   3.539
 3643SOL     OW11827   2.588   4.604   5.104
 3643SOL    HW111828   2.676   4.622   5.060
 3643SOL    HW211829   2.594   4.519   5.156
 3644SOL     OW11830   0.192   1.121   0.976
 3644SOL    HW111831   0.211   1.215   1.006
 3644SOL    HW211832   0.273   1.083   0.931
 3645SOL     OW11833   3.379   0.204   3.000
 3645SOL    HW111834   3.386   0.252   2.912
 3645SOL    HW211835   3.411   0.110   2.989
 3646SOL     OW11836   6.845   4.986   4.849
 3646SOL    HW111837   6.852   4.956   4.754
 3646SOL    HW211838   6.758   4.955   4.887
 3647SOL     OW11839   2.515   2.803   1.264
 3647SOL    HW111840   2.601   2.852   1.254
 3647SOL    HW211841   2.447   2.863   1.307
 3648SOL     OW11842   2.937   6.184   2.784
 3648SOL    HW111843   2.941   6.226   2.875
 3648SOL    HW211844   2.883   6.243   2.723
 3649SOL     OW11845   3.137   3.606   1.865
 3649SOL    HW111846   3.195   3.661   1.805
 3649SOL    HW211847   3.130   3.650   1.954
 3650SOL     OW11848   6.993   6.735   1.706
 3650SOL    HW111849   6.944   6.758   1.791
 3650SOL    HW211850   6.936   6.674   1.651
 3651SOL     OW11851   1.709   5.851   2.360
 3651SOL    HW111852   1.720   5.922   2.291
 3651SOL    HW211853   1.653   5.777   2.322
 3652SOL     OW11854   4.425   5.396   3.373
 3652SOL    HW111855   4.515   5.355   3.381
 3652SOL    HW211856   4.394   5.426   3.464
 3653SOL     OW11857   0.143   2.756   4.105
 3653SOL    HW111858   0.149   2.674   4.161
 3653SOL    HW211859   0.048   2.786   4.099
 3654SOL     OW11860   1.769   6.256   1.291
 3654SOL    HW111861   1.682   6.208   1.279
 3654SOL    HW211862   1.759   6.350   1.258
 3655SOL     OW11863   1.336   0.312   4.278
 3655SOL    HW111864   1.237   0.316   4.265
 3655SOL    HW211865   1.363   0.218   4.297
 3656SOL     OW11866   2.284   2.008   2.180
 3656SOL    HW111867   2.261   2.105   2.188
 3656SOL    HW211868   2.364   1.987   2.236
 3657SOL     OW11869   3.702   6.018   1.466
 3657SOL    HW111870   3.766   5.947   1.437
 3657SOL    HW211871   3.609   5.981   1.467
 3658SOL     OW11872   1.462   5.371   6.335
 3658SOL    HW111873   1.380   5.336   6.380
 3658SOL    HW211874   1.450   5.468   6.314
 3659SOL     OW11875   1.494   4.335   6.694
 3659SOL    HW111876   1.426   4.382   6.752
 3659SOL    HW211877   1.585   4.370   6.716
 3660SOL     OW11878   4.608   5.933   1.372
 3660SOL    HW111879   4.613   5.834   1.386
 3660SOL    HW211880   4.602   5.952   1.274
 3661SOL     OW11881   4.863   1.434   0.654
 3661SOL    HW111882   4.851   1.494   0.734
 3661SOL    HW211883   4.806   1.468   0.579
 3662SOL     OW11884   3.542   6.678   5.656
 3662SOL    HW111885   3.630   6.704   5.695
 3662SOL    HW211886   3.468   6.711   5.714
 3663SOL     OW11887   0.917   3.295   6.417
 3663SOL    HW111888   0.826   3.329   6.394
 3663SOL    HW211889   0.936   3.311   6.513
 3664SOL     OW11890   4.125   1.603   0.728
 3664SOL    HW111891   4.148   1.567   0.638
 3664SOL    HW211892   4.177   1.686   0.745
 3665SOL     OW11893   1.105   0.091   6.136
 3665SOL    HW111894   1.188   0.121   6.183
 3665SOL    HW211895   1.130   0.051   6.048
 3666SOL     OW11896   0.822   5.464   4.123
 3666SOL    HW111897   0.901   5.473   4.183
 3666SOL    HW211898   0.823   5.374   4.081
 3667SOL     OW11899   6.740   2.117   6.575
 3667SOL    HW111900   6.805   2.130   6.650
 3667SOL    HW211901   6.789   2.119   6.488
 3668SOL     OW11902   0.960   6.145   1.927
 3668SOL    HW111903   0.954   6.238   1.962
 3668SOL    HW211904   0.910   6.083   1.989
 3669SOL     OW11905   6.388   2.981   2.954
 3669SOL    HW111906   6.397   2.991   3.053
 3669SOL    HW211907   6.398   2.885   2.929
 3670SOL     OW11908   1.931   5.728   5.583
 3670SOL    HW111909   1.888   5.780   5.657
 3670SOL    HW211910   1.987   5.790   5.528
 3671SOL     OW11911   0.664   0.956   2.877
 3671SOL    HW111912   0.714   0.885   2.828
 3671SOL    HW211913   0.722   0.994   2.949
 3672SOL     OW11914   0.218   0.833   1.097
 3672SOL    HW111915   0.212   0.911   1.035
 3672SOL    HW211916   0.221   0.748   1.044
 3673SOL     OW11917   5.054   0.251   6.782
 3673SOL    HW111918   5.099   0.334   6.751
 3673SOL    HW211919   5.061   0.244   6.882
 3674SOL     OW11920   1.072   6.543   0.944
 3674SOL    HW111921   1.002   6.523   0.875
 3674SOL    HW211922   1.037   6.522   1.035
 3675SOL     OW11923   1.783   2.019   5.197
 3675SOL    HW111924   1.761   1.942   5.137
 3675SOL    HW211925   1.742   2.005   5.287
 3676SOL     OW11926   2.135   5.403   3.401
 3676SOL    HW111927   2.071   5.477   3.380
 3676SOL    HW211928   2.193   5.385   3.322
 3677SOL     OW11929   6.293   6.624   4.465
 3677SOL    HW111930   6.344   6.620   4.379
 3677SOL    HW211931   6.196   6.639   4.445
 3678SOL     OW11932   1.102   1.695   3.938
 3678SOL    HW111933   1.142   1.775   3.894
 3678SOL    HW211934   1.006   1.714   3.960
 3679SOL     OW11935   0.420   0.671   2.030
 3679SOL    HW111936   0.423   0.710   2.122
 3679SOL    HW211937   0.511   0.675   1.989
 3680SOL     OW11938   6.636   3.736   4.144
 3680SOL    HW111939   6.713   3.798   4.127
 3680SOL    HW211940   6.666   3.641   4.133
 3681SOL     OW11941   6.874   6.098   5.584
 3681SOL    HW111942   6.839   6.006   5.601
 3681SOL    HW211943   6.966   6.106   5.624
 3682SOL     OW11944   0.464   1.576   6.003
 3682SOL    HW111945   0.532   1.646   6.024
 3682SOL    HW211946   0.372   1.614   6.015
 3683SOL     OW11947   5.165   6.400   4.226
 3683SOL    HW111948   5.165   6.500   4.227
 3683SOL    HW211949   5.246   6.365   4.273
 3684SOL     OW11950   1.392   3.325   0.778
 3684SOL    HW111951   1.338   3.371   0.707
 3684SOL    HW211952   1.429   3.393   0.841
 3685SOL     OW11953   6.790   6.852   6.590
 3685SOL    HW111954   6.805   6.951   6.586
 3685SOL    HW211955   6.783   6.815   6.498
 3686SOL     OW11956   6.377   4.149   1.488
 3686SOL    HW111957   6.309   4.215   1.517
 3686SOL    HW211958   6.383   4.075   1.555
 3687SOL     OW11959   3.093   0.757   0.292
 3687SOL    HW111960   3.022   0.818   0.328
 3687SOL    HW211961   3.139   0.710   0.368
 3688SOL     OW11962   0.698   3.741   0.224
 3688SOL    HW111963   0.686   3.654   0.177
 3688SOL    HW211964   0.623   3.803   0.200
 3689SOL     OW11965   2.407   0.821   3.594
 3689SOL    HW111966   2.319   0.869   3.597
 3689SOL    HW211967   2.481   0.887   3.605
 3690SOL     OW11968   6.090   7.011   5.464
 3690SOL    HW111969   6.087   0.010   5.562
 3690SOL    HW211970   5.998   6.992   5.431
 3691SOL     OW11971   3.592   2.580   6.857
 3691SOL    HW111972   3.674   2.626   6.892
 3691SOL    HW211973   3.615   2.531   6.773
 3692SOL     OW11974   1.865   0.411   5.856
 3692SOL    HW111975   1.937   0.348   5.827
 3692SOL    HW211976   1.800   0.362   5.914
 3693SOL     OW11977   2.681   1.887   2.758
 3693SOL    HW111978   2.713   1.884   2.852
 3693SOL    HW211979   2.608   1.955   2.749
 3694SOL     OW11980   1.968   6.084   2.750
 3694SOL    HW111981   1.925   6.121   2.833
 3694SOL    HW211982   1.904   6.022   2.705
 3695SOL     OW11983   1.812   2.338   2.411
 3695SOL    HW111984   1.746   2.315   2.339
 3695SOL    HW211985   1.789   2.288   2.494
 3696SOL     OW11986   3.464   6.379   5.715
 3696SOL    HW111987   3.390   6.313   5.730
 3696SOL    HW211988   3.449   6.427   5.628
 3697SOL     OW11989   6.100   0.086   4.346
 3697SOL    HW111990   6.087   7.010   4.346
 3697SOL    HW211991   6.049   0.127   4.421
 3698SOL     OW11992   2.934   7.015   5.908
 3698SOL    HW111993   2.837   6.993   5.898
 3698SOL    HW211994   2.951   0.085   5.875
 3699SOL     OW11995   0.697   3.775   2.417
 3699SOL    HW111996   0.626   3.841   2.393
 3699SOL    HW211997   0.715   3.780   2.515
 3700SOL     OW11998   0.275   6.738   3.953
 3700SOL    HW111999   0.358   6.787   3.981
 3700SOL    HW212000   0.296   6.641   3.940
 3701SOL     OW12001   6.203   0.679   3.540
 3701SOL    HW112002   6.273   0.672   3.469
 3701SOL    HW212003   6.112   0.684   3.496
 3702SOL     OW12004   3.351   1.062   6.907
 3702SOL    HW112005   3.333   1.160   6.896
 3702SOL    HW212006   3.323   1.033   6.998
 3703SOL     OW12007   4.425   4.410   6.599
 3703SOL    HW112008   4.386   4.361   6.521
 3703SOL    HW212009   4.521   4.383   6.610
 3704SOL     OW12010   1.922   0.724   2.542
 3704SOL    HW112011   1.930   0.707   2.443
 3704SOL    HW212012   1.826   0.738   2.566
 3705SOL     OW12013   5.588   0.993   3.973
 3705SOL    HW112014   5.567   0.982   4.070
 3705SOL    HW212015   5.598   0.904   3.930
 3706SOL     OW12016   1.968   2.434   3.932
 3706SOL    HW112017   2.033   2.467   4.001
 3706SOL    HW212018   2.017   2.409   3.849
 3707SOL     OW12019   4.398   2.542   5.318
 3707SOL    HW112020   4.456   2.623   5.314
 3707SOL    HW212021   4.304   2.566   5.291
 3708SOL     OW12022   5.855   0.209   6.092
 3708SOL    HW112023   5.804   0.162   6.165
 3708SOL    HW212024   5.918   0.275   6.133
 3709SOL     OW12025   3.998   0.607   6.550
 3709SOL    HW112026   4.087   0.570   6.522
 3709SOL    HW212027   3.985   0.697   6.507
 3710SOL     OW12028   0.028   4.917   0.926
 3710SOL    HW112029   0.116   4.884   0.960
 3710SOL    HW212030   0.030   5.017   0.921
 3711SOL     OW12031   6.290   4.842   2.599
 3711SOL    HW112032   6.232   4.781   2.653
 3711SOL    HW212033   6.370   4.868   2.652
 3712SOL     OW12034   2.325   6.741   0.839
 3712SOL    HW112035   2.280   6.721   0.752
 3712SOL    HW212036   2.330   6.840   0.852
 3713SOL     OW12037   3.641   5.519   5.453
 3713SOL    HW112038   3.680   5.589   5.513
 3713SOL    HW212039   3.547   5.543   5.430
 3714SOL     OW12040   3.511   0.486   4.918
 3714SOL    HW112041   3.582   0.540   4.872
 3714SOL    HW212042   3.506   0.512   5.014
 3715SOL     OW12043   5.739   3.842   4.935
 3715SOL    HW112044   5.812   3.773   4.933
 3715SOL    HW212045   5.752   3.905   4.858
 3716SOL     OW12046   0.177   0.903   4.307
 3716SOL    HW112047   0.256   0.842   4.296
 3716SOL    HW212048   0.104   0.873   4.245
 3717SOL     OW12049   5.439   6.923   0.328
 3717SOL    HW112050   5.471   6.859   0.398
 3717SOL    HW212051   5.373   6.986   0.368
 3718SOL     OW12052   0.904   5.787   6.873
 3718SOL    HW112053   0.808   5.800   6.900
 3718SOL    HW212054   0.963   5.800   6.953
 3719SOL     OW12055   3.257   5.138   5.724
 3719SOL    HW112056   3.235   5.110   5.630
 3719SOL    HW212057   3.346   5.182   5.725
 3720SOL     OW12058   6.889   2.129   5.545
 3720SOL    HW112059   6.979   2.173   5.538
 3720SOL    HW212060   6.866   2.117   5.641
 3721SOL     OW12061   5.107   3.600   0.725
 3721SOL    HW112062   5.176   3.642   0.784
 3721SOL    HW212063   5.019   3.599   0.773
 3722SOL     OW12064   6.446   5.932   2.442
 3722SOL    HW112065   6.543   5.953   2.429
 3722SOL    HW212066   6.419   5.859   2.379
 3723SOL     OW12067   4.521   1.284   0.907
 3723SOL    HW112068   4.555   1.369   0.948
 3723SOL    HW212069   4.586   1.254   0.838
 3724SOL     OW12070   1.010   5.695   5.982
 3724SOL    HW112071   1.102   5.733   5.995
 3724SOL    HW212072   0.951   5.765   5.942
 3725SOL     OW12073   6.938   6.922   0.579
 3725SOL    HW112074   6.863   6.857   0.564
 3725SOL    HW212075   7.003   6.916   0.504
 3726SOL     OW12076   5.842   3.371   1.737
 3726SOL    HW112077   5.920   3.342   1.793
 3726SOL    HW212078   5.782   3.293   1.720
 3727SOL     OW12079   2.206   3.203   5.522
 3727SOL    HW112080   2.245   3.120   5.484
 3727SOL    HW212081   2.214   3.278   5.456
 3728SOL     OW12082   1.384   3.511   6.689
 3728SOL    HW112083   1.294   3.539   6.725
 3728SOL    HW212084   1.411   3.572   6.615
 3729SOL     OW12085   0.629   2.513   3.432
 3729SOL    HW112086   0.701   2.580   3.452
 3729SOL    HW212087   0.602   2.467   3.518
 3730SOL     OW12088   2.741   0.659   0.479
 3730SOL    HW112089   2.644   0.677   0.490
 3730SOL    HW212090   2.757   0.613   0.391
 3731SOL     OW12091   3.778   6.617   6.871
 3731SOL    HW112092   3.771   6.592   6.775
 3731SOL    HW212093   3.697   6.585   6.920
 3732SOL     OW12094   2.243   3.747   5.220
 3732SOL    HW112095   2.214   3.722   5.128
 3732SOL    HW212096   2.328   3.801   5.214
 3733SOL     OW12097   2.409   3.562   1.368
 3733SOL    HW112098   2.449   3.473   1.391
 3733SOL    HW212099   2.425   3.582   1.271
 3734SOL     OW12100   5.209   0.502   2.467
 3734SOL    HW112101   5.156   0.570   2.416
 3734SOL    HW212102   5.220   0.532   2.562
 3735SOL     OW12103   3.673   1.451   1.972
 3735SOL    HW112104   3.737   1.443   1.896
 3735SOL    HW212105   3.605   1.522   1.952
 3736SOL     OW12106   5.288   1.901   0.009
 3736SOL    HW112107   5.366   1.931   6.977
 3736SOL    HW212108   5.319   1.867   0.097
 3737SOL     OW12109   4.856   6.886   3.481
 3737SOL    HW112110   4.954   6.869   3.491
 3737SOL    HW212111   4.808   6.855   3.563
 3738SOL     OW12112   0.149   0.074   3.792
 3738SOL    HW112113   0.095   7.021   3.830
 3738SOL    HW212114   0.109   0.103   3.706
 3739SOL     OW12115   0.710   4.309   2.471
 3739SOL    HW112116   0.749   4.266   2.389
 3739SOL    HW212117   0.625   4.356   2.446
 3740SOL     OW12118   5.238   0.707   0.470
 3740SOL    HW112119   5.184   0.623   0.479
 3740SOL    HW212120   5.184   0.777   0.425
 3741SOL     OW12121   3.887   2.406   6.358
 3741SOL    HW112122   3.860   2.324   6.408
 3741SOL    HW212123   3.858   2.487   6.408
 3742SOL     OW12124   3.629   3.197   5.540
 3742SOL    HW112125   3.553   3.175   5.602
 3742SOL    HW212126   3.620   3.145   5.456
 3743SOL     OW12127   0.366   5.635   6.318
 3743SOL    HW112128   0.370   5.640   6.418
 3743SOL    HW212129   0.325   5.718   6.282
 3744SOL     OW12130   0.134   5.970   2.937
 3744SOL    HW112131   0.067   5.896   2.923
 3744SOL    HW212132   0.161   6.007   2.848
 3745SOL     OW12133   4.432   5.824   2.214
 3745SOL    HW112134   4.466   5.730   2.206
 3745SOL    HW212135   4.455   5.860   2.305
 3746SOL     OW12136   3.993   2.033   2.630
 3746SOL    HW112137   4.074   2.075   2.670
 3746SOL    HW212138   3.969   1.951   2.681
 3747SOL     OW12139   2.931   6.881   0.281
 3747SOL    HW112140   2.853   6.820   0.296
 3747SOL    HW212141   2.927   6.957   0.347
 3748SOL     OW12142   5.687   1.227   2.242
 3748SOL    HW112143   5.721   1.182   2.325
 3748SOL    HW212144   5.673   1.324   2.260
 3749SOL     OW12145   1.533   6.948   5.628
 3749SOL    HW112146   1.476   6.871   5.657
 3749SOL    HW212147   1.579   6.925   5.542
 3750SOL     OW12148   0.300   4.148   6.882
 3750SOL    HW112149   0.279   4.160   6.979
 3750SOL    HW212150   0.216   4.155   6.828
 3751SOL     OW12151   1.147   3.891   2.267
 3751SOL    HW112152   1.064   3.840   2.247
 3751SOL    HW212153   1.133   3.949   2.347
 3752SOL     OW12154   5.787   0.177   6.756
 3752SOL    HW112155   5.712   0.117   6.783
 3752SOL    HW212156   5.833   0.212   6.837
 3753SOL     OW12157   6.445   6.952   3.953
 3753SOL    HW112158   6.350   6.973   3.978
 3753SOL    HW212159   6.490   0.012   3.920
 3754SOL     OW12160   2.909   1.626   0.800
 3754SOL    HW112161   2.855   1.543   0.786
 3754SOL    HW212162   2.941   1.629   0.894
 3755SOL     OW12163   2.985   4.790   3.805
 3755SOL    HW112164   3.041   4.840   3.871
 3755SOL    HW212165   2.921   4.730   3.854
 3756SOL     OW12166   2.533   6.423   6.840
 3756SOL    HW112167   2.589   6.352   6.884
 3756SOL    HW212168   2.575   6.512   6.855
 3757SOL     OW12169   6.868   4.570   1.978
 3757SOL    HW112170   6.849   4.662   2.012
 3757SOL    HW212171   6.916   4.576   1.891
 3758SOL     OW12172   2.057   0.096   4.057
 3758SOL    HW112173   2.081   0.166   3.989
 3758SOL    HW212174   1.980   0.129   4.113
 3759SOL     OW12175   5.101   0.342   4.603
 3759SOL    HW112176   5.059   0.431   4.619
 3759SOL    HW212177   5.130   0.303   4.690
 3760SOL     OW12178   0.467   0.973   3.395
 3760SOL    HW112179   0.554   1.002   3.355
 3760SOL    HW212180   0.393   1.026   3.354
 3761SOL     OW12181   5.042   1.033   4.284
 3761SOL    HW112182   5.010   1.125   4.264
 3761SOL    HW212183   5.124   1.014   4.230
 3762SOL     OW12184   6.600   2.392   3.525
 3762SOL    HW112185   6.600   2.316   3.460
 3762SOL    HW212186   6.692   2.405   3.562
 3763SOL     OW12187   0.649   4.570   0.544
 3763SOL    HW112188   0.602   4.611   0.622
 3763SOL    HW212189   0.748   4.580   0.557
 3764SOL     OW12190   2.349   0.848   3.016
 3764SOL    HW112191   2.422   0.847   2.947
 3764SOL    HW212192   2.384   0.811   3.102
 3765SOL     OW12193   5.399   3.201   2.622
 3765SOL    HW112194   5.461   3.171   2.694
 3765SOL    HW212195   5.397   3.133   2.548
 3766SOL     OW12196   1.043   3.927   2.920
 3766SOL    HW112197   1.128   3.933   2.971
 3766SOL    HW212198   1.000   3.838   2.935
 3767SOL     OW12199   1.284   5.367   5.995
 3767SOL    HW112200   1.229   5.383   5.914
 3767SOL    HW212201   1.336   5.281   5.984
 3768SOL     OW12202   0.618   6.765   2.965
 3768SOL    HW112203   0.672   6.816   2.898
 3768SOL    HW212204   0.670   6.758   3.051
 3769SOL     OW12205   5.524   5.075   4.780
 3769SOL    HW112206   5.536   5.136   4.858
 3769SOL    HW212207   5.611   5.027   4.762
 3770SOL     OW12208   1.914   1.023   1.172
 3770SOL    HW112209   1.924   1.084   1.094
 3770SOL    HW212210   1.997   1.028   1.229
 3771SOL     OW12211   6.543   5.034   6.120
 3771SOL    HW112212   6.591   4.975   6.054
 3771SOL    HW212213   6.564   5.004   6.213
 3772SOL     OW12214   1.790   6.183   0.757
 3772SOL    HW112215   1.724   6.126   0.805
 3772SOL    HW212216   1.845   6.127   0.696
 3773SOL     OW12217   5.486   4.869   6.772
 3773SOL    HW112218   5.502   4.896   6.867
 3773SOL    HW212219   5.513   4.773   6.760
 3774SOL     OW12220   6.709   5.261   1.978
 3774SOL    HW112221   6.792   5.233   1.930
 3774SOL    HW212222   6.715   5.358   2.003
 3775SOL     OW12223   4.983   4.742   5.038
 3775SOL    HW112224   5.035   4.821   5.004
 3775SOL    HW212225   4.916   4.714   4.969
 3776SOL     OW12226   3.641   2.568   5.897
 3776SOL    HW112227   3.641   2.662   5.864
 3776SOL    HW212228   3.728   2.550   5.945
 3777SOL     OW12229   2.905   5.726   4.162
 3777SOL    HW112230   2.860   5.804   4.206
 3777SOL    HW212231   2.846   5.690   4.090
 3778SOL     OW12232   3.641   5.561   6.418
 3778SOL    HW112233   3.600   5.627   6.355
 3778SOL    HW212234   3.728   5.528   6.380
 3779SOL     OW12235   6.742   4.365   0.214
 3779SOL    HW112236   6.699   4.379   0.124
 3779SOL    HW212237   6.765   4.454   0.254
 3780SOL     OW12238   5.062   4.263   1.438
 3780SOL    HW112239   5.039   4.332   1.506
 3780SOL    HW212240   4.986   4.198   1.428
 3781SOL     OW12241   2.566   6.593   4.601
 3781SOL    HW112242   2.548   6.590   4.503
 3781SOL    HW212243   2.498   6.650   4.646
 3782SOL     OW12244   4.545   5.626   0.874
 3782SOL    HW112245   4.474   5.610   0.942
 3782SOL    HW212246   4.632   5.643   0.920
 3783SOL     OW12247   5.005   5.747   4.300
 3783SOL    HW112248   4.964   5.683   4.235
 3783SOL    HW212249   4.953   5.746   4.385
 3784SOL     OW12250   6.198   2.091   4.595
 3784SOL    HW112251   6.140   2.021   4.635
 3784SOL    HW212252   6.175   2.180   4.634
 3785SOL     OW12253   2.034   3.287   4.182
 3785SOL    HW112254   2.049   3.380   4.147
 3785SOL    HW212255   1.941   3.257   4.160
 3786SOL     OW12256   2.503   2.557   4.569
 3786SOL    HW112257   2.570   2.508   4.624
 3786SOL    HW212258   2.424   2.498   4.552
 3787SOL     OW12259   4.499   6.862   4.032
 3787SOL    HW112260   4.573   6.797   4.048
 3787SOL    HW212261   4.441   6.829   3.957
 3788SOL     OW12262   5.896   3.002   4.927
 3788SOL    HW112263   5.889   2.971   4.832
 3788SOL    HW212264   5.819   2.968   4.979
 3789SOL     OW12265   2.119   3.327   2.446
 3789SOL    HW112266   2.133   3.411   2.499
 3789SOL    HW212267   2.133   3.347   2.349
 3790SOL     OW12268   0.559   6.714   1.767
 3790SOL    HW112269   0.625   6.652   1.808
 3790SOL    HW212270   0.553   6.697   1.669
 3791SOL     OW12271   5.441   1.190   5.698
 3791SOL    HW112272   5.388   1.133   5.761
 3791SOL    HW212273   5.383   1.215   5.619
 3792SOL     OW12274   6.699   0.257   4.424
 3792SOL    HW112275   6.751   0.310   4.357
 3792SOL    HW212276   6.634   0.317   4.471
 3793SOL     OW12277   4.647   4.859   0.763
 3793SOL    HW112278   4.636   4.954   0.792
 3793SOL    HW212279   4.693   4.807   0.835
 3794SOL     OW12280   0.329   4.046   6.504
 3794SOL    HW112281   0.311   4.143   6.487
 3794SOL    HW212282   0.246   4.001   6.536
 3795SOL     OW12283   2.508   5.870   0.945
 3795SOL    HW112284   2.563   5.799   0.988
 3795SOL    HW212285   2.541   5.960   0.975
 3796SOL     OW12286   5.120   1.201   6.988
 3796SOL    HW112287   5.070   1.271   0.017
 3796SOL    HW212288   5.085   1.110   7.012
 3797SOL     OW12289   1.145   4.691   2.182
 3797SOL    HW112290   1.134   4.653   2.274
 3797SOL    HW212291   1.229   4.745   2.178
 3798SOL     OW12292   1.389   5.812   3.602
 3798SOL    HW112293   1.419   5.883   3.539
 3798SOL    HW212294   1.336   5.854   3.676
 3799SOL     OW12295   6.707   1.055   3.143
 3799SOL    HW112296   6.607   1.046   3.135
 3799SOL    HW212297   6.732   1.062   3.239
 3800SOL     OW12298   4.819   2.522   2.695
 3800SOL    HW112299   4.875   2.447   2.659
 3800SOL    HW212300   4.872   2.607   2.691
 3801SOL     OW12301   6.055   1.548   1.506
 3801SOL    HW112302   6.048   1.626   1.444
 3801SOL    HW212303   6.046   1.463   1.455
 3802SOL     OW12304   6.559   2.883   2.064
 3802SOL    HW112305   6.547   2.940   1.984
 3802SOL    HW212306   6.533   2.788   2.043
 3803SOL     OW12307   3.461   3.128   4.382
 3803SOL    HW112308   3.503   3.105   4.470
 3803SOL    HW212309   3.371   3.169   4.397
 3804SOL     OW12310   4.598   5.855   3.596
 3804SOL    HW112311   4.645   5.907   3.667
 3804SOL    HW212312   4.647   5.867   3.509
 3805SOL     OW12313   2.565   2.599   0.227
 3805SOL    HW112314   2.572   2.653   0.143
 3805SOL    HW212315   2.646   2.616   0.284
 3806SOL     OW12316   2.804   4.721   1.407
 3806SOL    HW112317   2.769   4.811   1.382
 3806SOL    HW212318   2.860   4.729   1.490
 3807SOL     OW12319   1.795   4.556   4.671
 3807SOL    HW112320   1.802   4.509   4.758
 3807SOL    HW212321   1.749   4.497   4.605
 3808SOL     OW12322   2.840   6.970   6.554
 3808SOL    HW112323   2.772   6.937   6.620
 3808SOL    HW212324   2.911   6.901   6.542
 3809SOL     OW12325   5.121   2.035   1.404
 3809SOL    HW112326   5.030   2.012   1.371
 3809SOL    HW212327   5.157   1.959   1.458
 3810SOL     OW12328   5.602   2.543   2.077
 3810SOL    HW112329   5.610   2.605   1.999
 3810SOL    HW212330   5.548   2.587   2.149
 3811SOL     OW12331   0.269   5.546   5.240
 3811SOL    HW112332   0.251   5.580   5.148
 3811SOL    HW212333   0.332   5.468   5.235
 3812SOL     OW12334   4.719   5.826   1.036
 3812SOL    HW112335   4.761   5.735   1.041
 3812SOL    HW212336   4.787   5.895   1.062
 3813SOL     OW12337   6.051   4.285   6.763
 3813SOL    HW112338   5.967   4.325   6.799
 3813SOL    HW212339   6.130   4.326   6.808
 3814SOL     OW12340   6.983   0.470   5.127
 3814SOL    HW112341   6.911   0.538   5.135
 3814SOL    HW212342   6.942   0.380   5.110
 3815SOL     OW12343   6.034   3.611   5.675
 3815SOL    HW112344   6.103   3.632   5.744
 3815SOL    HW212345   6.022   3.690   5.615
 3816SOL     OW12346   0.295   6.113   0.256
 3816SOL    HW112347   0.387   6.151   0.249
 3816SOL    HW212348   0.300   6.024   0.301
 3817SOL     OW12349   4.818   3.893   1.818
 3817SOL    HW112350   4.729   3.848   1.823
 3817SOL    HW212351   4.805   3.992   1.807
 3818SOL     OW12352   5.702   6.068   2.900
 3818SOL    HW112353   5.778   6.074   2.835
 3818SOL    HW212354   5.734   6.026   2.985
 3819SOL     OW12355   6.180   4.525   4.026
 3819SOL    HW112356   6.220   4.457   4.088
 3819SOL    HW212357   6.247   4.597   4.008
 3820SOL     OW12358   3.564   6.719   4.831
 3820SOL    HW112359   3.481   6.732   4.885
 3820SOL    HW212360   3.559   6.630   4.784
 3821SOL     OW12361   2.091   0.139   0.117
 3821SOL    HW112362   2.046   0.061   0.161
 3821SOL    HW212363   2.055   0.150   0.024
 3822SOL     OW12364   4.810   0.238   2.122
 3822SOL    HW112365   4.821   0.147   2.162
 3822SOL    HW212366   4.713   0.255   2.104
 3823SOL     OW12367   5.529   5.740   6.756
 3823SOL    HW112368   5.597   5.756   6.684
 3823SOL    HW212369   5.446   5.703   6.714
 3824SOL     OW12370   2.815   2.619   0.337
 3824SOL    HW112371   2.876   2.571   0.274
 3824SOL    HW212372   2.861   2.634   0.424
 3825SOL     OW12373   1.002   4.203   5.454
 3825SOL    HW112374   0.904   4.188   5.453
 3825SOL    HW212375   1.029   4.257   5.374
 3826SOL     OW12376   5.824   4.319   3.782
 3826SOL    HW112377   5.728   4.295   3.768
 3826SOL    HW212378   5.879   4.284   3.707
 3827SOL     OW12379   0.855   1.664   1.262
 3827SOL    HW112380   0.847   1.584   1.202
 3827SOL    HW212381   0.938   1.715   1.239
 3828SOL     OW12382   3.354   3.677   4.242
 3828SOL    HW112383   3.359   3.588   4.287
 3828SOL    HW212384   3.322   3.665   4.148
 3829SOL     OW12385   0.927   3.726   2.245
 3829SOL    HW112386   0.841   3.702   2.290
 3829SOL    HW212387   0.923   3.697   2.149
 3830SOL     OW12388   6.161   0.657   4.287
 3830SOL    HW112389   6.070   0.619   4.276
 3830SOL    HW212390   6.170   0.739   4.230
 3831SOL     OW12391   4.801   2.162   3.713
 3831SOL    HW112392   4.863   2.087   3.692
 3831SOL    HW212393   4.709   2.139   3.682
 3832SOL     OW12394   5.891   0.739   3.933
 3832SOL    HW112395   5.936   0.826   3.953
 3832SOL    HW212396   5.824   0.753   3.860
 3833SOL     OW12397   1.405   1.512   5.455
 3833SOL    HW112398   1.383   1.414   5.453
 3833SOL    HW212399   1.489   1.528   5.404
 3834SOL     OW12400   4.904   4.235   0.670
 3834SOL    HW112401   4.990   4.193   0.640
 3834SOL    HW212402   4.827   4.181   0.638
 3835SOL     OW12403   3.773   5.444   4.743
 3835SOL    HW112404   3.718   5.429   4.825
 3835SOL    HW212405   3.752   5.534   4.705
 3836SOL     OW12406   0.467   6.381   5.826
 3836SOL    HW112407   0.563   6.386   5.853
 3836SOL    HW212408   0.454   6.429   5.740
 3837SOL     OW12409   4.432   5.031   5.576
 3837SOL    HW112410   4.481   5.025   5.489
 3837SOL    HW212411   4.336   5.052   5.559
 3838SOL     OW12412   0.788   1.146   4.216
 3838SOL    HW112413   0.854   1.220   4.227
 3838SOL    HW212414   0.781   1.121   4.120
 3839SOL     OW12415   4.005   0.504   3.945
 3839SOL    HW112416   4.016   0.586   3.889
 3839SOL    HW212417   3.947   0.524   4.024
 3840SOL     OW12418   2.633   1.565   6.774
 3840SOL    HW112419   2.630   1.579   6.873
 3840SOL    HW212420   2.703   1.625   6.734
 3841SOL     OW12421   5.758   4.852   4.216
 3841SOL    HW112422   5.708   4.771   4.245
 3841SOL    HW212423   5.847   4.854   4.262
 3842SOL     OW12424   1.571   3.444   5.375
 3842SOL    HW112425   1.644   3.492   5.423
 3842SOL    HW212426   1.578   3.346   5.393
 3843SOL     OW12427   5.245   2.510   7.012
 3843SOL    HW112428   5.247   2.610   7.015
 3843SOL    HW212429   5.174   2.480   6.948
 3844SOL     OW12430   1.331   0.043   1.027
 3844SOL    HW112431   1.288   0.001   0.946
 3844SOL    HW212432   1.348   6.995   1.096
 3845SOL     OW12433   2.395   5.354   0.748
 3845SOL    HW112434   2.338   5.315   0.820
 3845SOL    HW212435   2.462   5.417   0.788
 3846SOL     OW12436   0.863   2.868   2.882
 3846SOL    HW112437   0.879   2.825   2.971
 3846SOL    HW212438   0.768   2.898   2.876
 3847SOL     OW12439   0.074   1.747   6.920
 3847SOL    HW112440   0.035   1.830   6.879
 3847SOL    HW212441   0.128   1.772   7.000
 3848SOL     OW12442   5.858   3.610   2.504
 3848SOL    HW112443   5.854   3.625   2.405
 3848SOL    HW212444   5.934   3.662   2.542
 3849SOL     OW12445   6.743   4.941   0.010
 3849SOL    HW112446   6.757   5.021   6.974
 3849SOL    HW212447   6.779   4.860   6.988
 3850SOL     OW12448   2.577   2.567   1.403
 3850SOL    HW112449   2.658   2.613   1.439
 3850SOL    HW212450   2.543   2.616   1.323
 3851SOL     OW12451   0.652   6.200   2.406
 3851SOL    HW112452   0.607   6.280   2.366
 3851SOL    HW212453   0.706   6.229   2.485
 3852SOL     OW12454   2.668   6.290   5.724
 3852SOL    HW112455   2.618   6.285   5.637
 3852SOL    HW212456   2.606   6.316   5.797
 3853SOL     OW12457   2.252   0.510   3.463
 3853SOL    HW112458   2.214   0.600   3.443
 3853SOL    HW212459   2.311   0.516   3.543
 3854SOL     OW12460   1.742   2.485   2.688
 3854SOL    HW112461   1.836   2.516   2.701
 3854SOL    HW212462   1.737   2.386   2.703
 3855SOL     OW12463   4.144   0.036   0.240
 3855SOL    HW112464   4.144   0.093   0.322
 3855SOL    HW212465   4.139   6.962   0.266
 3856SOL     OW12466   0.497   2.330   6.763
 3856SOL    HW112467   0.441   2.413   6.766
 3856SOL    HW212468   0.581   2.344   6.814
 3857SOL     OW12469   2.398   0.581   5.487
 3857SOL    HW112470   2.317   0.597   5.431
 3857SOL    HW212471   2.463   0.657   5.474
 3858SOL     OW12472   4.418   0.435   5.220
 3858SOL    HW112473   4.359   0.490   5.280
 3858SOL    HW212474   4.371   0.417   5.134
 3859SOL     OW12475   5.998   0.192   2.043
 3859SOL    HW112476   5.958   0.154   2.127
 3859SOL    HW212477   5.944   0.271   2.013
 3860SOL     OW12478   1.039   7.016   4.107
 3860SOL    HW112479   0.969   0.063   4.121
 3860SOL    HW212480   0.999   6.925   4.124
 3861SOL     OW12481   3.715   5.937   1.779
 3861SOL    HW112482   3.694   5.931   1.876
 3861SOL    HW212483   3.643   5.988   1.732
 3862SOL     OW12484   1.490   0.128   3.850
 3862SOL    HW112485   1.416   0.136   3.916
 3862SOL    HW212486   1.470   0.053   3.786
 3863SOL     OW12487   3.943   0.344   0.502
 3863SOL    HW112488   3.967   0.436   0.473
 3863SOL    HW212489   4.024   0.298   0.537
 3864SOL     OW12490   2.411   0.071   4.346
 3864SOL    HW112491   2.314   0.095   4.355
 3864SOL    HW212492   2.467   0.152   4.365
 3865SOL     OW12493   3.760   0.524   0.234
 3865SOL    HW112494   3.787   0.548   0.141
 3865SOL    HW212495   3.781   0.428   0.251
 3866SOL     OW12496   2.703   2.666   6.701
 3866SOL    HW112497   2.677   2.660   6.604
 3866SOL    HW212498   2.624   2.643   6.758
 3867SOL     OW12499   0.733   3.387   1.946
 3867SOL    HW112500   0.651   3.444   1.940
 3867SOL    HW212501   0.723   3.308   1.886
 3868SOL     OW12502   4.401   0.916   0.002
 3868SOL    HW112503   4.304   0.930   0.023
 3868SOL    HW212504   4.410   0.847   6.953
 3869SOL     OW12505   6.104   3.236   3.394
 3869SOL    HW112506   6.070   3.189   3.313
 3869SOL    HW212507   6.188   3.285   3.372
 3870SOL     OW12508   6.763   0.346   3.942
 3870SOL    HW112509   6.707   0.384   3.869
 3870SOL    HW212510   6.739   0.250   3.956
 3871SOL     OW12511   3.029   5.665   4.407
 3871SOL    HW112512   3.015   5.569   4.432
 3871SOL    HW212513   2.986   5.683   4.318
 3872SOL     OW12514   3.409   3.614   5.204
 3872SOL    HW112515   3.406   3.656   5.295
 3872SOL    HW212516   3.317   3.609   5.167
 3873SOL     OW12517   4.746   2.321   0.411
 3873SOL    HW112518   4.730   2.392   0.479
 3873SOL    HW212519   4.716   2.232   0.446
 3874SOL     OW12520   2.775   0.459   0.276
 3874SOL    HW112521   2.859   0.502   0.245
 3874SOL    HW212522   2.737   0.402   0.203
 3875SOL     OW12523   1.365   2.319   5.769
 3875SOL    HW112524   1.375   2.406   5.721
 3875SOL    HW212525   1.329   2.335   5.861
 3876SOL     OW12526   4.109   5.428   0.952
 3876SOL    HW112527   4.068   5.489   0.885
 3876SOL    HW212528   4.053   5.345   0.960
 3877SOL     OW12529   6.905   2.304   0.432
 3877SOL    HW112530   6.834   2.235   0.444
 3877SOL    HW212531   6.901   2.340   0.339
 3878SOL     OW12532   4.138   0.101   3.731
 3878SOL    HW112533   4.152   0.004   3.710
 3878SOL    HW212534   4.127   0.112   3.830
 3879SOL     OW12535   5.177   5.068   0.050
 3879SOL    HW112536   5.185   5.101   0.144
 3879SOL    HW212537   5.217   4.977   0.043
 3880SOL     OW12538   4.742   4.138   4.227
 3880SOL    HW112539   4.774   4.056   4.274
 3880SOL    HW212540   4.675   4.186   4.284
 3881SOL     OW12541   1.017   4.033   0.286
 3881SOL    HW112542   1.064   4.018   0.199
 3881SOL    HW212543   1.080   4.073   0.352
 3882SOL     OW12544   0.919   1.942   0.941
 3882SOL    HW112545   0.949   2.022   0.992
 3882SOL    HW212546   0.857   1.970   0.867
 3883SOL     OW12547   4.450   6.145   3.479
 3883SOL    HW112548   4.456   6.047   3.456
 3883SOL    HW212549   4.521   6.195   3.430
 3884SOL     OW12550   0.811   5.313   2.559
 3884SOL    HW112551   0.714   5.332   2.570
 3884SOL    HW212552   0.844   5.262   2.639
 3885SOL     OW12553   5.387   6.320   2.771
 3885SOL    HW112554   5.334   6.401   2.745
 3885SOL    HW212555   5.468   6.312   2.713
 3886SOL     OW12556   3.967   6.498   6.072
 3886SOL    HW112557   3.918   6.415   6.100
 3886SOL    HW212558   3.920   6.578   6.109
 3887SOL     OW12559   0.289   6.307   1.687
 3887SOL    HW112560   0.306   6.398   1.725
 3887SOL    HW212561   0.375   6.269   1.652
 3888SOL     OW12562   5.567   6.070   4.713
 3888SOL    HW112563   5.495   6.133   4.684
 3888SOL    HW212564   5.565   6.060   4.813
 3889SOL     OW12565   5.881   3.601   6.515
 3889SOL    HW112566   5.843   3.651   6.593
 3889SOL    HW212567   5.842   3.637   6.430
 3890SOL     OW12568   5.181   3.277   4.720
 3890SOL    HW112569   5.085   3.291   4.697
 3890SOL    HW212570   5.191   3.260   4.818
 3891SOL     OW12571   5.759   4.841   3.359
 3891SOL    HW112572   5.664   4.816   3.340
 3891SOL    HW212573   5.777   4.830   3.457
 3892SOL     OW12574   6.889   2.385   1.314
 3892SOL    HW112575   6.906   2.483   1.320
 3892SOL    HW212576   6.905   2.343   1.403
 3893SOL     OW12577   4.409   3.392   1.130
 3893SOL    HW112578   4.403   3.491   1.144
 3893SOL    HW212579   4.389   3.345   1.216
 3894SOL     OW12580   4.671   0.482   6.396
 3894SOL    HW112581   4.710   0.536   6.471
 3894SOL    HW212582   4.712   0.391   6.395
 3895SOL     OW12583   1.825   6.852   4.764
 3895SOL    HW112584   1.776   6.822   4.845
 3895SOL    HW212585   1.919   6.876   4.788
 3896SOL     OW12586   1.414   1.226   6.720
 3896SOL    HW112587   1.513   1.232   6.734
 3896SOL    HW212588   1.368   1.223   6.809
 3897SOL     OW12589   4.431   5.779   1.671
 3897SOL    HW112590   4.464   5.870   1.647
 3897SOL    HW212591   4.488   5.740   1.743
 3898SOL     OW12592   4.066   2.841   6.177
 3898SOL    HW112593   4.038   2.861   6.271
 3898SOL    HW212594   3.984   2.831   6.120
 3899SOL     OW12595   4.640   6.604   6.179
 3899SOL    HW112596   4.680   6.695   6.185
 3899SOL    HW212597   4.541   6.610   6.187
 3900SOL     OW12598   5.276   3.666   2.841
 3900SOL    HW112599   5.225   3.694   2.923
 3900SOL    HW212600   5.353   3.729   2.828
 3901SOL     OW12601   2.770   0.219   6.641
 3901SOL    HW112602   2.819   0.238   6.727
 3901SOL    HW212603   2.779   0.122   6.618
 3902SOL     OW12604   6.231   3.318   2.597
 3902SOL    HW112605   6.241   3.415   2.617
 3902SOL    HW212606   6.307   3.267   2.638
 3903SOL     OW12607   3.909   5.387   6.569
 3903SOL    HW112608   3.965   5.357   6.646
 3903SOL    HW212609   3.926   5.483   6.551
 3904SOL     OW12610   1.441   0.223   0.193
 3904SOL    HW112611   1.475   0.157   0.259
 3904SOL    HW212612   1.518   0.280   0.161
 3905SOL     OW12613   0.164   5.865   5.642
 3905SOL    HW112614   0.166   5.956   5.601
 3905SOL    HW212615   0.222   5.803   5.589
 3906SOL     OW12616   5.513   6.353   5.649
 3906SOL    HW112617   5.561   6.266   5.640
 3906SOL    HW212618   5.566   6.415   5.707
 3907SOL     OW12619   6.051   2.048   3.799
 3907SOL    HW112620   6.068   1.953   3.822
 3907SOL    HW212621   5.953   2.064   3.790
 3908SOL     OW12622   1.036   2.010   6.206
 3908SOL    HW112623   1.039   2.105   6.236
 3908SOL    HW212624   0.964   1.999   6.138
 3909SOL     OW12625   5.299   5.370   4.343
 3909SOL    HW112626   5.240   5.318   4.281
 3909SOL    HW212627   5.366   5.308   4.385
 3910SOL     OW12628   3.470   3.860   2.872
 3910SOL    HW112629   3.475   3.959   2.858
 3910SOL    HW212630   3.393   3.823   2.819
 3911SOL     OW12631   5.693   1.568   5.311
 3911SOL    HW112632   5.704   1.471   5.331
 3911SOL    HW212633   5.748   1.622   5.374
 3912SOL     OW12634   5.717   2.085   5.426
 3912SOL    HW112635   5.697   2.166   5.482
 3912SOL    HW212636   5.722   2.112   5.330
 3913SOL     OW12637   1.372   6.784   6.993
 3913SOL    HW112638   1.375   6.882   6.973
 3913SOL    HW212639   1.367   6.771   0.069
 3914SOL     OW12640   3.663   6.610   6.176
 3914SOL    HW112641   3.610   6.561   6.106
 3914SOL    HW212642   3.607   6.683   6.214
 3915SOL     OW12643   5.457   5.450   1.447
 3915SOL    HW112644   5.540   5.410   1.486
 3915SOL    HW212645   5.443   5.414   1.355
 3916SOL     OW12646   1.125   0.069   2.750
 3916SOL    HW112647   1.100   7.000   2.718
 3916SOL    HW212648   1.156   0.064   2.845
 3917SOL     OW12649   1.720   0.049   6.926
 3917SOL    HW112650   1.707   6.985   6.877
 3917SOL    HW212651   1.743   0.029   7.021
 3918SOL     OW12652   5.373   4.235   1.537
 3918SOL    HW112653   5.276   4.258   1.547
 3918SOL    HW212654   5.387   4.139   1.560
 3919SOL     OW12655   3.571   0.067   0.745
 3919SOL    HW112656   3.477   0.042   0.725
 3919SOL    HW212657   3.615   0.102   0.662
 3920SOL     OW12658   2.047   2.682   6.845
 3920SOL    HW112659   2.115   2.649   6.911
 3920SOL    HW212660   1.990   2.606   6.814
 3921SOL     OW12661   1.162   4.168   1.520
 3921SOL    HW112662   1.220   4.203   1.447
 3921SOL    HW212663   1.066   4.175   1.492
 3922SOL     OW12664   0.655   3.827   1.683
 3922SOL    HW112665   0.635   3.818   1.780
 3922SOL    HW212666   0.696   3.917   1.665
 3923SOL     OW12667   0.965   0.771   0.441
 3923SOL    HW112668   0.911   0.688   0.455
 3923SOL    HW212669   0.923   0.847   0.491
 3924SOL     OW12670   6.266   4.846   4.648
 3924SOL    HW112671   6.247   4.915   4.578
 3924SOL    HW212672   6.197   4.852   4.720
 3925SOL     OW12673   1.649   5.086   2.073
 3925SOL    HW112674   1.612   5.037   1.994
 3925SOL    HW212675   1.737   5.127   2.048
 3926SOL     OW12676   4.634   4.324   2.267
 3926SOL    HW112677   4.582   4.322   2.182
 3926SOL    HW212678   4.674   4.234   2.284
 3927SOL     OW12679   0.429   3.104   6.066
 3927SOL    HW112680   0.397   3.012   6.043
 3927SOL    HW212681   0.354   3.169   6.050
 3928SOL     OW12682   5.211   5.939   6.720
 3928SOL    HW112683   5.277   5.863   6.726
 3928SOL    HW212684   5.129   5.916   6.773
 3929SOL     OW12685   0.451   0.947   5.069
 3929SOL    HW112686   0.471   0.912   4.978
 3929SOL    HW212687   0.412   0.874   5.125
 3930SOL     OW12688   2.348   1.861   3.025
 3930SOL    HW112689   2.297   1.895   3.104
 3930SOL    HW212690   2.433   1.819   3.055
 3931SOL     OW12691   6.258   1.691   1.646
 3931SOL    HW112692   6.348   1.656   1.622
 3931SOL    HW212693   6.189   1.621   1.625
 3932SOL     OW12694   0.646   2.617   4.051
 3932SOL    HW112695   0.705   2.651   4.124
 3932SOL    HW212696   0.701   2.592   3.972
 3933SOL     OW12697   1.594   0.296   6.294
 3933SOL    HW112698   1.613   0.288   6.196
 3933SOL    HW212699   1.585   0.393   6.318
 3934SOL     OW12700   6.051   0.363   6.219
 3934SOL    HW112701   6.127   0.339   6.157
 3934SOL    HW212702   6.056   0.461   6.239
 3935SOL     OW12703   4.244   0.503   0.706
 3935SOL    HW112704   4.207   0.545   0.624
 3935SOL    HW212705   4.177   0.440   0.745
 3936SOL     OW12706   6.083   5.649   4.324
 3936SOL    HW112707   6.139   5.731   4.316
 3936SOL    HW212708   5.997   5.670   4.370
 3937SOL     OW12709   0.190   1.447   2.431
 3937SOL    HW112710   0.166   1.383   2.358
 3937SOL    HW212711   0.285   1.433   2.459
 3938SOL     OW12712   6.915   1.144   2.969
 3938SOL    HW112713   6.848   1.121   3.040
 3938SOL    HW212714   6.944   1.060   2.923
 3939SOL     OW12715   3.263   1.716   1.998
 3939SOL    HW112716   3.263   1.635   2.056
 3939SOL    HW212717   3.177   1.765   2.009
 3940SOL     OW12718   3.422   3.368   1.099
 3940SOL    HW112719   3.396   3.456   1.137
 3940SOL    HW212720   3.434   3.376   1.000
 3941SOL     OW12721   4.115   4.466   6.247
 3941SOL    HW112722   4.082   4.538   6.308
 3941SOL    HW212723   4.183   4.410   6.294
 3942SOL     OW12724   6.261   6.901   6.821
 3942SOL    HW112725   6.273   6.990   6.865
 3942SOL    HW212726   6.342   6.879   6.767
 3943SOL     OW12727   0.738   2.920   4.456
 3943SOL    HW112728   0.723   3.004   4.403
 3943SOL    HW212729   0.715   2.937   4.552
 3944SOL     OW12730   4.976   2.485   4.598
 3944SOL    HW112731   4.952   2.398   4.555
 3944SOL    HW212732   4.965   2.559   4.531
 3945SOL     OW12733   0.084   1.824   0.806
 3945SOL    HW112734   0.081   1.917   0.842
 3945SOL    HW212735   0.175   1.785   0.822
 3946SOL     OW12736   4.549   4.832   3.335
 3946SOL    HW112737   4.502   4.889   3.403
 3946SOL    HW212738   4.618   4.776   3.380
 3947SOL     OW12739   4.673   6.187   0.395
 3947SOL    HW112740   4.574   6.173   0.402
 3947SOL    HW212741   4.720   6.115   0.447
 3948SOL     OW12742   6.473   4.484   1.618
 3948SOL    HW112743   6.524   4.407   1.655
 3948SOL    HW212744   6.535   4.561   1.602
 3949SOL     OW12745   4.403   5.733   3.282
 3949SOL    HW112746   4.496   5.711   3.313
 3949SOL    HW212747   4.407   5.767   3.188
 3950SOL     OW12748   1.791   5.383   1.154
 3950SOL    HW112749   1.698   5.378   1.191
 3950SOL    HW212750   1.802   5.469   1.104
 3951SOL     OW12751   5.060   0.661   1.437
 3951SOL    HW112752   5.124   0.639   1.511
 3951SOL    HW212753   4.966   0.657   1.473
 3952SOL     OW12754   0.169   2.940   0.847
 3952SOL    HW112755   0.145   2.845   0.833
 3952SOL    HW212756   0.167   2.989   0.759
 3953SOL     OW12757   4.023   3.586   1.888
 3953SOL    HW112758   4.032   3.489   1.911
 3953SOL    HW212759   4.047   3.642   1.967
 3954SOL     OW12760   4.183   5.053   5.479
 3954SOL    HW112761   4.085   5.035   5.488
 3954SOL    HW212762   4.197   5.141   5.434
 3955SOL     OW12763   3.300   0.879   6.036
 3955SOL    HW112764   3.324   0.954   5.975
 3955SOL    HW212765   3.327   0.792   5.995
 3956SOL     OW12766   1.114   0.880   2.363
 3956SOL    HW112767   1.153   0.879   2.271
 3956SOL    HW212768   1.014   0.884   2.357
 3957SOL     OW12769   3.732   0.202   4.026
 3957SOL    HW112770   3.669   0.257   4.079
 3957SOL    HW212771   3.681   0.134   3.973
 3958SOL     OW12772   6.025   2.040   4.362
 3958SOL    HW112773   6.112   2.050   4.411
 3958SOL    HW212774   6.001   2.126   4.317
 3959SOL     OW12775   4.880   5.224   0.542
 3959SOL    HW112776   4.901   5.127   0.528
 3959SOL    HW212777   4.965   5.273   0.561
 3960SOL     OW12778   5.469   2.121   5.142
 3960SOL    HW112779   5.397   2.066   5.099
 3960SOL    HW212780   5.429   2.204   5.181
 3961SOL     OW12781   5.132   0.255   3.067
 3961SOL    HW112782   5.228   0.259   3.039
 3961SOL    HW212783   5.079   0.319   3.012
 3962SOL     OW12784   0.736   5.257   6.026
 3962SOL    HW112785   0.747   5.256   6.126
 3962SOL    HW212786   0.658   5.315   6.002
 3963SOL     OW12787   4.882   6.347   2.076
 3963SOL    HW112788   4.788   6.338   2.109
 3963SOL    HW212789   4.916   6.439   2.097
 3964SOL     OW12790   4.897   3.758   3.091
 3964SOL    HW112791   4.867   3.852   3.104
 3964SOL    HW212792   4.995   3.752   3.106
 3965SOL     OW12793   5.135   3.144   4.231
 3965SOL    HW112794   5.195   3.222   4.211
 3965SOL    HW212795   5.135   3.126   4.329
 3966SOL     OW12796   3.692   5.293   6.435
 3966SOL    HW112797   3.648   5.382   6.428
 3966SOL    HW212798   3.776   5.302   6.489
 3967SOL     OW12799   1.741   4.604   2.342
 3967SOL    HW112800   1.833   4.642   2.343
 3967SOL    HW212801   1.696   4.625   2.256
 3968SOL     OW12802   4.131   0.588   0.482
 3968SOL    HW112803   4.041   0.629   0.475
 3968SOL    HW212804   4.190   0.623   0.409
 3969SOL     OW12805   1.917   5.557   2.184
 3969SOL    HW112806   1.850   5.585   2.116
 3969SOL    HW212807   1.892   5.467   2.221
 3970SOL     OW12808   5.886   6.195   2.381
 3970SOL    HW112809   5.864   6.158   2.471
 3970SOL    HW212810   5.977   6.163   2.354
 3971SOL     OW12811   2.804   6.041   3.910
 3971SOL    HW112812   2.863   6.049   3.991
 3971SOL    HW212813   2.748   6.123   3.901
 3972SOL     OW12814   1.759   3.727   0.120
 3972SOL    HW112815   1.742   3.755   0.026
 3972SOL    HW212816   1.685   3.760   0.179
 3973SOL     OW12817   1.029   5.837   0.779
 3973SOL    HW112818   1.118   5.794   0.759
 3973SOL    HW212819   1.043   5.918   0.836
 3974SOL     OW12820   1.979   0.799   5.830
 3974SOL    HW112821   1.895   0.785   5.882
 3974SOL    HW212822   2.015   0.711   5.799
 3975SOL     OW12823   4.969   2.395   6.124
 3975SOL    HW112824   5.059   2.410   6.165
 3975SOL    HW212825   4.951   2.467   6.058
 3976SOL     OW12826   1.738   6.315   2.348
 3976SOL    HW112827   1.818   6.277   2.303
 3976SOL    HW212828   1.668   6.244   2.358
 3977SOL     OW12829   0.844   4.006   6.652
 3977SOL    HW112830   0.882   3.970   6.738
 3977SOL    HW212831   0.752   4.040   6.669
 3978SOL     OW12832   6.746   4.923   3.814
 3978SOL    HW112833   6.688   4.995   3.854
 3978SOL    HW212834   6.821   4.901   3.877
 3979SOL     OW12835   3.518   1.065   6.407
 3979SOL    HW112836   3.438   1.087   6.350
 3979SOL    HW212837   3.569   1.149   6.426
 3980SOL     OW12838   6.141   6.387   6.266
 3980SOL    HW112839   6.094   6.400   6.178
 3980SOL    HW212840   6.238   6.372   6.250
 3981SOL     OW12841   5.237   6.483   0.379
 3981SOL    HW112842   5.163   6.506   0.442
 3981SOL    HW212843   5.320   6.463   0.431
 3982SOL     OW12844   2.379   0.169   2.204
 3982SOL    HW112845   2.335   0.147   2.291
 3982SOL    HW212846   2.464   0.117   2.196
 3983SOL     OW12847   4.196   5.453   3.912
 3983SOL    HW112848   4.257   5.388   3.958
 3983SOL    HW212849   4.243   5.541   3.902
 3984SOL     OW12850   5.540   1.696   2.481
 3984SOL    HW112851   5.576   1.733   2.566
 3984SOL    HW212852   5.487   1.613   2.500
 3985SOL     OW12853   2.777   5.222   6.525
 3985SOL    HW112854   2.774   5.321   6.539
 3985SOL    HW212855   2.871   5.190   6.527
 3986SOL     OW12856   4.815   1.883   2.241
 3986SOL    HW112857   4.914   1.886   2.257
 3986SOL    HW212858   4.768   1.938   2.310
 3987SOL     OW12859   3.409   4.968   4.660
 3987SOL    HW112860   3.465   4.944   4.581
 3987SOL    HW212861   3.312   4.964   4.635
 3988SOL     OW12862   4.579   5.517   0.612
 3988SOL    HW112863   4.536   5.584   0.673
 3988SOL    HW212864   4.527   5.432   0.615
 3989SOL     OW12865   6.068   2.413   0.129
 3989SOL    HW112866   6.146   2.425   0.190
 3989SOL    HW212867   6.041   2.502   0.091
 3990SOL     OW12868   5.069   2.811   1.727
 3990SOL    HW112869   5.026   2.867   1.798
 3990SOL    HW212870   5.016   2.727   1.715
 3991SOL     OW12871   0.201   0.825   2.945
 3991SOL    HW112872   0.114   0.791   2.910
 3991SOL    HW212873   0.193   0.922   2.967
 3992SOL     OW12874   3.310   2.012   0.786
 3992SOL    HW112875   3.366   2.091   0.810
 3992SOL    HW212876   3.351   1.964   0.708
 3993SOL     OW12877   1.083   3.428   2.390
 3993SOL    HW112878   1.160   3.373   2.421
 3993SOL    HW212879   1.016   3.436   2.464
 3994SOL     OW12880   2.947   6.952   5.231
 3994SOL    HW112881   2.915   7.000   5.149
 3994SOL    HW212882   2.878   6.886   5.260
 3995SOL     OW12883   1.541   2.512   5.237
 3995SOL    HW112884   1.580   2.531   5.146
 3995SOL    HW212885   1.609   2.533   5.307
 3996SOL     OW12886   0.831   6.244   5.044
 3996SOL    HW112887   0.876   6.173   4.990
 3996SOL    HW212888   0.737   6.255   5.013
 3997SOL     OW12889   5.520   0.922   4.262
 3997SOL    HW112890   5.450   0.865   4.305
 3997SOL    HW212891   5.573   0.968   4.332
 3998SOL     OW12892   3.868   2.003   3.834
 3998SOL    HW112893   3.802   2.044   3.898
 3998SOL    HW212894   3.822   1.931   3.782
 3999SOL     OW12895   6.149   2.329   4.691
 3999SOL    HW112896   6.161   2.351   4.787
 3999SOL    HW212897   6.201   2.392   4.634
 4000SOL     OW12898   3.862   0.211   3.683
 4000SOL    HW112899   3.946   0.157   3.684
 4000SOL    HW212900   3.814   0.200   3.770
 4001SOL     OW12901   1.629   1.975   3.505
 4001SOL    HW112902   1.603   2.070   3.523
 4001SOL    HW212903   1.725   1.971   3.477
 4002SOL     OW12904   2.154   3.660   2.031
 4002SOL    HW112905   2.219   3.690   2.101
 4002SOL    HW212906   2.181   3.570   1.998
 4003SOL     OW12907   3.340   0.331   4.724
 4003SOL    HW112908   3.401   0.388   4.779
 4003SOL    HW212909   3.361   0.345   4.627
 4004SOL     OW12910   6.539   1.893   4.978
 4004SOL    HW112911   6.441   1.875   4.985
 4004SOL    HW212912   6.558   1.946   4.896
 4005SOL     OW12913   5.334   5.416   6.159
 4005SOL    HW112914   5.418   5.461   6.128
 4005SOL    HW212915   5.345   5.317   6.153
 4006SOL     OW12916   3.925   5.622   1.900
 4006SOL    HW112917   3.977   5.553   1.950
 4006SOL    HW212918   3.924   5.708   1.951
 4007SOL     OW12919   7.004   2.378   6.884
 4007SOL    HW112920   0.054   2.309   6.886
 4007SOL    HW212921   6.997   2.416   6.792
 4008SOL     OW12922   2.723   2.427   4.707
 4008SOL    HW112923   2.753   2.400   4.798
 4008SOL    HW212924   2.802   2.453   4.651
 4009SOL     OW12925   4.014   3.580   2.688
 4009SOL    HW112926   4.070   3.575   2.771
 4009SOL    HW212927   3.987   3.675   2.671
 4010SOL     OW12928   2.086   3.315   0.546
 4010SOL    HW112929   2.160   3.250   0.564
 4010SOL    HW212930   2.003   3.266   0.521
 4011SOL     OW12931   1.682   2.413   1.976
 4011SOL    HW112932   1.613   2.344   1.953
 4011SOL    HW212933   1.666   2.446   2.069
 4012SOL     OW12934   6.899   4.275   3.358
 4012SOL    HW112935   6.953   4.223   3.292
 4012SOL    HW212936   6.897   4.226   3.445
 4013SOL     OW12937   4.631   2.622   3.278
 4013SOL    HW112938   4.551   2.604   3.221
 4013SOL    HW212939   4.635   2.556   3.352
 4014SOL     OW12940   5.088   5.984   3.018
 4014SOL    HW112941   5.011   5.968   2.957
 4014SOL    HW212942   5.170   6.003   2.964
 4015SOL     OW12943   4.932   3.839   6.034
 4015SOL    HW112944   4.837   3.871   6.035
 4015SOL    HW212945   4.956   3.801   6.123
 4016SOL     OW12946   3.017   6.101   5.900
 4016SOL    HW112947   2.960   6.077   5.822
 4016SOL    HW212948   3.076   6.023   5.923
 4017SOL     OW12949   6.433   5.642   6.870
 4017SOL    HW112950   6.333   5.650   6.866
 4017SOL    HW212951   6.461   5.555   6.830
 4018SOL     OW12952   3.539   5.706   1.125
 4018SOL    HW112953   3.590   5.649   1.061
 4018SOL    HW212954   3.549   5.802   1.100
 4019SOL     OW12955   5.038   5.469   3.611
 4019SOL    HW112956   5.138   5.464   3.604
 4019SOL    HW212957   5.003   5.385   3.654
 4020SOL     OW12958   5.650   2.200   5.779
 4020SOL    HW112959   5.661   2.102   5.797
 4020SOL    HW212960   5.738   2.246   5.790
 4021SOL     OW12961   3.040   4.276   5.850
 4021SOL    HW112962   2.997   4.330   5.923
 4021SOL    HW212963   3.000   4.303   5.762
 4022SOL     OW12964   4.928   0.090   1.214
 4022SOL    HW112965   5.005   0.080   1.151
 4022SOL    HW212966   4.957   0.145   1.293
 4023SOL     OW12967   6.379   0.742   5.925
 4023SOL    HW112968   6.403   0.723   6.021
 4023SOL    HW212969   6.295   0.694   5.902
 4024SOL     OW12970   3.490   4.890   3.648
 4024SOL    HW112971   3.395   4.861   3.657
 4024SOL    HW212972   3.497   4.956   3.573
 4025SOL     OW12973   0.979   4.620   3.310
 4025SOL    HW112974   0.924   4.686   3.259
 4025SOL    HW212975   0.958   4.626   3.407
 4026SOL     OW12976   5.396   6.370   4.376
 4026SOL    HW112977   5.407   6.469   4.377
 4026SOL    HW212978   5.431   6.332   4.462
 4027SOL     OW12979   3.836   5.198   1.697
 4027SOL    HW112980   3.856   5.177   1.793
 4027SOL    HW212981   3.922   5.211   1.647
 4028SOL     OW12982   2.588   0.430   3.512
 4028SOL    HW112983   2.533   0.366   3.566
 4028SOL    HW212984   2.610   0.388   3.423
 4029SOL     OW12985   2.109   4.349   4.975
 4029SOL    HW112986   2.057   4.420   4.927
 4029SOL    HW212987   2.198   4.386   5.003
 4030SOL     OW12988   0.316   2.106   5.510
 4030SOL    HW112989   0.410   2.083   5.536
 4030SOL    HW212990   0.268   2.023   5.482
 4031SOL     OW12991   4.129   5.732   4.213
 4031SOL    HW112992   4.041   5.780   4.219
 4031SOL    HW212993   4.142   5.676   4.295
 4032SOL     OW12994   5.206   0.262   4.855
 4032SOL    HW112995   5.205   0.163   4.873
 4032SOL    HW212996   5.293   0.288   4.815
 4033SOL     OW12997   2.940   3.749   5.134
 4033SOL    HW112998   2.944   3.825   5.069
 4033SOL    HW212999   2.868   3.766   5.202
 4034SOL     OW13000   6.399   2.224   3.824
 4034SOL    HW113001   6.492   2.255   3.806
 4034SOL    HW213002   6.385   2.134   3.785
 4035SOL     OW13003   0.320   5.113   0.804
 4035SOL    HW113004   0.417   5.119   0.782
 4035SOL    HW213005   0.268   5.171   0.741
 4036SOL     OW13006   6.674   6.890   3.297
 4036SOL    HW113007   6.612   6.881   3.219
 4036SOL    HW213008   6.689   6.987   3.317
 4037SOL     OW13009   6.571   4.169   6.244
 4037SOL    HW113010   6.504   4.102   6.276
 4037SOL    HW213011   6.584   4.160   6.146
 4038SOL     OW13012   5.560   4.760   3.921
 4038SOL    HW113013   5.507   4.745   3.838
 4038SOL    HW213014   5.657   4.771   3.898
 4039SOL     OW13015   4.387   6.508   1.067
 4039SOL    HW113016   4.346   6.537   1.154
 4039SOL    HW213017   4.336   6.547   0.991
 4040SOL     OW13018   3.852   6.422   1.793
 4040SOL    HW113019   3.763   6.427   1.747
 4040SOL    HW213020   3.888   6.329   1.785
 4041SOL     OW13021   1.261   0.103   3.984
 4041SOL    HW113022   1.191   0.041   4.020
 4041SOL    HW213023   1.220   0.166   3.918
 4042SOL     OW13024   5.830   5.077   2.029
 4042SOL    HW113025   5.770   4.997   2.028
 4042SOL    HW213026   5.812   5.134   1.950
 4043SOL     OW13027   6.777   2.879   1.445
 4043SOL    HW113028   6.795   2.874   1.346
 4043SOL    HW213029   6.731   2.795   1.474
 4044SOL     OW13030   6.384   5.776   3.608
 4044SOL    HW113031   6.321   5.799   3.533
 4044SOL    HW213032   6.471   5.824   3.595
 4045SOL     OW13033   2.498   5.814   5.791
 4045SOL    HW113034   2.411   5.764   5.790
 4045SOL    HW213035   2.560   5.776   5.723
 4046SOL     OW13036   1.719   3.031   1.049
 4046SOL    HW113037   1.651   2.997   1.114
 4046SOL    HW213038   1.731   3.130   1.062
 4047SOL     OW13039   3.372   3.715   1.705
 4047SOL    HW113040   3.354   3.807   1.670
 4047SOL    HW213041   3.470   3.706   1.725
 4048SOL     OW13042   5.167   1.588   0.944
 4048SOL    HW113043   5.154   1.507   1.001
 4048SOL    HW213044   5.163   1.563   0.848
 4049SOL     OW13045   6.522   0.706   5.701
 4049SOL    HW113046   6.436   0.727   5.747
 4049SOL    HW213047   6.597   0.756   5.746
 4050SOL     OW13048   2.421   0.688   1.221
 4050SOL    HW113049   2.422   0.610   1.159
 4050SOL    HW213050   2.334   0.692   1.270
 4051SOL     OW13051   2.236   3.429   0.760
 4051SOL    HW113052   2.313   3.471   0.711
 4051SOL    HW213053   2.174   3.387   0.694
 4052SOL     OW13054   1.823   6.056   1.702
 4052SOL    HW113055   1.757   5.984   1.681
 4052SOL    HW213056   1.915   6.022   1.684
 4053SOL     OW13057   3.163   5.040   3.497
 4053SOL    HW113058   3.211   5.001   3.576
 4053SOL    HW213059   3.211   5.014   3.413
 4054SOL     OW13060   5.271   2.157   6.771
 4054SOL    HW113061   5.294   2.208   6.854
 4054SOL    HW213062   5.240   2.065   6.796
 4055SOL     OW13063   3.855   2.151   0.365
 4055SOL    HW113064   3.801   2.146   0.281
 4055SOL    HW213065   3.943   2.194   0.345
 4056SOL     OW13066   4.090   3.227   0.708
 4056SOL    HW113067   4.059   3.141   0.748
 4056SOL    HW213068   4.072   3.302   0.772
 4057SOL     OW13069   5.780   2.494   6.493
 4057SOL    HW113070   5.797   2.396   6.503
 4057SOL    HW213071   5.819   2.543   6.572
 4058SOL     OW13072   0.915   0.610   5.042
 4058SOL    HW113073   0.855   0.581   4.968
 4058SOL    HW213074   0.976   0.536   5.068
 4059SOL     OW13075   6.802   1.506   4.589
 4059SOL    HW113076   6.733   1.433   4.592
 4059SOL    HW213077   6.877   1.478   4.529
 4060SOL     OW13078   4.274   5.859   4.534
 4060SOL    HW113079   4.280   5.940   4.476
 4060SOL    HW213080   4.297   5.778   4.480
 4061SOL     OW13081   2.771   2.909   1.703
 4061SOL    HW113082   2.781   2.864   1.614
 4061SOL    HW213083   2.734   2.844   1.769
 4062SOL     OW13084   2.907   6.907   2.794
 4062SOL    HW113085   2.947   6.957   2.718
 4062SOL    HW213086   2.821   6.951   2.821
 4063SOL     OW13087   2.637   5.057   5.832
 4063SOL    HW113088   2.639   5.117   5.752
 4063SOL    HW213089   2.644   5.112   5.915
 4064SOL     OW13090   6.202   0.051   3.980
 4064SOL    HW113091   6.130   0.007   4.033
 4064SOL    HW213092   6.241   0.127   4.032
 4065SOL     OW13093   5.856   4.544   6.580
 4065SOL    HW113094   5.837   4.512   6.487
 4065SOL    HW213095   5.952   4.571   6.588
 4066SOL     OW13096   5.756   4.913   1.653
 4066SOL    HW113097   5.688   4.868   1.595
 4066SOL    HW213098   5.710   4.966   1.724
 4067SOL     OW13099   6.050   1.003   1.806
 4067SOL    HW113100   6.149   1.003   1.810
 4067SOL    HW213101   6.012   1.010   1.898
 4068SOL     OW13102   5.138   1.029   3.775
 4068SOL    HW113103   5.085   1.113   3.761
 4068SOL    HW213104   5.231   1.053   3.805
 4069SOL     OW13105   0.240   5.746   1.595
 4069SOL    HW113106   0.167   5.713   1.535
 4069SOL    HW213107   0.241   5.846   1.593
 4070SOL     OW13108   0.645   3.555   2.775
 4070SOL    HW113109   0.568   3.527   2.833
 4070SOL    HW213110   0.715   3.599   2.832
 4071SOL     OW13111   2.186   0.517   3.801
 4071SOL    HW113112   2.215   0.569   3.881
 4071SOL    HW213113   2.136   0.576   3.739
 4072SOL     OW13114   0.831   6.894   4.395
 4072SOL    HW113115   0.911   6.868   4.341
 4072SOL    HW213116   0.752   6.903   4.334
 4073SOL     OW13117   2.972   5.107   1.133
 4073SOL    HW113118   2.976   5.032   1.199
 4073SOL    HW213119   3.040   5.092   1.061
 4074SOL     OW13120   1.334   3.052   0.892
 4074SOL    HW113121   1.415   3.038   0.950
 4074SOL    HW213122   1.335   3.145   0.856
 4075SOL     OW13123   5.223   0.764   4.106
 4075SOL    HW113124   5.257   0.856   4.127
 4075SOL    HW213125   5.126   0.769   4.080
 4076SOL     OW13126   1.354   2.842   3.430
 4076SOL    HW113127   1.366   2.755   3.479
 4076SOL    HW213128   1.421   2.848   3.356
 4077SOL     OW13129   3.290   1.757   0.880
 4077SOL    HW113130   3.276   1.752   0.979
 4077SOL    HW213131   3.283   1.853   0.851
 4078SOL     OW13132   5.646   3.662   2.314
 4078SOL    HW113133   5.584   3.690   2.241
 4078SOL    HW213134   5.634   3.564   2.332
 4079SOL     OW13135   6.690   1.094   3.414
 4079SOL    HW113136   6.675   1.173   3.473
 4079SOL    HW213137   6.603   1.062   3.378
 4080SOL     OW13138   3.953   2.977   2.743
 4080SOL    HW113139   3.922   3.071   2.758
 4080SOL    HW213140   3.917   2.943   2.656
 4081SOL     OW13141   2.340   2.192   6.609
 4081SOL    HW113142   2.322   2.289   6.623
 4081SOL    HW213143   2.288   2.160   6.530
 4082SOL     OW13144   1.424   2.519   5.590
 4082SOL    HW113145   1.350   2.497   5.526
 4082SOL    HW213146   1.504   2.551   5.540
 4083SOL     OW13147   5.766   5.281   2.870
 4083SOL    HW113148   5.713   5.266   2.787
 4083SOL    HW213149   5.792   5.377   2.878
 4084SOL     OW13150   4.683   0.802   2.855
 4084SOL    HW113151   4.612   0.741   2.820
 4084SOL    HW213152   4.709   0.773   2.947
 4085SOL     OW13153   3.308   4.894   2.115
 4085SOL    HW113154   3.234   4.831   2.090
 4085SOL    HW213155   3.362   4.915   2.033
 4086SOL     OW13156   6.205   4.915   5.153
 4086SOL    HW113157   6.191   4.835   5.211
 4086SOL    HW213158   6.140   4.912   5.076
 4087SOL     OW13159   1.409   0.549   2.078
 4087SOL    HW113160   1.372   0.506   2.161
 4087SOL    HW213161   1.333   0.586   2.024
 4088SOL     OW13162   0.104   2.203   5.353
 4088SOL    HW113163   0.048   2.126   5.324
 4088SOL    HW213164   0.175   2.172   5.416
 4089SOL     OW13165   0.922   1.095   2.697
 4089SOL    HW113166   0.897   0.998   2.698
 4089SOL    HW213167   0.982   1.114   2.620
 4090SOL     OW13168   2.744   2.040   5.848
 4090SOL    HW113169   2.658   2.069   5.890
 4090SOL    HW213170   2.731   1.953   5.801
 4091SOL     OW13171   3.540   5.649   1.936
 4091SOL    HW113172   3.547   5.567   1.994
 4091SOL    HW213173   3.613   5.712   1.959
 4092SOL     OW13174   5.200   2.508   5.198
 4092SOL    HW113175   5.175   2.603   5.218
 4092SOL    HW213176   5.162   2.482   5.109
 4093SOL     OW13177   5.178   4.491   3.404
 4093SOL    HW113178   5.124   4.432   3.344
 4093SOL    HW213179   5.182   4.451   3.496
 4094SOL     OW13180   0.018   5.762   6.877
 4094SOL    HW113181   0.062   5.768   6.787
 4094SOL    HW213182   6.948   5.727   6.866
 4095SOL     OW13183   1.014   5.289   0.445
 4095SOL    HW113184   0.961   5.243   0.517
 4095SOL    HW213185   1.050   5.221   0.381
 4096SOL     OW13186   0.596   0.648   6.947
 4096SOL    HW113187   0.554   0.615   0.009
 4096SOL    HW213188   0.540   0.622   6.869
 4097SOL     OW13189   6.512   3.846   4.869
 4097SOL    HW113190   6.419   3.834   4.904
 4097SOL    HW213191   6.568   3.768   4.897
 4098SOL     OW13192   1.502   4.711   2.868
 4098SOL    HW113193   1.531   4.616   2.871
 4098SOL    HW213194   1.531   4.753   2.783
 4099SOL     OW13195   5.519   4.355   6.093
 4099SOL    HW113196   5.495   4.291   6.166
 4099SOL    HW213197   5.460   4.339   6.014
 4100SOL     OW13198   1.854   1.258   3.418
 4100SOL    HW113199   1.839   1.342   3.471
 4100SOL    HW213200   1.914   1.278   3.341
 4101SOL     OW13201   6.721   5.325   0.247
 4101SOL    HW113202   6.814   5.291   0.237
 4101SOL    HW213203   6.680   5.288   0.330
 4102SOL     OW13204   1.927   5.970   0.601
 4102SOL    HW113205   2.014   5.922   0.611
 4102SOL    HW213206   1.867   5.918   0.539
 4103SOL     OW13207   1.661   6.947   4.189
 4103SOL    HW113208   1.682   6.855   4.222
 4103SOL    HW213209   1.576   6.945   4.136
 4104SOL     OW13210   2.153   5.597   4.904
 4104SOL    HW113211   2.151   5.516   4.963
 4104SOL    HW213212   2.065   5.605   4.857
 4105SOL     OW13213   4.430   0.038   2.281
 4105SOL    HW113214   4.395   0.131   2.289
 4105SOL    HW213215   4.468   0.008   2.369
 4106SOL     OW13216   1.205   1.233   2.870
 4106SOL    HW113217   1.127   1.200   2.922
 4106SOL    HW213218   1.176   1.305   2.808
 4107SOL     OW13219   1.481   0.492   1.042
 4107SOL    HW113220   1.557   0.505   1.105
 4107SOL    HW213221   1.471   0.574   0.985
 4108SOL     OW13222   6.609   5.892   5.552
 4108SOL    HW113223   6.619   5.976   5.606
 4108SOL    HW213224   6.529   5.901   5.491
 4109SOL     OW13225   5.305   6.261   3.361
 4109SOL    HW113226   5.350   6.335   3.411
 4109SOL    HW213227   5.247   6.300   3.289
 4110SOL     OW13228   5.259   2.801   7.004
 4110SOL    HW113229   5.175   2.781   0.032
 4110SOL    HW213230   5.246   2.780   6.907
 4111SOL     OW13231   6.256   3.859   4.406
 4111SOL    HW113232   6.159   3.837   4.395
 4111SOL    HW213233   6.265   3.949   4.449
 4112SOL     OW13234   4.258   6.100   4.418
 4112SOL    HW113235   4.222   6.184   4.459
 4112SOL    HW213236   4.214   6.084   4.330
 4113SOL     OW13237   4.291   5.071   4.593
 4113SOL    HW113238   4.242   5.148   4.551
 4113SOL    HW213239   4.224   5.011   4.638
 4114SOL     OW13240   6.908   1.214   1.859
 4114SOL    HW113241   7.000   1.227   1.895
 4114SOL    HW213242   6.912   1.167   1.771
 4115SOL     OW13243   4.539   5.620   3.705
 4115SOL    HW113244   4.609   5.603   3.774
 4115SOL    HW213245   4.548   5.714   3.671
 4116SOL     OW13246   4.847   3.727   2.526
 4116SOL    HW113247   4.852   3.685   2.616
 4116SOL    HW213248   4.874   3.659   2.457
 4117SOL     OW13249   1.429   1.735   4.182
 4117SOL    HW113250   1.520   1.697   4.196
 4117SOL    HW213251   1.431   1.800   4.106
 4118SOL     OW13252   0.562   6.870   0.079
 4118SOL    HW113253   0.533   6.786   0.033
 4118SOL    HW213254   0.656   6.892   0.054
 4119SOL     OW13255   0.406   0.467   4.340
 4119SOL    HW113256   0.367   0.554   4.370
 4119SOL    HW213257   0.412   0.404   4.418
 4120SOL     OW13258   2.173   0.918   7.013
 4120SOL    HW113259   2.236   0.956   6.945
 4120SOL    HW213260   2.086   0.967   7.010
 4121SOL     OW13261   6.984   0.223   2.157
 4121SOL    HW113262   6.963   0.187   2.066
 4121SOL    HW213263   6.921   0.184   2.224
 4122SOL     OW13264   0.690   4.197   3.107
 4122SOL    HW113265   0.650   4.127   3.047
 4122SOL    HW213266   0.635   4.280   3.102
 4123SOL     OW13267   5.146   4.619   1.346
 4123SOL    HW113268   5.188   4.529   1.357
 4123SOL    HW213269   5.128   4.659   1.436
 4124SOL     OW13270   6.549   5.562   0.113
 4124SOL    HW113271   6.613   5.632   0.145
 4124SOL    HW213272   6.534   5.574   0.015
 4125SOL     OW13273   6.279   2.423   0.326
 4125SOL    HW113274   6.376   2.423   0.353
 4125SOL    HW213275   6.228   2.361   0.385
 4126SOL     OW13276   0.714   3.176   2.936
 4126SOL    HW113277   0.679   3.215   2.851
 4126SOL    HW213278   0.690   3.079   2.941
 4127SOL     OW13279   4.532   2.116   4.459
 4127SOL    HW113280   4.508   2.019   4.446
 4127SOL    HW213281   4.618   2.122   4.510
 4128SOL     OW13282   0.074   2.965   6.549
 4128SOL    HW113283   0.032   2.941   6.636
 4128SOL    HW213284   0.107   3.060   6.552
 4129SOL     OW13285   3.425   1.721   0.644
 4129SOL    HW113286   3.397   1.732   0.739
 4129SOL    HW213287   3.355   1.668   0.595
 4130SOL     OW13288   6.015   3.337   0.523
 4130SOL    HW113289   5.943   3.321   0.590
 4130SOL    HW213290   6.026   3.255   0.466
 4131SOL     OW13291   5.092   0.075   3.273
 4131SOL    HW113292   5.090   0.134   3.193
 4131SOL    HW213293   5.097   7.002   3.244
 4132SOL     OW13294   0.203   5.079   3.174
 4132SOL    HW113295   0.273   5.131   3.124
 4132SOL    HW213296   0.211   5.097   3.272
 4133SOL     OW13297   5.450   0.361   2.444
 4133SOL    HW113298   5.395   0.444   2.444
 4133SOL    HW213299   5.390   0.281   2.442
 4134SOL     OW13300   1.413   3.731   1.524
 4134SOL    HW113301   1.411   3.648   1.467
 4134SOL    HW213302   1.505   3.742   1.563
 4135SOL     OW13303   6.316   0.749   2.191
 4135SOL    HW113304   6.370   0.708   2.264
 4135SOL    HW213305   6.237   0.691   2.171
 4136SOL     OW13306   0.819   4.924   0.999
 4136SOL    HW113307   0.802   5.014   1.040
 4136SOL    HW213308   0.787   4.924   0.904
 4137SOL     OW13309   0.444   2.855   6.559
 4137SOL    HW113310   0.362   2.856   6.501
 4137SOL    HW213311   0.521   2.893   6.508
 4138SOL     OW13312   4.769   0.469   0.063
 4138SOL    HW113313   4.747   0.555   0.018
 4138SOL    HW213314   4.760   0.480   0.162
 4139SOL     OW13315   2.110   3.804   3.219
 4139SOL    HW113316   2.073   3.711   3.222
 4139SOL    HW213317   2.081   3.854   3.301
 4140SOL     OW13318   2.001   0.506   6.102
 4140SOL    HW113319   1.942   0.510   6.182
 4140SOL    HW213320   1.949   0.470   6.024
 4141SOL     OW13321   5.364   0.671   6.070
 4141SOL    HW113322   5.292   0.648   6.004
 4141SOL    HW213323   5.423   0.591   6.085
 4142SOL     OW13324   0.106   5.443   2.256
 4142SOL    HW113325   0.090   5.428   2.158
 4142SOL    HW213326   0.116   5.540   2.274
 4143SOL     OW13327   6.218   3.430   6.668
 4143SOL    HW113328   6.261   3.425   6.578
 4143SOL    HW213329   6.191   3.525   6.687
 4144SOL     OW13330   5.590   1.209   1.232
 4144SOL    HW113331   5.510   1.241   1.283
 4144SOL    HW213332   5.614   1.116   1.260
 4145SOL     OW13333   7.021   0.740   1.717
 4145SOL    HW113334   0.090   0.736   1.756
 4145SOL    HW213335   7.018   0.686   1.633
 4146SOL     OW13336   4.999   6.079   2.158
 4146SOL    HW113337   4.966   6.174   2.166
 4146SOL    HW213338   4.984   6.046   2.065
 4147SOL     OW13339   4.601   4.913   6.687
 4147SOL    HW113340   4.681   4.861   6.657
 4147SOL    HW213341   4.536   4.852   6.731
 4148SOL     OW13342   2.979   0.976   5.244
 4148SOL    HW113343   3.070   0.998   5.280
 4148SOL    HW213344   2.926   1.060   5.232
 4149SOL     OW13345   1.195   3.718   6.406
 4149SOL    HW113346   1.122   3.737   6.341
 4149SOL    HW213347   1.185   3.625   6.442
 4150SOL     OW13348   5.487   2.008   6.904
 4150SOL    HW113349   5.505   2.107   6.900
 4150SOL    HW213350   5.549   1.961   6.841
 4151SOL     OW13351   2.902   6.144   4.777
 4151SOL    HW113352   2.907   6.059   4.723
 4151SOL    HW213353   2.883   6.221   4.716
 4152SOL     OW13354   2.597   4.310   1.343
 4152SOL    HW113355   2.655   4.362   1.280
 4152SOL    HW213356   2.504   4.347   1.341
 4153SOL     OW13357   6.487   6.027   1.708
 4153SOL    HW113358   6.484   6.061   1.614
 4153SOL    HW213359   6.542   6.088   1.764
 4154SOL     OW13360   1.322   6.349   4.040
 4154SOL    HW113361   1.299   6.252   4.026
 4154SOL    HW213362   1.239   6.404   4.031
 4155SOL     OW13363   0.380   0.780   1.579
 4155SOL    HW113364   0.376   0.721   1.660
 4155SOL    HW213365   0.309   0.851   1.587
 4156SOL     OW13366   0.500   5.009   6.065
 4156SOL    HW113367   0.592   4.972   6.055
 4156SOL    HW213368   0.498   5.103   6.031
 4157SOL     OW13369   5.462   5.891   1.680
 4157SOL    HW113370   5.513   5.815   1.722
 4157SOL    HW213371   5.508   5.977   1.702
 4158SOL     OW13372   1.055   2.883   1.614
 4158SOL    HW113373   1.116   2.876   1.535
 4158SOL    HW213374   1.110   2.892   1.697
 4159SOL     OW13375   2.836   0.398   4.372
 4159SOL    HW113376   2.805   0.303   4.362
 4159SOL    HW213377   2.779   0.458   4.316
 4160SOL     OW13378   0.474   0.315   6.745
 4160SOL    HW113379   0.549   0.281   6.688
 4160SOL    HW213380   0.466   0.414   6.735
 4161SOL     OW13381   3.844   3.418   2.506
 4161SOL    HW113382   3.924   3.428   2.564
 4161SOL    HW213383   3.858   3.342   2.442
 4162SOL     OW13384   5.115   5.690   1.734
 4162SOL    HW113385   5.157   5.652   1.651
 4162SOL    HW213386   5.122   5.790   1.732
 4163SOL     OW13387   3.293   5.782   1.976
 4163SOL    HW113388   3.304   5.882   1.981
 4163SOL    HW213389   3.378   5.741   1.944
 4164SOL     OW13390   0.012   1.279   6.402
 4164SOL    HW113391   0.110   1.259   6.403
 4164SOL    HW213392   6.993   1.247   6.487
 4165SOL     OW13393   4.579   0.972   4.634
 4165SOL    HW113394   4.631   1.056   4.617
 4165SOL    HW213395   4.636   0.893   4.611
 4166SOL     OW13396   5.622   1.872   1.200
 4166SOL    HW113397   5.622   1.780   1.161
 4166SOL    HW213398   5.600   1.938   1.129
 4167SOL     OW13399   3.124   5.926   4.339
 4167SOL    HW113400   3.177   5.966   4.414
 4167SOL    HW213401   3.112   5.828   4.357
 4168SOL     OW13402   5.077   3.766   6.837
 4168SOL    HW113403   4.993   3.731   6.795
 4168SOL    HW213404   5.139   3.690   6.855
 4169SOL     OW13405   5.432   2.705   5.832
 4169SOL    HW113406   5.531   2.698   5.823
 4169SOL    HW213407   5.395   2.620   5.869
 4170SOL     OW13408   0.544   2.252   4.480
 4170SOL    HW113409   0.591   2.338   4.458
 4170SOL    HW213410   0.485   2.265   4.559
 4171SOL     OW13411   0.722   1.638   0.099
 4171SOL    HW113412   0.765   1.705   0.160
 4171SOL    HW213413   0.700   1.556   0.151
 4172SOL     OW13414   2.560   3.107   0.473
 4172SOL    HW113415   2.506   3.138   0.551
 4172SOL    HW213416   2.534   3.159   0.391
 4173SOL     OW13417   5.053   2.419   6.826
 4173SOL    HW113418   4.983   2.353   6.855
 4173SOL    HW213419   5.072   2.407   6.729
 4174SOL     OW13420   3.999   0.230   4.697
 4174SOL    HW113421   3.982   0.170   4.775
 4174SOL    HW213422   3.945   0.314   4.707
 4175SOL     OW13423   1.023   4.377   6.699
 4175SOL    HW113424   1.017   4.348   6.795
 4175SOL    HW213425   0.935   4.362   6.654
 4176SOL     OW13426   5.607   0.016   5.718
 4176SOL    HW113427   5.597   0.084   5.791
 4176SOL    HW213428   5.686   6.981   5.738
 4177SOL     OW13429   4.128   4.757   2.880
 4177SOL    HW113430   4.072   4.786   2.958
 4177SOL    HW213431   4.098   4.806   2.798
 4178SOL     OW13432   3.476   6.106   1.749
 4178SOL    HW113433   3.396   6.083   1.804
 4178SOL    HW213434   3.465   6.197   1.709
 4179SOL     OW13435   5.012   3.222   5.903
 4179SOL    HW113436   4.963   3.306   5.881
 4179SOL    HW213437   5.098   3.219   5.853
 4180SOL     OW13438   4.187   3.617   0.916
 4180SOL    HW113439   4.159   3.585   0.826
 4180SOL    HW213440   4.116   3.593   0.983
 4181SOL     OW13441   4.796   6.959   5.146
 4181SOL    HW113442   4.762   6.934   5.055
 4181SOL    HW213443   4.820   6.876   5.197
 4182SOL     OW13444   0.537   6.328   5.032
 4182SOL    HW113445   0.457   6.377   4.998
 4182SOL    HW213446   0.566   6.367   5.119
 4183SOL     OW13447   4.210   1.890   0.632
 4183SOL    HW113448   4.122   1.907   0.588
 4183SOL    HW213449   4.257   1.815   0.586
 4184SOL     OW13450   3.537   6.002   4.156
 4184SOL    HW113451   3.464   5.942   4.125
 4184SOL    HW213452   3.625   5.954   4.150
 4185SOL     OW13453   5.029   3.081   3.408
 4185SOL    HW113454   4.965   3.104   3.335
 4185SOL    HW213455   5.022   2.983   3.428
 4186SOL     OW13456   1.711   6.070   0.136
 4186SOL    HW113457   1.754   6.062   0.046
 4186SOL    HW213458   1.671   5.983   0.162
 4187SOL     OW13459   1.895   3.220   6.736
 4187SOL    HW113460   1.813   3.223   6.679
 4187SOL    HW213461   1.929   3.126   6.740
 4188SOL     OW13462   4.751   0.109   0.302
 4188SOL    HW113463   4.669   0.093   0.359
 4188SOL    HW213464   4.794   0.195   0.330
 4189SOL     OW13465   4.507   5.242   3.736
 4189SOL    HW113466   4.551   5.294   3.809
 4189SOL    HW213467   4.416   5.279   3.718
 4190SOL     OW13468   6.605   6.250   1.537
 4190SOL    HW113469   6.665   6.237   1.616
 4190SOL    HW213470   6.661   6.257   1.454
 4191SOL     OW13471   4.707   4.348   6.621
 4191SOL    HW113472   4.728   4.257   6.657
 4191SOL    HW213473   4.714   4.416   6.694
 4192SOL     OW13474   1.645   3.425   0.416
 4192SOL    HW113475   1.647   3.345   0.474
 4192SOL    HW213476   1.562   3.424   0.360
 4193SOL     OW13477   0.395   0.596   0.169
 4193SOL    HW113478   0.323   0.653   0.130
 4193SOL    HW213479   0.373   0.499   0.152
 4194SOL     OW13480   4.783   1.852   5.773
 4194SOL    HW113481   4.755   1.933   5.825
 4194SOL    HW213482   4.799   1.776   5.836
 4195SOL     OW13483   3.852   6.258   0.493
 4195SOL    HW113484   3.854   6.167   0.535
 4195SOL    HW213485   3.866   6.249   0.394
 4196SOL     OW13486   6.471   3.032   2.466
 4196SOL    HW113487   6.543   3.069   2.524
 4196SOL    HW213488   6.449   3.099   2.394
 4197SOL     OW13489   3.859   0.974   0.093
 4197SOL    HW113490   3.800   0.923   0.030
 4197SOL    HW213491   3.863   1.070   0.065
 4198SOL     OW13492   6.805   1.986   2.391
 4198SOL    HW113493   6.754   2.071   2.372
 4198SOL    HW213494   6.744   1.908   2.383
 4199SOL     OW13495   0.442   3.919   6.228
 4199SOL    HW113496   0.409   3.997   6.281
 4199SOL    HW213497   0.518   3.947   6.170
 4200SOL     OW13498   4.696   0.744   4.215
 4200SOL    HW113499   4.672   0.680   4.141
 4200SOL    HW213500   4.735   0.693   4.291
 4201SOL     OW13501   5.665   6.835   3.699
 4201SOL    HW113502   5.691   6.920   3.744
 4201SOL    HW213503   5.698   6.757   3.754
 4202SOL     OW13504   5.020   4.066   1.231
 4202SOL    HW113505   4.939   4.063   1.173
 4202SOL    HW213506   5.085   4.132   1.195
 4203SOL     OW13507   6.202   5.015   5.415
 4203SOL    HW113508   6.214   5.114   5.421
 4203SOL    HW213509   6.213   4.985   5.321
 4204SOL     OW13510   1.732   3.315   6.557
 4204SOL    HW113511   1.750   3.258   6.476
 4204SOL    HW213512   1.770   3.406   6.544
 4205SOL     OW13513   4.048   6.193   5.837
 4205SOL    HW113514   4.001   6.207   5.750
 4205SOL    HW213515   4.000   6.244   5.909
 4206SOL     OW13516   2.109   2.173   4.988
 4206SOL    HW113517   2.112   2.085   5.035
 4206SOL    HW213518   2.096   2.246   5.054
 4207SOL     OW13519   0.691   1.870   2.381
 4207SOL    HW113520   0.666   1.893   2.286
 4207SOL    HW213521   0.787   1.842   2.383
 4208SOL     OW13522   2.104   2.933   3.907
 4208SOL    HW113523   2.155   2.882   3.838
 4208SOL    HW213524   2.114   2.888   3.996
 4209SOL     OW13525   6.566   6.384   2.251
 4209SOL    HW113526   6.589   6.417   2.160
 4209SOL    HW213527   6.642   6.405   2.314
 4210SOL     OW13528   3.702   4.158   4.630
 4210SOL    HW113529   3.722   4.253   4.654
 4210SOL    HW213530   3.732   4.098   4.704
 4211SOL     OW13531   3.994   2.608   5.430
 4211SOL    HW113532   4.032   2.550   5.358
 4211SOL    HW213533   4.015   2.703   5.411
 4212SOL     OW13534   6.329   2.105   3.233
 4212SOL    HW113535   6.342   2.174   3.162
 4212SOL    HW213536   6.287   2.147   3.314
 4213SOL     OW13537   3.015   0.797   3.831
 4213SOL    HW113538   2.962   0.713   3.841
 4213SOL    HW213539   2.963   0.873   3.871
 4214SOL     OW13540   6.859   6.181   3.462
 4214SOL    HW113541   6.939   6.168   3.404
 4214SOL    HW213542   6.888   6.207   3.554
 4215SOL     OW13543   4.952   6.794   5.561
 4215SOL    HW113544   5.017   6.718   5.555
 4215SOL    HW213545   4.988   6.863   5.624
 4216SOL     OW13546   2.600   5.548   2.139
 4216SOL    HW113547   2.526   5.604   2.101
 4216SOL    HW213548   2.666   5.608   2.186
 4217SOL     OW13549   0.862   0.835   2.685
 4217SOL    HW113550   0.885   0.763   2.750
 4217SOL    HW213551   0.884   0.804   2.592
 4218SOL     OW13552   3.211   1.274   0.751
 4218SOL    HW113553   3.302   1.255   0.786
 4218SOL    HW213554   3.188   1.370   0.767
 4219SOL     OW13555   4.141   5.530   2.903
 4219SOL    HW113556   4.097   5.466   2.965
 4219SOL    HW213557   4.239   5.510   2.899
 4220SOL     OW13558   5.923   1.842   1.551
 4220SOL    HW113559   5.968   1.893   1.624
 4220SOL    HW213560   5.850   1.786   1.589
 4221SOL     OW13561   0.859   6.094   0.664
 4221SOL    HW113562   0.824   6.034   0.736
 4221SOL    HW213563   0.864   6.188   0.699
 4222SOL     OW13564   4.874   3.055   4.367
 4222SOL    HW113565   4.967   3.082   4.388
 4222SOL    HW213566   4.814   3.136   4.368
 4223SOL     OW13567   4.110   3.766   2.082
 4223SOL    HW113568   4.087   3.783   2.178
 4223SOL    HW213569   4.206   3.786   2.066
 4224SOL     OW13570   5.092   4.134   4.533
 4224SOL    HW113571   5.011   4.084   4.563
 4224SOL    HW213572   5.168   4.115   4.595
 4225SOL     OW13573   0.718   2.372   5.547
 4225SOL    HW113574   0.705   2.274   5.534
 4225SOL    HW213575   0.812   2.389   5.577
 4226SOL     OW13576   0.602   5.659   5.189
 4226SOL    HW113577   0.675   5.611   5.140
 4226SOL    HW213578   0.524   5.672   5.128
 4227SOL     OW13579   4.315   5.097   2.138
 4227SOL    HW113580   4.370   5.043   2.201
 4227SOL    HW213581   4.376   5.150   2.078
 4228SOL     OW13582   1.481   5.543   3.627
 4228SOL    HW113583   1.574   5.536   3.663
 4228SOL    HW213584   1.444   5.634   3.649
 4229SOL     OW13585   6.762   4.783   5.537
 4229SOL    HW113586   6.771   4.706   5.473
 4229SOL    HW213587   6.688   4.764   5.602
 4230SOL     OW13588   0.054   0.865   2.139
 4230SOL    HW113589   7.013   0.803   2.094
 4230SOL    HW213590   0.112   0.908   2.070
 4231SOL     OW13591   6.130   1.456   6.009
 4231SOL    HW113592   6.101   1.365   6.040
 4231SOL    HW213593   6.056   1.498   5.956
 4232SOL     OW13594   1.360   5.833   3.953
 4232SOL    HW113595   1.448   5.878   3.939
 4232SOL    HW213596   1.374   5.737   3.975
 4233SOL     OW13597   4.405   4.868   2.642
 4233SOL    HW113598   4.368   4.946   2.692
 4233SOL    HW213599   4.331   4.805   2.619
 4234SOL     OW13600   3.148   5.154   6.153
 4234SOL    HW113601   3.117   5.060   6.138
 4234SOL    HW213602   3.156   5.172   6.251
 4235SOL     OW13603   6.933   5.771   5.587
 4235SOL    HW113604   6.928   5.723   5.500
 4235SOL    HW213605   0.004   5.802   5.603
 4236SOL     OW13606   0.290   5.601   2.888
 4236SOL    HW113607   0.370   5.541   2.883
 4236SOL    HW213608   0.262   5.611   2.984
 4237SOL     OW13609   6.376   4.735   4.008
 4237SOL    HW113610   6.407   4.777   3.923
 4237SOL    HW213611   6.454   4.699   4.058
 4238SOL     OW13612   2.744   6.737   3.116
 4238SOL    HW113613   2.772   6.833   3.122
 4238SOL    HW213614   2.654   6.725   3.158
 4239SOL     OW13615   4.305   0.714   3.823
 4239SOL    HW113616   4.306   0.813   3.808
 4239SOL    HW213617   4.342   0.694   3.914
 4240SOL     OW13618   6.412   0.090   1.830
 4240SOL    HW113619   6.325   0.045   1.810
 4240SOL    HW213620   6.406   0.187   1.808
 4241SOL     OW13621   6.335   3.830   0.625
 4241SOL    HW113622   6.387   3.874   0.699
 4241SOL    HW213623   6.250   3.880   0.609
 4242SOL     OW13624   2.641   1.751   3.106
 4242SOL    HW113625   2.695   1.835   3.109
 4242SOL    HW213626   2.670   1.695   3.028
 4243SOL     OW13627   5.094   0.583   3.015
 4243SOL    HW113628   5.036   0.527   3.075
 4243SOL    HW213629   5.052   0.672   3.001
 4244SOL     OW13630   3.627   3.286   3.294
 4244SOL    HW113631   3.702   3.348   3.271
 4244SOL    HW213632   3.572   3.270   3.212
 4245SOL     OW13633   6.497   1.691   6.585
 4245SOL    HW113634   6.470   1.717   6.492
 4245SOL    HW213635   6.587   1.648   6.583
 4246SOL     OW13636   0.844   3.469   1.104
 4246SOL    HW113637   0.903   3.474   1.184
 4246SOL    HW213638   0.898   3.445   1.024
 4247SOL     OW13639   0.147   5.942   5.270
 4247SOL    HW113640   0.245   5.933   5.289
 4247SOL    HW213641   0.125   6.038   5.256
 4248SOL     OW13642   1.465   3.112   4.917
 4248SOL    HW113643   1.446   3.111   4.819
 4248SOL    HW213644   1.466   3.019   4.951
 4249SOL     OW13645   5.465   4.030   5.831
 4249SOL    HW113646   5.412   3.945   5.837
 4249SOL    HW213647   5.406   4.107   5.855
 4250SOL     OW13648   0.576   4.465   3.126
 4250SOL    HW113649   0.519   4.513   3.059
 4250SOL    HW213650   0.559   4.504   3.217
 4251SOL     OW13651   5.828   4.017   0.609
 4251SOL    HW113652   5.750   3.982   0.661
 4251SOL    HW213653   5.871   4.091   0.659
 4252SOL     OW13654   0.611   5.476   5.919
 4252SOL    HW113655   0.659   5.509   5.837
 4252SOL    HW213656   0.577   5.555   5.971
 4253SOL     OW13657   4.199   6.346   2.556
 4253SOL    HW113658   4.294   6.375   2.560
 4253SOL    HW213659   4.169   6.343   2.460
 4254SOL     OW13660   2.541   4.125   1.078
 4254SOL    HW113661   2.585   4.056   1.136
 4254SOL    HW213662   2.599   4.207   1.074
 4255SOL     OW13663   6.720   1.906   4.360
 4255SOL    HW113664   6.701   1.879   4.266
 4255SOL    HW213665   6.672   1.845   4.423
 4256SOL     OW13666   2.197   1.002   2.018
 4256SOL    HW113667   2.193   0.919   1.962
 4256SOL    HW213668   2.227   0.979   2.110
 4257SOL     OW13669   4.114   1.896   4.670
 4257SOL    HW113670   4.023   1.865   4.643
 4257SOL    HW213671   4.167   1.918   4.588
 4258SOL     OW13672   5.268   6.595   2.711
 4258SOL    HW113673   5.325   6.677   2.716
 4258SOL    HW213674   5.291   6.544   2.628
 4259SOL     OW13675   2.269   3.105   0.616
 4259SOL    HW113676   2.307   3.123   0.707
 4259SOL    HW213677   2.286   3.010   0.592
 4260SOL     OW13678   5.237   5.919   3.687
 4260SOL    HW113679   5.228   5.993   3.621
 4260SOL    HW213680   5.254   5.832   3.640
 4261SOL     OW13681   2.020   0.355   2.376
 4261SOL    HW113682   1.986   0.261   2.371
 4261SOL    HW213683   1.946   0.418   2.355
 4262SOL     OW13684   0.394   5.740   6.609
 4262SOL    HW113685   0.351   5.829   6.619
 4262SOL    HW213686   0.382   5.688   6.694
 4263SOL     OW13687   3.331   5.106   5.316
 4263SOL    HW113688   3.248   5.097   5.371
 4263SOL    HW213689   3.407   5.131   5.375
 4264SOL     OW13690   0.126   0.548   0.578
 4264SOL    HW113691   0.215   0.524   0.617
 4264SOL    HW213692   0.081   0.616   0.636
 4265SOL     OW13693   7.001   2.256   0.745
 4265SOL    HW113694   0.030   2.332   0.785
 4265SOL    HW213695   6.906   2.284   0.732
 4266SOL     OW13696   2.749   4.632   0.654
 4266SOL    HW113697   2.765   4.562   0.585
 4266SOL    HW213698   2.824   4.632   0.721
 4267SOL     OW13699   1.841   3.852   5.266
 4267SOL    HW113700   1.813   3.901   5.348
 4267SOL    HW213701   1.838   3.915   5.187
 4268SOL     OW13702   1.766   0.839   1.307
 4268SOL    HW113703   1.713   0.892   1.374
 4268SOL    HW213704   1.818   0.902   1.249
 4269SOL     OW13705   3.839   3.152   0.559
 4269SOL    HW113706   3.793   3.230   0.602
 4269SOL    HW213707   3.817   3.069   0.608
 4270SOL     OW13708   3.318   2.572   5.293
 4270SOL    HW113709   3.265   2.649   5.329
 4270SOL    HW213710   3.255   2.498   5.268
 4271SOL     OW13711   1.396   0.020   6.925
 4271SOL    HW113712   1.487   0.061   6.939
 4271SOL    HW213713   1.326   0.084   6.957
 4272SOL     OW13714   6.571   4.862   4.879
 4272SOL    HW113715   6.492   4.827   4.829
 4272SOL    HW213716   6.559   4.845   4.977
 4273SOL     OW13717   5.961   6.494   5.412
 4273SOL    HW113718   5.917   6.555   5.479
 4273SOL    HW213719   6.034   6.543   5.365
 4274SOL     OW13720   1.814   0.287   3.714
 4274SOL    HW113721   1.761   0.217   3.667
 4274SOL    HW213722   1.751   0.356   3.752
 4275SOL     OW13723   0.853   0.192   6.066
 4275SOL    HW113724   0.944   0.155   6.082
 4275SOL    HW213725   0.810   0.145   5.989
 4276SOL     OW13726   1.712   3.981   2.468
 4276SOL    HW113727   1.719   3.883   2.450
 4276SOL    HW213728   1.792   4.011   2.519
 4277SOL     OW13729   0.086   5.403   3.492
 4277SOL    HW113730   0.175   5.411   3.447
 4277SOL    HW213731   0.039   5.491   3.487
 4278SOL     OW13732   0.139   0.078   5.278
 4278SOL    HW113733   0.178   0.158   5.231
 4278SOL    HW213734   0.114   0.103   5.371
 4279SOL     OW13735   3.198   6.066   4.568
 4279SOL    HW113736   3.215   6.164   4.573
 4279SOL    HW213737   3.275   6.017   4.610
 4280SOL     OW13738   5.003   2.737   4.194
 4280SOL    HW113739   4.983   2.727   4.291
 4280SOL    HW213740   4.931   2.790   4.150
 4281SOL     OW13741   2.366   4.353   5.066
 4281SOL    HW113742   2.413   4.383   5.149
 4281SOL    HW213743   2.368   4.253   5.061
 4282SOL     OW13744   1.998   2.293   1.550
 4282SOL    HW113745   2.032   2.205   1.583
 4282SOL    HW213746   2.070   2.361   1.557
 4283SOL     OW13747   1.621   0.302   4.175
 4283SOL    HW113748   1.525   0.311   4.150
 4283SOL    HW213749   1.663   0.228   4.122
 4284SOL     OW13750   5.714   1.990   2.567
 4284SOL    HW113751   5.797   1.959   2.521
 4284SOL    HW213752   5.694   1.930   2.644
 4285SOL     OW13753   1.134   6.505   5.898
 4285SOL    HW113754   1.174   6.593   5.922
 4285SOL    HW213755   1.073   6.475   5.971
 4286SOL     OW13756   5.521   5.652   0.143
 4286SOL    HW113757   5.498   5.557   0.122
 4286SOL    HW213758   5.537   5.702   0.058
 4287SOL     OW13759   5.005   6.427   4.723
 4287SOL    HW113760   5.014   6.415   4.624
 4287SOL    HW213761   4.960   6.347   4.763
 4288SOL     OW13762   1.430   6.776   3.004
 4288SOL    HW113763   1.341   6.792   3.048
 4288SOL    HW213764   1.425   6.805   2.908
 4289SOL     OW13765   5.741   3.424   1.354
 4289SOL    HW113766   5.821   3.483   1.363
 4289SOL    HW213767   5.681   3.459   1.281
 4290SOL     OW13768   2.308   1.155   1.611
 4290SOL    HW113769   2.298   1.067   1.565
 4290SOL    HW213770   2.217   1.192   1.633
 4291SOL     OW13771   6.517   4.131   1.087
 4291SOL    HW113772   6.593   4.092   1.139
 4291SOL    HW213773   6.540   4.129   0.990
 4292SOL     OW13774   6.285   5.138   6.629
 4292SOL    HW113775   6.192   5.116   6.660
 4292SOL    HW213776   6.297   5.237   6.630
 4293SOL     OW13777   0.026   2.772   6.822
 4293SOL    HW113778   0.115   2.817   6.818
 4293SOL    HW213779   0.018   2.707   6.746
 4294SOL     OW13780   4.834   1.677   5.997
 4294SOL    HW113781   4.853   1.744   6.069
 4294SOL    HW213782   4.735   1.664   5.989
 4295SOL     OW13783   3.715   0.000   4.393
 4295SOL    HW113784   3.715   7.004   4.295
 4295SOL    HW213785   3.700   6.937   4.443
 4296SOL     OW13786   2.517   1.670   0.887
 4296SOL    HW113787   2.579   1.597   0.915
 4296SOL    HW213788   2.432   1.629   0.852
 4297SOL     OW13789   5.834   0.557   6.019
 4297SOL    HW113790   5.806   0.607   5.937
 4297SOL    HW213791   5.833   0.619   6.098
 4298SOL     OW13792   2.966   5.505   1.140
 4298SOL    HW113793   2.954   5.598   1.175
 4298SOL    HW213794   3.055   5.469   1.168
 4299SOL     OW13795   0.395   3.674   6.327
 4299SOL    HW113796   0.381   3.769   6.298
 4299SOL    HW213797   0.463   3.631   6.268
 4300SOL     OW13798   5.350   0.738   6.682
 4300SOL    HW113799   5.311   0.819   6.726
 4300SOL    HW213800   5.441   0.721   6.719
 4301SOL     OW13801   3.328   1.521   0.493
 4301SOL    HW113802   3.271   1.441   0.506
 4301SOL    HW213803   3.406   1.498   0.435
 4302SOL     OW13804   0.710   6.216   6.610
 4302SOL    HW113805   0.771   6.295   6.605
 4302SOL    HW213806   0.759   6.138   6.648
 4303SOL     OW13807   0.001   2.983   2.089
 4303SOL    HW113808   0.035   2.918   2.158
 4303SOL    HW213809   6.925   2.995   2.101
 4304SOL     OW13810   2.979   3.193   3.948
 4304SOL    HW113811   3.029   3.220   4.030
 4304SOL    HW213812   3.042   3.155   3.880
 4305SOL     OW13813   5.805   2.177   3.819
 4305SOL    HW113814   5.721   2.126   3.836
 4305SOL    HW213815   5.791   2.272   3.844
 4306SOL     OW13816   6.665   5.209   5.699
 4306SOL    HW113817   6.625   5.122   5.728
 4306SOL    HW213818   6.746   5.228   5.754
 4307SOL     OW13819   5.313   3.813   5.853
 4307SOL    HW113820   5.311   3.781   5.948
 4307SOL    HW213821   5.336   3.737   5.793
 4308SOL     OW13822   5.201   6.094   4.575
 4308SOL    HW113823   5.106   6.110   4.548
 4308SOL    HW213824   5.209   6.004   4.617
 4309SOL     OW13825   1.564   1.670   1.128
 4309SOL    HW113826   1.632   1.597   1.116
 4309SOL    HW213827   1.611   1.755   1.153
 4310SOL     OW13828   1.658   1.324   2.547
 4310SOL    HW113829   1.699   1.401   2.500
 4310SOL    HW213830   1.599   1.357   2.621
 4311SOL     OW13831   1.805   6.697   3.719
 4311SOL    HW113832   1.880   6.756   3.750
 4311SOL    HW213833   1.797   6.702   3.620
 4312SOL     OW13834   2.299   5.390   2.029
 4312SOL    HW113835   2.392   5.406   1.996
 4312SOL    HW213836   2.283   5.292   2.035
 4313SOL     OW13837   4.963   0.824   2.581
 4313SOL    HW113838   4.928   0.752   2.640
 4313SOL    HW213839   5.032   0.877   2.631
 4314SOL     OW13840   4.786   2.808   2.511
 4314SOL    HW113841   4.788   2.907   2.501
 4314SOL    HW213842   4.795   2.784   2.608
 4315SOL     OW13843   2.448   1.404   2.081
 4315SOL    HW113844   2.469   1.318   2.035
 4315SOL    HW213845   2.364   1.443   2.042
 4316SOL     OW13846   6.130   0.168   2.397
 4316SOL    HW113847   6.034   0.160   2.370
 4316SOL    HW213848   6.188   0.167   2.316
 4317SOL     OW13849   4.303   1.291   3.430
 4317SOL    HW113850   4.272   1.205   3.390
 4317SOL    HW213851   4.234   1.324   3.494
 4318SOL     OW13852   0.134   2.240   3.978
 4318SOL    HW113853   0.091   2.246   4.067
 4318SOL    HW213854   0.158   2.145   3.958
 4319SOL     OW13855   2.443   3.472   6.104
 4319SOL    HW113856   2.421   3.384   6.060
 4319SOL    HW213857   2.392   3.545   6.059
 4320SOL     OW13858   0.195   5.847   2.559
 4320SOL    HW113859   0.257   5.924   2.574
 4320SOL    HW213860   0.244   5.761   2.574
 4321SOL     OW13861   0.540   0.138   5.268
 4321SOL    HW113862   0.583   0.066   5.323
 4321SOL    HW213863   0.503   0.208   5.328
 4322SOL     OW13864   6.050   1.255   0.328
 4322SOL    HW113865   6.116   1.272   0.255
 4322SOL    HW213866   6.098   1.241   0.414
 4323SOL     OW13867   6.627   3.236   3.309
 4323SOL    HW113868   6.619   3.228   3.408
 4323SOL    HW213869   6.698   3.173   3.276
 4324SOL     OW13870   5.717   4.184   5.830
 4324SOL    HW113871   5.676   4.257   5.775
 4324SOL    HW213872   5.670   4.098   5.812
 4325SOL     OW13873   2.093   1.920   6.779
 4325SOL    HW113874   2.185   1.899   6.809
 4325SOL    HW213875   2.054   1.993   6.835
 4326SOL     OW13876   6.255   1.986   4.930
 4326SOL    HW113877   6.192   1.984   5.008
 4326SOL    HW213878   6.318   2.063   4.940
 4327SOL     OW13879   5.618   6.827   2.502
 4327SOL    HW113880   5.679   6.752   2.527
 4327SOL    HW213881   5.671   6.899   2.458
 4328SOL     OW13882   5.428   5.015   0.514
 4328SOL    HW113883   5.387   4.936   0.560
 4328SOL    HW213884   5.500   5.054   0.572
 4329SOL     OW13885   3.623   1.734   5.979
 4329SOL    HW113886   3.598   1.757   5.885
 4329SOL    HW213887   3.629   1.635   5.988
 4330SOL     OW13888   1.495   0.821   6.214
 4330SOL    HW113889   1.496   0.872   6.128
 4330SOL    HW213890   1.497   0.884   6.291
 4331SOL     OW13891   5.978   2.663   0.096
 4331SOL    HW113892   5.959   2.737   0.161
 4331SOL    HW213893   5.911   2.666   0.022
 4332SOL     OW13894   5.267   3.189   1.499
 4332SOL    HW113895   5.278   3.267   1.560
 4332SOL    HW213896   5.198   3.210   1.430
 4333SOL     OW13897   5.276   0.810   5.213
 4333SOL    HW113898   5.252   0.826   5.309
 4333SOL    HW213899   5.361   0.858   5.192
 4334SOL     OW13900   4.577   0.583   2.207
 4334SOL    HW113901   4.575   0.655   2.137
 4334SOL    HW213902   4.628   0.616   2.287
 4335SOL     OW13903   3.478   4.233   5.144
 4335SOL    HW113904   3.490   4.219   5.045
 4335SOL    HW213905   3.384   4.211   5.169
 4336SOL     OW13906   1.462   6.037   4.461
 4336SOL    HW113907   1.487   6.106   4.394
 4336SOL    HW213908   1.365   6.046   4.485
 4337SOL     OW13909   7.014   5.595   0.928
 4337SOL    HW113910   6.921   5.624   0.908
 4337SOL    HW213911   0.051   5.619   0.851
 4338SOL     OW13912   6.648   6.260   4.068
 4338SOL    HW113913   6.560   6.288   4.029
 4338SOL    HW213914   6.634   6.228   4.162
 4339SOL     OW13915   6.159   1.568   6.265
 4339SOL    HW113916   6.160   1.514   6.180
 4339SOL    HW213917   6.081   1.539   6.321
 4340SOL     OW13918   4.631   3.715   1.667
 4340SOL    HW113919   4.667   3.625   1.692
 4340SOL    HW213920   4.686   3.753   1.593
 4341SOL     OW13921   0.986   4.613   0.551
 4341SOL    HW113922   1.051   4.626   0.476
 4341SOL    HW213923   1.016   4.666   0.631
 4342SOL     OW13924   0.400   3.178   2.907
 4342SOL    HW113925   0.308   3.186   2.868
 4342SOL    HW213926   0.466   3.158   2.834
 4343SOL     OW13927   2.673   1.546   1.103
 4343SOL    HW113928   2.699   1.641   1.087
 4343SOL    HW213929   2.755   1.489   1.105
 4344SOL     OW13930   2.056   5.142   3.451
 4344SOL    HW113931   1.991   5.113   3.521
 4344SOL    HW213932   2.069   5.241   3.455
 4345SOL     OW13933   1.593   2.002   5.963
 4345SOL    HW113934   1.650   2.077   5.995
 4345SOL    HW213935   1.506   2.003   6.013
 4346SOL     OW13936   2.094   3.382   2.192
 4346SOL    HW113937   2.128   3.376   2.099
 4346SOL    HW213938   2.011   3.437   2.194
 4347SOL     OW13939   5.785   6.534   2.838
 4347SOL    HW113940   5.757   6.503   2.930
 4347SOL    HW213941   5.759   6.465   2.771
 4348SOL     OW13942   1.338   4.055   6.813
 4348SOL    HW113943   1.304   4.009   6.731
 4348SOL    HW213944   1.427   4.096   6.794
 4349SOL     OW13945   6.892   0.502   3.258
 4349SOL    HW113946   6.868   0.469   3.349
 4349SOL    HW213947   6.826   0.467   3.191
 4350SOL     OW13948   4.929   1.910   3.712
 4350SOL    HW113949   4.843   1.864   3.733
 4350SOL    HW213950   4.988   1.907   3.793
 4351SOL     OW13951   3.020   6.134   1.225
 4351SOL    HW113952   3.102   6.077   1.217
 4351SOL    HW213953   2.947   6.081   1.268
 4352SOL     OW13954   6.208   1.441   1.940
 4352SOL    HW113955   6.171   1.410   2.028
 4352SOL    HW213956   6.230   1.363   1.883
 4353SOL     OW13957   4.053   5.659   6.532
 4353SOL    HW113958   4.131   5.602   6.555
 4353SOL    HW213959   4.024   5.711   6.612
 4354SOL     OW13960   1.970   0.525   0.802
 4354SOL    HW113961   1.953   0.620   0.826
 4354SOL    HW213962   1.964   0.468   0.884
 4355SOL     OW13963   5.118   1.050   0.841
 4355SOL    HW113964   5.094   1.101   0.759
 4355SOL    HW213965   5.035   1.010   0.881
 4356SOL     OW13966   3.805   4.790   0.750
 4356SOL    HW113967   3.800   4.852   0.672
 4356SOL    HW213968   3.828   4.841   0.833
 4357SOL     OW13969   6.008   0.770   6.928
 4357SOL    HW113970   6.106   0.784   6.915
 4357SOL    HW213971   5.976   0.698   6.868
 4358SOL     OW13972   0.891   0.099   1.936
 4358SOL    HW113973   0.879   0.197   1.955
 4358SOL    HW213974   0.858   0.080   1.844
 4359SOL     OW13975   6.576   2.520   3.839
 4359SOL    HW113976   6.620   2.431   3.835
 4359SOL    HW213977   6.493   2.520   3.784
 4360SOL     OW13978   1.513   2.950   1.186
 4360SOL    HW113979   1.506   2.857   1.223
 4360SOL    HW213980   1.428   2.999   1.203
 4361SOL     OW13981   5.047   2.100   1.816
 4361SOL    HW113982   5.049   2.038   1.895
 4361SOL    HW213983   4.963   2.084   1.764
 4362SOL     OW13984   5.973   4.604   4.295
 4362SOL    HW113985   5.896   4.585   4.235
 4362SOL    HW213986   6.027   4.521   4.307
 4363SOL     OW13987   5.400   1.886   6.512
 4363SOL    HW113988   5.431   1.795   6.539
 4363SOL    HW213989   5.304   1.898   6.535
 4364SOL     OW13990   3.419   3.848   4.605
 4364SOL    HW113991   3.394   3.793   4.685
 4364SOL    HW213992   3.389   3.943   4.620
 4365SOL     OW13993   3.769   1.344   1.513
 4365SOL    HW113994   3.773   1.305   1.605
 4365SOL    HW213995   3.854   1.394   1.494
 4366SOL     OW13996   5.987   5.289   1.128
 4366SOL    HW113997   5.991   5.306   1.030
 4366SOL    HW213998   6.039   5.206   1.150
 4367SOL     OW13999   1.474   6.247   6.523
 4367SOL    HW114000   1.554   6.277   6.471
 4367SOL    HW214001   1.402   6.217   6.460
 4368SOL     OW14002   5.719   3.793   1.941
 4368SOL    HW114003   5.632   3.773   1.985
 4368SOL    HW214004   5.719   3.758   1.848
 4369SOL     OW14005   4.009   5.900   1.778
 4369SOL    HW114006   4.060   5.833   1.723
 4369SOL    HW214007   3.911   5.891   1.759
 4370SOL     OW14008   5.768   4.887   2.914
 4370SOL    HW114009   5.766   4.799   2.962
 4370SOL    HW214010   5.856   4.931   2.927
 4371SOL     OW14011   5.922   2.137   2.030
 4371SOL    HW114012   5.845   2.194   2.060
 4371SOL    HW214013   5.891   2.043   2.017
 4372SOL     OW14014   4.661   0.683   3.102
 4372SOL    HW114015   4.709   0.752   3.156
 4372SOL    HW214016   4.568   0.715   3.082
 4373SOL     OW14017   6.809   2.223   6.307
 4373SOL    HW114018   6.711   2.226   6.327
 4373SOL    HW214019   6.842   2.316   6.290
 4374SOL     OW14020   2.461   2.349   1.499
 4374SOL    HW114021   2.519   2.268   1.492
 4374SOL    HW214022   2.518   2.431   1.487
 4375SOL     OW14023   2.733   6.899   4.397
 4375SOL    HW114024   2.762   6.870   4.306
 4375SOL    HW214025   2.652   6.847   4.424
 4376SOL     OW14026   5.589   1.384   3.556
 4376SOL    HW114027   5.490   1.372   3.544
 4376SOL    HW214028   5.625   1.439   3.482
 4377SOL     OW14029   5.216   4.717   6.410
 4377SOL    HW114030   5.225   4.815   6.388
 4377SOL    HW214031   5.235   4.703   6.507
 4378SOL     OW14032   1.801   0.676   3.853
 4378SOL    HW114033   1.743   0.617   3.910
 4378SOL    HW214034   1.893   0.679   3.890
 4379SOL     OW14035   2.557   1.877   5.451
 4379SOL    HW114036   2.542   1.789   5.406
 4379SOL    HW214037   2.501   1.883   5.533
 4380SOL     OW14038   0.181   1.028   1.706
 4380SOL    HW114039   0.217   1.119   1.686
 4380SOL    HW214040   0.091   1.017   1.665
 4381SOL     OW14041   1.739   6.262   6.054
 4381SOL    HW114042   1.695   6.256   6.143
 4381SOL    HW214043   1.700   6.337   6.002
 4382SOL     OW14044   0.099   2.937   5.378
 4382SOL    HW114045   0.139   3.028   5.363
 4382SOL    HW214046   0.000   2.941   5.362
 4383SOL     OW14047   6.176   2.895   0.221
 4383SOL    HW114048   6.210   2.887   0.127
 4383SOL    HW214049   6.199   2.813   0.272
 4384SOL     OW14050   5.771   6.551   4.152
 4384SOL    HW114051   5.678   6.587   4.163
 4384SOL    HW214052   5.784   6.475   4.216
 4385SOL     OW14053   5.159   1.552   5.134
 4385SOL    HW114054   5.135   1.577   5.040
 4385SOL    HW214055   5.088   1.585   5.196
 4386SOL     OW14056   1.156   3.141   4.840
 4386SOL    HW114057   1.107   3.091   4.769
 4386SOL    HW214058   1.138   3.098   4.929
 4387SOL     OW14059   6.717   2.116   0.467
 4387SOL    HW114060   6.743   2.047   0.535
 4387SOL    HW214061   6.741   2.084   0.376
 4388SOL     OW14062   5.876   2.815   6.646
 4388SOL    HW114063   5.886   2.912   6.668
 4388SOL    HW214064   5.782   2.787   6.663
 4389SOL     OW14065   0.741   3.683   1.232
 4389SOL    HW114066   0.769   3.601   1.182
 4389SOL    HW214067   0.721   3.757   1.168
 4390SOL     OW14068   6.763   1.223   1.363
 4390SOL    HW114069   6.861   1.243   1.366
 4390SOL    HW214070   6.734   1.210   1.268
 4391SOL     OW14071   2.449   6.232   0.124
 4391SOL    HW114072   2.352   6.244   0.106
 4391SOL    HW214073   2.479   6.144   0.087
 4392SOL     OW14074   1.701   2.574   5.472
 4392SOL    HW114075   1.759   2.493   5.481
 4392SOL    HW214076   1.727   2.641   5.542
 4393SOL     OW14077   4.826   0.720   2.122
 4393SOL    HW114078   4.873   0.633   2.109
 4393SOL    HW214079   4.802   0.732   2.218
 4394SOL     OW14080   1.040   0.401   2.209
 4394SOL    HW114081   0.979   0.424   2.133
 4394SOL    HW214082   1.134   0.427   2.186
 4395SOL     OW14083   2.746   5.351   1.515
 4395SOL    HW114084   2.795   5.327   1.432
 4395SOL    HW214085   2.744   5.271   1.576
 4396SOL     OW14086   2.713   0.296   3.292
 4396SOL    HW114087   2.800   0.249   3.308
 4396SOL    HW214088   2.726   0.369   3.225
 4397SOL     OW14089   3.186   1.553   4.197
 4397SOL    HW114090   3.120   1.605   4.251
 4397SOL    HW214091   3.251   1.508   4.259
 4398SOL     OW14092   1.793   2.815   4.992
 4398SOL    HW114093   1.743   2.822   4.906
 4398SOL    HW214094   1.889   2.793   4.973
 4399SOL     OW14095   2.906   6.809   2.321
 4399SOL    HW114096   2.849   6.765   2.252
 4399SOL    HW214097   2.959   6.883   2.279
 4400SOL     OW14098   1.538   5.242   4.593
 4400SOL    HW114099   1.570   5.320   4.539
 4400SOL    HW214100   1.616   5.187   4.622
 4401SOL     OW14101   3.805   0.144   6.407
 4401SOL    HW114102   3.847   0.071   6.460
 4401SOL    HW214103   3.869   0.222   6.401
 4402SOL     OW14104   1.185   1.196   3.183
 4402SOL    HW114105   1.270   1.145   3.189
 4402SOL    HW214106   1.205   1.292   3.160
 4403SOL     OW14107   1.304   4.993   1.514
 4403SOL    HW114108   1.351   5.032   1.435
 4403SOL    HW214109   1.329   5.043   1.596
 4404SOL     OW14110   0.683   0.016   5.899
 4404SOL    HW114111   0.697   0.057   5.809
 4404SOL    HW214112   0.592   6.998   5.904
 4405SOL     OW14113   1.703   5.743   3.122
 4405SOL    HW114114   1.718   5.819   3.184
 4405SOL    HW214115   1.708   5.656   3.172
 4406SOL     OW14116   6.587   3.786   2.017
 4406SOL    HW114117   6.505   3.843   2.008
 4406SOL    HW214118   6.661   3.838   2.059
 4407SOL     OW14119   5.504   5.989   2.086
 4407SOL    HW114120   5.542   6.031   2.004
 4407SOL    HW214121   5.570   5.925   2.125
 4408SOL     OW14122   4.515   0.844   0.272
 4408SOL    HW114123   4.614   0.829   0.275
 4408SOL    HW214124   4.488   0.870   0.179
 4409SOL     OW14125   3.062   0.529   2.902
 4409SOL    HW114126   3.050   0.501   2.997
 4409SOL    HW214127   2.977   0.512   2.852
 4410SOL     OW14128   1.502   6.665   1.083
 4410SOL    HW114129   1.470   6.749   1.128
 4410SOL    HW214130   1.431   6.631   1.022
 4411SOL     OW14131   3.581   4.426   5.272
 4411SOL    HW114132   3.680   4.434   5.259
 4411SOL    HW214133   3.543   4.366   5.202
 4412SOL     OW14134   4.445   6.036   2.676
 4412SOL    HW114135   4.455   6.134   2.695
 4412SOL    HW214136   4.429   5.987   2.761
 4413SOL     OW14137   4.376   6.404   3.801
 4413SOL    HW114138   4.431   6.402   3.718
 4413SOL    HW214139   4.407   6.478   3.860
 4414SOL     OW14140   4.478   4.239   1.411
 4414SOL    HW114141   4.575   4.220   1.397
 4414SOL    HW214142   4.445   4.298   1.338
 4415SOL     OW14143   2.304   2.765   1.589
 4415SOL    HW114144   2.294   2.848   1.644
 4415SOL    HW214145   2.293   2.788   1.492
 4416SOL     OW14146   4.508   2.436   3.474
 4416SOL    HW114147   4.419   2.412   3.435
 4416SOL    HW214148   4.497   2.462   3.570
 4417SOL     OW14149   0.426   4.052   3.294
 4417SOL    HW114150   0.357   4.087   3.358
 4417SOL    HW214151   0.447   4.123   3.226
 4418SOL     OW14152   6.533   6.750   6.056
 4418SOL    HW114153   6.490   6.764   6.145
 4418SOL    HW214154   6.464   6.761   5.984
 4419SOL     OW14155   6.148   5.307   6.343
 4419SOL    HW114156   6.098   5.388   6.314
 4419SOL    HW214157   6.083   5.236   6.370
 4420SOL     OW14158   3.455   2.388   0.869
 4420SOL    HW114159   3.505   2.427   0.792
 4420SOL    HW214160   3.480   2.437   0.953
 4421SOL     OW14161   1.706   2.229   6.042
 4421SOL    HW114162   1.714   2.284   5.959
 4421SOL    HW214163   1.630   2.262   6.097
 4422SOL     OW14164   6.422   3.726   6.549
 4422SOL    HW114165   6.416   3.642   6.495
 4422SOL    HW214166   6.451   3.705   6.642
 4423SOL     OW14167   5.568   4.194   4.811
 4423SOL    HW114168   5.608   4.201   4.903
 4423SOL    HW214169   5.548   4.286   4.777
 4424SOL     OW14170   4.754   5.497   3.216
 4424SOL    HW114171   4.776   5.594   3.221
 4424SOL    HW214172   4.832   5.443   3.248
 4425SOL     OW14173   1.809   5.073   1.504
 4425SOL    HW114174   1.761   5.096   1.589
 4425SOL    HW214175   1.742   5.045   1.435
 4426SOL     OW14176   0.579   0.218   4.997
 4426SOL    HW114177   0.602   0.134   4.949
 4426SOL    HW214178   0.569   0.200   5.094
 4427SOL     OW14179   2.324   6.282   3.183
 4427SOL    HW114180   2.399   6.217   3.167
 4427SOL    HW214181   2.244   6.253   3.132
 4428SOL     OW14182   5.401   6.815   3.242
 4428SOL    HW114183   5.368   6.760   3.165
 4428SOL    HW214184   5.330   6.820   3.312
 4429SOL     OW14185   2.536   6.088   3.189
 4429SOL    HW114186   2.515   5.996   3.221
 4429SOL    HW214187   2.526   6.091   3.089
 4430SOL     OW14188   4.572   3.919   5.403
 4430SOL    HW114189   4.625   3.990   5.450
 4430SOL    HW214190   4.605   3.829   5.429
 4431SOL     OW14191   3.094   6.651   3.667
 4431SOL    HW114192   3.136   6.586   3.603
 4431SOL    HW214193   3.094   6.742   3.627
 4432SOL     OW14194   0.837   3.588   5.925
 4432SOL    HW114195   0.755   3.603   5.981
 4432SOL    HW214196   0.811   3.580   5.829
 4433SOL     OW14197   0.165   0.982   5.677
 4433SOL    HW114198   0.233   0.969   5.605
 4433SOL    HW214199   0.184   1.068   5.724
 4434SOL     OW14200   0.128   0.370   2.575
 4434SOL    HW114201   0.097   0.428   2.499
 4434SOL    HW214202   0.052   0.354   2.637
 4435SOL     OW14203   2.015   4.074   0.270
 4435SOL    HW114204   2.107   4.101   0.241
 4435SOL    HW214205   2.002   3.976   0.253
 4436SOL     OW14206   4.126   1.747   1.792
 4436SOL    HW114207   4.085   1.730   1.882
 4436SOL    HW214208   4.057   1.738   1.721
 4437SOL     OW14209   6.834   4.122   0.522
 4437SOL    HW114210   6.883   4.135   0.435
 4437SOL    HW214211   6.774   4.043   0.515
 4438SOL     OW14212   3.468   0.261   5.679
 4438SOL    HW114213   3.527   0.337   5.651
 4438SOL    HW214214   3.381   0.297   5.712
 4439SOL     OW14215   2.671   6.919   2.474
 4439SOL    HW114216   2.761   6.959   2.491
 4439SOL    HW214217   2.652   6.849   2.543
 4440SOL     OW14218   1.411   5.470   0.129
 4440SOL    HW114219   1.397   5.488   0.226
 4440SOL    HW214220   1.501   5.428   0.116
 4441SOL     OW14221   0.196   1.477   0.415
 4441SOL    HW114222   0.175   1.394   0.362
 4441SOL    HW214223   0.114   1.534   0.420
 4442SOL     OW14224   1.775   4.604   6.510
 4442SOL    HW114225   1.714   4.655   6.571
 4442SOL    HW214226   1.752   4.507   6.513
 4443SOL     OW14227   0.915   5.554   6.197
 4443SOL    HW114228   0.952   5.608   6.122
 4443SOL    HW214229   0.817   5.571   6.206
 4444SOL     OW14230   5.555   4.505   7.022
 4444SOL    HW114231   5.591   4.426   0.049
 4444SOL    HW214232   5.612   4.585   0.017
 4445SOL     OW14233   0.057   5.062   0.436
 4445SOL    HW114234   0.005   5.019   0.362
 4445SOL    HW214235   0.144   5.096   0.401
 4446SOL     OW14236   4.893   1.219   1.084
 4446SOL    HW114237   4.858   1.148   1.023
 4446SOL    HW214238   4.976   1.259   1.045
 4447SOL     OW14239   4.686   5.553   5.865
 4447SOL    HW114240   4.685   5.561   5.965
 4447SOL    HW214241   4.712   5.460   5.840
 4448SOL     OW14242   3.805   6.292   2.230
 4448SOL    HW114243   3.753   6.209   2.251
 4448SOL    HW214244   3.744   6.360   2.190
 4449SOL     OW14245   3.404   1.356   5.540
 4449SOL    HW114246   3.455   1.302   5.473
 4449SOL    HW214247   3.440   1.449   5.542
 4450SOL     OW14248   3.554   6.903   0.349
 4450SOL    HW114249   3.525   6.861   0.263
 4450SOL    HW214250   3.538   7.002   0.344
 4451SOL     OW14251   5.280   4.471   2.682
 4451SOL    HW114252   5.254   4.566   2.662
 4451SOL    HW214253   5.198   4.413   2.676
 4452SOL     OW14254   4.547   6.677   4.581
 4452SOL    HW114255   4.479   6.603   4.576
 4452SOL    HW214256   4.531   6.742   4.507
 4453SOL     OW14257   6.578   4.115   0.808
 4453SOL    HW114258   6.545   4.164   0.727
 4453SOL    HW214259   6.557   4.017   0.798
 4454SOL     OW14260   1.304   2.584   6.746
 4454SOL    HW114261   1.273   2.490   6.731
 4454SOL    HW214262   1.228   2.639   6.779
 4455SOL     OW14263   0.611   6.479   5.613
 4455SOL    HW114264   0.700   6.521   5.595
 4455SOL    HW214265   0.608   6.387   5.572
 4456SOL     OW14266   2.271   0.258   4.638
 4456SOL    HW114267   2.251   0.229   4.544
 4456SOL    HW214268   2.199   0.226   4.699
 4457SOL     OW14269   1.727   2.245   4.995
 4457SOL    HW114270   1.746   2.158   5.042
 4457SOL    HW214271   1.749   2.321   5.056
 4458SOL     OW14272   1.685   3.667   6.741
 4458SOL    HW114273   1.599   3.620   6.724
 4458SOL    HW214274   1.739   3.669   6.656
 4459SOL     OW14275   0.778   2.730   2.660
 4459SOL    HW114276   0.745   2.637   2.678
 4459SOL    HW214277   0.808   2.772   2.745
 4460SOL     OW14278   6.876   2.725   4.376
 4460SOL    HW114279   6.937   2.795   4.414
 4460SOL    HW214280   6.804   2.704   4.442
 4461SOL     OW14281   2.398   0.914   1.072
 4461SOL    HW114282   2.488   0.957   1.058
 4461SOL    HW214283   2.408   0.836   1.133
 4462SOL     OW14284   6.693   4.444   3.246
 4462SOL    HW114285   6.712   4.535   3.283
 4462SOL    HW214286   6.757   4.378   3.286
 4463SOL     OW14287   5.757   1.531   0.768
 4463SOL    HW114288   5.771   1.432   0.767
 4463SOL    HW214289   5.774   1.566   0.861
 4464SOL     OW14290   0.461   5.515   1.114
 4464SOL    HW114291   0.482   5.449   1.042
 4464SOL    HW214292   0.461   5.468   1.203
 4465SOL     OW14293   3.315   5.545   0.929
 4465SOL    HW114294   3.284   5.635   0.900
 4465SOL    HW214295   3.328   5.544   1.028
 4466SOL     OW14296   1.653   2.540   3.320
 4466SOL    HW114297   1.733   2.596   3.300
 4466SOL    HW214298   1.605   2.578   3.399
 4467SOL     OW14299   4.085   6.034   3.323
 4467SOL    HW114300   4.156   5.991   3.379
 4467SOL    HW214301   4.123   6.109   3.271
 4468SOL     OW14302   2.004   2.889   1.886
 4468SOL    HW114303   2.099   2.906   1.914
 4468SOL    HW214304   1.995   2.793   1.859
 4469SOL     OW14305   3.258   5.993   1.213
 4469SOL    HW114306   3.318   5.985   1.292
 4469SOL    HW214307   3.296   6.059   1.149
 4470SOL     OW14308   2.178   6.901   2.953
 4470SOL    HW114309   2.185   6.802   2.939
 4470SOL    HW214310   2.244   6.948   2.894
 4471SOL     OW14311   1.313   0.996   6.638
 4471SOL    HW114312   1.353   1.087   6.648
 4471SOL    HW214313   1.294   0.957   6.728
 4472SOL     OW14314   1.902   2.542   1.255
 4472SOL    HW114315   1.914   2.578   1.348
 4472SOL    HW214316   1.961   2.463   1.242
 4473SOL     OW14317   0.651   2.673   4.432
 4473SOL    HW114318   0.554   2.677   4.411
 4473SOL    HW214319   0.686   2.766   4.449
 4474SOL     OW14320   2.975   5.500   0.853
 4474SOL    HW114321   2.947   5.500   0.949
 4474SOL    HW214322   3.074   5.500   0.847
 4475SOL     OW14323   1.484   3.841   1.021
 4475SOL    HW114324   1.437   3.753   1.021
 4475SOL    HW214325   1.418   3.913   0.998
 4476SOL     OW14326   4.716   1.219   3.669
 4476SOL    HW114327   4.649   1.199   3.598
 4476SOL    HW214328   4.771   1.137   3.687
 4477SOL     OW14329   1.761   0.949   4.988
 4477SOL    HW114330   1.772   0.872   5.052
 4477SOL    HW214331   1.742   0.913   4.897
 4478SOL     OW14332   1.850   0.134   0.592
 4478SOL    HW114333   1.813   0.059   0.647
 4478SOL    HW214334   1.776   0.195   0.564
 4479SOL     OW14335   1.167   2.928   0.116
 4479SOL    HW114336   1.131   2.875   0.040
 4479SOL    HW214337   1.181   2.868   0.195
 4480SOL     OW14338   1.042   6.193   3.944
 4480SOL    HW114339   0.949   6.177   3.976
 4480SOL    HW214340   1.104   6.131   3.992
 4481SOL     OW14341   2.027   3.723   6.032
 4481SOL    HW114342   1.985   3.751   5.946
 4481SOL    HW214343   2.125   3.708   6.018
 4482SOL     OW14344   2.518   6.265   0.387
 4482SOL    HW114345   2.434   6.298   0.429
 4482SOL    HW214346   2.503   6.248   0.290
 4483SOL     OW14347   1.289   3.015   0.568
 4483SOL    HW114348   1.338   3.045   0.487
 4483SOL    HW214349   1.317   2.922   0.592
 4484SOL     OW14350   2.662   1.765   0.329
 4484SOL    HW114351   2.652   1.776   0.428
 4484SOL    HW214352   2.702   1.848   0.291
 4485SOL     OW14353   6.236   2.539   5.318
 4485SOL    HW114354   6.191   2.627   5.301
 4485SOL    HW214355   6.331   2.543   5.287
 4486SOL     OW14356   4.535   5.105   4.989
 4486SOL    HW114357   4.506   5.029   4.930
 4486SOL    HW214358   4.465   5.177   4.986
 4487SOL     OW14359   0.659   3.080   0.097
 4487SOL    HW114360   0.757   3.064   0.112
 4487SOL    HW214361   0.616   2.995   0.067
 4488SOL     OW14362   0.060   4.243   3.946
 4488SOL    HW114363   0.130   4.299   3.991
 4488SOL    HW214364   0.013   4.297   3.876
 4489SOL     OW14365   4.746   5.923   5.643
 4489SOL    HW114366   4.790   5.860   5.707
 4489SOL    HW214367   4.734   6.012   5.687
 4490SOL     OW14368   5.231   1.815   1.515
 4490SOL    HW114369   5.230   1.736   1.454
 4490SOL    HW214370   5.172   1.798   1.594
 4491SOL     OW14371   1.244   3.337   3.737
 4491SOL    HW114372   1.243   3.337   3.637
 4491SOL    HW214373   1.216   3.427   3.771
 4492SOL     OW14374   6.121   0.512   2.639
 4492SOL    HW114375   6.051   0.583   2.632
 4492SOL    HW214376   6.081   0.424   2.612
 4493SOL     OW14377   5.521   1.776   4.931
 4493SOL    HW114378   5.440   1.719   4.916
 4493SOL    HW214379   5.551   1.766   5.026
 4494SOL     OW14380   1.229   0.939   0.920
 4494SOL    HW114381   1.318   0.897   0.940
 4494SOL    HW214382   1.216   0.944   0.821
 4495SOL     OW14383   4.512   5.971   1.118
 4495SOL    HW114384   4.503   6.059   1.072
 4495SOL    HW214385   4.587   5.919   1.077
 4496SOL     OW14386   3.647   6.114   6.328
 4496SOL    HW114387   3.679   6.205   6.351
 4496SOL    HW214388   3.549   6.108   6.343
 4497SOL     OW14389   4.607   1.063   5.898
 4497SOL    HW114390   4.692   1.054   5.950
 4497SOL    HW214391   4.617   1.018   5.809
 4498SOL     OW14392   0.178   5.582   4.988
 4498SOL    HW114393   0.117   5.652   4.953
 4498SOL    HW214394   0.126   5.499   5.007
 4499SOL     OW14395   6.068   2.306   2.525
 4499SOL    HW114396   6.061   2.331   2.428
 4499SOL    HW214397   6.083   2.207   2.533
 4500SOL     OW14398   4.024   5.398   6.799
 4500SOL    HW114399   4.051   5.340   6.876
 4500SOL    HW214400   3.940   5.447   6.821
 4501SOL     OW14401   5.780   0.585   2.741
 4501SOL    HW114402   5.731   0.524   2.678
 4501SOL    HW214403   5.715   0.643   2.789
 4502SOL     OW14404   6.677   3.789   6.398
 4502SOL    HW114405   6.593   3.775   6.450
 4502SOL    HW214406   6.748   3.726   6.431
 4503SOL     OW14407   3.092   1.022   2.893
 4503SOL    HW114408   3.109   0.945   2.955
 4503SOL    HW214409   3.116   0.996   2.800
 4504SOL     OW14410   6.819   1.589   2.699
 4504SOL    HW114411   6.725   1.586   2.667
 4504SOL    HW214412   6.860   1.498   2.691
 4505SOL     OW14413   5.573   5.029   4.094
 4505SOL    HW114414   5.568   4.954   4.027
 4505SOL    HW214415   5.662   5.027   4.140
 4506SOL     OW14416   5.311   2.721   5.604
 4506SOL    HW114417   5.363   2.727   5.689
 4506SOL    HW214418   5.367   2.754   5.528
 4507SOL     OW14419   5.979   3.099   3.178
 4507SOL    HW114420   6.004   3.006   3.206
 4507SOL    HW214421   6.007   3.113   3.083
 4508SOL     OW14422   0.574   5.302   0.926
 4508SOL    HW114423   0.558   5.355   0.842
 4508SOL    HW214424   0.542   5.208   0.912
 4509SOL     OW14425   4.937   2.976   1.896
 4509SOL    HW114426   4.850   2.975   1.945
 4509SOL    HW214427   5.010   3.008   1.957
 4510SOL     OW14428   4.021   0.753   3.816
 4510SOL    HW114429   4.097   0.689   3.803
 4510SOL    HW214430   4.036   0.807   3.898
 4511SOL     OW14431   0.334   4.189   0.353
 4511SOL    HW114432   0.425   4.228   0.363
 4511SOL    HW214433   0.289   4.185   0.442
 4512SOL     OW14434   3.190   3.156   5.480
 4512SOL    HW114435   3.241   3.212   5.415
 4512SOL    HW214436   3.095   3.146   5.449
 4513SOL     OW14437   1.296   6.684   0.926
 4513SOL    HW114438   1.214   6.628   0.943
 4513SOL    HW214439   1.334   6.660   0.836
 4514SOL     OW14440   3.471   4.538   6.613
 4514SOL    HW114441   3.511   4.530   6.522
 4514SOL    HW214442   3.420   4.455   6.634
 4515SOL     OW14443   4.411   0.852   5.748
 4515SOL    HW114444   4.485   0.789   5.773
 4515SOL    HW214445   4.329   0.799   5.726
 4516SOL     OW14446   3.392   1.727   5.496
 4516SOL    HW114447   3.377   1.822   5.469
 4516SOL    HW214448   3.311   1.673   5.474
 4517SOL     OW14449   3.776   0.824   5.413
 4517SOL    HW114450   3.701   0.888   5.429
 4517SOL    HW214451   3.781   0.802   5.315
 4518SOL     OW14452   1.075   6.613   1.315
 4518SOL    HW114453   1.067   6.529   1.261
 4518SOL    HW214454   1.057   6.692   1.256
 4519SOL     OW14455   4.821   6.984   0.088
 4519SOL    HW114456   4.805   0.021   0.166
 4519SOL    HW214457   4.918   6.986   0.063
 4520SOL     OW14458   4.225   5.286   5.369
 4520SOL    HW114459   4.223   5.353   5.295
 4520SOL    HW214460   4.237   5.333   5.456
 4521SOL     OW14461   4.329   2.402   4.100
 4521SOL    HW114462   4.402   2.442   4.045
 4521SOL    HW214463   4.357   2.402   4.196
 4522SOL     OW14464   5.624   4.427   3.412
 4522SOL    HW114465   5.583   4.345   3.372
 4522SOL    HW214466   5.722   4.413   3.423
 4523SOL     OW14467   0.549   3.226   5.831
 4523SOL    HW114468   0.609   3.190   5.760
 4523SOL    HW214469   0.600   3.240   5.915
 4524SOL     OW14470   1.493   3.751   2.578
 4524SOL    HW114471   1.570   3.739   2.515
 4524SOL    HW214472   1.407   3.750   2.526
 4525SOL     OW14473   3.503   2.180   5.210
 4525SOL    HW114474   3.422   2.221   5.169
 4525SOL    HW214475   3.501   2.194   5.309
 4526SOL     OW14476   0.875   6.904   5.519
 4526SOL    HW114477   0.913   6.905   5.427
 4526SOL    HW214478   0.942   6.940   5.584
 4527SOL     OW14479   6.674   1.074   2.645
 4527SOL    HW114480   6.683   0.975   2.641
 4527SOL    HW214481   6.730   1.116   2.574
 4528SOL     OW14482   4.641   1.250   5.517
 4528SOL    HW114483   4.659   1.287   5.426
 4528SOL    HW214484   4.569   1.303   5.561
 4529SOL     OW14485   2.187   0.873   4.049
 4529SOL    HW114486   2.263   0.830   4.097
 4529SOL    HW214487   2.216   0.963   4.015
 4530SOL     OW14488   3.823   5.851   6.298
 4530SOL    HW114489   3.878   5.918   6.247
 4530SOL    HW214490   3.800   5.889   6.388
 4531SOL     OW14491   1.397   5.590   5.960
 4531SOL    HW114492   1.362   5.498   5.979
 4531SOL    HW214493   1.345   5.656   6.014
 4532SOL     OW14494   5.573   0.756   2.835
 4532SOL    HW114495   5.499   0.791   2.777
 4532SOL    HW214496   5.595   0.824   2.906
 4533SOL     OW14497   2.909   0.145   1.364
 4533SOL    HW114498   2.958   0.233   1.356
 4533SOL    HW214499   2.947   0.093   1.441
 4534SOL     OW14500   4.086   1.112   3.906
 4534SOL    HW114501   4.010   1.176   3.917
 4534SOL    HW214502   4.169   1.163   3.882
 4535SOL     OW14503   2.175   1.000   0.886
 4535SOL    HW114504   2.234   0.985   0.966
 4535SOL    HW214505   2.232   1.011   0.805
 4536SOL     OW14506   3.062   0.178   5.763
 4536SOL    HW114507   3.156   0.207   5.782
 4536SOL    HW214508   3.029   0.223   5.679
 4537SOL     OW14509   2.910   3.689   3.584
 4537SOL    HW114510   2.925   3.746   3.665
 4537SOL    HW214511   2.927   3.593   3.607
 4538SOL     OW14512   0.418   1.957   1.090
 4538SOL    HW114513   0.518   1.955   1.089
 4538SOL    HW214514   0.383   1.879   1.039
 4539SOL     OW14515   1.421   6.245   5.624
 4539SOL    HW114516   1.437   6.220   5.528
 4539SOL    HW214517   1.335   6.296   5.631
 4540SOL     OW14518   0.865   1.625   0.499
 4540SOL    HW114519   0.873   1.715   0.456
 4540SOL    HW214520   0.896   1.555   0.435
 4541SOL     OW14521   4.367   2.704   5.587
 4541SOL    HW114522   4.304   2.752   5.526
 4541SOL    HW214523   4.321   2.624   5.626
 4542SOL     OW14524   0.126   1.815   0.358
 4542SOL    HW114525   0.063   1.743   0.388
 4542SOL    HW214526   0.195   1.829   0.429
 4543SOL     OW14527   3.641   2.543   0.155
 4543SOL    HW114528   3.604   2.578   0.069
 4543SOL    HW214529   3.715   2.603   0.186
 4544SOL     OW14530   5.559   6.747   0.532
 4544SOL    HW114531   5.526   6.676   0.594
 4544SOL    HW214532   5.645   6.717   0.491
 4545SOL     OW14533   2.025   2.860   5.232
 4545SOL    HW114534   1.952   2.925   5.213
 4545SOL    HW214535   2.027   2.790   5.161
 4546SOL     OW14536   2.999   0.460   5.127
 4546SOL    HW114537   3.002   0.559   5.116
 4546SOL    HW214538   3.045   0.416   5.051
 4547SOL     OW14539   6.936   0.278   0.031
 4547SOL    HW114540   7.008   0.309   0.093
 4547SOL    HW214541   6.867   0.228   0.082
 4548SOL     OW14542   2.946   1.672   2.760
 4548SOL    HW114543   2.861   1.634   2.797
 4548SOL    HW214544   3.020   1.655   2.825
 4549SOL     OW14545   0.240   3.482   4.591
 4549SOL    HW114546   0.178   3.420   4.543
 4549SOL    HW214547   0.316   3.429   4.628
 4550SOL     OW14548   1.968   5.141   3.758
 4550SOL    HW114549   1.871   5.161   3.745
 4550SOL    HW214550   1.990   5.148   3.855
 4551SOL     OW14551   1.908   2.403   5.445
 4551SOL    HW114552   1.918   2.320   5.390
 4551SOL    HW214553   1.968   2.474   5.408
 4552SOL     OW14554   5.508   1.121   0.697
 4552SOL    HW114555   5.466   1.052   0.637
 4552SOL    HW214556   5.480   1.104   0.791
 4553SOL     OW14557   0.190   5.429   0.159
 4553SOL    HW114558   0.178   5.526   0.138
 4553SOL    HW214559   0.215   5.418   0.256
 4554SOL     OW14560   6.175   6.671   3.093
 4554SOL    HW114561   6.125   6.672   3.007
 4554SOL    HW214562   6.113   6.694   3.168
 4555SOL     OW14563   1.672   1.029   0.815
 4555SOL    HW114564   1.610   1.105   0.834
 4555SOL    HW214565   1.637   0.977   0.737
 4556SOL     OW14566   5.830   4.668   4.680
 4556SOL    HW114567   5.786   4.609   4.612
 4556SOL    HW214568   5.883   4.739   4.633
 4557SOL     OW14569   0.136   4.498   4.202
 4557SOL    HW114570   0.139   4.597   4.189
 4557SOL    HW214571   0.050   4.473   4.245
 4558SOL     OW14572   1.190   3.795   4.650
 4558SOL    HW114573   1.112   3.845   4.612
 4558SOL    HW214574   1.235   3.744   4.576
 4559SOL     OW14575   6.733   2.827   3.510
 4559SOL    HW114576   6.750   2.822   3.608
 4559SOL    HW214577   6.680   2.748   3.481
 4560SOL     OW14578   6.284   3.988   2.380
 4560SOL    HW114579   6.355   3.918   2.374
 4560SOL    HW214580   6.286   4.045   2.298
 4561SOL     OW14581   4.166   2.239   3.972
 4561SOL    HW114582   4.224   2.306   4.017
 4561SOL    HW214583   4.092   2.213   4.033
 4562SOL     OW14584   3.590   1.054   1.166
 4562SOL    HW114585   3.524   1.074   1.094
 4562SOL    HW214586   3.620   0.959   1.158
 4563SOL     OW14587   0.845   4.614   2.314
 4563SOL    HW114588   0.758   4.621   2.362
 4563SOL    HW214589   0.842   4.668   2.230
 4564SOL     OW14590   1.909   3.587   2.181
 4564SOL    HW114591   1.856   3.583   2.097
 4564SOL    HW214592   1.989   3.645   2.168
 4565SOL     OW14593   1.785   5.972   6.029
 4565SOL    HW114594   1.790   5.917   6.112
 4565SOL    HW214595   1.762   6.067   6.053
 4566SOL     OW14596   6.249   4.845   3.311
 4566SOL    HW114597   6.320   4.858   3.242
 4566SOL    HW214598   6.180   4.917   3.302
 4567SOL     OW14599   6.924   0.808   6.929
 4567SOL    HW114600   6.897   0.901   6.903
 4567SOL    HW214601   6.870   0.742   6.876
 4568SOL     OW14602   1.582   5.159   3.067
 4568SOL    HW114603   1.605   5.122   3.157
 4568SOL    HW214604   1.649   5.228   3.041
 4569SOL     OW14605   2.133   0.874   3.381
 4569SOL    HW114606   2.167   0.967   3.400
 4569SOL    HW214607   2.043   0.880   3.338
 4570SOL     OW14608   4.995   5.964   1.881
 4570SOL    HW114609   5.080   5.989   1.834
 4570SOL    HW214610   4.931   5.924   1.815
 4571SOL     OW14611   2.457   3.013   6.665
 4571SOL    HW114612   2.400   3.092   6.686
 4571SOL    HW214613   2.546   3.043   6.631
 4572SOL     OW14614   3.040   3.064   2.093
 4572SOL    HW114615   2.989   3.070   2.008
 4572SOL    HW214616   3.094   3.147   2.105
 4573SOL     OW14617   3.263   5.611   1.191
 4573SOL    HW114618   3.193   5.681   1.206
 4573SOL    HW214619   3.351   5.655   1.175
 4574SOL     OW14620   4.973   0.957   1.479
 4574SOL    HW114621   5.020   0.870   1.460
 4574SOL    HW214622   4.943   0.998   1.393
 4575SOL     OW14623   0.484   0.312   5.757
 4575SOL    HW114624   0.471   0.403   5.796
 4575SOL    HW214625   0.406   0.254   5.778
 4576SOL     OW14626   2.711   4.798   5.488
 4576SOL    HW114627   2.736   4.869   5.422
 4576SOL    HW214628   2.721   4.708   5.445
 4577SOL     OW14629   0.475   1.661   2.517
 4577SOL    HW114630   0.550   1.709   2.471
 4577SOL    HW214631   0.467   1.568   2.481
 4578SOL     OW14632   1.760   1.965   2.202
 4578SOL    HW114633   1.723   2.038   2.260
 4578SOL    HW214634   1.828   2.003   2.140
 4579SOL     OW14635   4.929   0.674   3.444
 4579SOL    HW114636   4.955   0.617   3.522
 4579SOL    HW214637   5.010   0.722   3.409
 4580SOL     OW14638   0.559   2.157   0.916
 4580SOL    HW114639   0.594   2.181   1.007
 4580SOL    HW214640   0.466   2.192   0.906
 4581SOL     OW14641   3.182   0.924   0.850
 4581SOL    HW114642   3.234   0.993   0.901
 4581SOL    HW214643   3.114   0.969   0.793
 4582SOL     OW14644   5.760   1.501   3.926
 4582SOL    HW114645   5.774   1.583   3.982
 4582SOL    HW214646   5.662   1.488   3.909
 4583SOL     OW14647   1.755   0.350   0.256
 4583SOL    HW114648   1.726   0.258   0.284
 4583SOL    HW214649   1.854   0.350   0.240
 4584SOL     OW14650   0.916   1.091   4.487
 4584SOL    HW114651   0.935   1.020   4.419
 4584SOL    HW214652   0.935   1.180   4.447
 4585SOL     OW14653   1.986   3.294   3.672
 4585SOL    HW114654   1.897   3.264   3.638
 4585SOL    HW214655   2.000   3.261   3.765
 4586SOL     OW14656   5.851   4.853   6.793
 4586SOL    HW114657   5.941   4.808   6.788
 4586SOL    HW214658   5.797   4.812   6.866
 4587SOL     OW14659   3.161   2.936   5.093
 4587SOL    HW114660   3.168   2.851   5.146
 4587SOL    HW214661   3.218   2.929   5.011
 4588SOL     OW14662   3.302   3.714   6.135
 4588SOL    HW114663   3.204   3.693   6.137
 4588SOL    HW214664   3.354   3.631   6.159
 4589SOL     OW14665   6.331   6.017   2.104
 4589SOL    HW114666   6.429   6.023   2.121
 4589SOL    HW214667   6.302   6.097   2.051
 4590SOL     OW14668   2.999   4.636   0.450
 4590SOL    HW114669   3.042   4.638   0.360
 4590SOL    HW214670   2.939   4.716   0.459
 4591SOL     OW14671   1.890   0.070   5.256
 4591SOL    HW114672   1.985   0.069   5.225
 4591SOL    HW214673   1.852   7.001   5.249
 4592SOL     OW14674   1.712   1.709   3.617
 4592SOL    HW114675   1.633   1.660   3.580
 4592SOL    HW214676   1.708   1.805   3.590
 4593SOL     OW14677   1.450   5.726   4.537
 4593SOL    HW114678   1.519   5.798   4.537
 4593SOL    HW214679   1.418   5.710   4.444
 4594SOL     OW14680   1.719   0.020   3.608
 4594SOL    HW114681   1.781   7.009   3.679
 4594SOL    HW214682   1.627   7.008   3.626
 4595SOL     OW14683   5.638   1.841   6.234
 4595SOL    HW114684   5.593   1.930   6.224
 4595SOL    HW214685   5.571   1.773   6.266
 4596SOL     OW14686   6.404   0.598   2.412
 4596SOL    HW114687   6.339   0.599   2.488
 4596SOL    HW214688   6.481   0.538   2.434
 4597SOL     OW14689   2.885   5.904   0.016
 4597SOL    HW114690   2.866   5.981   0.077
 4597SOL    HW214691   2.808   5.841   0.016
 4598SOL     OW14692   1.467   4.406   0.281
 4598SOL    HW114693   1.389   4.349   0.306
 4598SOL    HW214694   1.497   4.383   0.188
 4599SOL     OW14695   2.773   5.911   1.601
 4599SOL    HW114696   2.756   5.993   1.656
 4599SOL    HW214697   2.839   5.853   1.649
 4600SOL     OW14698   0.643   6.503   6.189
 4600SOL    HW114699   0.679   6.465   6.273
 4600SOL    HW214700   0.544   6.487   6.184
 4601SOL     OW14701   1.735   0.718   5.198
 4601SOL    HW114702   1.690   0.645   5.146
 4601SOL    HW214703   1.814   0.681   5.247
 4602SOL     OW14704   3.133   2.058   5.984
 4602SOL    HW114705   3.081   2.103   5.911
 4602SOL    HW214706   3.087   2.074   6.072
 4603SOL     OW14707   4.807   0.224   0.942
 4603SOL    HW114708   4.826   0.198   1.037
 4603SOL    HW214709   4.891   0.214   0.887
 4604SOL     OW14710   6.600   6.492   4.880
 4604SOL    HW114711   6.624   6.459   4.789
 4604SOL    HW214712   6.560   6.584   4.872
 4605SOL     OW14713   3.900   0.246   1.348
 4605SOL    HW114714   3.906   0.343   1.323
 4605SOL    HW214715   3.881   0.238   1.446
 4606SOL     OW14716   6.830   6.745   4.938
 4606SOL    HW114717   6.915   6.795   4.922
 4606SOL    HW214718   6.842   6.649   4.911
 4607SOL     OW14719   2.117   2.347   0.908
 4607SOL    HW114720   2.083   2.341   1.002
 4607SOL    HW214721   2.140   2.256   0.874
 4608SOL     OW14722   6.654   2.591   4.902
 4608SOL    HW114723   6.735   2.567   4.955
 4608SOL    HW214724   6.581   2.525   4.920
 4609SOL     OW14725   4.808   5.899   6.366
 4609SOL    HW114726   4.744   5.851   6.306
 4609SOL    HW214727   4.758   5.944   6.439
 4610SOL     OW14728   5.056   4.032   6.948
 4610SOL    HW114729   5.096   3.943   6.923
 4610SOL    HW214730   4.956   4.022   6.955
 4611SOL     OW14731   1.016   0.735   6.471
 4611SOL    HW114732   1.112   0.762   6.479
 4611SOL    HW214733   1.010   0.641   6.439
 4612SOL     OW14734   1.794   1.734   1.489
 4612SOL    HW114735   1.811   1.782   1.403
 4612SOL    HW214736   1.741   1.651   1.471
 4613SOL     OW14737   1.802   4.379   1.618
 4613SOL    HW114738   1.724   4.321   1.642
 4613SOL    HW214739   1.821   4.442   1.693
 4614SOL     OW14740   6.522   4.342   4.825
 4614SOL    HW114741   6.620   4.321   4.822
 4614SOL    HW214742   6.473   4.268   4.871
 4615SOL     OW14743   1.152   3.453   6.411
 4615SOL    HW114744   1.070   3.397   6.401
 4615SOL    HW214745   1.219   3.404   6.467
 4616SOL     OW14746   6.853   2.697   5.744
 4616SOL    HW114747   6.861   2.602   5.713
 4616SOL    HW214748   6.795   2.748   5.680
 4617SOL     OW14749   6.561   2.633   3.396
 4617SOL    HW114750   6.471   2.662   3.362
 4617SOL    HW214751   6.551   2.548   3.447
 4618SOL     OW14752   2.117   4.107   6.093
 4618SOL    HW114753   2.022   4.120   6.121
 4618SOL    HW214754   2.119   4.075   5.999
 4619SOL     OW14755   4.853   6.265   6.136
 4619SOL    HW114756   4.883   6.170   6.132
 4619SOL    HW214757   4.908   6.321   6.074
 4620SOL     OW14758   0.967   4.833   2.570
 4620SOL    HW114759   1.062   4.811   2.592
 4620SOL    HW214760   0.955   4.837   2.471
 4621SOL     OW14761   3.678   6.600   2.747
 4621SOL    HW114762   3.731   6.549   2.679
 4621SOL    HW214763   3.721   6.591   2.837
 4622SOL     OW14764   5.428   5.978   0.957
 4622SOL    HW114765   5.385   5.929   1.033
 4622SOL    HW214766   5.525   5.993   0.977
 4623SOL     OW14767   2.815   4.493   1.257
 4623SOL    HW114768   2.828   4.588   1.282
 4623SOL    HW214769   2.821   4.435   1.338
 4624SOL     OW14770   4.502   1.121   1.959
 4624SOL    HW114771   4.429   1.075   2.009
 4624SOL    HW214772   4.463   1.177   1.886
 4625SOL     OW14773   2.404   5.923   1.278
 4625SOL    HW114774   2.443   5.945   1.367
 4625SOL    HW214775   2.469   5.947   1.206
 4626SOL     OW14776   4.380   3.808   1.691
 4626SOL    HW114777   4.382   3.903   1.658
 4626SOL    HW214778   4.474   3.773   1.694
 4627SOL     OW14779   5.689   0.188   4.941
 4627SOL    HW114780   5.680   0.115   4.873
 4627SOL    HW214781   5.656   0.155   5.030
 4628SOL     OW14782   5.485   5.359   3.836
 4628SOL    HW114783   5.480   5.351   3.936
 4628SOL    HW214784   5.580   5.360   3.808
 4629SOL     OW14785   2.395   5.653   6.994
 4629SOL    HW114786   2.310   5.697   7.021
 4629SOL    HW214787   2.381   5.603   6.909
 4630SOL     OW14788   1.996   3.120   2.245
 4630SOL    HW114789   2.039   3.211   2.246
 4630SOL    HW214790   2.067   3.050   2.245
 4631SOL     OW14791   7.004   0.526   2.796
 4631SOL    HW114792   0.070   0.490   2.824
 4631SOL    HW214793   6.994   0.621   2.826
 4632SOL     OW14794   3.554   4.866   2.470
 4632SOL    HW114795   3.458   4.856   2.445
 4632SOL    HW214796   3.611   4.853   2.389
 4633SOL     OW14797   4.491   0.941   4.884
 4633SOL    HW114798   4.433   1.017   4.913
 4633SOL    HW214799   4.528   0.961   4.793
 4634SOL     OW14800   3.217   4.221   5.227
 4634SOL    HW114801   3.246   4.239   5.321
 4634SOL    HW214802   3.119   4.240   5.219
 4635SOL     OW14803   4.824   6.653   1.900
 4635SOL    HW114804   4.916   6.625   1.926
 4635SOL    HW214805   4.828   6.716   1.823
 4636SOL     OW14806   1.920   5.210   7.005
 4636SOL    HW114807   2.015   5.230   0.003
 4636SOL    HW214808   1.862   5.283   0.018
 4637SOL     OW14809   2.961   1.914   2.899
 4637SOL    HW114810   2.946   1.828   2.849
 4637SOL    HW214811   3.058   1.922   2.923
 4638SOL     OW14812   4.110   4.928   0.309
 4638SOL    HW114813   4.017   4.960   0.289
 4638SOL    HW214814   4.116   4.830   0.290
 4639SOL     OW14815   3.691   2.328   1.604
 4639SOL    HW114816   3.657   2.345   1.696
 4639SOL    HW214817   3.723   2.234   1.596
 4640SOL     OW14818   6.610   2.919   6.838
 4640SOL    HW114819   6.620   2.844   6.903
 4640SOL    HW214820   6.691   2.922   6.778
 4641SOL     OW14821   0.737   6.045   4.625
 4641SOL    HW114822   0.745   5.970   4.691
 4641SOL    HW214823   0.723   6.007   4.533
 4642SOL     OW14824   6.460   0.948   4.220
 4642SOL    HW114825   6.513   1.032   4.213
 4642SOL    HW214826   6.517   0.875   4.258
 4643SOL     OW14827   0.554   2.118   0.051
 4643SOL    HW114828   0.597   2.044   7.022
 4643SOL    HW214829   0.609   2.201   0.041
 4644SOL     OW14830   1.639   0.966   0.382
 4644SOL    HW114831   1.712   0.976   0.450
 4644SOL    HW214832   1.614   0.870   0.374
 4645SOL     OW14833   0.327   1.666   4.335
 4645SOL    HW114834   0.408   1.648   4.280
 4645SOL    HW214835   0.352   1.666   4.432
 4646SOL     OW14836   2.226   4.830   4.398
 4646SOL    HW114837   2.207   4.754   4.460
 4646SOL    HW214838   2.279   4.900   4.446
 4647SOL     OW14839   1.339   6.469   1.839
 4647SOL    HW114840   1.281   6.424   1.771
 4647SOL    HW214841   1.371   6.557   1.802
 4648SOL     OW14842   2.670   1.752   4.160
 4648SOL    HW114843   2.675   1.670   4.103
 4648SOL    HW214844   2.620   1.731   4.244
 4649SOL     OW14845   6.506   1.451   6.820
 4649SOL    HW114846   6.572   1.398   6.768
 4649SOL    HW214847   6.492   1.540   6.776
 4650SOL     OW14848   5.061   6.157   0.944
 4650SOL    HW114849   5.074   6.254   0.963
 4650SOL    HW214850   4.977   6.125   0.987
 4651SOL     OW14851   6.797   3.206   6.195
 4651SOL    HW114852   6.837   3.115   6.185
 4651SOL    HW214853   6.757   3.215   6.286
 4652SOL     OW14854   0.620   6.198   5.407
 4652SOL    HW114855   0.636   6.187   5.505
 4652SOL    HW214856   0.703   6.175   5.357
 4653SOL     OW14857   6.138   5.405   0.579
 4653SOL    HW114858   6.090   5.419   0.666
 4653SOL    HW214859   6.225   5.358   0.596
 4654SOL     OW14860   1.339   0.413   5.612
 4654SOL    HW114861   1.348   0.466   5.528
 4654SOL    HW214862   1.342   0.315   5.590
 4655SOL     OW14863   4.647   3.088   1.154
 4655SOL    HW114864   4.701   3.079   1.238
 4655SOL    HW214865   4.677   3.168   1.103
 4656SOL     OW14866   0.170   1.734   1.436
 4656SOL    HW114867   0.190   1.637   1.448
 4656SOL    HW214868   0.228   1.788   1.498
 4657SOL     OW14869   4.183   0.769   2.439
 4657SOL    HW114870   4.277   0.801   2.445
 4657SOL    HW214871   4.126   0.818   2.505
 4658SOL     OW14872   1.482   2.746   5.752
 4658SOL    HW114873   1.409   2.811   5.775
 4658SOL    HW214874   1.440   2.660   5.722
 4659SOL     OW14875   1.627   4.452   0.041
 4659SOL    HW114876   1.695   4.377   0.040
 4659SOL    HW214877   1.660   4.524   0.102
 4660SOL     OW14878   0.887   6.249   3.363
 4660SOL    HW114879   0.931   6.299   3.287
 4660SOL    HW214880   0.846   6.315   3.426
 4661SOL     OW14881   0.889   2.025   5.103
 4661SOL    HW114882   0.909   1.945   5.046
 4661SOL    HW214883   0.834   1.997   5.182
 4662SOL     OW14884   2.419   0.031   5.563
 4662SOL    HW114885   2.325   0.025   5.530
 4662SOL    HW214886   2.462   6.963   5.558
 4663SOL     OW14887   1.999   6.944   0.266
 4663SOL    HW114888   2.046   6.879   0.205
 4663SOL    HW214889   1.993   6.905   0.358
 4664SOL     OW14890   6.473   0.209   0.344
 4664SOL    HW114891   6.476   0.254   0.255
 4664SOL    HW214892   6.427   0.269   0.410
 4665SOL     OW14893   1.695   0.549   4.075
 4665SOL    HW114894   1.735   0.615   4.139
 4665SOL    HW214895   1.681   0.462   4.122
 4666SOL     OW14896   2.442   1.862   5.129
 4666SOL    HW114897   2.487   1.945   5.161
 4666SOL    HW214898   2.354   1.884   5.088
 4667SOL     OW14899   0.065   3.381   1.196
 4667SOL    HW114900   0.134   3.439   1.237
 4667SOL    HW214901   0.018   3.328   1.267
 4668SOL     OW14902   4.718   1.674   4.114
 4668SOL    HW114903   4.634   1.726   4.124
 4668SOL    HW214904   4.697   1.580   4.088
 4669SOL     OW14905   5.690   0.171   6.438
 4669SOL    HW114906   5.669   0.126   6.525
 4669SOL    HW214907   5.607   0.211   6.400
 4670SOL     OW14908   0.525   2.784   0.517
 4670SOL    HW114909   0.616   2.762   0.483
 4670SOL    HW214910   0.456   2.734   0.464
 4671SOL     OW14911   0.337   3.535   0.621
 4671SOL    HW114912   0.313   3.614   0.677
 4671SOL    HW214913   0.435   3.535   0.603
 4672SOL     OW14914   2.483   3.927   6.532
 4672SOL    HW114915   2.533   3.945   6.617
 4672SOL    HW214916   2.388   3.906   6.553
 4673SOL     OW14917   5.949   0.974   0.398
 4673SOL    HW114918   6.003   1.054   0.425
 4673SOL    HW214919   5.937   0.973   0.299
 4674SOL     OW14920   0.948   2.509   1.677
 4674SOL    HW114921   0.888   2.579   1.638
 4674SOL    HW214922   0.895   2.425   1.693
 4675SOL     OW14923   2.155   6.084   6.437
 4675SOL    HW114924   2.112   6.159   6.488
 4675SOL    HW214925   2.229   6.045   6.491
 4676SOL     OW14926   0.466   6.052   4.153
 4676SOL    HW114927   0.452   6.133   4.210
 4676SOL    HW214928   0.380   6.024   4.111
 4677SOL     OW14929   4.314   6.673   6.769
 4677SOL    HW114930   4.276   6.598   6.715
 4677SOL    HW214931   4.280   6.761   6.734
 4678SOL     OW14932   1.721   4.574   6.221
 4678SOL    HW114933   1.755   4.577   6.314
 4678SOL    HW214934   1.623   4.554   6.221
 4679SOL     OW14935   3.102   6.957   5.624
 4679SOL    HW114936   3.106   0.012   5.687
 4679SOL    HW214937   3.019   6.904   5.642
 4680SOL     OW14938   2.200   4.566   0.683
 4680SOL    HW114939   2.184   4.657   0.723
 4680SOL    HW214940   2.176   4.496   0.750
 4681SOL     OW14941   0.034   5.818   4.970
 4681SOL    HW114942   6.961   5.806   4.995
 4681SOL    HW214943   0.081   5.867   5.043
 4682SOL     OW14944   4.316   6.507   0.613
 4682SOL    HW114945   4.229   6.476   0.575
 4682SOL    HW214946   4.389   6.492   0.547
 4683SOL     OW14947   0.086   3.995   3.387
 4683SOL    HW114948   0.042   4.050   3.458
 4683SOL    HW214949   0.070   4.036   3.298
 4684SOL     OW14950   1.590   0.854   4.795
 4684SOL    HW114951   1.569   0.793   4.719
 4684SOL    HW214952   1.538   0.826   4.876
 4685SOL     OW14953   4.771   4.549   5.213
 4685SOL    HW114954   4.736   4.623   5.155
 4685SOL    HW214955   4.743   4.461   5.174
 4686SOL     OW14956   4.139   5.716   6.940
 4686SOL    HW114957   4.060   5.702   6.880
 4686SOL    HW214958   4.222   5.684   6.895
 4687SOL     OW14959   5.386   6.273   4.628
 4687SOL    HW114960   5.304   6.228   4.592
 4687SOL    HW214961   5.359   6.358   4.675
 4688SOL     OW14962   0.788   2.062   6.901
 4688SOL    HW114963   0.864   2.107   6.948
 4688SOL    HW214964   0.811   2.050   6.804
 4689SOL     OW14965   1.544   5.527   5.468
 4689SOL    HW114966   1.566   5.453   5.404
 4689SOL    HW214967   1.483   5.592   5.423
 4690SOL     OW14968   1.689   2.840   0.637
 4690SOL    HW114969   1.786   2.826   0.614
 4690SOL    HW214970   1.674   2.816   0.733
 4691SOL     OW14971   4.133   4.448   0.746
 4691SOL    HW114972   4.049   4.480   0.701
 4691SOL    HW214973   4.123   4.455   0.845
 4692SOL     OW14974   0.273   5.549   3.181
 4692SOL    HW114975   0.277   5.509   3.273
 4692SOL    HW214976   0.189   5.519   3.135
 4693SOL     OW14977   0.270   1.039   3.750
 4693SOL    HW114978   0.368   1.046   3.733
 4693SOL    HW214979   0.251   0.958   3.805
 4694SOL     OW14980   2.129   1.465   6.496
 4694SOL    HW114981   2.185   1.448   6.415
 4694SOL    HW214982   2.038   1.495   6.467
 4695SOL     OW14983   3.530   3.000   1.438
 4695SOL    HW114984   3.508   2.985   1.342
 4695SOL    HW214985   3.629   2.989   1.452
 4696SOL     OW14986   6.319   3.167   0.519
 4696SOL    HW114987   6.392   3.137   0.457
 4696SOL    HW214988   6.231   3.157   0.473
 4697SOL     OW14989   0.531   5.046   0.441
 4697SOL    HW114990   0.611   5.105   0.439
 4697SOL    HW214991   0.560   4.950   0.436
 4698SOL     OW14992   5.902   2.999   1.208
 4698SOL    HW114993   5.894   3.089   1.251
 4698SOL    HW214994   5.844   2.934   1.258
 4699SOL     OW14995   6.373   0.382   3.475
 4699SOL    HW114996   6.442   0.313   3.498
 4699SOL    HW214997   6.330   0.415   3.558
 4700SOL     OW14998   5.692   0.113   1.140
 4700SOL    HW114999   5.766   0.136   1.204
 4700SOL    HW215000   5.731   0.066   1.061
 4701SOL     OW15001   1.204   1.312   0.567
 4701SOL    HW115002   1.131   1.273   0.623
 4701SOL    HW215003   1.288   1.261   0.581
 4702SOL     OW15004   3.355   3.758   0.175
 4702SOL    HW115005   3.386   3.666   0.151
 4702SOL    HW215006   3.337   3.810   0.092
 4703SOL     OW15007   1.874   1.132   2.001
 4703SOL    HW115008   1.806   1.192   2.043
 4703SOL    HW215009   1.936   1.187   1.944
 4704SOL     OW15010   4.789   6.806   0.351
 4704SOL    HW115011   4.745   6.831   0.437
 4704SOL    HW215012   4.887   6.824   0.356
 4705SOL     OW15013   3.594   3.720   4.089
 4705SOL    HW115014   3.546   3.783   4.150
 4705SOL    HW215015   3.609   3.633   4.135
 4706SOL     OW15016   4.260   5.551   1.421
 4706SOL    HW115017   4.240   5.644   1.392
 4706SOL    HW215018   4.201   5.526   1.498
 4707SOL     OW15019   3.521   6.107   0.813
 4707SOL    HW115020   3.551   6.202   0.813
 4707SOL    HW215021   3.425   6.102   0.783
 4708SOL     OW15022   2.273   2.299   2.316
 4708SOL    HW115023   2.352   2.324   2.259
 4708SOL    HW215024   2.189   2.334   2.274
 4709SOL     OW15025   4.095   4.077   6.359
 4709SOL    HW115026   3.999   4.104   6.360
 4709SOL    HW215027   4.116   4.024   6.441
 4710SOL     OW15028   5.057   1.999   0.828
 4710SOL    HW115029   5.041   1.901   0.842
 4710SOL    HW215030   5.041   2.048   0.913
 4711SOL     OW15031   2.902   0.181   2.963
 4711SOL    HW115032   2.833   0.115   2.933
 4711SOL    HW215033   2.859   0.251   3.020
 4712SOL     OW15034   1.363   4.504   6.860
 4712SOL    HW115035   1.405   4.581   6.907
 4712SOL    HW215036   1.356   4.426   6.922
 4713SOL     OW15037   2.612   5.201   0.613
 4713SOL    HW115038   2.648   5.266   0.680
 4713SOL    HW215039   2.513   5.194   0.621
 4714SOL     OW15040   3.705   2.498   0.667
 4714SOL    HW115041   3.764   2.470   0.743
 4714SOL    HW215042   3.636   2.563   0.699
 4715SOL     OW15043   5.960   3.997   4.212
 4715SOL    HW115044   5.956   3.929   4.285
 4715SOL    HW215045   6.035   3.974   4.150
 4716SOL     OW15046   3.379   5.590   6.995
 4716SOL    HW115047   3.373   5.508   6.938
 4716SOL    HW215048   3.290   5.636   6.996
 4717SOL     OW15049   0.970   5.918   3.707
 4717SOL    HW115050   0.875   5.949   3.711
 4717SOL    HW215051   1.027   5.990   3.667
 4718SOL     OW15052   6.081   1.052   6.535
 4718SOL    HW115053   6.037   0.962   6.532
 4718SOL    HW215054   6.097   1.085   6.442
 4719SOL     OW15055   4.360   3.191   0.697
 4719SOL    HW115056   4.376   3.182   0.796
 4719SOL    HW215057   4.261   3.197   0.680
 4720SOL     OW15058   2.874   1.108   3.927
 4720SOL    HW115059   2.782   1.109   3.966
 4720SOL    HW215060   2.915   1.198   3.936
 4721SOL     OW15061   1.753   2.302   1.441
 4721SOL    HW115062   1.850   2.323   1.447
 4721SOL    HW215063   1.738   2.231   1.373
 4722SOL     OW15064   2.381   0.125   1.240
 4722SOL    HW115065   2.460   0.068   1.263
 4722SOL    HW215066   2.299   0.068   1.237
 4723SOL     OW15067   3.100   0.116   6.664
 4723SOL    HW115068   3.007   0.152   6.654
 4723SOL    HW215069   3.161   0.161   6.599
 4724SOL     OW15070   4.087   5.217   1.604
 4724SOL    HW115071   4.137   5.178   1.681
 4724SOL    HW215072   4.083   5.151   1.530
 4725SOL     OW15073   5.881   5.946   3.702
 4725SOL    HW115074   5.792   5.943   3.657
 4725SOL    HW215075   5.931   5.862   3.682
 4726SOL     OW15076   0.258   5.959   6.672
 4726SOL    HW115077   0.216   5.951   6.763
 4726SOL    HW215078   0.264   6.055   6.647
 4727SOL     OW15079   0.395   6.420   0.041
 4727SOL    HW115080   0.299   6.446   0.044
 4727SOL    HW215081   0.406   6.339   7.006
 4728SOL     OW15082   0.287   1.209   0.127
 4728SOL    HW115083   0.324   1.300   0.109
 4728SOL    HW215084   0.187   1.214   0.133
 4729SOL     OW15085   3.750   0.227   1.126
 4729SOL    HW115086   3.792   0.221   1.216
 4729SOL    HW215087   3.654   0.199   1.132
 4730SOL     OW15088   1.653   6.813   5.405
 4730SOL    HW115089   1.632   6.817   5.307
 4730SOL    HW215090   1.752   6.820   5.418
 4731SOL     OW15091   5.622   1.603   5.691
 4731SOL    HW115092   5.655   1.675   5.752
 4731SOL    HW215093   5.579   1.645   5.611
 4732SOL     OW15094   0.514   2.118   0.377
 4732SOL    HW115095   0.529   2.021   0.398
 4732SOL    HW215096   0.494   2.129   0.280
 4733SOL     OW15097   6.758   3.495   4.124
 4733SOL    HW115098   6.748   3.420   4.058
 4733SOL    HW215099   6.826   3.470   4.193
 4734SOL     OW15100   3.826   4.435   6.222
 4734SOL    HW115101   3.925   4.420   6.218
 4734SOL    HW215102   3.798   4.493   6.145
 4735SOL     OW15103   0.481   5.178   3.518
 4735SOL    HW115104   0.427   5.236   3.579
 4735SOL    HW215105   0.530   5.109   3.572
 4736SOL     OW15106   1.601   1.181   1.058
 4736SOL    HW115107   1.563   1.171   1.151
 4736SOL    HW215108   1.685   1.234   1.062
 4737SOL     OW15109   2.907   5.625   1.504
 4737SOL    HW115110   2.929   5.653   1.597
 4737SOL    HW215111   2.876   5.529   1.505
 4738SOL     OW15112   7.012   6.370   2.806
 4738SOL    HW115113   6.939   6.433   2.830
 4738SOL    HW215114   7.011   6.291   2.867
 4739SOL     OW15115   4.737   0.290   1.515
 4739SOL    HW115116   4.827   0.247   1.502
 4739SOL    HW215117   4.748   0.378   1.560
 4740SOL     OW15118   0.383   2.553   3.852
 4740SOL    HW115119   0.433   2.524   3.770
 4740SOL    HW215120   0.446   2.601   3.913
 4741SOL     OW15121   3.620   4.352   1.458
 4741SOL    HW115122   3.674   4.331   1.540
 4741SOL    HW215123   3.677   4.402   1.393
 4742SOL     OW15124   3.275   0.517   0.410
 4742SOL    HW115125   3.309   0.426   0.431
 4742SOL    HW215126   3.330   0.556   0.336
 4743SOL     OW15127   1.640   4.666   1.065
 4743SOL    HW115128   1.721   4.705   1.108
 4743SOL    HW215129   1.563   4.730   1.075
 4744SOL     OW15130   2.537   5.326   1.253
 4744SOL    HW115131   2.531   5.311   1.351
 4744SOL    HW215132   2.553   5.423   1.235
 4745SOL     OW15133   0.904   4.267   6.921
 4745SOL    HW115134   0.826   4.321   6.952
 4745SOL    HW215135   0.874   4.175   6.897
 4746SOL     OW15136   4.402   5.861   4.191
 4746SOL    HW115137   4.419   5.954   4.160
 4746SOL    HW215138   4.313   5.830   4.156
 4747SOL     OW15139   1.696   2.026   0.463
 4747SOL    HW115140   1.740   2.072   0.540
 4747SOL    HW215141   1.644   2.093   0.410
 4748SOL     OW15142   1.947   6.720   2.286
 4748SOL    HW115143   1.992   6.637   2.253
 4748SOL    HW215144   1.898   6.763   2.211
 4749SOL     OW15145   3.118   1.643   6.772
 4749SOL    HW115146   3.168   1.590   6.841
 4749SOL    HW215147   3.175   1.657   6.692
 4750SOL     OW15148   5.075   2.581   5.683
 4750SOL    HW115149   5.131   2.506   5.648
 4750SOL    HW215150   5.069   2.653   5.615
 4751SOL     OW15151   4.480   1.010   3.266
 4751SOL    HW115152   4.532   0.960   3.197
 4751SOL    HW215153   4.467   1.104   3.236
 4752SOL     OW15154   4.488   2.166   6.441
 4752SOL    HW115155   4.389   2.155   6.446
 4752SOL    HW215156   4.526   2.166   6.533
 4753SOL     OW15157   3.442   6.083   5.583
 4753SOL    HW115158   3.491   6.000   5.609
 4753SOL    HW215159   3.502   6.162   5.595
 4754SOL     OW15160   4.800   4.699   6.638
 4754SOL    HW115161   4.836   4.663   6.553
 4754SOL    HW215162   4.875   4.727   6.698
 4755SOL     OW15163   0.897   0.826   1.705
 4755SOL    HW115164   0.954   0.745   1.687
 4755SOL    HW215165   0.812   0.819   1.654
 4756SOL     OW15166   6.336   4.049   5.740
 4756SOL    HW115167   6.369   4.131   5.693
 4756SOL    HW215168   6.367   3.967   5.692
 4757SOL     OW15169   1.827   3.569   0.874
 4757SOL    HW115170   1.839   3.536   0.780
 4757SOL    HW215171   1.916   3.573   0.919
 4758SOL     OW15172   2.500   6.501   3.067
 4758SOL    HW115173   2.435   6.437   3.108
 4758SOL    HW215174   2.572   6.449   3.020
 4759SOL     OW15175   0.588   6.183   1.309
 4759SOL    HW115176   0.528   6.236   1.249
 4759SOL    HW215177   0.654   6.245   1.353
 4760SOL     OW15178   1.612   6.059   0.905
 4760SOL    HW115179   1.560   5.974   0.912
 4760SOL    HW215180   1.548   6.135   0.890
 4761SOL     OW15181   6.206   6.128   1.726
 4761SOL    HW115182   6.274   6.072   1.677
 4761SOL    HW215183   6.121   6.131   1.674
 4762SOL     OW15184   1.331   0.787   2.772
 4762SOL    HW115185   1.334   0.789   2.673
 4762SOL    HW215186   1.408   0.733   2.807
 4763SOL     OW15187   5.397   4.934   1.971
 4763SOL    HW115188   5.320   4.971   2.021
 4763SOL    HW215189   5.368   4.906   1.880
 4764SOL     OW15190   5.023   2.908   0.756
 4764SOL    HW115191   5.067   2.869   0.836
 4764SOL    HW215192   4.962   2.982   0.784
 4765SOL     OW15193   3.761   1.556   5.039
 4765SOL    HW115194   3.675   1.603   5.019
 4765SOL    HW215195   3.766   1.472   4.986
 4766SOL     OW15196   0.590   6.943   4.278
 4766SOL    HW115197   0.535   6.935   4.195
 4766SOL    HW215198   0.637   0.008   4.279
 4767SOL     OW15199   2.225   4.117   3.440
 4767SOL    HW115200   2.150   4.057   3.469
 4767SOL    HW215201   2.219   4.130   3.341
 4768SOL     OW15202   4.660   2.874   6.437
 4768SOL    HW115203   4.600   2.796   6.449
 4768SOL    HW215204   4.609   2.950   6.396
 4769SOL     OW15205   2.417   3.569   0.587
 4769SOL    HW115206   2.450   3.634   0.518
 4769SOL    HW215207   2.465   3.584   0.673
 4770SOL     OW15208   0.892   1.439   4.610
 4770SOL    HW115209   0.956   1.412   4.538
 4770SOL    HW215210   0.799   1.411   4.586
 4771SOL     OW15211   1.592   6.857   4.596
 4771SOL    HW115212   1.687   6.888   4.603
 4771SOL    HW215213   1.582   6.771   4.646
 4772SOL     OW15214   3.222   5.172   2.165
 4772SOL    HW115215   3.282   5.233   2.114
 4772SOL    HW215216   3.246   5.077   2.146
 4773SOL     OW15217   2.170   5.240   4.587
 4773SOL    HW115218   2.205   5.329   4.557
 4773SOL    HW215219   2.142   5.246   4.682
 4774SOL     OW15220   1.313   4.255   0.000
 4774SOL    HW115221   1.358   4.212   0.079
 4774SOL    HW215222   1.302   4.187   6.950
 4775SOL     OW15223   6.219   6.478   5.696
 4775SOL    HW115224   6.168   6.564   5.688
 4775SOL    HW215225   6.281   6.468   5.617
 4776SOL     OW15226   0.131   1.261   6.097
 4776SOL    HW115227   0.142   1.281   6.195
 4776SOL    HW215228   0.040   1.223   6.081
 4777SOL     OW15229   1.564   0.369   2.794
 4777SOL    HW115230   1.497   0.298   2.814
 4777SOL    HW215231   1.603   0.354   2.703
 4778SOL     OW15232   2.169   1.257   0.113
 4778SOL    HW115233   2.219   1.341   0.092
 4778SOL    HW215234   2.075   1.265   0.080
 4779SOL     OW15235   5.491   0.607   4.952
 4779SOL    HW115236   5.503   0.681   5.017
 4779SOL    HW215237   5.421   0.544   4.985
 4780SOL     OW15238   5.012   2.379   5.339
 4780SOL    HW115239   5.062   2.442   5.279
 4780SOL    HW215240   5.057   2.375   5.428
 4781SOL     OW15241   2.326   5.778   1.781
 4781SOL    HW115242   2.405   5.747   1.834
 4781SOL    HW215243   2.291   5.701   1.727
 4782SOL     OW15244   6.430   6.740   4.259
 4782SOL    HW115245   6.513   6.732   4.203
 4782SOL    HW215246   6.412   6.837   4.277
 4783SOL     OW15247   6.840   3.326   5.962
 4783SOL    HW115248   6.797   3.278   6.039
 4783SOL    HW215249   6.913   3.269   5.924
 4784SOL     OW15250   5.630   3.464   6.725
 4784SOL    HW115251   5.693   3.428   6.657
 4784SOL    HW215252   5.583   3.545   6.687
 4785SOL     OW15253   0.042   6.678   4.217
 4785SOL    HW115254   0.020   6.639   4.306
 4785SOL    HW215255   0.119   6.741   4.227
 4786SOL     OW15256   0.626   5.983   0.005
 4786SOL    HW115257   0.618   5.892   6.987
 4786SOL    HW215258   0.721   5.998   0.032
 4787SOL     OW15259   3.664   1.636   3.795
 4787SOL    HW115260   3.574   1.650   3.754
 4787SOL    HW215261   3.687   1.713   3.853
 4788SOL     OW15262   6.560   5.968   0.212
 4788SOL    HW115263   6.472   6.001   0.180
 4788SOL    HW215264   6.596   6.031   0.281
 4789SOL     OW15265   5.626   1.343   2.812
 4789SOL    HW115266   5.682   1.394   2.747
 4789SOL    HW215267   5.535   1.327   2.773
 4790SOL     OW15268   6.913   1.973   4.535
 4790SOL    HW115269   6.842   1.931   4.479
 4790SOL    HW215270   6.963   1.902   4.584
 4791SOL     OW15271   0.529   0.537   0.477
 4791SOL    HW115272   0.601   0.571   0.538
 4791SOL    HW215273   0.563   0.536   0.383
 4792SOL     OW15274   2.020   3.406   2.930
 4792SOL    HW115275   2.054   3.358   2.849
 4792SOL    HW215276   1.929   3.442   2.912
 4793SOL     OW15277   1.113   3.385   5.405
 4793SOL    HW115278   1.146   3.462   5.459
 4793SOL    HW215279   1.131   3.402   5.308
 4794SOL     OW15280   4.604   1.811   4.450
 4794SOL    HW115281   4.699   1.845   4.456
 4794SOL    HW215282   4.565   1.809   4.542
 4795SOL     OW15283   0.189   1.248   6.672
 4795SOL    HW115284   0.108   1.241   6.730
 4795SOL    HW215285   0.269   1.216   6.722
 4796SOL     OW15286   4.417   1.400   5.602
 4796SOL    HW115287   4.416   1.395   5.702
 4796SOL    HW215288   4.385   1.490   5.573
 4797SOL     OW15289   1.539   5.289   5.343
 4797SOL    HW115290   1.593   5.246   5.271
 4797SOL    HW215291   1.543   5.233   5.425
 4798SOL     OW15292   4.096   5.249   0.000
 4798SOL    HW115293   4.174   5.299   0.038
 4798SOL    HW215294   4.061   5.186   0.070
 4799SOL     OW15295   4.563   2.731   6.694
 4799SOL    HW115296   4.641   2.680   6.657
 4799SOL    HW215297   4.594   2.791   6.767
 4800SOL     OW15298   0.314   3.770   0.348
 4800SOL    HW115299   0.316   3.672   0.328
 4800SOL    HW215300   0.391   3.794   0.406
 4801SOL     OW15301   5.364   2.501   1.817
 4801SOL    HW115302   5.284   2.446   1.796
 4801SOL    HW215303   5.447   2.454   1.787
 4802SOL     OW15304   6.533   0.238   4.204
 4802SOL    HW115305   6.593   0.222   4.283
 4802SOL    HW215306   6.497   0.331   4.208
 4803SOL     OW15307   5.064   3.670   5.867
 4803SOL    HW115308   5.011   3.725   5.932
 4803SOL    HW215309   5.133   3.728   5.824
 4804SOL     OW15310   4.687   2.008   0.452
 4804SOL    HW115311   4.699   1.952   0.370
 4804SOL    HW215312   4.752   1.978   0.522
 4805SOL     OW15313   6.276   1.810   0.014
 4805SOL    HW115314   6.359   1.762   0.043
 4805SOL    HW215315   6.302   1.894   6.988
 4806SOL     OW15316   0.949   1.034   3.545
 4806SOL    HW115317   1.001   0.952   3.518
 4806SOL    HW215318   1.012   1.099   3.588
 4807SOL     OW15319   0.383   4.159   5.221
 4807SOL    HW115320   0.375   4.259   5.226
 4807SOL    HW215321   0.292   4.118   5.212
 4808SOL     OW15322   3.861   6.162   1.692
 4808SOL    HW115323   3.860   6.143   1.790
 4808SOL    HW215324   3.805   6.094   1.645
 4809SOL     OW15325   3.129   3.617   1.463
 4809SOL    HW115326   3.103   3.557   1.387
 4809SOL    HW215327   3.217   3.586   1.500
 4810SOL     OW15328   0.817   4.831   4.243
 4810SOL    HW115329   0.915   4.847   4.257
 4810SOL    HW215330   0.788   4.756   4.302
 4811SOL     OW15331   2.998   3.544   4.177
 4811SOL    HW115332   2.975   3.591   4.261
 4811SOL    HW215333   3.047   3.606   4.115
 4812SOL     OW15334   1.091   0.359   2.788
 4812SOL    HW115335   1.124   0.385   2.879
 4812SOL    HW215336   1.071   0.261   2.787
 4813SOL     OW15337   6.975   1.794   5.564
 4813SOL    HW115338   6.924   1.871   5.601
 4813SOL    HW215339   7.019   1.744   5.639
 4814SOL     OW15340   6.326   3.714   1.669
 4814SOL    HW115341   6.367   3.724   1.578
 4814SOL    HW215342   6.233   3.679   1.660
 4815SOL     OW15343   5.657   4.350   1.736
 4815SOL    HW115344   5.588   4.279   1.744
 4815SOL    HW215345   5.728   4.335   1.805
 4816SOL     OW15346   2.823   1.207   2.704
 4816SOL    HW115347   2.903   1.148   2.694
 4816SOL    HW215348   2.757   1.187   2.632
 4817SOL     OW15349   4.251   2.167   0.619
 4817SOL    HW115350   4.339   2.149   0.573
 4817SOL    HW215351   4.201   2.081   0.628
 4818SOL     OW15352   4.244   0.361   4.999
 4818SOL    HW115353   4.157   0.403   5.023
 4818SOL    HW215354   4.291   0.418   4.932
 4819SOL     OW15355   3.488   0.448   0.636
 4819SOL    HW115356   3.450   0.398   0.559
 4819SOL    HW215357   3.447   0.414   0.721
 4820SOL     OW15358   5.987   3.913   1.896
 4820SOL    HW115359   5.896   3.871   1.897
 4820SOL    HW215360   6.000   3.967   1.978
 4821SOL     OW15361   0.140   5.277   1.633
 4821SOL    HW115362   0.166   5.299   1.539
 4821SOL    HW215363   0.133   5.178   1.644
 4822SOL     OW15364   1.044   4.227   2.139
 4822SOL    HW115365   1.061   4.145   2.084
 4822SOL    HW215366   1.131   4.273   2.157
 4823SOL     OW15367   1.791   1.259   4.124
 4823SOL    HW115368   1.726   1.262   4.048
 4823SOL    HW215369   1.760   1.320   4.196
 4824SOL     OW15370   5.531   2.951   1.739
 4824SOL    HW115371   5.456   2.889   1.713
 4824SOL    HW215372   5.492   3.035   1.776
 4825SOL     OW15373   0.579   2.956   3.410
 4825SOL    HW115374   0.527   2.947   3.326
 4825SOL    HW215375   0.657   3.017   3.395
 4826SOL     OW15376   6.684   6.130   6.809
 4826SOL    HW115377   6.646   6.041   6.787
 4826SOL    HW215378   6.774   6.119   6.851
 4827SOL     OW15379   5.655   0.679   0.933
 4827SOL    HW115380   5.559   0.705   0.943
 4827SOL    HW215381   5.666   0.583   0.959
 4828SOL     OW15382   4.784   3.594   6.440
 4828SOL    HW115383   4.685   3.577   6.434
 4828SOL    HW215384   4.816   3.571   6.532
 4829SOL     OW15385   3.482   0.164   5.374
 4829SOL    HW115386   3.520   0.234   5.313
 4829SOL    HW215387   3.480   0.199   5.468
 4830SOL     OW15388   3.944   6.727   5.060
 4830SOL    HW115389   3.913   6.747   4.967
 4830SOL    HW215390   4.027   6.779   5.080
 4831SOL     OW15391   6.487   3.863   5.614
 4831SOL    HW115392   6.582   3.890   5.597
 4831SOL    HW215393   6.464   3.784   5.558
 4832SOL     OW15394   2.080   2.592   6.326
 4832SOL    HW115395   2.013   2.536   6.277
 4832SOL    HW215396   2.032   2.662   6.380
 4833SOL     OW15397   4.915   1.615   2.961
 4833SOL    HW115398   4.868   1.671   3.029
 4833SOL    HW215399   4.949   1.532   3.004
 4834SOL     OW15400   5.555   0.819   3.121
 4834SOL    HW115401   5.620   0.879   3.167
 4834SOL    HW215402   5.588   0.724   3.127
 4835SOL     OW15403   2.370   0.785   5.922
 4835SOL    HW115404   2.386   0.721   5.847
 4835SOL    HW215405   2.318   0.739   5.995
 4836SOL     OW15406   5.754   2.737   2.459
 4836SOL    HW115407   5.701   2.712   2.540
 4836SOL    HW215408   5.715   2.820   2.418
 4837SOL     OW15409   0.885   4.125   0.646
 4837SOL    HW115410   0.806   4.132   0.585
 4837SOL    HW215411   0.969   4.124   0.592
 4838SOL     OW15412   2.585   5.839   2.778
 4838SOL    HW115413   2.533   5.891   2.846
 4838SOL    HW215414   2.617   5.754   2.819
 4839SOL     OW15415   0.412   6.874   6.494
 4839SOL    HW115416   0.405   6.944   6.565
 4839SOL    HW215417   0.403   6.783   6.535
 4840SOL     OW15418   6.498   6.500   6.408
 4840SOL    HW115419   6.576   6.486   6.469
 4840SOL    HW215420   6.523   6.471   6.315
 4841SOL     OW15421   2.220   6.047   2.672
 4841SOL    HW115422   2.213   5.947   2.672
 4841SOL    HW215423   2.138   6.086   2.714
 4842SOL     OW15424   3.603   6.610   1.169
 4842SOL    HW115425   3.552   6.526   1.152
 4842SOL    HW215426   3.552   6.688   1.133
 4843SOL     OW15427   0.284   3.166   0.152
 4843SOL    HW115428   0.230   3.082   0.143
 4843SOL    HW215429   0.362   3.149   0.212
 4844SOL     OW15430   0.008   1.926   5.857
 4844SOL    HW115431   0.077   1.986   5.816
 4844SOL    HW215432   0.034   1.905   5.951
 4845SOL     OW15433   5.671   5.755   3.666
 4845SOL    HW115434   5.690   5.735   3.762
 4845SOL    HW215435   5.586   5.808   3.659
 4846SOL     OW15436   1.112   5.019   0.748
 4846SOL    HW115437   1.097   5.031   0.650
 4846SOL    HW215438   1.091   5.105   0.795
 4847SOL     OW15439   4.680   2.291   4.663
 4847SOL    HW115440   4.655   2.386   4.645
 4847SOL    HW215441   4.647   2.265   4.754
 4848SOL     OW15442   2.982   2.135   2.215
 4848SOL    HW115443   2.937   2.049   2.238
 4848SOL    HW215444   2.940   2.173   2.132
 4849SOL     OW15445   1.075   6.349   6.895
 4849SOL    HW115446   1.127   6.435   6.892
 4849SOL    HW215447   1.136   6.274   6.920
 4850SOL     OW15448   3.969   0.288   2.350
 4850SOL    HW115449   3.922   0.290   2.262
 4850SOL    HW215450   3.973   0.381   2.388
 4851SOL     OW15451   5.322   0.401   5.051
 4851SOL    HW115452   5.266   0.342   4.993
 4851SOL    HW215453   5.370   0.345   5.119
 4852SOL     OW15454   1.698   2.095   1.280
 4852SOL    HW115455   1.741   2.020   1.230
 4852SOL    HW215456   1.633   2.059   1.347
 4853SOL     OW15457   3.176   1.240   1.775
 4853SOL    HW115458   3.200   1.176   1.702
 4853SOL    HW215459   3.192   1.334   1.744
 4854SOL     OW15460   4.655   6.896   0.566
 4854SOL    HW115461   4.679   6.949   0.648
 4854SOL    HW215462   4.623   6.958   0.494
 4855SOL     OW15463   0.388   2.596   2.806
 4855SOL    HW115464   0.369   2.545   2.890
 4855SOL    HW215465   0.413   2.690   2.828
 4856SOL     OW15466   2.311   4.591   3.808
 4856SOL    HW115467   2.301   4.659   3.736
 4856SOL    HW215468   2.366   4.514   3.774
 4857SOL     OW15469   0.380   1.878   5.774
 4857SOL    HW115470   0.451   1.895   5.705
 4857SOL    HW215471   0.348   1.784   5.768
 4858SOL     OW15472   1.128   1.091   3.779
 4858SOL    HW115473   1.216   1.045   3.767
 4858SOL    HW215474   1.142   1.190   3.784
 4859SOL     OW15475   2.573   5.388   5.073
 4859SOL    HW115476   2.547   5.292   5.083
 4859SOL    HW215477   2.672   5.397   5.088
 4860SOL     OW15478   4.451   4.728   1.062
 4860SOL    HW115479   4.545   4.728   1.027
 4860SOL    HW215480   4.421   4.823   1.073
 4861SOL     OW15481   4.816   3.636   5.760
 4861SOL    HW115482   4.903   3.675   5.790
 4861SOL    HW215483   4.809   3.541   5.791
 4862SOL     OW15484   1.597   6.400   1.971
 4862SOL    HW115485   1.508   6.427   1.936
 4862SOL    HW215486   1.613   6.303   1.952
 4863SOL     OW15487   6.107   4.297   6.318
 4863SOL    HW115488   6.051   4.258   6.392
 4863SOL    HW215489   6.102   4.397   6.321
 4864SOL     OW15490   2.904   1.150   3.632
 4864SOL    HW115491   2.956   1.106   3.558
 4864SOL    HW215492   2.910   1.094   3.715
 4865SOL     OW15493   1.961   6.442   4.719
 4865SOL    HW115494   2.057   6.462   4.697
 4865SOL    HW215495   1.953   6.421   4.816
 4866SOL     OW15496   6.261   4.422   6.876
 4866SOL    HW115497   6.323   4.461   6.809
 4866SOL    HW215498   6.253   4.483   6.955
 4867SOL     OW15499   5.224   7.006   2.703
 4867SOL    HW115500   5.169   7.015   2.786
 4867SOL    HW215501   5.280   6.923   2.709
 4868SOL     OW15502   0.027   4.649   1.377
 4868SOL    HW115503   6.985   4.580   1.406
 4868SOL    HW215504   0.088   4.611   1.308
 4869SOL     OW15505   0.672   1.429   0.298
 4869SOL    HW115506   0.767   1.405   0.277
 4869SOL    HW215507   0.644   1.384   0.382
 4870SOL     OW15508   0.748   6.130   1.748
 4870SOL    HW115509   0.834   6.125   1.799
 4870SOL    HW215510   0.704   6.218   1.767
 4871SOL     OW15511   1.893   1.926   4.773
 4871SOL    HW115512   1.906   2.023   4.752
 4871SOL    HW215513   1.980   1.878   4.765
 4872SOL     OW15514   5.549   7.005   3.088
 4872SOL    HW115515   5.589   0.012   3.175
 4872SOL    HW215516   5.477   6.939   3.105
 4873SOL     OW15517   6.692   5.545   5.515
 4873SOL    HW115518   6.768   5.479   5.516
 4873SOL    HW215519   6.605   5.496   5.521
 4874SOL     OW15520   5.162   2.529   2.798
 4874SOL    HW115521   5.238   2.482   2.751
 4874SOL    HW215522   5.191   2.555   2.890
 4875SOL     OW15523   5.695   6.168   5.222
 4875SOL    HW115524   5.795   6.168   5.220
 4875SOL    HW215525   5.663   6.078   5.253
 4876SOL     OW15526   1.554   1.030   2.963
 4876SOL    HW115527   1.482   0.995   3.023
 4876SOL    HW215528   1.556   1.130   2.970
 4877SOL     OW15529   0.178   1.542   4.963
 4877SOL    HW115530   0.149   1.632   4.931
 4877SOL    HW215531   0.273   1.525   4.935
 4878SOL     OW15532   6.916   2.650   2.736
 4878SOL    HW115533   6.830   2.686   2.772
 4878SOL    HW215534   6.992   2.682   2.792
 4879SOL     OW15535   5.151   1.455   2.734
 4879SOL    HW115536   5.190   1.364   2.749
 4879SOL    HW215537   5.107   1.486   2.819
 4880SOL     OW15538   6.648   2.930   6.370
 4880SOL    HW115539   6.612   3.022   6.363
 4880SOL    HW215540   6.591   2.867   6.317
 4881SOL     OW15541   2.077   2.142   1.893
 4881SOL    HW115542   2.075   2.099   1.984
 4881SOL    HW215543   2.082   2.071   1.823
 4882SOL     OW15544   4.286   1.666   4.464
 4882SOL    HW115545   4.245   1.628   4.381
 4882SOL    HW215546   4.280   1.766   4.462
 4883SOL     OW15547   6.599   4.300   1.316
 4883SOL    HW115548   6.645   4.287   1.404
 4883SOL    HW215549   6.518   4.241   1.313
 4884SOL     OW15550   2.176   6.299   1.109
 4884SOL    HW115551   2.241   6.231   1.074
 4884SOL    HW215552   2.223   6.386   1.122
 4885SOL     OW15553   0.958   4.687   0.001
 4885SOL    HW115554   1.041   4.632   7.013
 4885SOL    HW215555   0.925   4.715   6.934
 4886SOL     OW15556   2.522   1.077   1.809
 4886SOL    HW115557   2.463   1.020   1.865
 4886SOL    HW215558   2.466   1.137   1.752
 4887SOL     OW15559   6.481   6.825   1.373
 4887SOL    HW115560   6.542   6.899   1.401
 4887SOL    HW215561   6.387   6.858   1.372
 4888SOL     OW15562   4.229   6.634   2.969
 4888SOL    HW115563   4.199   6.621   2.875
 4888SOL    HW215564   4.174   6.706   3.012
 4889SOL     OW15565   7.005   3.416   4.216
 4889SOL    HW115566   6.972   3.325   4.191
 4889SOL    HW215567   0.012   3.415   4.312
 4890SOL     OW15568   0.363   1.370   4.471
 4890SOL    HW115569   0.300   1.332   4.403
 4890SOL    HW215570   0.324   1.357   4.563
 4891SOL     OW15571   2.636   5.481   6.155
 4891SOL    HW115572   2.576   5.494   6.076
 4891SOL    HW215573   2.605   5.401   6.207
 4892SOL     OW15574   4.753   5.516   2.946
 4892SOL    HW115575   4.767   5.434   2.891
 4892SOL    HW215576   4.756   5.493   3.043
 4893SOL     OW15577   1.043   3.288   1.487
 4893SOL    HW115578   1.027   3.350   1.410
 4893SOL    HW215579   1.141   3.268   1.494
 4894SOL     OW15580   5.135   0.471   1.818
 4894SOL    HW115581   5.085   0.473   1.905
 4894SOL    HW215582   5.230   0.446   1.836
 4895SOL     OW15583   0.053   4.290   4.659
 4895SOL    HW115584   0.037   4.273   4.756
 4895SOL    HW215585   0.143   4.253   4.634
 4896SOL     OW15586   1.864   4.712   4.469
 4896SOL    HW115587   1.791   4.776   4.448
 4896SOL    HW215588   1.835   4.652   4.544
 4897SOL     OW15589   1.928   6.536   5.011
 4897SOL    HW115590   1.973   6.447   5.020
 4897SOL    HW215591   1.910   6.574   5.101
 4898SOL     OW15592   4.736   1.796   3.851
 4898SOL    HW115593   4.756   1.715   3.906
 4898SOL    HW215594   4.639   1.797   3.826
 4899SOL     OW15595   6.684   6.179   1.810
 4899SOL    HW115596   6.687   6.094   1.862
 4899SOL    HW215597   6.726   6.252   1.864
 4900SOL     OW15598   3.669   5.843   5.508
 4900SOL    HW115599   3.764   5.869   5.522
 4900SOL    HW215600   3.627   5.904   5.441
 4901SOL     OW15601   0.942   1.571   5.576
 4901SOL    HW115602   0.855   1.561   5.527
 4901SOL    HW215603   0.946   1.662   5.619
 4902SOL     OW15604   1.617   0.045   5.869
 4902SOL    HW115605   1.616   0.002   5.778
 4902SOL    HW215606   1.631   6.997   5.938
 4903SOL     OW15607   4.827   4.140   2.575
 4903SOL    HW115608   4.820   4.077   2.652
 4903SOL    HW215609   4.923   4.157   2.553
 4904SOL     OW15610   1.650   6.797   0.306
 4904SOL    HW115611   1.707   6.814   0.386
 4904SOL    HW215612   1.707   6.765   0.230
 4905SOL     OW15613   3.043   6.285   3.078
 4905SOL    HW115614   3.140   6.295   3.057
 4905SOL    HW215615   2.999   6.375   3.078
 4906SOL     OW15616   4.980   3.417   5.058
 4906SOL    HW115617   4.923   3.348   5.103
 4906SOL    HW215618   4.927   3.502   5.049
 4907SOL     OW15619   4.842   1.741   6.833
 4907SOL    HW115620   4.844   1.660   6.891
 4907SOL    HW215621   4.829   1.714   6.738
 4908SOL     OW15622   4.273   6.645   0.060
 4908SOL    HW115623   4.258   6.711   0.134
 4908SOL    HW215624   4.228   6.678   7.000
 4909SOL     OW15625   5.024   4.551   4.640
 4909SOL    HW115626   5.077   4.479   4.685
 4909SOL    HW215627   4.935   4.559   4.683
 4910SOL     OW15628   4.700   2.053   5.564
 4910SOL    HW115629   4.737   1.965   5.595
 4910SOL    HW215630   4.771   2.106   5.519
 4911SOL     OW15631   6.835   2.569   2.495
 4911SOL    HW115632   6.831   2.646   2.431
 4911SOL    HW215633   6.865   2.601   2.584
 4912SOL     OW15634   5.821   2.486   3.868
 4912SOL    HW115635   5.770   2.547   3.928
 4912SOL    HW215636   5.917   2.512   3.867
 4913SOL     OW15637   0.044   3.481   5.967
 4913SOL    HW115638   0.045   3.567   5.916
 4913SOL    HW215639   6.975   3.443   5.967
 4914SOL     OW15640   4.390   0.670   3.545
 4914SOL    HW115641   4.388   0.570   3.541
 4914SOL    HW215642   4.356   0.700   3.634
 4915SOL     OW15643   3.503   5.238   5.791
 4915SOL    HW115644   3.435   5.284   5.849
 4915SOL    HW215645   3.590   5.286   5.798
 4916SOL     OW15646   5.997   2.754   4.077
 4916SOL    HW115647   5.925   2.723   4.138
 4916SOL    HW215648   5.961   2.764   3.984
 4917SOL     OW15649   4.381   6.398   0.108
 4917SOL    HW115650   4.430   6.392   0.021
 4917SOL    HW215651   4.330   6.484   0.112
 4918SOL     OW15652   6.061   4.920   2.996
 4918SOL    HW115653   6.002   4.909   3.077
 4918SOL    HW215654   6.073   5.017   2.977
 4919SOL     OW15655   3.629   3.860   2.468
 4919SOL    HW115656   3.656   3.790   2.534
 4919SOL    HW215657   3.571   3.819   2.398
 4920SOL     OW15658   6.482   1.176   6.066
 4920SOL    HW115659   6.565   1.164   6.120
 4920SOL    HW215660   6.456   1.272   6.065
 4921SOL     OW15661   0.107   6.722   2.485
 4921SOL    HW115662   0.039   6.770   2.540
 4921SOL    HW215663   0.179   6.785   2.457
 4922SOL     OW15664   3.567   2.128   6.727
 4922SOL    HW115665   3.475   2.138   6.688
 4922SOL    HW215666   3.612   2.218   6.730
 4923SOL     OW15667   3.983   1.551   1.521
 4923SOL    HW115668   3.968   1.537   1.423
 4923SOL    HW215669   4.078   1.532   1.543
 4924SOL     OW15670   2.544   0.781   4.964
 4924SOL    HW115671   2.564   0.865   4.914
 4924SOL    HW215672   2.629   0.730   4.980
 4925SOL     OW15673   5.817   6.342   3.794
 4925SOL    HW115674   5.763   6.284   3.856
 4925SOL    HW215675   5.797   6.438   3.812
 4926SOL     OW15676   5.382   2.476   0.835
 4926SOL    HW115677   5.303   2.425   0.869
 4926SOL    HW215678   5.406   2.548   0.900
 4927SOL     OW15679   3.599   1.258   0.045
 4927SOL    HW115680   3.528   1.321   0.075
 4927SOL    HW215681   3.598   1.176   0.103
 4928SOL     OW15682   0.010   2.451   0.924
 4928SOL    HW115683   6.955   2.511   0.947
 4928SOL    HW215684   0.047   2.411   1.008
 4929SOL     OW15685   0.841   6.091   5.295
 4929SOL    HW115686   0.808   5.996   5.296
 4929SOL    HW215687   0.862   6.118   5.201
 4930SOL     OW15688   5.210   6.280   1.931
 4930SOL    HW115689   5.266   6.251   1.853
 4930SOL    HW215690   5.114   6.272   1.907
 4931SOL     OW15691   6.718   5.774   0.098
 4931SOL    HW115692   6.645   5.831   0.137
 4931SOL    HW215693   6.726   5.793   0.000
 4932SOL     OW15694   3.429   3.334   2.101
 4932SOL    HW115695   3.428   3.323   2.200
 4932SOL    HW215696   3.496   3.272   2.061
 4933SOL     OW15697   2.361   6.035   5.619
 4933SOL    HW115698   2.390   5.957   5.674
 4933SOL    HW215699   2.306   6.097   5.675
 4934SOL     OW15700   4.280   5.231   2.532
 4934SOL    HW115701   4.237   5.319   2.550
 4934SOL    HW215702   4.317   5.230   2.439
 4935SOL     OW15703   0.464   1.304   6.105
 4935SOL    HW115704   0.487   1.400   6.085
 4935SOL    HW215705   0.366   1.290   6.091
 4936SOL     OW15706   3.729   2.946   0.683
 4936SOL    HW115707   3.681   2.921   0.599
 4936SOL    HW215708   3.677   2.914   0.763
 4937SOL     OW15709   4.514   2.644   4.919
 4937SOL    HW115710   4.493   2.590   4.837
 4937SOL    HW215711   4.433   2.696   4.946
 4938SOL     OW15712   3.936   5.061   6.537
 4938SOL    HW115713   3.866   5.017   6.593
 4938SOL    HW215714   3.905   5.065   6.442
 4939SOL     OW15715   4.804   3.216   6.086
 4939SOL    HW115716   4.770   3.123   6.104
 4939SOL    HW215717   4.879   3.212   6.021
 4940SOL     OW15718   1.681   5.937   4.555
 4940SOL    HW115719   1.734   6.008   4.603
 4940SOL    HW215720   1.609   5.980   4.502
 4941SOL     OW15721   5.198   0.062   1.076
 4941SOL    HW115722   5.177   0.117   0.995
 4941SOL    HW215723   5.289   0.086   1.109
 4942SOL     OW15724   5.001   3.263   5.467
 4942SOL    HW115725   5.057   3.323   5.524
 4942SOL    HW215726   4.910   3.255   5.507
 4943SOL     OW15727   5.388   2.577   1.321
 4943SOL    HW115728   5.336   2.662   1.317
 4943SOL    HW215729   5.472   2.592   1.373
 4944SOL     OW15730   2.435   4.473   2.608
 4944SOL    HW115731   2.452   4.494   2.704
 4944SOL    HW215732   2.497   4.527   2.551
 4945SOL     OW15733   0.364   6.186   4.718
 4945SOL    HW115734   0.317   6.133   4.648
 4945SOL    HW215735   0.442   6.233   4.676
 4946SOL     OW15736   0.553   4.483   2.122
 4946SOL    HW115737   0.516   4.537   2.046
 4946SOL    HW215738   0.623   4.420   2.087
 4947SOL     OW15739   0.036   0.167   0.953
 4947SOL    HW115740   0.071   0.078   0.982
 4947SOL    HW215741   0.046   0.232   1.029
 4948SOL     OW15742   1.630   1.290   2.046
 4948SOL    HW115743   1.565   1.277   2.121
 4948SOL    HW215744   1.584   1.272   1.959
 4949SOL     OW15745   5.139   1.678   4.582
 4949SOL    HW115746   5.060   1.620   4.604
 4949SOL    HW215747   5.113   1.743   4.511
 4950SOL     OW15748   2.886   5.286   5.339
 4950SOL    HW115749   2.902   5.322   5.247
 4950SOL    HW215750   2.878   5.186   5.336
 4951SOL     OW15751   4.598   1.909   3.532
 4951SOL    HW115752   4.551   1.995   3.552
 4951SOL    HW215753   4.671   1.926   3.466
 4952SOL     OW15754   0.516   5.409   4.763
 4952SOL    HW115755   0.546   5.454   4.679
 4952SOL    HW215756   0.583   5.424   4.836
 4953SOL     OW15757   1.678   5.835   1.573
 4953SOL    HW115758   1.636   5.781   1.645
 4953SOL    HW215759   1.774   5.807   1.562
 4954SOL     OW15760   5.872   5.643   6.715
 4954SOL    HW115761   5.811   5.612   6.642
 4954SOL    HW215762   5.959   5.594   6.710
 4955SOL     OW15763   1.051   6.878   1.619
 4955SOL    HW115764   1.135   6.915   1.580
 4955SOL    HW215765   1.061   6.873   1.719
 4956SOL     OW15766   5.225   6.066   4.308
 4956SOL    HW115767   5.160   6.137   4.334
 4956SOL    HW215768   5.262   6.023   4.390
 4957SOL     OW15769   1.160   6.532   3.573
 4957SOL    HW115770   1.181   6.627   3.594
 4957SOL    HW215771   1.097   6.495   3.641
 4958SOL     OW15772   0.249   6.174   6.857
 4958SOL    HW115773   0.342   6.151   6.885
 4958SOL    HW215774   0.189   6.175   6.937
 4959SOL     OW15775   0.853   1.181   1.158
 4959SOL    HW115776   0.827   1.112   1.225
 4959SOL    HW215777   0.953   1.189   1.155
 4960SOL     OW15778   3.749   6.373   4.871
 4960SOL    HW115779   3.824   6.405   4.813
 4960SOL    HW215780   3.738   6.435   4.948
 4961SOL     OW15781   4.118   0.691   5.706
 4961SOL    HW115782   4.124   0.595   5.731
 4961SOL    HW215783   4.033   0.730   5.741
 4962SOL     OW15784   6.536   2.297   1.844
 4962SOL    HW115785   6.506   2.265   1.934
 4962SOL    HW215786   6.545   2.396   1.845
 4963SOL     OW15787   0.146   4.340   1.903
 4963SOL    HW115788   0.235   4.384   1.891
 4963SOL    HW215789   0.127   4.331   2.001
 4964SOL     OW15790   3.476   6.329   2.834
 4964SOL    HW115791   3.455   6.375   2.748
 4964SOL    HW215792   3.575   6.318   2.843
 4965SOL     OW15793   0.313   6.436   4.915
 4965SOL    HW115794   0.297   6.370   4.843
 4965SOL    HW215795   0.306   6.529   4.878
 4966SOL     OW15796   3.738   4.889   3.347
 4966SOL    HW115797   3.773   4.808   3.395
 4966SOL    HW215798   3.761   4.971   3.398
 4967SOL     OW15799   4.628   1.976   6.114
 4967SOL    HW115800   4.712   1.959   6.165
 4967SOL    HW215801   4.651   2.011   6.023
 4968SOL     OW15802   5.653   3.840   5.754
 4968SOL    HW115803   5.594   3.919   5.770
 4968SOL    HW215804   5.687   3.805   5.841
 4969SOL     OW15805   0.699   2.279   2.144
 4969SOL    HW115806   0.790   2.257   2.109
 4969SOL    HW215807   0.705   2.357   2.206
 4970SOL     OW15808   1.260   3.059   6.140
 4970SOL    HW115809   1.261   3.048   6.041
 4970SOL    HW215810   1.311   3.141   6.165
 4971SOL     OW15811   6.523   5.976   4.211
 4971SOL    HW115812   6.604   5.954   4.156
 4971SOL    HW215813   6.518   6.075   4.224
 4972SOL     OW15814   1.880   2.574   5.955
 4972SOL    HW115815   1.876   2.673   5.965
 4972SOL    HW215816   1.909   2.551   5.862
 4973SOL     OW15817   5.882   6.066   3.178
 4973SOL    HW115818   5.903   6.160   3.203
 4973SOL    HW215819   5.949   6.033   3.111
 4974SOL     OW15820   4.617   6.532   1.314
 4974SOL    HW115821   4.646   6.625   1.290
 4974SOL    HW215822   4.517   6.530   1.318
 4975SOL     OW15823   5.319   5.954   0.087
 4975SOL    HW115824   5.384   5.994   0.152
 4975SOL    HW215825   5.258   6.025   0.052
 4976SOL     OW15826   3.723   0.445   4.542
 4976SOL    HW115827   3.807   0.439   4.489
 4976SOL    HW215828   3.746   0.461   4.638
 4977SOL     OW15829   3.361   3.913   0.643
 4977SOL    HW115830   3.336   3.880   0.552
 4977SOL    HW215831   3.300   3.871   0.711
 4978SOL     OW15832   6.225   2.866   6.219
 4978SOL    HW115833   6.174   2.807   6.156
 4978SOL    HW215834   6.250   2.951   6.172
 4979SOL     OW15835   1.427   1.999   4.888
 4979SOL    HW115836   1.328   1.987   4.900
 4979SOL    HW215837   1.448   2.096   4.878
 4980SOL     OW15838   2.626   5.364   2.410
 4980SOL    HW115839   2.675   5.375   2.324
 4980SOL    HW215840   2.602   5.268   2.423
 4981SOL     OW15841   4.898   6.396   5.710
 4981SOL    HW115842   4.922   6.439   5.623
 4981SOL    HW215843   4.844   6.313   5.692
 4982SOL     OW15844   2.698   2.114   0.445
 4982SOL    HW115845   2.691   2.089   0.541
 4982SOL    HW215846   2.762   2.052   0.399
 4983SOL     OW15847   5.417   2.975   4.601
 4983SOL    HW115848   5.438   3.057   4.655
 4983SOL    HW215849   5.462   2.896   4.642
 4984SOL     OW15850   4.802   3.953   2.801
 4984SOL    HW115851   4.763   3.999   2.880
 4984SOL    HW215852   4.803   3.854   2.817
 4985SOL     OW15853   5.802   3.893   2.696
 4985SOL    HW115854   5.803   3.980   2.646
 4985SOL    HW215855   5.895   3.870   2.725
 4986SOL     OW15856   5.021   4.391   2.727
 4986SOL    HW115857   4.944   4.415   2.785
 4986SOL    HW215858   4.988   4.372   2.634
 4987SOL     OW15859   0.614   3.761   0.959
 4987SOL    HW115860   0.627   3.769   0.860
 4987SOL    HW215861   0.548   3.688   0.978
 4988SOL     OW15862   0.385   2.342   5.367
 4988SOL    HW115863   0.454   2.305   5.305
 4988SOL    HW215864   0.359   2.272   5.434
 4989SOL     OW15865   0.455   0.822   0.370
 4989SOL    HW115866   0.406   0.735   0.365
 4989SOL    HW215867   0.513   0.833   0.289
 4990SOL     OW15868   0.671   2.143   5.337
 4990SOL    HW115869   0.716   2.054   5.322
 4990SOL    HW215870   0.729   2.216   5.301
 4991SOL     OW15871   1.664   2.681   4.556
 4991SOL    HW115872   1.651   2.585   4.579
 4991SOL    HW215873   1.753   2.693   4.512
 4992SOL     OW15874   3.676   0.311   5.181
 4992SOL    HW115875   3.721   0.295   5.269
 4992SOL    HW215876   3.701   0.402   5.147
 4993SOL     OW15877   2.676   5.598   4.028
 4993SOL    HW115878   2.651   5.614   3.932
 4993SOL    HW215879   2.652   5.505   4.054
 4994SOL     OW15880   6.954   6.669   2.228
 4994SOL    HW115881   7.015   6.723   2.285
 4994SOL    HW215882   7.004   6.633   2.150
 4995SOL     OW15883   6.343   2.782   5.521
 4995SOL    HW115884   6.329   2.877   5.496
 4995SOL    HW215885   6.255   2.738   5.536
 4996SOL     OW15886   0.104   1.220   3.889
 4996SOL    HW115887   0.174   1.160   3.850
 4996SOL    HW215888   0.047   1.258   3.816
 4997SOL     OW15889   0.248   2.484   3.530
 4997SOL    HW115890   0.321   2.419   3.506
 4997SOL    HW215891   0.192   2.445   3.603
 4998SOL     OW15892   1.418   5.495   4.680
 4998SOL    HW115893   1.482   5.445   4.739
 4998SOL    HW215894   1.455   5.586   4.661
 4999SOL     OW15895   6.293   4.131   1.233
 4999SOL    HW115896   6.373   4.145   1.176
 4999SOL    HW215897   6.321   4.122   1.329
 5000SOL     OW15898   6.919   5.521   4.055
 5000SOL    HW115899   6.990   5.452   4.074
 5000SOL    HW215900   6.962   5.610   4.044
 5001SOL     OW15901   4.767   4.088   5.545
 5001SOL    HW115902   4.845   4.100   5.483
 5001SOL    HW215903   4.797   4.040   5.627
 5002SOL     OW15904   2.230   1.590   1.406
 5002SOL    HW115905   2.246   1.555   1.498
 5002SOL    HW215906   2.306   1.649   1.379
 5003SOL     OW15907   6.604   5.379   3.292
 5003SOL    HW115908   6.555   5.410   3.211
 5003SOL    HW215909   6.583   5.439   3.369
 5004SOL     OW15910   3.241   5.112   0.408
 5004SOL    HW115911   3.313   5.051   0.441
 5004SOL    HW215912   3.172   5.059   0.358
 5005SOL     OW15913   4.464   2.465   0.024
 5005SOL    HW115914   4.563   2.475   0.023
 5005SOL    HW215915   4.422   2.550   7.014
 5006SOL     OW15916   5.255   4.838   3.788
 5006SOL    HW115917   5.256   4.812   3.692
 5006SOL    HW215918   5.210   4.766   3.842
 5007SOL     OW15919   4.203   1.646   4.763
 5007SOL    HW115920   4.251   1.609   4.684
 5007SOL    HW215921   4.190   1.744   4.752
 5008SOL     OW15922   6.689   1.511   3.931
 5008SOL    HW115923   6.615   1.570   3.899
 5008SOL    HW215924   6.719   1.543   4.021
 5009SOL     OW15925   2.043   6.424   3.881
 5009SOL    HW115926   2.073   6.509   3.837
 5009SOL    HW215927   1.954   6.439   3.925
 5010SOL     OW15928   3.396   3.428   4.433
 5010SOL    HW115929   3.440   3.373   4.363
 5010SOL    HW215930   3.309   3.386   4.459
 5011SOL     OW15931   1.117   3.119   2.979
 5011SOL    HW115932   1.179   3.192   2.949
 5011SOL    HW215933   1.130   3.038   2.921
 5012SOL     OW15934   5.514   3.096   0.204
 5012SOL    HW115935   5.582   3.026   0.183
 5012SOL    HW215936   5.551   3.159   0.272
 5013SOL     OW15937   5.094   1.561   5.968
 5013SOL    HW115938   5.109   1.515   5.881
 5013SOL    HW215939   5.002   1.603   5.968
 5014SOL     OW15940   6.144   6.898   0.056
 5014SOL    HW115941   6.203   6.952   0.115
 5014SOL    HW215942   6.189   6.882   6.991
 5015SOL     OW15943   5.411   2.172   3.290
 5015SOL    HW115944   5.413   2.088   3.236
 5015SOL    HW215945   5.332   2.226   3.264
 5016SOL     OW15946   2.495   6.966   2.008
 5016SOL    HW115947   2.428   6.893   2.002
 5016SOL    HW215948   2.524   6.977   2.104
 5017SOL     OW15949   2.588   2.697   1.733
 5017SOL    HW115950   2.529   2.726   1.658
 5017SOL    HW215951   2.647   2.622   1.703
 5018SOL     OW15952   6.920   4.884   4.578
 5018SOL    HW115953   6.988   4.937   4.526
 5018SOL    HW215954   6.892   4.804   4.524
 5019SOL     OW15955   2.771   5.210   6.099
 5019SOL    HW115956   2.696   5.211   6.164
 5019SOL    HW215957   2.801   5.116   6.082
 5020SOL     OW15958   5.071   5.001   6.156
 5020SOL    HW115959   5.031   4.913   6.129
 5020SOL    HW215960   5.119   5.042   6.078
 5021SOL     OW15961   2.319   5.030   5.636
 5021SOL    HW115962   2.250   5.008   5.706
 5021SOL    HW215963   2.408   4.997   5.666
 5022SOL     OW15964   1.548   5.024   0.499
 5022SOL    HW115965   1.620   4.984   0.442
 5022SOL    HW215966   1.590   5.081   0.570
 5023SOL     OW15967   6.352   3.209   3.187
 5023SOL    HW115968   6.430   3.147   3.196
 5023SOL    HW215969   6.374   3.296   3.229
 5024SOL     OW15970   5.466   3.292   5.751
 5024SOL    HW115971   5.490   3.231   5.826
 5024SOL    HW215972   5.550   3.320   5.703
 5025SOL     OW15973   6.536   1.883   2.899
 5025SOL    HW115974   6.558   1.898   2.995
 5025SOL    HW215975   6.512   1.787   2.885
 5026SOL     OW15976   0.615   6.436   2.804
 5026SOL    HW115977   0.572   6.489   2.731
 5026SOL    HW215978   0.699   6.482   2.833
 5027SOL     OW15979   0.919   6.652   3.369
 5027SOL    HW115980   0.961   6.602   3.293
 5027SOL    HW215981   0.866   6.589   3.425
 5028SOL     OW15982   1.213   0.583   2.944
 5028SOL    HW115983   1.258   0.655   2.890
 5028SOL    HW215984   1.279   0.544   3.008
 5029SOL     OW15985   0.075   0.999   2.591
 5029SOL    HW115986   0.061   0.982   2.494
 5029SOL    HW215987   0.092   1.097   2.606
 5030SOL     OW15988   1.735   5.520   6.948
 5030SOL    HW115989   1.750   5.507   6.850
 5030SOL    HW215990   1.656   5.581   6.962
 5031SOL     OW15991   5.687   0.594   5.289
 5031SOL    HW115992   5.682   0.522   5.220
 5031SOL    HW215993   5.769   0.649   5.273
 5032SOL     OW15994   0.741   6.321   1.093
 5032SOL    HW115995   0.651   6.350   1.127
 5032SOL    HW215996   0.740   6.222   1.078
 5033SOL     OW15997   1.063   4.295   5.704
 5033SOL    HW115998   1.058   4.260   5.611
 5033SOL    HW215999   1.128   4.371   5.708
 5034SOL     OW16000   6.697   3.794   0.261
 5034SOL    HW116001   6.747   3.858   0.203
 5034SOL    HW216002   6.648   3.729   0.204
 5035SOL     OW16003   6.556   4.108   1.772
 5035SOL    HW116004   6.467   4.065   1.755
 5035SOL    HW216005   6.550   4.167   1.853
 5036SOL     OW16006   1.532   0.623   2.436
 5036SOL    HW116007   1.443   0.670   2.443
 5036SOL    HW216008   1.597   0.668   2.498
 5037SOL     OW16009   4.461   2.413   2.545
 5037SOL    HW116010   4.486   2.321   2.574
 5037SOL    HW216011   4.477   2.477   2.620
 5038SOL     OW16012   2.567   6.248   6.202
 5038SOL    HW116013   2.656   6.217   6.169
 5038SOL    HW216014   2.505   6.169   6.207
 5039SOL     OW16015   1.651   1.677   3.891
 5039SOL    HW116016   1.660   1.709   3.797
 5039SOL    HW216017   1.742   1.662   3.930
 5040SOL     OW16018   3.038   3.630   6.145
 5040SOL    HW116019   2.995   3.690   6.078
 5040SOL    HW216020   2.967   3.587   6.201
 5041SOL     OW16021   1.209   5.276   1.055
 5041SOL    HW116022   1.186   5.181   1.077
 5041SOL    HW216023   1.133   5.318   1.005
 5042SOL     OW16024   6.021   2.179   6.366
 5042SOL    HW116025   5.929   2.175   6.406
 5042SOL    HW216026   6.058   2.087   6.358
 5043SOL     OW16027   4.742   0.268   3.272
 5043SOL    HW116028   4.717   0.320   3.190
 5043SOL    HW216029   4.661   0.256   3.330
 5044SOL     OW16030   6.044   4.333   2.722
 5044SOL    HW116031   6.075   4.254   2.669
 5044SOL    HW216032   6.091   4.334   2.811
 5045SOL     OW16033   6.301   3.458   6.250
 5045SOL    HW116034   6.291   3.370   6.297
 5045SOL    HW216035   6.215   3.480   6.203
 5046SOL     OW16036   3.205   2.794   5.412
 5046SOL    HW116037   3.145   2.758   5.483
 5046SOL    HW216038   3.179   2.888   5.390
 5047SOL     OW16039   1.130   1.362   2.631
 5047SOL    HW116040   1.073   1.412   2.566
 5047SOL    HW216041   1.160   1.276   2.590
 5048SOL     OW16042   6.149   3.344   1.660
 5048SOL    HW116043   6.223   3.288   1.623
 5048SOL    HW216044   6.179   3.389   1.744
 5049SOL     OW16045   1.214   2.223   2.456
 5049SOL    HW116046   1.300   2.191   2.416
 5049SOL    HW216047   1.226   2.316   2.491
 5050SOL     OW16048   0.904   3.353   0.855
 5050SOL    HW116049   0.955   3.313   0.778
 5050SOL    HW216050   0.813   3.379   0.824
 5051SOL     OW16051   2.658   3.740   0.637
 5051SOL    HW116052   2.626   3.677   0.707
 5051SOL    HW216053   2.691   3.688   0.558
 5052SOL     OW16054   5.516   3.771   0.531
 5052SOL    HW116055   5.507   3.863   0.494
 5052SOL    HW216056   5.584   3.720   0.478
 5053SOL     OW16057   1.975   4.834   0.242
 5053SOL    HW116058   2.016   4.917   0.206
 5053SOL    HW216059   2.003   4.821   0.337
 5054SOL     OW16060   3.741   5.951   5.031
 5054SOL    HW116061   3.682   5.886   4.982
 5054SOL    HW216062   3.837   5.930   5.011
 5055SOL     OW16063   1.852   1.884   4.105
 5055SOL    HW116064   1.796   1.964   4.081
 5055SOL    HW216065   1.922   1.911   4.171
 5056SOL     OW16066   2.637   2.485   5.354
 5056SOL    HW116067   2.625   2.434   5.439
 5056SOL    HW216068   2.721   2.539   5.360
 5057SOL     OW16069   0.464   4.371   2.796
 5057SOL    HW116070   0.557   4.398   2.821
 5057SOL    HW216071   0.465   4.279   2.757
 5058SOL     OW16072   3.125   3.088   0.017
 5058SOL    HW116073   3.169   3.176   0.037
 5058SOL    HW216074   3.072   3.058   0.097
 5059SOL     OW16075   4.211   1.597   3.192
 5059SOL    HW116076   4.229   1.576   3.096
 5059SOL    HW216077   4.118   1.571   3.216
 5060SOL     OW16078   0.319   3.570   5.122
 5060SOL    HW116079   0.391   3.543   5.187
 5060SOL    HW216080   0.320   3.669   5.111
 5061SOL     OW16081   3.736   2.058   5.442
 5061SOL    HW116082   3.748   2.010   5.355
 5061SOL    HW216083   3.660   2.122   5.434
 5062SOL     OW16084   5.130   0.903   3.531
 5062SOL    HW116085   5.151   0.922   3.627
 5062SOL    HW216086   5.211   0.862   3.487
 5063SOL     OW16087   0.962   1.704   1.589
 5063SOL    HW116088   0.880   1.737   1.543
 5063SOL    HW216089   0.946   1.612   1.624
 5064SOL     OW16090   4.938   5.701   0.760
 5064SOL    HW116091   4.999   5.780   0.766
 5064SOL    HW216092   4.917   5.669   0.852
 5065SOL     OW16093   2.201   1.188   2.291
 5065SOL    HW116094   2.251   1.101   2.296
 5065SOL    HW216095   2.161   1.199   2.200
 5066SOL     OW16096   2.238   4.849   2.727
 5066SOL    HW116097   2.233   4.946   2.705
 5066SOL    HW216098   2.187   4.796   2.659
 5067SOL     OW16099   5.371   2.929   0.802
 5067SOL    HW116100   5.382   2.911   0.704
 5067SOL    HW216101   5.448   2.984   0.835
 5068SOL     OW16102   2.602   5.555   0.811
 5068SOL    HW116103   2.676   5.487   0.813
 5068SOL    HW216104   2.604   5.604   0.724
 5069SOL     OW16105   3.769   4.998   5.008
 5069SOL    HW116106   3.732   4.973   5.097
 5069SOL    HW216107   3.694   5.008   4.942
 5070SOL     OW16108   5.891   3.556   5.296
 5070SOL    HW116109   5.977   3.536   5.343
 5070SOL    HW216110   5.885   3.654   5.277
 5071SOL     OW16111   2.620   6.966   3.967
 5071SOL    HW116112   2.552   6.976   4.040
 5071SOL    HW216113   2.575   6.943   3.881
 5072SOL     OW16114   1.009   1.472   1.121
 5072SOL    HW116115   0.997   1.517   1.033
 5072SOL    HW216116   1.044   1.379   1.107
 5073SOL     OW16117   2.387   0.714   2.370
 5073SOL    HW116118   2.301   0.665   2.384
 5073SOL    HW216119   2.458   0.650   2.341
 5074SOL     OW16120   3.402   2.170   1.739
 5074SOL    HW116121   3.487   2.206   1.777
 5074SOL    HW216122   3.343   2.139   1.813
 5075SOL     OW16123   0.097   3.417   6.822
 5075SOL    HW116124   0.001   3.391   6.818
 5075SOL    HW216125   0.130   3.409   6.916
 5076SOL     OW16126   6.545   0.154   6.313
 5076SOL    HW116127   6.530   0.253   6.317
 5076SOL    HW216128   6.642   0.134   6.326
 5077SOL     OW16129   1.027   4.593   4.361
 5077SOL    HW116130   0.939   4.587   4.407
 5077SOL    HW216131   1.088   4.653   4.412
 5078SOL     OW16132   0.195   1.937   3.863
 5078SOL    HW116133   0.127   1.884   3.914
 5078SOL    HW216134   0.284   1.927   3.908
 5079SOL     OW16135   1.739   2.830   5.623
 5079SOL    HW116136   1.654   2.821   5.675
 5079SOL    HW216137   1.719   2.869   5.532
 5080SOL     OW16138   5.870   5.898   0.248
 5080SOL    HW116139   5.875   5.850   0.161
 5080SOL    HW216140   5.840   5.834   0.319
 5081SOL     OW16141   2.651   5.246   5.645
 5081SOL    HW116142   2.673   5.320   5.708
 5081SOL    HW216143   2.578   5.274   5.583
 5082SOL     OW16144   5.183   5.965   1.675
 5082SOL    HW116145   5.273   5.939   1.710
 5082SOL    HW216146   5.185   5.961   1.575
 5083SOL     OW16147   1.576   0.282   3.449
 5083SOL    HW116148   1.491   0.275   3.396
 5083SOL    HW216149   1.647   0.227   3.404
 5084SOL     OW16150   2.479   4.505   5.574
 5084SOL    HW116151   2.546   4.518   5.646
 5084SOL    HW216152   2.423   4.424   5.594
 5085SOL     OW16153   0.444   4.262   4.907
 5085SOL    HW116154   0.483   4.187   4.960
 5085SOL    HW216155   0.488   4.266   4.817
 5086SOL     OW16156   1.968   5.284   2.019
 5086SOL    HW116157   1.957   5.186   2.003
 5086SOL    HW216158   1.895   5.334   1.973
 5087SOL     OW16159   6.598   4.642   2.425
 5087SOL    HW116160   6.672   4.597   2.473
 5087SOL    HW216161   6.583   4.598   2.336
 5088SOL     OW16162   5.309   5.849   2.204
 5088SOL    HW116163   5.352   5.904   2.133
 5088SOL    HW216164   5.353   5.867   2.292
 5089SOL     OW16165   5.259   5.428   5.731
 5089SOL    HW116166   5.297   5.337   5.743
 5089SOL    HW216167   5.238   5.443   5.635
 5090SOL     OW16168   2.899   6.597   5.059
 5090SOL    HW116169   2.854   6.560   4.978
 5090SOL    HW216170   2.996   6.569   5.058
 5091SOL     OW16171   6.954   0.123   6.232
 5091SOL    HW116172   0.025   0.155   6.237
 5091SOL    HW216173   6.938   0.077   6.145
 5092SOL     OW16174   3.228   3.117   4.096
 5092SOL    HW116175   3.266   3.055   4.027
 5092SOL    HW216176   3.224   3.069   4.184
 5093SOL     OW16177   2.879   1.981   2.559
 5093SOL    HW116178   2.829   2.056   2.516
 5093SOL    HW216179   2.820   1.936   2.626
 5094SOL     OW16180   1.395   6.021   4.909
 5094SOL    HW116181   1.400   5.983   5.001
 5094SOL    HW216182   1.362   5.951   4.846
 5095SOL     OW16183   6.617   1.313   2.828
 5095SOL    HW116184   6.571   1.235   2.871
 5095SOL    HW216185   6.685   1.280   2.763
 5096SOL     OW16186   6.155   2.827   5.309
 5096SOL    HW116187   6.063   2.790   5.294
 5096SOL    HW216188   6.150   2.927   5.315
 5097SOL     OW16189   1.079   0.661   5.606
 5097SOL    HW116190   1.092   0.610   5.691
 5097SOL    HW216191   1.148   0.733   5.599
 5098SOL     OW16192   3.662   3.359   0.659
 5098SOL    HW116193   3.578   3.381   0.609
 5098SOL    HW216194   3.729   3.432   0.645
 5099SOL     OW16195   1.671   0.161   2.212
 5099SOL    HW116196   1.579   0.178   2.177
 5099SOL    HW216197   1.736   0.222   2.167
 5100SOL     OW16198   5.224   3.850   2.475
 5100SOL    HW116199   5.295   3.886   2.414
 5100SOL    HW216200   5.241   3.753   2.493
 5101SOL     OW16201   3.858   0.465   6.750
 5101SOL    HW116202   3.914   0.523   6.690
 5101SOL    HW216203   3.761   0.487   6.736
 5102SOL     OW16204   4.762   4.621   4.269
 5102SOL    HW116205   4.793   4.527   4.256
 5102SOL    HW216206   4.663   4.626   4.253
 5103SOL     OW16207   1.015   1.301   6.680
 5103SOL    HW116208   0.977   1.276   6.769
 5103SOL    HW216209   0.985   1.394   6.656
 5104SOL     OW16210   4.054   3.306   2.250
 5104SOL    HW116211   3.960   3.331   2.226
 5104SOL    HW216212   4.107   3.294   2.166
 5105SOL     OW16213   4.259   3.119   6.152
 5105SOL    HW116214   4.314   3.059   6.094
 5105SOL    HW216215   4.171   3.077   6.170
 5106SOL     OW16216   4.235   2.628   0.648
 5106SOL    HW116217   4.270   2.706   0.700
 5106SOL    HW216218   4.153   2.592   0.693
 5107SOL     OW16219   4.958   3.755   0.074
 5107SOL    HW116220   5.014   3.675   0.097
 5107SOL    HW216221   4.992   3.796   7.012
 5108SOL     OW16222   4.498   4.856   0.503
 5108SOL    HW116223   4.539   4.845   0.593
 5108SOL    HW216224   4.570   4.852   0.433
 5109SOL     OW16225   1.507   2.703   1.322
 5109SOL    HW116226   1.567   2.739   1.394
 5109SOL    HW216227   1.504   2.604   1.328
 5110SOL     OW16228   4.737   0.082   5.653
 5110SOL    HW116229   4.736   0.070   5.752
 5110SOL    HW216230   4.820   0.041   5.615
 5111SOL     OW16231   0.082   6.134   4.953
 5111SOL    HW116232   7.006   6.131   4.973
 5111SOL    HW216233   0.103   6.067   4.882
 5112SOL     OW16234   6.642   6.605   3.081
 5112SOL    HW116235   6.562   6.657   3.110
 5112SOL    HW216236   6.710   6.604   3.154
 5113SOL     OW16237   1.559   3.818   0.303
 5113SOL    HW116238   1.503   3.880   0.249
 5113SOL    HW216239   1.633   3.869   0.347
 5114SOL     OW16240   4.899   4.987   1.005
 5114SOL    HW116241   4.903   4.893   1.039
 5114SOL    HW216242   4.805   5.021   1.013
 5115SOL     OW16243   1.888   4.267   0.871
 5115SOL    HW116244   1.894   4.207   0.950
 5115SOL    HW216245   1.817   4.336   0.886
 5116SOL     OW16246   1.364   0.364   5.962
 5116SOL    HW116247   1.330   0.426   5.892
 5116SOL    HW216248   1.318   0.384   6.049
 5117SOL     OW16249   0.832   2.390   3.669
 5117SOL    HW116250   0.884   2.305   3.658
 5117SOL    HW216251   0.896   2.466   3.682
 5118SOL     OW16252   4.547   5.195   6.708
 5118SOL    HW116253   4.491   5.225   6.630
 5118SOL    HW216254   4.570   5.098   6.697
 5119SOL     OW16255   5.747   0.473   0.408
 5119SOL    HW116256   5.796   0.531   0.474
 5119SOL    HW216257   5.655   0.456   0.442
 5120SOL     OW16258   5.471   6.242   6.523
 5120SOL    HW116259   5.467   6.208   6.617
 5120SOL    HW216260   5.390   6.298   6.505
 5121SOL     OW16261   1.481   3.216   6.249
 5121SOL    HW116262   1.516   3.295   6.198
 5121SOL    HW216263   1.474   3.239   6.346
 5122SOL     OW16264   5.082   4.667   3.932
 5122SOL    HW116265   5.053   4.683   4.026
 5122SOL    HW216266   5.004   4.634   3.878
 5123SOL     OW16267   4.718   3.047   1.432
 5123SOL    HW116268   4.677   3.138   1.426
 5123SOL    HW216269   4.731   3.023   1.528
 5124SOL     OW16270   2.334   6.227   5.161
 5124SOL    HW116271   2.243   6.210   5.198
 5124SOL    HW216272   2.403   6.196   5.226
 5125SOL     OW16273   6.362   1.722   3.486
 5125SOL    HW116274   6.316   1.782   3.552
 5125SOL    HW216275   6.337   1.749   3.393
 5126SOL     OW16276   1.748   0.617   1.681
 5126SOL    HW116277   1.790   0.638   1.592
 5126SOL    HW216278   1.670   0.556   1.667
 5127SOL     OW16279   2.182   5.465   0.248
 5127SOL    HW116280   2.154   5.429   0.160
 5127SOL    HW216281   2.190   5.390   0.314
 5128SOL     OW16282   6.254   0.118   2.164
 5128SOL    HW116283   6.345   0.156   2.149
 5128SOL    HW216284   6.186   0.172   2.114
 5129SOL     OW16285   6.206   6.770   0.816
 5129SOL    HW116286   6.157   6.845   0.861
 5129SOL    HW216287   6.161   6.749   0.729
 5130SOL     OW16288   6.712   4.531   2.976
 5130SOL    HW116289   6.705   4.457   3.043
 5130SOL    HW216290   6.765   4.499   2.897
 5131SOL     OW16291   2.509   2.443   2.703
 5131SOL    HW116292   2.502   2.485   2.612
 5131SOL    HW216293   2.440   2.484   2.763
 5132SOL     OW16294   3.237   5.789   5.385
 5132SOL    HW116295   3.172   5.754   5.318
 5132SOL    HW216296   3.236   5.889   5.383
 5133SOL     OW16297   3.929   6.080   5.347
 5133SOL    HW116298   3.900   6.102   5.254
 5133SOL    HW216299   3.932   6.164   5.401
 5134SOL     OW16300   6.591   4.407   7.007
 5134SOL    HW116301   6.624   4.322   6.965
 5134SOL    HW216302   6.495   4.395   0.012
 5135SOL     OW16303   5.493   1.881   4.496
 5135SOL    HW116304   5.479   1.803   4.557
 5135SOL    HW216305   5.590   1.905   4.494
 5136SOL     OW16306   4.252   0.938   4.546
 5136SOL    HW116307   4.324   0.967   4.609
 5136SOL    HW216308   4.162   0.953   4.588
 5137SOL     OW16309   3.508   4.129   0.247
 5137SOL    HW116310   3.526   4.037   0.214
 5137SOL    HW216311   3.457   4.180   0.178
 5138SOL     OW16312   2.404   3.253   5.917
 5138SOL    HW116313   2.455   3.167   5.925
 5138SOL    HW216314   2.309   3.238   5.946
 5139SOL     OW16315   0.874   0.328   3.334
 5139SOL    HW116316   0.879   0.378   3.247
 5139SOL    HW216317   0.784   0.283   3.341
 5140SOL     OW16318   3.783   3.084   1.728
 5140SOL    HW116319   3.770   2.999   1.779
 5140SOL    HW216320   3.801   3.063   1.632
 5141SOL     OW16321   6.703   3.673   5.926
 5141SOL    HW116322   6.705   3.766   5.890
 5141SOL    HW216323   6.752   3.670   6.013
 5142SOL     OW16324   5.187   3.352   3.718
 5142SOL    HW116325   5.220   3.260   3.696
 5142SOL    HW216326   5.122   3.347   3.794
 5143SOL     OW16327   6.946   4.678   4.371
 5143SOL    HW116328   6.965   4.583   4.396
 5143SOL    HW216329   0.009   4.726   4.353
 5144SOL     OW16330   2.083   1.299   4.653
 5144SOL    HW116331   2.003   1.291   4.712
 5144SOL    HW216332   2.054   1.314   4.559
 5145SOL     OW16333   3.546   5.718   6.183
 5145SOL    HW116334   3.631   5.755   6.146
 5145SOL    HW216335   3.521   5.635   6.134
 5146SOL     OW16336   2.315   4.114   0.170
 5146SOL    HW116337   2.335   4.201   0.125
 5146SOL    HW216338   2.285   4.047   0.102
 5147SOL     OW16339   6.528   5.252   0.023
 5147SOL    HW116340   6.603   5.227   6.985
 5147SOL    HW216341   6.561   5.315   0.094
 5148SOL     OW16342   0.598   6.998   1.780
 5148SOL    HW116343   0.577   6.900   1.788
 5148SOL    HW216344   0.586   0.019   1.870
 5149SOL     OW16345   6.550   1.140   5.618
 5149SOL    HW116346   6.571   1.053   5.573
 5149SOL    HW216347   6.451   1.150   5.627
 5150SOL     OW16348   1.396   5.208   4.056
 5150SOL    HW116349   1.466   5.138   4.042
 5150SOL    HW216350   1.381   5.257   3.971
 5151SOL     OW16351   4.219   1.261   6.251
 5151SOL    HW116352   4.318   1.275   6.258
 5151SOL    HW216353   4.176   1.286   6.338
 5152SOL     OW16354   0.976   5.145   0.128
 5152SOL    HW116355   0.954   5.201   0.048
 5152SOL    HW216356   0.974   5.202   0.211
 5153SOL     OW16357   1.598   1.946   1.042
 5153SOL    HW116358   1.650   1.910   0.965
 5153SOL    HW216359   1.585   2.045   1.031
 5154SOL     OW16360   2.216   3.129   4.657
 5154SOL    HW116361   2.233   3.155   4.752
 5154SOL    HW216362   2.287   3.067   4.626
 5155SOL     OW16363   3.489   0.755   2.196
 5155SOL    HW116364   3.504   0.764   2.294
 5155SOL    HW216365   3.391   0.759   2.177
 5156SOL     OW16366   5.867   3.182   5.788
 5156SOL    HW116367   5.908   3.116   5.851
 5156SOL    HW216368   5.844   3.266   5.838
 5157SOL     OW16369   5.752   3.011   4.005
 5157SOL    HW116370   5.729   3.066   3.925
 5157SOL    HW216371   5.835   3.048   4.048
 5158SOL     OW16372   3.930   0.942   0.578
 5158SOL    HW116373   4.017   0.943   0.628
 5158SOL    HW216374   3.903   0.848   0.561
 5159SOL     OW16375   1.469   2.915   4.398
 5159SOL    HW116376   1.380   2.872   4.386
 5159SOL    HW216377   1.541   2.846   4.392
 5160SOL     OW16378   2.404   2.684   4.211
 5160SOL    HW116379   2.462   2.605   4.227
 5160SOL    HW216380   2.410   2.746   4.290
 5161SOL     OW16381   1.438   3.256   6.543
 5161SOL    HW116382   1.451   3.351   6.570
 5161SOL    HW216383   1.510   3.200   6.584
 5162SOL     OW16384   6.140   6.130   5.248
 5162SOL    HW116385   6.228   6.140   5.295
 5162SOL    HW216386   6.156   6.105   5.153
 5163SOL     OW16387   5.310   3.438   0.882
 5163SOL    HW116388   5.378   3.380   0.928
 5163SOL    HW216389   5.280   3.394   0.798
 5164SOL     OW16390   6.034   5.196   6.027
 5164SOL    HW116391   6.099   5.121   6.038
 5164SOL    HW216392   6.001   5.224   6.117
 5165SOL     OW16393   6.546   4.217   3.991
 5165SOL    HW116394   6.508   4.162   3.917
 5165SOL    HW216395   6.580   4.157   4.063
 5166SOL     OW16396   1.226   0.352   1.875
 5166SOL    HW116397   1.180   0.292   1.809
 5166SOL    HW216398   1.303   0.303   1.917
 5167SOL     OW16399   1.011   6.793   5.850
 5167SOL    HW116400   1.033   6.889   5.831
 5167SOL    HW216401   0.923   6.788   5.898
 5168SOL     OW16402   3.776   1.868   3.090
 5168SOL    HW116403   3.771   1.784   3.037
 5168SOL    HW216404   3.687   1.914   3.088
 5169SOL     OW16405   3.603   4.496   6.386
 5169SOL    HW116406   3.688   4.488   6.335
 5169SOL    HW216407   3.570   4.404   6.410
 5170SOL     OW16408   4.875   4.383   4.225
 5170SOL    HW116409   4.857   4.286   4.214
 5170SOL    HW216410   4.944   4.396   4.296
 5171SOL     OW16411   2.630   4.707   4.772
 5171SOL    HW116412   2.559   4.656   4.724
 5171SOL    HW216413   2.648   4.664   4.860
 5172SOL     OW16414   1.983   4.890   0.578
 5172SOL    HW116415   2.017   4.810   0.528
 5172SOL    HW216416   1.902   4.926   0.532
 5173SOL     OW16417   5.812   4.120   6.066
 5173SOL    HW116418   5.748   4.153   6.136
 5173SOL    HW216419   5.788   4.159   5.978
 5174SOL     OW16420   1.264   4.477   5.655
 5174SOL    HW116421   1.347   4.454   5.706
 5174SOL    HW216422   1.276   4.451   5.559
 5175SOL     OW16423   0.538   4.913   6.444
 5175SOL    HW116424   0.523   4.832   6.389
 5175SOL    HW216425   0.475   4.985   6.416
 5176SOL     OW16426   5.246   3.562   6.845
 5176SOL    HW116427   5.194   3.514   6.916
 5176SOL    HW216428   5.287   3.496   6.783
 5177SOL     OW16429   5.683   6.688   6.662
 5177SOL    HW116430   5.657   6.593   6.679
 5177SOL    HW216431   5.665   6.711   6.566
 5178SOL     OW16432   2.812   1.915   1.791
 5178SOL    HW116433   2.871   1.878   1.720
 5178SOL    HW216434   2.725   1.945   1.751
 5179SOL     OW16435   2.975   5.878   5.698
 5179SOL    HW116436   2.933   5.959   5.657
 5179SOL    HW216437   2.950   5.797   5.645
 5180SOL     OW16438   3.333   2.400   0.569
 5180SOL    HW116439   3.374   2.378   0.657
 5180SOL    HW216440   3.317   2.315   0.518
 5181SOL     OW16441   3.278   5.491   2.479
 5181SOL    HW116442   3.284   5.548   2.396
 5181SOL    HW216443   3.287   5.548   2.560
 5182SOL     OW16444   4.823   4.428   1.622
 5182SOL    HW116445   4.734   4.425   1.669
 5182SOL    HW216446   4.809   4.437   1.524
 5183SOL     OW16447   4.067   0.540   2.856
 5183SOL    HW116448   4.107   0.450   2.873
 5183SOL    HW216449   4.140   0.606   2.840
 5184SOL     OW16450   0.910   1.982   3.423
 5184SOL    HW116451   0.949   1.898   3.386
 5184SOL    HW216452   0.914   2.054   3.354
 5185SOL     OW16453   3.849   0.009   2.363
 5185SOL    HW116454   3.930   0.067   2.370
 5185SOL    HW216455   3.862   6.948   2.417
 5186SOL     OW16456   6.279   4.175   0.489
 5186SOL    HW116457   6.364   4.187   0.539
 5186SOL    HW216458   6.254   4.261   0.445
 5187SOL     OW16459   4.929   1.827   4.200
 5187SOL    HW116460   4.831   1.809   4.197
 5187SOL    HW216461   4.978   1.755   4.151
 5188SOL     OW16462   0.795   3.070   5.080
 5188SOL    HW116463   0.802   3.162   5.040
 5188SOL    HW216464   0.699   3.045   5.089
 5189SOL     OW16465   4.847   5.307   6.481
 5189SOL    HW116466   4.869   5.301   6.578
 5189SOL    HW216467   4.754   5.344   6.470
 5190SOL     OW16468   1.458   2.573   3.546
 5190SOL    HW116469   1.374   2.518   3.546
 5190SOL    HW216470   1.535   2.514   3.571
 5191SOL     OW16471   4.013   0.696   1.471
 5191SOL    HW116472   4.031   0.773   1.410
 5191SOL    HW216473   4.025   0.725   1.566
 5192SOL     OW16474   6.010   4.048   2.153
 5192SOL    HW116475   5.942   4.113   2.187
 5192SOL    HW216476   6.017   3.971   2.216
 5193SOL     OW16477   4.896   3.669   2.812
 5193SOL    HW116478   4.874   3.571   2.812
 5193SOL    HW216479   4.938   3.693   2.900
 5194SOL     OW16480   5.916   1.633   6.047
 5194SOL    HW116481   5.853   1.557   6.062
 5194SOL    HW216482   5.976   1.644   6.127
 5195SOL     OW16483   6.307   6.755   5.481
 5195SOL    HW116484   6.332   6.840   5.435
 5195SOL    HW216485   6.389   6.709   5.513
 5196SOL     OW16486   0.837   3.099   1.918
 5196SOL    HW116487   0.787   3.132   1.838
 5196SOL    HW216488   0.921   3.152   1.929
 5197SOL     OW16489   3.379   6.047   4.925
 5197SOL    HW116490   3.349   5.977   4.990
 5197SOL    HW216491   3.479   6.051   4.925
 5198SOL     OW16492   4.283   0.221   5.712
 5198SOL    HW116493   4.201   0.182   5.755
 5198SOL    HW216494   4.315   0.160   5.640
 5199SOL     OW16495   0.897   5.049   1.876
 5199SOL    HW116496   0.874   5.002   1.791
 5199SOL    HW216497   0.892   4.984   1.952
 5200SOL     OW16498   0.212   0.360   5.185
 5200SOL    HW116499   0.279   0.371   5.111
 5200SOL    HW216500   0.125   0.400   5.157
 5201SOL     OW16501   6.157   4.622   5.196
 5201SOL    HW116502   6.237   4.586   5.149
 5201SOL    HW216503   6.075   4.608   5.140
 5202SOL     OW16504   3.747   2.856   5.494
 5202SOL    HW116505   3.710   2.764   5.479
 5202SOL    HW216506   3.684   2.924   5.458
 5203SOL     OW16507   1.682   0.482   6.670
 5203SOL    HW116508   1.641   0.414   6.732
 5203SOL    HW216509   1.751   0.437   6.613
 5204SOL     OW16510   2.751   0.494   1.148
 5204SOL    HW116511   2.772   0.419   1.086
 5204SOL    HW216512   2.675   0.467   1.208
 5205SOL     OW16513   6.940   6.490   0.539
 5205SOL    HW116514   6.845   6.470   0.563
 5205SOL    HW216515   6.970   6.430   0.466
 5206SOL     OW16516   1.043   5.039   3.591
 5206SOL    HW116517   1.064   5.028   3.494
 5206SOL    HW216518   1.031   5.136   3.612
 5207SOL     OW16519   6.588   6.779   3.789
 5207SOL    HW116520   6.516   6.846   3.803
 5207SOL    HW216521   6.627   6.753   3.877
 5208SOL     OW16522   5.907   1.774   0.606
 5208SOL    HW116523   5.952   1.856   0.642
 5208SOL    HW216524   5.916   1.699   0.671
 5209SOL     OW16525   5.937   6.330   3.328
 5209SOL    HW116526   5.883   6.410   3.353
 5209SOL    HW216527   5.912   6.253   3.386
 5210SOL     OW16528   5.609   4.319   0.461
 5210SOL    HW116529   5.522   4.368   0.465
 5210SOL    HW216530   5.637   4.311   0.365
 5211SOL     OW16531   5.838   2.430   5.229
 5211SOL    HW116532   5.853   2.411   5.132
 5211SOL    HW216533   5.746   2.467   5.242
 5212SOL     OW16534   0.676   3.385   0.134
 5212SOL    HW116535   0.764   3.415   0.170
 5212SOL    HW216536   0.681   3.289   0.109
 5213SOL     OW16537   3.818   3.453   3.241
 5213SOL    HW116538   3.768   3.526   3.289
 5213SOL    HW216539   3.915   3.460   3.262
 5214SOL     OW16540   5.738   3.386   5.455
 5214SOL    HW116541   5.789   3.451   5.398
 5214SOL    HW216542   5.719   3.428   5.544
 5215SOL     OW16543   0.761   3.849   4.955
 5215SOL    HW116544   0.859   3.867   4.956
 5215SOL    HW216545   0.745   3.752   4.937
 5216SOL     OW16546   5.445   5.359   1.179
 5216SOL    HW116547   5.505   5.279   1.187
 5216SOL    HW216548   5.351   5.329   1.167
 5217SOL     OW16549   4.747   6.096   3.132
 5217SOL    HW116550   4.840   6.091   3.168
 5217SOL    HW216551   4.748   6.135   3.040
 5218SOL     OW16552   6.358   0.469   0.415
 5218SOL    HW116553   6.298   0.509   0.485
 5218SOL    HW216554   6.416   0.540   0.375
 5219SOL     OW16555   3.403   1.135   5.310
 5219SOL    HW116556   3.412   1.113   5.213
 5219SOL    HW216557   3.317   1.097   5.345
 5220SOL     OW16558   2.236   5.483   4.508
 5220SOL    HW116559   2.235   5.532   4.421
 5220SOL    HW216560   2.224   5.547   4.583
 5221SOL     OW16561   6.090   5.522   1.183
 5221SOL    HW116562   6.056   5.429   1.168
 5221SOL    HW216563   6.187   5.518   1.206
 5222SOL     OW16564   6.452   3.753   1.410
 5222SOL    HW116565   6.487   3.690   1.340
 5222SOL    HW216566   6.525   3.816   1.437
 5223SOL     OW16567   0.121   3.122   0.661
 5223SOL    HW116568   0.143   3.203   0.714
 5223SOL    HW216569   0.142   3.139   0.564
 5224SOL     OW16570   0.330   2.062   4.797
 5224SOL    HW116571   0.375   2.149   4.818
 5224SOL    HW216572   0.304   2.062   4.700
 5225SOL     OW16573   6.739   1.664   4.149
 5225SOL    HW116574   6.746   1.726   4.071
 5225SOL    HW216575   6.825   1.666   4.200
 5226SOL     OW16576   0.370   6.287   3.807
 5226SOL    HW116577   0.422   6.202   3.812
 5226SOL    HW216578   0.333   6.299   3.715
 5227SOL     OW16579   0.401   3.716   5.701
 5227SOL    HW116580   0.361   3.624   5.696
 5227SOL    HW216581   0.366   3.763   5.782
 5228SOL     OW16582   1.076   1.243   5.263
 5228SOL    HW116583   1.066   1.296   5.348
 5228SOL    HW216584   1.076   1.305   5.185
 5229SOL     OW16585   3.255   1.876   6.341
 5229SOL    HW116586   3.176   1.922   6.382
 5229SOL    HW216587   3.231   1.845   6.249
 5230SOL     OW16588   0.208   6.823   1.943
 5230SOL    HW116589   0.250   6.911   1.922
 5230SOL    HW216590   0.111   6.836   1.962
 5231SOL     OW16591   6.481   3.081   1.885
 5231SOL    HW116592   6.566   3.131   1.873
 5231SOL    HW216593   6.413   3.141   1.929
 5232SOL     OW16594   2.152   2.406   5.976
 5232SOL    HW116595   2.096   2.447   6.048
 5232SOL    HW216596   2.093   2.378   5.900
 5233SOL     OW16597   2.819   6.357   2.570
 5233SOL    HW116598   2.745   6.345   2.505
 5233SOL    HW216599   2.880   6.430   2.539
 5234SOL     OW16600   3.502   2.170   6.401
 5234SOL    HW116601   3.467   2.165   6.308
 5234SOL    HW216602   3.430   2.144   6.466
 5235SOL     OW16603   2.447   1.772   1.401
 5235SOL    HW116604   2.526   1.751   1.458
 5235SOL    HW216605   2.475   1.830   1.325
 5236SOL     OW16606   3.300   5.349   1.307
 5236SOL    HW116607   3.318   5.340   1.405
 5236SOL    HW216608   3.275   5.444   1.286
 5237SOL     OW16609   1.769   2.208   2.674
 5237SOL    HW116610   1.691   2.162   2.716
 5237SOL    HW216611   1.853   2.183   2.721
 5238SOL     OW16612   0.553   6.818   2.614
 5238SOL    HW116613   0.532   6.720   2.618
 5238SOL    HW216614   0.636   6.837   2.666
 5239SOL     OW16615   2.453   3.632   1.110
 5239SOL    HW116616   2.550   3.608   1.119
 5239SOL    HW216617   2.445   3.717   1.056
 5240SOL     OW16618   2.347   4.267   5.618
 5240SOL    HW116619   2.411   4.205   5.663
 5240SOL    HW216620   2.294   4.217   5.549
 5241SOL     OW16621   0.910   6.598   2.408
 5241SOL    HW116622   0.921   6.547   2.322
 5241SOL    HW216623   0.934   6.539   2.485
 5242SOL     OW16624   4.396   0.958   6.377
 5242SOL    HW116625   4.390   1.046   6.424
 5242SOL    HW216626   4.385   0.972   6.279
 5243SOL     OW16627   2.597   6.115   2.028
 5243SOL    HW116628   2.611   6.099   2.126
 5243SOL    HW216629   2.506   6.083   2.003
 5244SOL     OW16630   4.847   1.275   0.273
 5244SOL    HW116631   4.748   1.285   0.265
 5244SOL    HW216632   4.890   1.364   0.261
 5245SOL     OW16633   3.342   3.947   1.573
 5245SOL    HW116634   3.244   3.929   1.559
 5245SOL    HW216635   3.388   3.951   1.485
 5246SOL     OW16636   6.554   4.113   5.936
 5246SOL    HW116637   6.484   4.076   5.875
 5246SOL    HW216638   6.569   4.210   5.916
 5247SOL     OW16639   4.247   1.728   6.322
 5247SOL    HW116640   4.285   1.820   6.319
 5247SOL    HW216641   4.148   1.733   6.310
 5248SOL     OW16642   5.606   1.084   3.670
 5248SOL    HW116643   5.687   1.138   3.695
 5248SOL    HW216644   5.524   1.128   3.706
 5249SOL     OW16645   0.236   4.655   0.648
 5249SOL    HW116646   0.213   4.558   0.638
 5249SOL    HW216647   0.236   4.699   0.558
 5250SOL     OW16648   2.002   5.378   1.333
 5250SOL    HW116649   1.934   5.374   1.259
 5250SOL    HW216650   1.994   5.296   1.390
 5251SOL     OW16651   0.580   5.151   0.684
 5251SOL    HW116652   0.520   5.147   0.604
 5251SOL    HW216653   0.640   5.072   0.684
 5252SOL     OW16654   3.930   6.111   2.406
 5252SOL    HW116655   3.898   6.136   2.497
 5252SOL    HW216656   3.918   6.189   2.344
 5253SOL     OW16657   6.618   6.137   4.760
 5253SOL    HW116658   6.522   6.109   4.757
 5253SOL    HW216659   6.658   6.109   4.848
 5254SOL     OW16660   5.071   6.561   3.386
 5254SOL    HW116661   5.106   6.502   3.313
 5254SOL    HW216662   5.138   6.632   3.407
 5255SOL     OW16663   6.342   1.505   5.055
 5255SOL    HW116664   6.394   1.552   5.126
 5255SOL    HW216665   6.405   1.463   4.990
 5256SOL     OW16666   6.661   1.605   2.189
 5256SOL    HW116667   6.712   1.672   2.134
 5256SOL    HW216668   6.592   1.562   2.131
 5257SOL     OW16669   4.318   1.686   6.044
 5257SOL    HW116670   4.272   1.600   6.024
 5257SOL    HW216671   4.324   1.699   6.143
 5258SOL     OW16672   4.316   1.258   3.851
 5258SOL    HW116673   4.360   1.345   3.877
 5258SOL    HW216674   4.380   1.183   3.866
 5259SOL     OW16675   6.053   4.743   3.704
 5259SOL    HW116676   6.047   4.646   3.725
 5259SOL    HW216677   6.136   4.760   3.650
 5260SOL     OW16678   1.807   0.321   0.998
 5260SOL    HW116679   1.774   0.414   1.011
 5260SOL    HW216680   1.755   0.258   1.055
 5261SOL     OW16681   5.574   4.600   6.468
 5261SOL    HW116682   5.661   4.564   6.503
 5261SOL    HW216683   5.514   4.623   6.545
 5262SOL     OW16684   1.496   1.646   2.532
 5262SOL    HW116685   1.479   1.613   2.440
 5262SOL    HW216686   1.519   1.743   2.530
 5263SOL     OW16687   1.568   6.526   2.244
 5263SOL    HW116688   1.627   6.484   2.312
 5263SOL    HW216689   1.591   6.492   2.153
 5264SOL     OW16690   6.539   1.575   1.609
 5264SOL    HW116691   6.601   1.527   1.548
 5264SOL    HW216692   6.590   1.642   1.663
 5265SOL     OW16693   7.019   5.051   5.356
 5265SOL    HW116694   0.043   4.971   5.392
 5265SOL    HW216695   6.948   5.081   5.420
 5266SOL     OW16696   1.505   0.544   6.281
 5266SOL    HW116697   1.464   0.551   6.372
 5266SOL    HW216698   1.495   0.632   6.233
 5267SOL     OW16699   5.122   2.442   4.159
 5267SOL    HW116700   5.082   2.481   4.241
 5267SOL    HW216701   5.190   2.505   4.121
 5268SOL     OW16702   5.491   0.360   5.913
 5268SOL    HW116703   5.514   0.388   6.006
 5268SOL    HW216704   5.569   0.313   5.872
 5269SOL     OW16705   0.340   6.999   3.587
 5269SOL    HW116706   0.282   0.002   3.664
 5269SOL    HW216707   0.286   7.002   3.502
 5270SOL     OW16708   0.826   1.357   6.423
 5270SOL    HW116709   0.844   1.418   6.500
 5270SOL    HW216710   0.727   1.344   6.415
 5271SOL     OW16711   1.063   4.919   2.925
 5271SOL    HW116712   1.083   5.014   2.949
 5271SOL    HW216713   1.030   4.870   3.006
 5272SOL     OW16714   4.463   0.037   6.817
 5272SOL    HW116715   4.492   6.978   6.867
 5272SOL    HW216716   4.538   0.068   6.758
 5273SOL     OW16717   2.374   1.659   2.383
 5273SOL    HW116718   2.357   1.561   2.370
 5273SOL    HW216719   2.455   1.671   2.441
 5274SOL     OW16720   5.343   4.944   1.142
 5274SOL    HW116721   5.322   5.040   1.160
 5274SOL    HW216722   5.405   4.909   1.212
 5275SOL     OW16723   4.630   1.927   6.438
 5275SOL    HW116724   4.579   1.849   6.404
 5275SOL    HW216725   4.587   2.012   6.406
 5276SOL     OW16726   4.387   6.423   2.007
 5276SOL    HW116727   4.292   6.433   1.975
 5276SOL    HW216728   4.447   6.480   1.950
 5277SOL     OW16729   1.914   3.242   1.934
 5277SOL    HW116730   1.900   3.190   2.018
 5277SOL    HW216731   1.968   3.324   1.954
 5278SOL     OW16732   4.154   3.679   1.504
 5278SOL    HW116733   4.194   3.690   1.595
 5278SOL    HW216734   4.228   3.678   1.436
 5279SOL     OW16735   1.993   6.160   2.344
 5279SOL    HW116736   1.986   6.065   2.375
 5279SOL    HW216737   2.029   6.217   2.417
 5280SOL     OW16738   4.466   6.964   5.597
 5280SOL    HW116739   4.552   6.999   5.559
 5280SOL    HW216740   4.393   6.973   5.528
 5281SOL     OW16741   0.118   2.924   3.122
 5281SOL    HW116742   0.043   2.895   3.181
 5281SOL    HW216743   0.110   3.021   3.101
 5282SOL     OW16744   4.897   1.404   1.896
 5282SOL    HW116745   4.923   1.419   1.991
 5282SOL    HW216746   4.979   1.406   1.839
 5283SOL     OW16747   5.395   5.162   6.097
 5283SOL    HW116748   5.447   5.080   6.119
 5283SOL    HW216749   5.333   5.142   6.020
 5284SOL     OW16750   4.779   2.290   3.241
 5284SOL    HW116751   4.803   2.323   3.332
 5284SOL    HW216752   4.856   2.304   3.179
 5285SOL     OW16753   3.794   5.714   2.272
 5285SOL    HW116754   3.804   5.616   2.257
 5285SOL    HW216755   3.775   5.731   2.369
 5286SOL     OW16756   2.797   5.297   2.157
 5286SOL    HW116757   2.736   5.360   2.108
 5286SOL    HW216758   2.764   5.203   2.146
 5287SOL     OW16759   0.650   1.977   2.081
 5287SOL    HW116760   0.654   2.014   1.988
 5287SOL    HW216761   0.576   2.020   2.131
 5288SOL     OW16762   4.191   1.055   0.676
 5288SOL    HW116763   4.222   1.129   0.736
 5288SOL    HW216764   4.257   1.043   0.602
 5289SOL     OW16765   2.527   6.217   0.739
 5289SOL    HW116766   2.514   6.264   0.826
 5289SOL    HW216767   2.617   6.242   0.701
 5290SOL     OW16768   4.713   6.014   0.798
 5290SOL    HW116769   4.666   5.943   0.851
 5290SOL    HW216770   4.788   6.052   0.851
 5291SOL     OW16771   1.423   4.899   6.530
 5291SOL    HW116772   1.465   4.815   6.564
 5291SOL    HW216773   1.460   4.920   6.440
 5292SOL     OW16774   5.128   2.328   6.584
 5292SOL    HW116775   5.103   2.289   6.496
 5292SOL    HW216776   5.167   2.257   6.643
 5293SOL     OW16777   1.343   1.213   4.030
 5293SOL    HW116778   1.273   1.258   3.975
 5293SOL    HW216779   1.321   1.221   4.127
 5294SOL     OW16780   4.789   2.585   5.248
 5294SOL    HW116781   4.755   2.540   5.330
 5294SOL    HW216782   4.855   2.656   5.274
 5295SOL     OW16783   5.568   1.078   2.049
 5295SOL    HW116784   5.607   1.138   2.118
 5295SOL    HW216785   5.484   1.118   2.013
 5296SOL     OW16786   0.240   3.423   0.395
 5296SOL    HW116787   0.279   3.446   0.484
 5296SOL    HW216788   0.176   3.347   0.405
 5297SOL     OW16789   1.382   2.975   2.471
 5297SOL    HW116790   1.452   3.046   2.479
 5297SOL    HW216791   1.412   2.893   2.518
 5298SOL     OW16792   1.238   5.710   1.470
 5298SOL    HW116793   1.139   5.718   1.457
 5298SOL    HW216794   1.281   5.799   1.456
 5299SOL     OW16795   3.243   0.552   1.433
 5299SOL    HW116796   3.275   0.629   1.487
 5299SOL    HW216797   3.319   0.513   1.381
 5300SOL     OW16798   6.623   5.207   3.740
 5300SOL    HW116799   6.672   5.203   3.653
 5300SOL    HW216800   6.531   5.244   3.724
 5301SOL     OW16801   4.910   0.280   0.504
 5301SOL    HW116802   4.813   0.293   0.526
 5301SOL    HW216803   4.957   0.241   0.583
 5302SOL     OW16804   6.505   4.494   3.511
 5302SOL    HW116805   6.522   4.445   3.426
 5302SOL    HW216806   6.432   4.448   3.562
 5303SOL     OW16807   0.919   5.511   2.908
 5303SOL    HW116808   1.006   5.559   2.903
 5303SOL    HW216809   0.844   5.575   2.894
 5304SOL     OW16810   5.009   2.143   5.146
 5304SOL    HW116811   5.031   2.174   5.238
 5304SOL    HW216812   4.936   2.200   5.108
 5305SOL     OW16813   2.390   0.997   2.714
 5305SOL    HW116814   2.441   1.072   2.757
 5305SOL    HW216815   2.295   1.001   2.744
 5306SOL     OW16816   3.098   6.965   4.906
 5306SOL    HW116817   3.051   0.007   4.847
 5306SOL    HW216818   3.158   7.015   4.969
 5307SOL     OW16819   4.535   6.765   6.920
 5307SOL    HW116820   4.589   6.714   6.853
 5307SOL    HW216821   4.451   6.715   6.940
 5308SOL     OW16822   0.086   1.305   2.217
 5308SOL    HW116823   0.098   1.316   2.118
 5308SOL    HW216824   0.006   1.357   2.247
 5309SOL     OW16825   3.422   4.162   4.637
 5309SOL    HW116826   3.376   4.160   4.549
 5309SOL    HW216827   3.520   4.178   4.624
 5310SOL     OW16828   5.649   1.937   0.511
 5310SOL    HW116829   5.589   2.013   0.537
 5310SOL    HW216830   5.705   1.965   0.433
 5311SOL     OW16831   1.279   6.172   6.846
 5311SOL    HW116832   1.336   6.169   6.928
 5311SOL    HW216833   1.318   6.238   6.781
 5312SOL     OW16834   0.284   3.019   1.670
 5312SOL    HW116835   0.190   3.046   1.648
 5312SOL    HW216836   0.284   2.954   1.746
 5313SOL     OW16837   1.307   6.046   0.629
 5313SOL    HW116838   1.394   6.010   0.594
 5313SOL    HW216839   1.243   5.971   0.644
 5314SOL     OW16840   3.549   4.885   0.948
 5314SOL    HW116841   3.607   4.906   1.027
 5314SOL    HW216842   3.459   4.928   0.960
 5315SOL     OW16843   5.321   2.747   1.695
 5315SOL    HW116844   5.345   2.668   1.751
 5315SOL    HW216845   5.228   2.776   1.717
 5316SOL     OW16846   6.030   5.283   4.534
 5316SOL    HW116847   5.948   5.227   4.546
 5316SOL    HW216848   6.038   5.309   4.438
 5317SOL     OW16849   6.049   5.370   3.122
 5317SOL    HW116850   6.048   5.451   3.063
 5317SOL    HW216851   6.013   5.394   3.212
 5318SOL     OW16852   0.545   2.021   4.356
 5318SOL    HW116853   0.553   2.114   4.392
 5318SOL    HW216854   0.533   1.957   4.431
 5319SOL     OW16855   3.483   0.187   1.188
 5319SOL    HW116856   3.503   0.165   1.284
 5319SOL    HW216857   3.386   0.172   1.170
 5320SOL     OW16858   6.372   4.043   5.181
 5320SOL    HW116859   6.403   4.078   5.269
 5320SOL    HW216860   6.273   4.036   5.181
 5321SOL     OW16861   1.780   5.032   6.431
 5321SOL    HW116862   1.715   4.973   6.383
 5321SOL    HW216863   1.822   4.981   6.506
 5322SOL     OW16864   2.793   6.060   0.682
 5322SOL    HW116865   2.798   5.963   0.709
 5322SOL    HW216866   2.775   6.066   0.584
 5323SOL     OW16867   5.745   3.611   0.357
 5323SOL    HW116868   5.835   3.649   0.380
 5323SOL    HW216869   5.736   3.607   0.257
 5324SOL     OW16870   3.930   3.330   1.393
 5324SOL    HW116871   3.971   3.319   1.484
 5324SOL    HW216872   3.881   3.417   1.388
 5325SOL     OW16873   4.380   6.195   4.663
 5325SOL    HW116874   4.340   6.195   4.572
 5325SOL    HW216875   4.403   6.101   4.690
 5326SOL     OW16876   0.149   0.103   2.483
 5326SOL    HW116877   0.164   0.200   2.466
 5326SOL    HW216878   0.081   0.093   2.555
 5327SOL     OW16879   6.825   0.382   4.208
 5327SOL    HW116880   6.793   0.368   4.114
 5327SOL    HW216881   6.816   0.478   4.233
 5328SOL     OW16882   4.122   4.740   0.615
 5328SOL    HW116883   4.201   4.712   0.669
 5328SOL    HW216884   4.112   4.840   0.620
 5329SOL     OW16885   6.937   5.906   0.195
 5329SOL    HW116886   6.864   5.840   0.180
 5329SOL    HW216887   6.905   5.980   0.253
 5330SOL     OW16888   3.746   4.715   0.370
 5330SOL    HW116889   3.714   4.630   0.411
 5330SOL    HW216890   3.748   4.787   0.439
 5331SOL     OW16891   5.220   2.578   6.537
 5331SOL    HW116892   5.173   2.634   6.606
 5331SOL    HW216893   5.188   2.484   6.543
 5332SOL     OW16894   5.437   3.304   6.834
 5332SOL    HW116895   5.508   3.348   6.779
 5332SOL    HW216896   5.471   3.216   6.867
 5333SOL     OW16897   1.745   1.825   4.581
 5333SOL    HW116898   1.807   1.858   4.652
 5333SOL    HW216899   1.653   1.814   4.620
 5334SOL     OW16900   3.140   6.213   1.563
 5334SOL    HW116901   3.167   6.239   1.655
 5334SOL    HW216902   3.193   6.265   1.496
 5335SOL     OW16903   0.460   4.840   1.634
 5335SOL    HW116904   0.426   4.870   1.723
 5335SOL    HW216905   0.391   4.858   1.564
 5336SOL     OW16906   1.786   3.019   5.163
 5336SOL    HW116907   1.788   3.104   5.111
 5336SOL    HW216908   1.783   2.942   5.099
 5337SOL     OW16909   0.203   4.167   0.924
 5337SOL    HW116910   0.271   4.108   0.881
 5337SOL    HW216911   0.199   4.254   0.874
 5338SOL     OW16912   6.604   3.955   0.470
 5338SOL    HW116913   6.628   3.908   0.385
 5338SOL    HW216914   6.545   3.895   0.525
 5339SOL     OW16915   5.403   3.267   2.198
 5339SOL    HW116916   5.460   3.189   2.170
 5339SOL    HW216917   5.352   3.301   2.119
 5340SOL     OW16918   4.687   3.448   1.748
 5340SOL    HW116919   4.615   3.379   1.753
 5340SOL    HW216920   4.773   3.404   1.722
 5341SOL     OW16921   4.714   4.680   3.507
 5341SOL    HW116922   4.672   4.603   3.457
 5341SOL    HW216923   4.693   4.671   3.605
 5342SOL     OW16924   5.886   5.762   5.172
 5342SOL    HW116925   5.928   5.771   5.081
 5342SOL    HW216926   5.956   5.736   5.238
 5343SOL     OW16927   3.928   3.349   6.333
 5343SOL    HW116928   3.835   3.330   6.364
 5343SOL    HW216929   3.993   3.313   6.401
 5344SOL     OW16930   0.324   1.639   6.805
 5344SOL    HW116931   0.370   1.711   6.753
 5344SOL    HW216932   0.239   1.676   6.845
 5345SOL     OW16933   5.018   1.332   6.352
 5345SOL    HW116934   4.993   1.349   6.447
 5345SOL    HW216935   4.993   1.238   6.327
 5346SOL     OW16936   3.065   5.574   3.086
 5346SOL    HW116937   3.106   5.659   3.052
 5346SOL    HW216938   2.997   5.596   3.156
 5347SOL     OW16939   5.306   1.281   4.194
 5347SOL    HW116940   5.210   1.290   4.166
 5347SOL    HW216941   5.322   1.338   4.275
 5348SOL     OW16942   5.023   2.779   4.970
 5348SOL    HW116943   5.101   2.800   4.911
 5348SOL    HW216944   4.947   2.746   4.914
 5349SOL     OW16945   0.964   3.521   1.968
 5349SOL    HW116946   0.883   3.462   1.970
 5349SOL    HW216947   1.010   3.511   1.879
 5350SOL     OW16948   0.903   6.680   6.733
 5350SOL    HW116949   0.884   6.764   6.682
 5350SOL    HW216950   0.871   6.691   6.827
 5351SOL     OW16951   6.614   5.860   3.138
 5351SOL    HW116952   6.542   5.886   3.203
 5351SOL    HW216953   6.662   5.779   3.173
 5352SOL     OW16954   1.228   2.811   5.841
 5352SOL    HW116955   1.136   2.772   5.841
 5352SOL    HW216956   1.222   2.911   5.835
 5353SOL     OW16957   4.189   4.856   3.369
 5353SOL    HW116958   4.215   4.948   3.342
 5353SOL    HW216959   4.235   4.790   3.309
 5354SOL     OW16960   3.567   5.769   1.409
 5354SOL    HW116961   3.577   5.699   1.338
 5354SOL    HW216962   3.618   5.741   1.490
 5355SOL     OW16963   4.985   5.724   5.007
 5355SOL    HW116964   4.913   5.735   5.076
 5355SOL    HW216965   5.069   5.694   5.052
 5356SOL     OW16966   1.143   6.247   0.756
 5356SOL    HW116967   1.196   6.168   0.726
 5356SOL    HW216968   1.110   6.298   0.676
 5357SOL     OW16969   6.670   3.720   2.623
 5357SOL    HW116970   6.723   3.684   2.700
 5357SOL    HW216971   6.731   3.766   2.559
 5358SOL     OW16972   5.232   1.140   6.500
 5358SOL    HW116973   5.317   1.088   6.494
 5358SOL    HW216974   5.205   1.170   6.408
 5359SOL     OW16975   3.345   2.455   6.906
 5359SOL    HW116976   3.439   2.489   6.904
 5359SOL    HW216977   3.284   2.522   6.866
 5360SOL     OW16978   5.472   5.262   4.096
 5360SOL    HW116979   5.437   5.291   4.185
 5360SOL    HW216980   5.495   5.165   4.100
 5361SOL     OW16981   1.324   5.055   3.111
 5361SOL    HW116982   1.408   5.069   3.058
 5361SOL    HW216983   1.252   5.116   3.076
 5362SOL     OW16984   5.889   1.555   2.962
 5362SOL    HW116985   5.854   1.507   2.881
 5362SOL    HW216986   5.852   1.513   3.044
 5363SOL     OW16987   5.285   5.675   3.550
 5363SOL    HW116988   5.306   5.593   3.602
 5363SOL    HW216989   5.368   5.710   3.507
 5364SOL     OW16990   4.156   2.170   2.328
 5364SOL    HW116991   4.076   2.155   2.270
 5364SOL    HW216992   4.127   2.208   2.416
 5365SOL     OW16993   2.875   3.577   4.871
 5365SOL    HW116994   2.934   3.611   4.944
 5365SOL    HW216995   2.784   3.558   4.908
 5366SOL     OW16996   6.398   5.988   3.316
 5366SOL    HW116997   6.392   6.030   3.407
 5366SOL    HW216998   6.351   5.899   3.317
 5367SOL     OW16999   6.215   6.003   1.356
 5367SOL    HW117000   6.183   5.966   1.270
 5367SOL    HW217001   6.144   6.062   1.396
 5368SOL     OW17002   0.187   6.145   4.417
 5368SOL    HW117003   0.111   6.086   4.390
 5368SOL    HW217004   0.257   6.091   4.464
 5369SOL     OW17005   4.158   5.887   2.747
 5369SOL    HW117006   4.185   5.855   2.657
 5369SOL    HW217007   4.131   5.983   2.741
 5370SOL     OW17008   1.974   2.785   0.781
 5370SOL    HW117009   1.976   2.832   0.693
 5370SOL    HW217010   2.023   2.698   0.774
 5371SOL     OW17011   6.092   5.706   4.877
 5371SOL    HW117012   6.177   5.756   4.857
 5371SOL    HW217013   6.100   5.612   4.844
 5372SOL     OW17014   1.902   6.856   3.217
 5372SOL    HW117015   1.809   6.852   3.179
 5372SOL    HW217016   1.927   6.952   3.233
 5373SOL     OW17017   2.479   1.081   6.362
 5373SOL    HW117018   2.412   1.048   6.295
 5373SOL    HW217019   2.564   1.031   6.351
 5374SOL     OW17020   1.344   3.859   1.301
 5374SOL    HW117021   1.377   3.808   1.381
 5374SOL    HW217022   1.400   3.836   1.222
 5375SOL     OW17023   2.510   4.408   5.319
 5375SOL    HW117024   2.530   4.310   5.326
 5375SOL    HW217025   2.456   4.436   5.399
 5376SOL     OW17026   0.912   0.192   6.922
 5376SOL    HW117027   0.922   0.094   6.908
 5376SOL    HW217028   1.002   0.236   6.916
 5377SOL     OW17029   1.367   2.048   3.186
 5377SOL    HW117030   1.350   2.130   3.131
 5377SOL    HW217031   1.368   2.072   3.283
 5378SOL     OW17032   4.728   6.698   2.547
 5378SOL    HW117033   4.797   6.632   2.577
 5378SOL    HW217034   4.687   6.667   2.461
 5379SOL     OW17035   2.123   1.775   3.755
 5379SOL    HW117036   2.199   1.812   3.809
 5379SOL    HW217037   2.080   1.700   3.806
 5380SOL     OW17038   4.351   5.806   1.245
 5380SOL    HW117039   4.427   5.859   1.209
 5380SOL    HW217040   4.385   5.720   1.284
 5381SOL     OW17041   3.187   0.835   3.271
 5381SOL    HW117042   3.124   0.912   3.283
 5381SOL    HW217043   3.281   0.867   3.285
 5382SOL     OW17044   4.251   1.099   2.781
 5382SOL    HW117045   4.185   1.071   2.711
 5382SOL    HW217046   4.335   1.046   2.773
 5383SOL     OW17047   2.326   2.775   4.578
 5383SOL    HW117048   2.308   2.789   4.675
 5383SOL    HW217049   2.416   2.732   4.566
 5384SOL     OW17050   5.375   5.805   6.060
 5384SOL    HW117051   5.360   5.800   6.159
 5384SOL    HW217052   5.311   5.871   6.020
 5385SOL     OW17053   4.160   3.676   6.752
 5385SOL    HW117054   4.119   3.603   6.698
 5385SOL    HW217055   4.188   3.640   6.841
 5386SOL     OW17056   4.466   4.905   4.110
 5386SOL    HW117057   4.457   4.832   4.177
 5386SOL    HW217058   4.429   4.875   4.022
 5387SOL     OW17059   1.005   2.077   4.343
 5387SOL    HW117060   1.012   1.984   4.380
 5387SOL    HW217061   0.941   2.130   4.397
 5388SOL     OW17062   6.785   6.468   4.143
 5388SOL    HW117063   6.872   6.468   4.095
 5388SOL    HW217064   6.724   6.400   4.103
 5389SOL     OW17065   5.295   1.009   4.166
 5389SOL    HW117066   5.377   0.982   4.216
 5389SOL    HW217067   5.307   1.100   4.128
 5390SOL     OW17068   6.810   3.913   3.380
 5390SOL    HW117069   6.766   3.930   3.291
 5390SOL    HW217070   6.839   3.818   3.385
 5391SOL     OW17071   3.474   2.684   1.421
 5391SOL    HW117072   3.443   2.589   1.424
 5391SOL    HW217073   3.424   2.738   1.488
 5392SOL     OW17074   5.352   0.774   4.424
 5392SOL    HW117075   5.390   0.755   4.515
 5392SOL    HW217076   5.267   0.724   4.413
 5393SOL     OW17077   3.952   1.364   4.057
 5393SOL    HW117078   3.855   1.381   4.039
 5393SOL    HW217079   4.005   1.447   4.040
 5394SOL     OW17080   7.013   2.672   1.711
 5394SOL    HW117081   6.948   2.616   1.763
 5394SOL    HW217082   7.000   2.768   1.733
 5395SOL     OW17083   0.301   1.834   0.554
 5395SOL    HW117084   0.395   1.858   0.528
 5395SOL    HW217085   0.255   1.915   0.590
 5396SOL     OW17086   3.771   3.210   0.893
 5396SOL    HW117087   3.827   3.133   0.860
 5396SOL    HW217088   3.713   3.243   0.819
 5397SOL     OW17089   6.563   0.310   2.536
 5397SOL    HW117090   6.626   0.363   2.479
 5397SOL    HW217091   6.525   0.234   2.482
 5398SOL     OW17092   6.747   3.102   2.935
 5398SOL    HW117093   6.746   3.030   3.004
 5398SOL    HW217094   6.670   3.091   2.873
 5399SOL     OW17095   1.978   3.320   1.108
 5399SOL    HW117096   2.018   3.408   1.084
 5399SOL    HW217097   2.020   3.248   1.053
 5400SOL     OW17098   4.292   3.227   1.336
 5400SOL    HW117099   4.307   3.132   1.308
 5400SOL    HW217100   4.267   3.229   1.433
 5401SOL     OW17101   5.484   2.845   1.237
 5401SOL    HW117102   5.443   2.847   1.328
 5401SOL    HW217103   5.422   2.888   1.172
 5402SOL     OW17104   0.985   6.095   2.289
 5402SOL    HW117105   1.012   6.024   2.225
 5402SOL    HW217106   0.902   6.067   2.337
 5403SOL     OW17107   4.818   2.207   6.599
 5403SOL    HW117108   4.829   2.148   6.679
 5403SOL    HW217109   4.747   2.275   6.617
 5404SOL     OW17110   5.147   7.006   0.090
 5404SOL    HW117111   5.215   7.014   0.017
 5404SOL    HW217112   5.164   0.051   0.161
 5405SOL     OW17113   0.127   5.072   0.024
 5405SOL    HW117114   0.181   5.097   0.104
 5405SOL    HW217115   0.109   4.973   0.025
 5406SOL     OW17116   2.737   1.121   5.804
 5406SOL    HW117117   2.759   1.169   5.888
 5406SOL    HW217118   2.684   1.038   5.825
 5407SOL     OW17119   1.441   6.455   3.728
 5407SOL    HW117120   1.447   6.358   3.748
 5407SOL    HW217121   1.365   6.472   3.666
 5408SOL     OW17122   2.904   1.769   4.506
 5408SOL    HW117123   2.859   1.682   4.526
 5408SOL    HW217124   2.966   1.792   4.581
 5409SOL     OW17125   0.884   2.264   2.436
 5409SOL    HW117126   0.792   2.236   2.465
 5409SOL    HW217127   0.933   2.185   2.399
 5410SOL     OW17128   6.353   2.765   0.590
 5410SOL    HW117129   6.413   2.840   0.562
 5410SOL    HW217130   6.307   2.790   0.675
 5411SOL     OW17131   3.699   5.341   0.122
 5411SOL    HW117132   3.732   5.332   0.216
 5411SOL    HW217133   3.609   5.298   0.115
 5412SOL     OW17134   1.328   1.804   5.441
 5412SOL    HW117135   1.303   1.810   5.538
 5412SOL    HW217136   1.428   1.806   5.433
 5413SOL     OW17137   0.797   4.899   4.792
 5413SOL    HW117138   0.758   4.835   4.858
 5413SOL    HW217139   0.724   4.957   4.756
 5414SOL     OW17140   5.727   4.253   5.477
 5414SOL    HW117141   5.686   4.167   5.448
 5414SOL    HW217142   5.681   4.285   5.560
 5415SOL     OW17143   2.303   1.494   0.061
 5415SOL    HW117144   2.377   1.554   0.032
 5415SOL    HW217145   2.216   1.542   0.053
 5416SOL     OW17146   3.194   5.224   6.973
 5416SOL    HW117147   3.247   5.283   6.913
 5416SOL    HW217148   3.139   5.161   6.918
 5417SOL     OW17149   5.415   0.185   3.686
 5417SOL    HW117150   5.366   0.171   3.600
 5417SOL    HW217151   5.514   0.176   3.670
 5418SOL     OW17152   0.009   3.116   5.887
 5418SOL    HW117153   0.050   3.078   5.970
 5418SOL    HW217154   0.015   3.048   5.814
 5419SOL     OW17155   3.914   2.000   6.570
 5419SOL    HW117156   3.861   1.933   6.622
 5419SOL    HW217157   3.852   2.062   6.522
 5420SOL     OW17158   1.582   2.156   1.959
 5420SOL    HW117159   1.612   2.176   1.865
 5420SOL    HW217160   1.507   2.090   1.957
 5421SOL     OW17161   3.851   5.478   1.692
 5421SOL    HW117162   3.836   5.380   1.700
 5421SOL    HW217163   3.861   5.518   1.783
 5422SOL     OW17164   2.467   5.105   3.876
 5422SOL    HW117165   2.425   5.033   3.932
 5422SOL    HW217166   2.558   5.075   3.847
 5423SOL     OW17167   4.768   6.979   1.564
 5423SOL    HW117168   4.685   6.929   1.586
 5423SOL    HW217169   4.750   0.019   1.488
 5424SOL     OW17170   4.031   4.095   5.481
 5424SOL    HW117171   4.019   3.996   5.482
 5424SOL    HW217172   4.129   4.117   5.478
 5425SOL     OW17173   1.502   4.939   6.276
 5425SOL    HW117174   1.427   4.892   6.229
 5425SOL    HW217175   1.589   4.914   6.234
 5426SOL     OW17176   6.589   4.927   1.767
 5426SOL    HW117177   6.627   4.909   1.858
 5426SOL    HW217178   6.502   4.877   1.758
 5427SOL     OW17179   4.602   3.223   0.567
 5427SOL    HW117180   4.515   3.214   0.617
 5427SOL    HW217181   4.675   3.177   0.619
 5428SOL     OW17182   4.918   4.998   3.433
 5428SOL    HW117183   4.939   4.900   3.439
 5428SOL    HW217184   4.838   5.018   3.490
 5429SOL     OW17185   3.081   0.241   4.677
 5429SOL    HW117186   3.026   0.169   4.635
 5429SOL    HW217187   3.177   0.229   4.650
 5430SOL     OW17188   2.069   3.614   5.718
 5430SOL    HW117189   2.086   3.516   5.722
 5430SOL    HW217190   2.156   3.663   5.724
 5431SOL     OW17191   4.993   4.713   0.226
 5431SOL    HW117192   4.989   4.616   0.247
 5431SOL    HW217193   4.900   4.749   0.217
 5432SOL     OW17194   0.466   5.194   6.476
 5432SOL    HW117195   0.557   5.207   6.516
 5432SOL    HW217196   0.450   5.266   6.408
 5433SOL     OW17197   3.704   7.002   1.295
 5433SOL    HW117198   3.669   7.017   1.203
 5433SOL    HW217199   3.639   0.017   1.362
 5434SOL     OW17200   4.942   0.111   4.233
 5434SOL    HW117201   4.925   0.098   4.135
 5434SOL    HW217202   5.023   0.059   4.259
 5435SOL     OW17203   6.997   5.281   0.128
 5435SOL    HW117204   0.001   5.199   0.078
 5435SOL    HW217205   0.054   5.342   0.137
 5436SOL     OW17206   2.118   5.023   2.404
 5436SOL    HW117207   2.108   5.108   2.352
 5436SOL    HW217208   2.148   4.949   2.344
 5437SOL     OW17209   3.427   6.338   0.996
 5437SOL    HW117210   3.369   6.256   0.989
 5437SOL    HW217211   3.521   6.315   0.971
 5438SOL     OW17212   4.145   6.336   1.755
 5438SOL    HW117213   4.153   6.239   1.777
 5438SOL    HW217214   4.229   6.367   1.711
 5439SOL     OW17215   1.281   4.037   0.958
 5439SOL    HW117216   1.232   4.080   1.034
 5439SOL    HW217217   1.216   4.014   0.886
 5440SOL     OW17218   5.357   6.814   3.835
 5440SOL    HW117219   5.388   6.825   3.741
 5440SOL    HW217220   5.383   6.894   3.889
 5441SOL     OW17221   5.728   2.018   4.622
 5441SOL    HW117222   5.817   2.063   4.633
 5441SOL    HW217223   5.731   1.928   4.667
 5442SOL     OW17224   2.435   0.507   6.475
 5442SOL    HW117225   2.478   0.578   6.531
 5442SOL    HW217226   2.490   0.424   6.478
 5443SOL     OW17227   5.848   0.897   3.207
 5443SOL    HW117228   5.864   0.907   3.109
 5443SOL    HW217229   5.830   0.987   3.247
 5444SOL     OW17230   0.293   1.210   6.415
 5444SOL    HW117231   0.259   1.202   6.509
 5444SOL    HW217232   0.372   1.271   6.413
 5445SOL     OW17233   5.824   6.660   5.597
 5445SOL    HW117234   5.758   6.731   5.576
 5445SOL    HW217235   5.783   6.594   5.660
 5446SOL     OW17236   0.777   4.270   5.643
 5446SOL    HW117237   0.742   4.246   5.734
 5446SOL    HW217238   0.870   4.306   5.651
 5447SOL     OW17239   6.622   1.821   1.759
 5447SOL    HW117240   6.704   1.866   1.724
 5447SOL    HW217241   6.541   1.876   1.735
 5448SOL     OW17242   5.704   5.235   2.616
 5448SOL    HW117243   5.750   5.202   2.533
 5448SOL    HW217244   5.609   5.205   2.615
 5449SOL     OW17245   1.996   0.793   0.948
 5449SOL    HW117246   2.061   0.859   0.910
 5449SOL    HW217247   1.936   0.839   1.013
 5450SOL     OW17248   4.836   5.625   2.202
 5450SOL    HW117249   4.838   5.535   2.157
 5450SOL    HW217250   4.919   5.676   2.178
 5451SOL     OW17251   6.390   6.535   3.526
 5451SOL    HW117252   6.302   6.495   3.499
 5451SOL    HW217253   6.411   6.612   3.465
 5452SOL     OW17254   2.150   4.151   2.799
 5452SOL    HW117255   2.156   4.242   2.841
 5452SOL    HW217256   2.158   4.081   2.870
 5453SOL     OW17257   6.500   4.476   4.335
 5453SOL    HW117258   6.586   4.511   4.297
 5453SOL    HW217259   6.452   4.550   4.383
 5454SOL     OW17260   6.482   4.131   2.989
 5454SOL    HW117261   6.460   4.220   3.030
 5454SOL    HW217262   6.400   4.094   2.946
 5455SOL     OW17263   2.619   1.988   3.404
 5455SOL    HW117264   2.667   1.910   3.445
 5455SOL    HW217265   2.626   1.981   3.304
 5456SOL     OW17266   5.974   2.615   0.474
 5456SOL    HW117267   5.994   2.708   0.505
 5456SOL    HW217268   6.002   2.550   0.544
 5457SOL     OW17269   6.268   1.196   6.641
 5457SOL    HW117270   6.269   1.283   6.590
 5457SOL    HW217271   6.213   1.129   6.591
 5458SOL     OW17272   5.235   4.223   6.999
 5458SOL    HW117273   5.166   4.152   6.984
 5458SOL    HW217274   5.207   4.306   6.951
 5459SOL     OW17275   2.181   3.106   4.986
 5459SOL    HW117276   2.268   3.057   4.982
 5459SOL    HW217277   2.108   3.048   4.949
 5460SOL     OW17278   0.769   0.579   1.473
 5460SOL    HW117279   0.841   0.641   1.440
 5460SOL    HW217280   0.693   0.633   1.508
 5461SOL     OW17281   6.043   1.199   6.118
 5461SOL    HW117282   6.066   1.106   6.090
 5461SOL    HW217283   5.944   1.212   6.113
 5462SOL     OW17284   5.000   4.737   6.074
 5462SOL    HW117285   4.963   4.646   6.095
 5462SOL    HW217286   4.995   4.754   5.976
 5463SOL     OW17287   0.680   3.820   5.741
 5463SOL    HW117288   0.583   3.799   5.724
 5463SOL    HW217289   0.712   3.887   5.675
 5464SOL     OW17290   1.839   5.392   5.022
 5464SOL    HW117291   1.902   5.424   5.093
 5464SOL    HW217292   1.874   5.418   4.932
 5465SOL     OW17293   0.700   7.014   4.864
 5465SOL    HW117294   0.688   6.918   4.840
 5465SOL    HW217295   0.725   0.044   4.783
 5466SOL     OW17296   5.636   1.530   4.358
 5466SOL    HW117297   5.680   1.618   4.345
 5466SOL    HW217298   5.555   1.541   4.416
 5467SOL     OW17299   4.964   3.403   4.397
 5467SOL    HW117300   4.940   3.491   4.438
 5467SOL    HW217301   4.975   3.414   4.298
 5468SOL     OW17302   7.000   1.933   1.437
 5468SOL    HW117303   0.026   1.846   1.431
 5468SOL    HW217304   6.998   1.977   1.347
 5469SOL     OW17305   3.595   0.932   4.564
 5469SOL    HW117306   3.645   0.923   4.478
 5469SOL    HW217307   3.511   0.878   4.559
 5470SOL     OW17308   4.510   5.154   4.232
 5470SOL    HW117309   4.594   5.146   4.285
 5470SOL    HW217310   4.484   5.063   4.197
 5471SOL     OW17311   5.228   0.807   2.674
 5471SOL    HW117312   5.303   0.802   2.608
 5471SOL    HW217313   5.201   0.715   2.702
 5472SOL     OW17314   2.958   3.251   6.890
 5472SOL    HW117315   3.057   3.242   6.877
 5472SOL    HW217316   2.929   3.196   6.969
 5473SOL     OW17317   2.891   5.179   1.879
 5473SOL    HW117318   2.903   5.278   1.873
 5473SOL    HW217319   2.844   5.156   1.964
 5474SOL     OW17320   1.217   5.101   2.407
 5474SOL    HW117321   1.226   5.087   2.506
 5474SOL    HW217322   1.208   5.199   2.388
 5475SOL     OW17323   0.839   0.891   4.885
 5475SOL    HW117324   0.891   0.892   4.970
 5475SOL    HW217325   0.868   0.814   4.828
 5476SOL     OW17326   2.321   6.821   5.042
 5476SOL    HW117327   2.282   6.734   5.010
 5476SOL    HW217328   2.419   6.810   5.057
 5477SOL     OW17329   2.049   3.563   4.133
 5477SOL    HW117330   2.063   3.591   4.228
 5477SOL    HW217331   2.022   3.642   4.078
 5478SOL     OW17332   5.295   4.621   5.565
 5478SOL    HW117333   5.391   4.597   5.560
 5478SOL    HW217334   5.284   4.720   5.553
 5479SOL     OW17335   5.416   1.936   4.211
 5479SOL    HW117336   5.355   2.014   4.215
 5479SOL    HW217337   5.453   1.917   4.302
 5480SOL     OW17338   1.655   3.368   4.362
 5480SOL    HW117339   1.582   3.312   4.323
 5480SOL    HW217340   1.698   3.319   4.438
 5481SOL     OW17341   4.243   1.667   6.632
 5481SOL    HW117342   4.155   1.662   6.680
 5481SOL    HW217343   4.228   1.694   6.537
 5482SOL     OW17344   5.422   3.562   1.892
 5482SOL    HW117345   5.353   3.504   1.935
 5482SOL    HW217346   5.513   3.536   1.924
 5483SOL     OW17347   6.959   2.986   6.987
 5483SOL    HW117348   6.957   2.913   6.918
 5483SOL    HW217349   6.979   2.947   0.054
 5484SOL     OW17350   6.467   6.689   4.688
 5484SOL    HW117351   6.398   6.675   4.618
 5484SOL    HW217352   6.496   6.785   4.687
 5485SOL     OW17353   3.960   7.020   4.895
 5485SOL    HW117354   3.890   0.061   4.926
 5485SOL    HW217355   3.916   6.938   4.858
 5486SOL     OW17356   0.956   0.875   4.310
 5486SOL    HW117357   0.872   0.853   4.259
 5486SOL    HW217358   1.025   0.805   4.293
 5487SOL     OW17359   4.449   5.245   0.568
 5487SOL    HW117360   4.376   5.185   0.533
 5487SOL    HW217361   4.527   5.242   0.506
 5488SOL     OW17362   5.130   1.152   5.837
 5488SOL    HW117363   5.041   1.194   5.825
 5488SOL    HW217364   5.189   1.174   5.759
 5489SOL     OW17365   6.993   4.375   3.030
 5489SOL    HW117366   0.011   4.346   2.943
 5489SOL    HW217367   6.996   4.475   3.036
 5490SOL     OW17368   2.269   2.585   6.974
 5490SOL    HW117369   2.288   2.633   0.037
 5490SOL    HW217370   2.334   2.614   6.904
 5491SOL     OW17371   0.633   5.859   1.762
 5491SOL    HW117372   0.561   5.862   1.832
 5491SOL    HW217373   0.664   5.952   1.743
 5492SOL     OW17374   1.922   1.164   5.130
 5492SOL    HW117375   1.869   1.145   5.047
 5492SOL    HW217376   1.862   1.202   5.200
 5493SOL     OW17377   3.108   2.921   6.835
 5493SOL    HW117378   3.021   2.946   6.794
 5493SOL    HW217379   3.123   2.974   6.919
 5494SOL     OW17380   6.036   2.716   2.442
 5494SOL    HW117381   5.940   2.728   2.466
 5494SOL    HW217382   6.090   2.790   2.482
 5495SOL     OW17383   3.694   2.875   3.106
 5495SOL    HW117384   3.689   2.850   3.010
 5495SOL    HW217385   3.659   2.800   3.162
 5496SOL     OW17386   3.554   5.341   1.114
 5496SOL    HW117387   3.522   5.401   1.187
 5496SOL    HW217388   3.647   5.365   1.089
 5497SOL     OW17389   6.195   6.923   1.819
 5497SOL    HW117390   6.234   6.847   1.767
 5497SOL    HW217391   6.097   6.926   1.804
 5498SOL     OW17392   4.336   0.121   5.076
 5498SOL    HW117393   4.299   0.200   5.028
 5498SOL    HW217394   4.432   0.136   5.098
 5499SOL     OW17395   0.219   1.375   4.696
 5499SOL    HW117396   0.205   1.280   4.727
 5499SOL    HW217397   0.268   1.426   4.767
 5500SOL     OW17398   2.235   5.529   1.293
 5500SOL    HW117399   2.153   5.473   1.286
 5500SOL    HW217400   2.316   5.472   1.279
 5501SOL     OW17401   2.063   6.977   2.637
 5501SOL    HW117402   2.111   6.898   2.600
 5501SOL    HW217403   2.121   0.036   2.629
 5502SOL     OW17404   4.767   3.609   0.298
 5502SOL    HW117405   4.798   3.514   0.290
 5502SOL    HW217406   4.722   3.637   0.214
 5503SOL     OW17407   0.623   6.269   4.734
 5503SOL    HW117408   0.680   6.283   4.815
 5503SOL    HW217409   0.651   6.185   4.687
 5504SOL     OW17410   3.484   2.092   4.302
 5504SOL    HW117411   3.444   2.048   4.221
 5504SOL    HW217412   3.410   2.133   4.356
 5505SOL     OW17413   3.255   4.604   5.898
 5505SOL    HW117414   3.281   4.687   5.849
 5505SOL    HW217415   3.263   4.525   5.836
 5506SOL     OW17416   6.985   0.137   5.525
 5506SOL    HW117417   6.940   0.121   5.613
 5506SOL    HW217418   6.926   0.104   5.451
 5507SOL     OW17419   3.157   5.711   4.656
 5507SOL    HW117420   3.078   5.703   4.596
 5507SOL    HW217421   3.191   5.621   4.680
 5508SOL     OW17422   2.652   0.642   6.025
 5508SOL    HW117423   2.596   0.617   6.104
 5508SOL    HW217424   2.634   0.579   5.949
 5509SOL     OW17425   6.190   6.024   6.900
 5509SOL    HW117426   6.128   6.033   6.823
 5509SOL    HW217427   6.160   6.083   6.975
 5510SOL     OW17428   5.256   0.326   6.079
 5510SOL    HW117429   5.330   0.362   6.023
 5510SOL    HW217430   5.265   0.360   6.173
 5511SOL     OW17431   0.246   1.577   1.857
 5511SOL    HW117432   0.231   1.676   1.852
 5511SOL    HW217433   0.345   1.559   1.854
 5512SOL     OW17434   0.577   6.737   0.717
 5512SOL    HW117435   0.525   6.696   0.792
 5512SOL    HW217436   0.629   6.815   0.752
 5513SOL     OW17437   3.558   5.239   4.528
 5513SOL    HW117438   3.576   5.140   4.523
 5513SOL    HW217439   3.597   5.275   4.613
 5514SOL     OW17440   6.053   5.745   3.656
 5514SOL    HW117441   6.113   5.780   3.584
 5514SOL    HW217442   6.108   5.699   3.727
 5515SOL     OW17443   6.675   3.134   2.620
 5515SOL    HW117444   6.753   3.073   2.610
 5515SOL    HW217445   6.700   3.226   2.593
 5516SOL     OW17446   1.289   3.502   6.126
 5516SOL    HW117447   1.249   3.487   6.216
 5516SOL    HW217448   1.266   3.593   6.093
 5517SOL     OW17449   2.192   1.500   2.004
 5517SOL    HW117450   2.145   1.552   2.075
 5517SOL    HW217451   2.151   1.409   1.998
 5518SOL     OW17452   5.310   4.903   5.292
 5518SOL    HW117453   5.341   4.927   5.384
 5518SOL    HW217454   5.222   4.856   5.298
 5519SOL     OW17455   5.354   3.600   3.542
 5519SOL    HW117456   5.279   3.655   3.506
 5519SOL    HW217457   5.331   3.503   3.535
 5520SOL     OW17458   1.638   3.280   1.390
 5520SOL    HW117459   1.679   3.348   1.451
 5520SOL    HW217460   1.556   3.242   1.433
 5521SOL     OW17461   4.865   5.764   1.482
 5521SOL    HW117462   4.819   5.792   1.567
 5521SOL    HW217463   4.844   5.669   1.463
 5522SOL     OW17464   2.132   3.545   2.587
 5522SOL    HW117465   2.228   3.555   2.614
 5522SOL    HW217466   2.109   3.619   2.523
 5523SOL     OW17467   3.117   0.727   1.220
 5523SOL    HW117468   3.139   0.824   1.212
 5523SOL    HW217469   3.177   0.685   1.288
 5524SOL     OW17470   6.815   5.942   6.275
 5524SOL    HW117471   6.736   5.913   6.221
 5524SOL    HW217472   6.897   5.896   6.241
 5525SOL     OW17473   6.713   5.593   4.534
 5525SOL    HW117474   6.792   5.618   4.478
 5525SOL    HW217475   6.629   5.608   4.481
 5526SOL     OW17476   5.437   2.708   5.118
 5526SOL    HW117477   5.407   2.645   5.047
 5526SOL    HW217478   5.445   2.800   5.079
 5527SOL     OW17479   2.116   3.595   1.295
 5527SOL    HW117480   2.139   3.519   1.234
 5527SOL    HW217481   2.138   3.681   1.250
 5528SOL     OW17482   0.660   3.440   3.172
 5528SOL    HW117483   0.674   3.530   3.214
 5528SOL    HW217484   0.747   3.403   3.142
 5529SOL     OW17485   1.890   1.297   4.890
 5529SOL    HW117486   1.941   1.304   4.976
 5529SOL    HW217487   1.813   1.360   4.891
 5530SOL     OW17488   1.176   2.816   0.949
 5530SOL    HW117489   1.157   2.746   0.880
 5530SOL    HW217490   1.231   2.889   0.909
 5531SOL     OW17491   2.988   2.439   6.111
 5531SOL    HW117492   2.934   2.356   6.128
 5531SOL    HW217493   3.057   2.421   6.041
 5532SOL     OW17494   2.720   1.890   1.283
 5532SOL    HW117495   2.800   1.923   1.332
 5532SOL    HW217496   2.680   1.964   1.230
 5533SOL     OW17497   3.903   7.019   0.639
 5533SOL    HW117498   3.866   0.059   0.571
 5533SOL    HW217499   3.878   0.028   0.731
 5534SOL     OW17500   0.053   4.283   5.787
 5534SOL    HW117501   0.127   4.282   5.720
 5534SOL    HW217502   0.062   4.204   5.848
 5535SOL     OW17503   5.687   3.492   3.677
 5535SOL    HW117504   5.588   3.485   3.678
 5535SOL    HW217505   5.716   3.532   3.590
 5536SOL     OW17506   1.742   0.576   3.466
 5536SOL    HW117507   1.816   0.508   3.465
 5536SOL    HW217508   1.671   0.547   3.530
 5537SOL     OW17509   4.349   1.141   4.994
 5537SOL    HW117510   4.259   1.112   4.962
 5537SOL    HW217511   4.376   1.224   4.944
 5538SOL     OW17512   5.706   1.880   0.904
 5538SOL    HW117513   5.634   1.947   0.923
 5538SOL    HW217514   5.715   1.868   0.805
 5539SOL     OW17515   3.151   6.675   0.063
 5539SOL    HW117516   3.244   6.658   0.095
 5539SOL    HW217517   3.092   6.599   0.093
 5540SOL     OW17518   5.176   0.527   6.668
 5540SOL    HW117519   5.155   0.524   6.570
 5540SOL    HW217520   5.261   0.577   6.682
 5541SOL     OW17521   4.604   3.676   6.126
 5541SOL    HW117522   4.556   3.664   6.213
 5541SOL    HW217523   4.680   3.611   6.120
 5542SOL     OW17524   4.520   4.645   0.152
 5542SOL    HW117525   4.575   4.561   0.151
 5542SOL    HW217526   4.424   4.621   0.163
 5543SOL     OW17527   1.762   0.048   0.193
 5543SOL    HW117528   1.685   0.040   0.257
 5543SOL    HW217529   1.844   0.011   0.234
 5544SOL     OW17530   3.922   5.595   6.275
 5544SOL    HW117531   3.957   5.596   6.368
 5544SOL    HW217532   3.878   5.683   6.254
 5545SOL     OW17533   4.402   0.406   3.316
 5545SOL    HW117534   4.316   0.456   3.305
 5545SOL    HW217535   4.470   0.466   3.360
 5546SOL     OW17536   0.336   4.911   4.597
 5546SOL    HW117537   0.287   4.982   4.648
 5546SOL    HW217538   0.359   4.836   4.659
 5547SOL     OW17539   5.300   1.261   4.885
 5547SOL    HW117540   5.335   1.325   4.817
 5547SOL    HW217541   5.373   1.201   4.915
 5548SOL     OW17542   0.299   4.022   4.711
 5548SOL    HW117543   0.341   3.943   4.755
 5548SOL    HW217544   0.228   3.992   4.648
 5549SOL     OW17545   4.389   3.001   0.467
 5549SOL    HW117546   4.348   3.054   0.393
 5549SOL    HW217547   4.368   3.043   0.555
 5550SOL     OW17548   2.061   4.254   2.106
 5550SOL    HW117549   1.998   4.203   2.164
 5550SOL    HW217550   2.145   4.273   2.158
 5551SOL     OW17551   1.880   5.530   3.412
 5551SOL    HW117552   1.801   5.514   3.354
 5551SOL    HW217553   1.867   5.485   3.500
 5552SOL     OW17554   0.279   6.764   6.885
 5552SOL    HW117555   0.376   6.750   6.903
 5552SOL    HW217556   0.260   6.747   6.788
 5553SOL     OW17557   4.793   0.303   6.853
 5553SOL    HW117558   4.883   0.279   6.819
 5553SOL    HW217559   4.802   0.358   6.936
 5554SOL     OW17560   5.405   2.219   1.400
 5554SOL    HW117561   5.392   2.139   1.342
 5554SOL    HW217562   5.318   2.269   1.409
 5555SOL     OW17563   1.568   4.858   2.619
 5555SOL    HW117564   1.529   4.940   2.576
 5555SOL    HW217565   1.564   4.782   2.555
 5556SOL     OW17566   0.305   1.071   4.559
 5556SOL    HW117567   0.247   1.083   4.639
 5556SOL    HW217568   0.249   1.069   4.476
 5557SOL     OW17569   3.191   6.051   2.803
 5557SOL    HW117570   3.116   6.108   2.770
 5557SOL    HW217571   3.188   6.047   2.903
 5558SOL     OW17572   4.244   4.493   0.175
 5558SOL    HW117573   4.224   4.553   0.252
 5558SOL    HW217574   4.167   4.491   0.112
 5559SOL     OW17575   2.364   0.175   2.597
 5559SOL    HW117576   2.390   0.083   2.628
 5559SOL    HW217577   2.291   0.210   2.655
 5560SOL     OW17578   0.930   6.413   2.591
 5560SOL    HW117579   0.896   6.319   2.583
 5560SOL    HW217580   0.927   6.442   2.687
 5561SOL     OW17581   3.482   6.698   3.390
 5561SOL    HW117582   3.412   6.649   3.338
 5561SOL    HW217583   3.451   6.792   3.407
 5562SOL     OW17584   3.956   4.535   0.975
 5562SOL    HW117585   3.891   4.563   0.904
 5562SOL    HW217586   3.962   4.435   0.976
 5563SOL     OW17587   2.473   4.515   3.172
 5563SOL    HW117588   2.383   4.559   3.164
 5563SOL    HW217589   2.529   4.541   3.094
 5564SOL     OW17590   5.065   0.407   5.832
 5564SOL    HW117591   4.979   0.425   5.879
 5564SOL    HW217592   5.126   0.355   5.894
 5565SOL     OW17593   3.409   2.140   6.149
 5565SOL    HW117594   3.422   2.234   6.117
 5565SOL    HW217595   3.312   2.116   6.142
 5566SOL     OW17596   1.465   3.669   6.481
 5566SOL    HW117597   1.373   3.701   6.459
 5566SOL    HW217598   1.533   3.730   6.439
 5567SOL     OW17599   6.952   4.101   1.523
 5567SOL    HW117600   7.016   4.174   1.548
 5567SOL    HW217601   6.956   4.085   1.425
 5568SOL     OW17602   3.953   5.836   1.175
 5568SOL    HW117603   3.941   5.879   1.265
 5568SOL    HW217604   3.876   5.862   1.116
 5569SOL     OW17605   2.055   3.214   3.912
 5569SOL    HW117606   2.060   3.115   3.910
 5569SOL    HW217607   2.073   3.246   4.006
 5570SOL     OW17608   0.612   3.825   2.692
 5570SOL    HW117609   0.704   3.796   2.717
 5570SOL    HW217610   0.546   3.754   2.717
 5571SOL     OW17611   6.067   4.719   1.810
 5571SOL    HW117612   6.092   4.815   1.799
 5571SOL    HW217613   6.000   4.694   1.740
 5572SOL     OW17614   1.396   3.959   5.089
 5572SOL    HW117615   1.493   3.952   5.068
 5572SOL    HW217616   1.346   3.886   5.042
 5573SOL     OW17617   2.738   5.006   3.810
 5573SOL    HW117618   2.711   4.913   3.784
 5573SOL    HW217619   2.826   5.029   3.768
 5574SOL     OW17620   0.959   2.425   6.515
 5574SOL    HW117621   1.002   2.467   6.434
 5574SOL    HW217622   0.871   2.386   6.488
 5575SOL     OW17623   0.381   0.249   1.425
 5575SOL    HW117624   0.414   0.280   1.336
 5575SOL    HW217625   0.303   0.305   1.453
 5576SOL     OW17626   1.856   4.577   3.371
 5576SOL    HW117627   1.844   4.674   3.352
 5576SOL    HW217628   1.953   4.558   3.389
 5577SOL     OW17629   1.837   2.841   5.991
 5577SOL    HW117630   1.875   2.889   5.912
 5577SOL    HW217631   1.849   2.898   6.073
 5578SOL     OW17632   3.605   3.633   3.663
 5578SOL    HW117633   3.652   3.554   3.704
 5578SOL    HW217634   3.507   3.614   3.657
 5579SOL     OW17635   0.645   3.203   1.469
 5579SOL    HW117636   0.732   3.156   1.483
 5579SOL    HW217637   0.663   3.298   1.442
 5580SOL     OW17638   5.197   1.973   5.086
 5580SOL    HW117639   5.167   1.930   5.001
 5580SOL    HW217640   5.133   2.045   5.112
 5581SOL     OW17641   1.119   1.711   6.606
 5581SOL    HW117642   1.202   1.675   6.564
 5581SOL    HW217643   1.104   1.806   6.576
 5582SOL     OW17644   2.324   2.452   6.300
 5582SOL    HW117645   2.229   2.484   6.298
 5582SOL    HW217646   2.329   2.360   6.262
 5583SOL     OW17647   5.313   0.990   2.236
 5583SOL    HW117648   5.295   1.075   2.188
 5583SOL    HW217649   5.284   0.913   2.179
 5584SOL     OW17650   1.046   3.771   5.138
 5584SOL    HW117651   1.042   3.867   5.109
 5584SOL    HW217652   1.028   3.712   5.059
 5585SOL     OW17653   4.587   4.656   2.344
 5585SOL    HW117654   4.568   4.588   2.274
 5585SOL    HW217655   4.588   4.748   2.303
 5586SOL     OW17656   6.584   3.187   6.716
 5586SOL    HW117657   6.598   3.109   6.776
 5586SOL    HW217658   6.486   3.200   6.700
 5587SOL     OW17659   5.606   0.580   6.408
 5587SOL    HW117660   5.631   0.548   6.500
 5587SOL    HW217661   5.512   0.613   6.409
 5588SOL     OW17662   3.350   6.760   1.477
 5588SOL    HW117663   3.250   6.755   1.483
 5588SOL    HW217664   3.381   6.849   1.509
 5589SOL     OW17665   5.855   4.941   6.181
 5589SOL    HW117666   5.849   4.903   6.089
 5589SOL    HW217667   5.947   4.926   6.217
 5590SOL     OW17668   5.518   5.611   4.071
 5590SOL    HW117669   5.536   5.559   4.154
 5590SOL    HW217670   5.462   5.691   4.093
 5591SOL     OW17671   5.906   1.204   1.399
 5591SOL    HW117672   5.994   1.172   1.365
 5591SOL    HW217673   5.837   1.196   1.327
 5592SOL     OW17674   0.805   4.220   3.354
 5592SOL    HW117675   0.880   4.155   3.344
 5592SOL    HW217676   0.754   4.226   3.269
 5593SOL     OW17677   6.762   2.819   0.294
 5593SOL    HW117678   6.845   2.764   0.299
 5593SOL    HW217679   6.710   2.795   0.212
 5594SOL     OW17680   5.765   2.340   5.545
 5594SOL    HW117681   5.790   2.312   5.638
 5594SOL    HW217682   5.847   2.346   5.488
 5595SOL     OW17683   1.003   2.369   5.636
 5595SOL    HW117684   1.043   2.417   5.715
 5595SOL    HW217685   0.985   2.274   5.661
 5596SOL     OW17686   3.995   6.380   3.045
 5596SOL    HW117687   4.038   6.437   2.975
 5596SOL    HW217688   4.057   6.306   3.070
 5597SOL     OW17689   5.151   3.448   3.379
 5597SOL    HW117690   5.063   3.477   3.341
 5597SOL    HW217691   5.169   3.353   3.352
 5598SOL     OW17692   5.744   2.068   5.143
 5598SOL    HW117693   5.644   2.073   5.135
 5598SOL    HW217694   5.785   2.122   5.069
 5599SOL     OW17695   0.526   1.478   3.979
 5599SOL    HW117696   0.564   1.468   3.887
 5599SOL    HW217697   0.463   1.403   3.998
 5600SOL     OW17698   1.311   2.393   4.159
 5600SOL    HW117699   1.289   2.459   4.087
 5600SOL    HW217700   1.400   2.352   4.141
 5601SOL     OW17701   2.607   1.133   5.513
 5601SOL    HW117702   2.588   1.075   5.592
 5601SOL    HW217703   2.703   1.161   5.514
 5602SOL     OW17704   1.149   2.055   0.658
 5602SOL    HW117705   1.194   2.097   0.737
 5602SOL    HW217706   1.152   1.955   0.666
 5603SOL     OW17707   6.430   2.493   6.470
 5603SOL    HW117708   6.495   2.559   6.510
 5603SOL    HW217709   6.339   2.534   6.468
 5604SOL     OW17710   6.383   1.747   5.652
 5604SOL    HW117711   6.417   1.700   5.570
 5604SOL    HW217712   6.375   1.681   5.727
 5605SOL     OW17713   0.486   2.298   4.816
 5605SOL    HW117714   0.428   2.373   4.784
 5605SOL    HW217715   0.549   2.332   4.886
 5606SOL     OW17716   4.514   0.133   1.843
 5606SOL    HW117717   4.593   0.158   1.786
 5606SOL    HW217718   4.527   0.170   1.935
 5607SOL     OW17719   5.673   1.116   1.624
 5607SOL    HW117720   5.624   1.195   1.587
 5607SOL    HW217721   5.770   1.138   1.634
 5608SOL     OW17722   4.038   6.457   5.101
 5608SOL    HW117723   4.138   6.455   5.111
 5608SOL    HW217724   4.011   6.544   5.060
 5609SOL     OW17725   2.828   6.139   6.110
 5609SOL    HW117726   2.884   6.152   6.192
 5609SOL    HW217727   2.888   6.125   6.031
 5610SOL     OW17728   4.753   1.028   6.709
 5610SOL    HW117729   4.812   0.953   6.739
 5610SOL    HW217730   4.696   0.997   6.632
 5611SOL     OW17731   1.656   4.951   3.274
 5611SOL    HW117732   1.614   4.955   3.365
 5611SOL    HW217733   1.602   4.892   3.215
 5612SOL     OW17734   2.698   6.869   5.648
 5612SOL    HW117735   2.616   6.821   5.618
 5612SOL    HW217736   2.779   6.815   5.623
 5613SOL     OW17737   3.952   4.768   1.705
 5613SOL    HW117738   3.960   4.828   1.785
 5613SOL    HW217739   4.034   4.711   1.699
 5614SOL     OW17740   4.556   1.898   2.922
 5614SOL    HW117741   4.579   1.836   2.847
 5614SOL    HW217742   4.559   1.848   3.009
 5615SOL     OW17743   1.494   0.893   0.996
 5615SOL    HW117744   1.565   0.963   0.998
 5615SOL    HW217745   1.522   0.819   0.935
 5616SOL     OW17746   1.946   0.932   4.435
 5616SOL    HW117747   1.928   0.969   4.344
 5616SOL    HW217748   1.875   0.964   4.498
 5617SOL     OW17749   2.041   0.816   4.856
 5617SOL    HW117750   2.077   0.880   4.788
 5617SOL    HW217751   2.008   0.867   4.935
 5618SOL     OW17752   0.296   4.294   3.226
 5618SOL    HW117753   0.317   4.357   3.150
 5618SOL    HW217754   0.197   4.284   3.233
 5619SOL     OW17755   2.304   3.512   5.335
 5619SOL    HW117756   2.256   3.436   5.292
 5619SOL    HW217757   2.284   3.597   5.287
 5620SOL     OW17758   3.524   1.777   6.424
 5620SOL    HW117759   3.572   1.824   6.498
 5620SOL    HW217760   3.432   1.814   6.415
 5621SOL     OW17761   2.173   2.380   5.616
 5621SOL    HW117762   2.096   2.326   5.651
 5621SOL    HW217763   2.198   2.348   5.525
 5622SOL     OW17764   6.111   0.572   5.903
 5622SOL    HW117765   6.026   0.552   5.953
 5622SOL    HW217766   6.096   0.651   5.844
 5623SOL     OW17767   0.871   6.104   0.087
 5623SOL    HW117768   0.853   6.202   0.091
 5623SOL    HW217769   0.967   6.087   0.112
 5624SOL     OW17770   0.587   4.373   3.795
 5624SOL    HW117771   0.624   4.359   3.703
 5624SOL    HW217772   0.496   4.331   3.801
 5625SOL     OW17773   6.869   2.510   5.096
 5625SOL    HW117774   6.879   2.411   5.098
 5625SOL    HW217775   6.842   2.542   5.187
 5626SOL     OW17776   4.220   6.968   4.754
 5626SOL    HW117777   4.228   0.040   4.724
 5626SOL    HW217778   4.136   6.957   4.808
 5627SOL     OW17779   1.667   6.449   1.083
 5627SOL    HW117780   1.597   6.519   1.072
 5627SOL    HW217781   1.640   6.367   1.031
 5628SOL     OW17782   1.699   1.682   4.286
 5628SOL    HW117783   1.762   1.729   4.222
 5628SOL    HW217784   1.697   1.732   4.372
 5629SOL     OW17785   3.430   3.546   2.855
 5629SOL    HW117786   3.349   3.579   2.807
 5629SOL    HW217787   3.440   3.448   2.842
 5630SOL     OW17788   0.841   4.655   1.591
 5630SOL    HW117789   0.763   4.594   1.576
 5630SOL    HW217790   0.901   4.617   1.661
 5631SOL     OW17791   4.781   0.785   0.309
 5631SOL    HW117792   4.800   0.800   0.406
 5631SOL    HW217793   4.847   0.836   0.253
 5632SOL     OW17794   4.027   3.900   6.896
 5632SOL    HW117795   3.944   3.846   6.911
 5632SOL    HW217796   4.105   3.839   6.886
 5633SOL     OW17797   6.094   2.599   4.460
 5633SOL    HW117798   6.173   2.622   4.403
 5633SOL    HW217799   6.106   2.637   4.551
 5634SOL     OW17800   3.857   5.774   4.366
 5634SOL    HW117801   3.765   5.805   4.388
 5634SOL    HW217802   3.911   5.769   4.450
 5635SOL     OW17803   2.823   2.318   4.933
 5635SOL    HW117804   2.908   2.276   4.902
 5635SOL    HW217805   2.841   2.373   5.015
 5636SOL     OW17806   3.750   5.595   3.796
 5636SOL    HW117807   3.661   5.555   3.777
 5636SOL    HW217808   3.744   5.694   3.792
 5637SOL     OW17809   5.521   0.440   3.508
 5637SOL    HW117810   5.464   0.404   3.434
 5637SOL    HW217811   5.464   0.461   3.587
 5638SOL     OW17812   5.527   3.564   5.970
 5638SOL    HW117813   5.528   3.647   6.026
 5638SOL    HW217814   5.580   3.492   6.015
 5639SOL     OW17815   2.244   1.389   6.246
 5639SOL    HW117816   2.158   1.338   6.245
 5639SOL    HW217817   2.284   1.390   6.154
 5640SOL     OW17818   2.404   0.441   3.210
 5640SOL    HW117819   2.376   0.476   3.299
 5640SOL    HW217820   2.407   0.341   3.212
 5641SOL     OW17821   6.322   5.446   4.890
 5641SOL    HW117822   6.355   5.490   4.807
 5641SOL    HW217823   6.227   5.415   4.877
 5642SOL     OW17824   1.362   1.694   6.265
 5642SOL    HW117825   1.375   1.608   6.215
 5642SOL    HW217826   1.389   1.771   6.207
 5643SOL     OW17827   5.618   2.514   4.514
 5643SOL    HW117828   5.668   2.427   4.517
 5643SOL    HW217829   5.527   2.498   4.477
 5644SOL     OW17830   3.585   0.462   6.732
 5644SOL    HW117831   3.515   0.466   6.804
 5644SOL    HW217832   3.540   0.456   6.643
 5645SOL     OW17833   5.344   2.464   4.427
 5645SOL    HW117834   5.325   2.430   4.518
 5645SOL    HW217835   5.324   2.562   4.423
 5646SOL     OW17836   1.827   4.712   3.008
 5646SOL    HW117837   1.729   4.719   2.987
 5646SOL    HW217838   1.866   4.803   3.013
 5647SOL     OW17839   6.705   5.747   2.762
 5647SOL    HW117840   6.741   5.816   2.700
 5647SOL    HW217841   6.726   5.656   2.726
 5648SOL     OW17842   4.421   6.871   2.902
 5648SOL    HW117843   4.444   6.938   2.973
 5648SOL    HW217844   4.374   6.793   2.944
 5649SOL     OW17845   1.116   6.542   4.043
 5649SOL    HW117846   1.116   6.627   3.989
 5649SOL    HW217847   1.035   6.488   4.021
 5650SOL     OW17848   6.696   4.651   6.967
 5650SOL    HW117849   6.660   4.691   6.882
 5650SOL    HW217850   6.652   4.564   6.985
 5651SOL     OW17851   1.808   0.486   2.265
 5651SOL    HW117852   1.809   0.442   2.175
 5651SOL    HW217853   1.768   0.577   2.257
 5652SOL     OW17854   1.048   5.885   1.690
 5652SOL    HW117855   1.071   5.943   1.769
 5652SOL    HW217856   1.064   5.936   1.606
 5653SOL     OW17857   6.853   6.766   1.012
 5653SOL    HW117858   6.851   6.738   0.916
 5653SOL    HW217859   6.885   6.690   1.068
 5654SOL     OW17860   2.739   6.312   4.633
 5654SOL    HW117861   2.797   6.367   4.573
 5654SOL    HW217862   2.667   6.369   4.672
 5655SOL     OW17863   6.156   2.849   4.609
 5655SOL    HW117864   6.239   2.905   4.610
 5655SOL    HW217865   6.084   2.897   4.559
 5656SOL     OW17866   0.100   3.190   0.390
 5656SOL    HW117867   0.151   3.167   0.307
 5656SOL    HW217868   0.003   3.197   0.369
 5657SOL     OW17869   4.797   5.763   5.228
 5657SOL    HW117870   4.883   5.725   5.262
 5657SOL    HW217871   4.803   5.863   5.228
 5658SOL     OW17872   2.516   3.030   5.649
 5658SOL    HW117873   2.453   2.964   5.608
 5658SOL    HW217874   2.530   3.007   5.745
 5659SOL     OW17875   3.832   4.155   6.347
 5659SOL    HW117876   3.788   4.244   6.335
 5659SOL    HW217877   3.790   4.089   6.285
 5660SOL     OW17878   4.406   1.020   6.110
 5660SOL    HW117879   4.491   1.055   6.071
 5660SOL    HW217880   4.342   0.998   6.036
 5661SOL     OW17881   1.158   5.281   5.467
 5661SOL    HW117882   1.225   5.306   5.537
 5661SOL    HW217883   1.206   5.251   5.385
 5662SOL     OW17884   2.760   6.337   2.153
 5662SOL    HW117885   2.748   6.341   2.252
 5662SOL    HW217886   2.685   6.285   2.112
 5663SOL     OW17887   0.950   3.127   6.663
 5663SOL    HW117888   0.937   3.091   6.755
 5663SOL    HW217889   1.038   3.176   6.658
 5664SOL     OW17890   4.788   4.119   4.839
 5664SOL    HW117891   4.830   4.204   4.870
 5664SOL    HW217892   4.691   4.136   4.818
 5665SOL     OW17893   1.805   2.239   1.026
 5665SOL    HW117894   1.810   2.337   1.007
 5665SOL    HW217895   1.759   2.224   1.114
 5666SOL     OW17896   5.147   1.283   5.146
 5666SOL    HW117897   5.212   1.258   5.074
 5666SOL    HW217898   5.144   1.383   5.155
 5667SOL     OW17899   2.724   5.057   4.456
 5667SOL    HW117900   2.655   4.987   4.441
 5667SOL    HW217901   2.679   5.140   4.490
 5668SOL     OW17902   5.293   3.133   3.592
 5668SOL    HW117903   5.371   3.104   3.647
 5668SOL    HW217904   5.261   3.056   3.536
 5669SOL     OW17905   6.620   4.686   6.515
 5669SOL    HW117906   6.586   4.697   6.609
 5669SOL    HW217907   6.720   4.686   6.515
 5670SOL     OW17908   0.367   1.884   2.913
 5670SOL    HW117909   0.280   1.929   2.935
 5670SOL    HW217910   0.369   1.861   2.816
 5671SOL     OW17911   0.003   6.493   3.448
 5671SOL    HW117912   6.976   6.573   3.416
 5671SOL    HW217913   6.997   6.472   3.542
 5672SOL     OW17914   4.775   2.982   5.273
 5672SOL    HW117915   4.790   2.945   5.364
 5672SOL    HW217916   4.736   2.910   5.214
 5673SOL     OW17917   0.330   1.077   1.387
 5673SOL    HW117918   0.373   1.159   1.350
 5673SOL    HW217919   0.375   0.996   1.347
 5674SOL     OW17920   2.018   5.624   5.930
 5674SOL    HW117921   2.000   5.571   5.847
 5674SOL    HW217922   1.939   5.618   5.991
 5675SOL     OW17923   2.911   1.895   0.773
 5675SOL    HW117924   2.901   1.796   0.759
 5675SOL    HW217925   2.923   1.914   0.870
 5676SOL     OW17926   2.624   2.032   2.071
 5676SOL    HW117927   2.696   1.985   2.021
 5676SOL    HW217928   2.568   2.086   2.008
 5677SOL     OW17929   6.627   1.254   1.111
 5677SOL    HW117930   6.692   1.262   1.036
 5677SOL    HW217931   6.580   1.341   1.124
 5678SOL     OW17932   3.300   2.095   1.987
 5678SOL    HW117933   3.235   2.133   2.053
 5678SOL    HW217934   3.364   2.035   2.034
 5679SOL     OW17935   6.281   3.499   5.264
 5679SOL    HW117936   6.300   3.431   5.193
 5679SOL    HW217937   6.222   3.458   5.334
 5680SOL     OW17938   1.453   5.938   5.170
 5680SOL    HW117939   1.536   5.914   5.221
 5680SOL    HW217940   1.373   5.906   5.221
 5681SOL     OW17941   1.055   3.490   4.224
 5681SOL    HW117942   0.975   3.438   4.193
 5681SOL    HW217943   1.027   3.555   4.294
 5682SOL     OW17944   2.091   4.342   2.407
 5682SOL    HW117945   2.115   4.413   2.473
 5682SOL    HW217946   2.010   4.293   2.440
 5683SOL     OW17947   6.599   1.414   6.330
 5683SOL    HW117948   6.594   1.477   6.253
 5683SOL    HW217949   6.693   1.384   6.342
 5684SOL     OW17950   2.091   2.591   5.364
 5684SOL    HW117951   2.045   2.666   5.411
 5684SOL    HW217952   2.188   2.613   5.353
 5685SOL     OW17953   2.320   1.789   2.726
 5685SOL    HW117954   2.374   1.829   2.801
 5685SOL    HW217955   2.335   1.843   2.643
 5686SOL     OW17956   3.491   5.502   6.051
 5686SOL    HW117957   3.567   5.442   6.074
 5686SOL    HW217958   3.408   5.447   6.037
 5687SOL     OW17959   1.910   6.256   6.779
 5687SOL    HW117960   1.912   6.299   6.868
 5687SOL    HW217961   1.825   6.278   6.732
 5688SOL     OW17962   2.275   2.550   3.161
 5688SOL    HW117963   2.178   2.531   3.142
 5688SOL    HW217964   2.330   2.473   3.131
 5689SOL     OW17965   0.807   2.732   1.339
 5689SOL    HW117966   0.805   2.761   1.435
 5689SOL    HW217967   0.884   2.776   1.293
 5690SOL     OW17968   1.672   5.502   0.194
 5690SOL    HW117969   1.623   5.568   0.251
 5690SOL    HW217970   1.747   5.549   0.147
 5691SOL     OW17971   3.263   1.029   2.390
 5691SOL    HW117972   3.334   1.098   2.381
 5691SOL    HW217973   3.173   1.072   2.382
 5692SOL     OW17974   4.403   4.805   1.638
 5692SOL    HW117975   4.445   4.814   1.548
 5692SOL    HW217976   4.473   4.813   1.709
 5693SOL     OW17977   4.444   0.621   1.218
 5693SOL    HW117978   4.529   0.568   1.220
 5693SOL    HW217979   4.378   0.579   1.280
 5694SOL     OW17980   1.026   6.287   1.423
 5694SOL    HW117981   1.098   6.333   1.475
 5694SOL    HW217982   1.032   6.188   1.438
 5695SOL     OW17983   1.605   0.128   1.305
 5695SOL    HW117984   1.582   0.145   1.209
 5695SOL    HW217985   1.703   0.114   1.315
 5696SOL     OW17986   1.616   0.414   3.843
 5696SOL    HW117987   1.565   0.331   3.866
 5696SOL    HW217988   1.638   0.464   3.926
 5697SOL     OW17989   6.597   2.895   0.506
 5697SOL    HW117990   6.638   2.851   0.426
 5697SOL    HW217991   6.618   2.992   0.505
 5698SOL     OW17992   2.690   2.206   3.923
 5698SOL    HW117993   2.625   2.281   3.928
 5698SOL    HW217994   2.706   2.183   3.827
 5699SOL     OW17995   1.762   2.608   2.990
 5699SOL    HW117996   1.687   2.546   2.967
 5699SOL    HW217997   1.787   2.661   2.909
 5700SOL     OW17998   6.128   0.533   3.064
 5700SOL    HW117999   6.106   0.627   3.092
 5700SOL    HW218000   6.057   0.499   3.002
 5701SOL     OW18001   0.096   1.181   1.447
 5701SOL    HW118002   0.087   1.264   1.392
 5701SOL    HW218003   0.187   1.142   1.435
 5702SOL     OW18004   2.462   6.820   4.350
 5702SOL    HW118005   2.458   6.919   4.342
 5702SOL    HW218006   2.371   6.785   4.371
 5703SOL     OW18007   6.902   2.985   6.318
 5703SOL    HW118008   6.960   2.975   6.399
 5703SOL    HW218009   6.807   2.966   6.343
 5704SOL     OW18010   4.410   4.833   3.855
 5704SOL    HW118011   4.496   4.862   3.813
 5704SOL    HW218012   4.350   4.796   3.785
 5705SOL     OW18013   6.272   6.803   5.083
 5705SOL    HW118014   6.220   6.885   5.058
 5705SOL    HW218015   6.362   6.806   5.039
 5706SOL     OW18016   4.952   2.123   0.030
 5706SOL    HW118017   5.007   2.206   0.041
 5706SOL    HW218018   4.996   2.046   0.076
 5707SOL     OW18019   5.476   5.584   2.282
 5707SOL    HW118020   5.442   5.564   2.190
 5707SOL    HW218021   5.399   5.606   2.342
 5708SOL     OW18022   4.381   5.862   2.895
 5708SOL    HW118023   4.425   5.789   2.844
 5708SOL    HW218024   4.291   5.880   2.857
 5709SOL     OW18025   0.116   1.687   2.220
 5709SOL    HW118026   0.129   1.786   2.227
 5709SOL    HW218027   0.059   1.655   2.296
 5710SOL     OW18028   3.212   2.020   1.318
 5710SOL    HW118029   3.286   2.072   1.362
 5710SOL    HW218030   3.180   2.070   1.238
 5711SOL     OW18031   5.374   1.615   1.834
 5711SOL    HW118032   5.375   1.616   1.934
 5711SOL    HW218033   5.456   1.661   1.799
 5712SOL     OW18034   5.912   7.021   1.400
 5712SOL    HW118035   5.979   0.073   1.402
 5712SOL    HW218036   5.915   6.976   1.311
 5713SOL     OW18037   2.408   7.014   0.597
 5713SOL    HW118038   2.366   0.080   0.577
 5713SOL    HW218039   2.496   0.006   0.643
 5714SOL     OW18040   6.374   0.092   0.996
 5714SOL    HW118041   6.427   0.026   0.943
 5714SOL    HW218042   6.397   0.185   0.968
 5715SOL     OW18043   7.011   0.558   1.487
 5715SOL    HW118044   0.047   0.610   1.425
 5715SOL    HW218045   6.924   0.537   1.441
 5716SOL     OW18046   6.663   5.000   5.228
 5716SOL    HW118047   6.600   5.077   5.237
 5716SOL    HW218048   6.702   4.979   5.318
 5717SOL     OW18049   1.382   5.234   3.304
 5717SOL    HW118050   1.360   5.152   3.251
 5717SOL    HW218051   1.353   5.315   3.254
 5718SOL     OW18052   0.917   3.138   0.155
 5718SOL    HW118053   0.914   3.224   0.205
 5718SOL    HW218054   1.013   3.110   0.141
 5719SOL     OW18055   2.304   3.205   0.888
 5719SOL    HW118056   2.280   3.294   0.851
 5719SOL    HW218057   2.221   3.159   0.921
 5720SOL     OW18058   2.706   4.517   6.450
 5720SOL    HW118059   2.666   4.431   6.481
 5720SOL    HW218060   2.667   4.542   6.361
 5721SOL     OW18061   2.548   3.589   0.824
 5721SOL    HW118062   2.619   3.544   0.879
 5721SOL    HW218063   2.467   3.605   0.880
 5722SOL     OW18064   1.423   1.121   6.042
 5722SOL    HW118065   1.392   1.182   6.115
 5722SOL    HW218066   1.366   1.135   5.961
 5723SOL     OW18067   4.135   3.644   0.632
 5723SOL    HW118068   4.142   3.633   0.533
 5723SOL    HW218069   4.197   3.717   0.662
 5724SOL     OW18070   5.482   2.303   4.795
 5724SOL    HW118071   5.434   2.299   4.707
 5724SOL    HW218072   5.492   2.211   4.832
 5725SOL     OW18073   7.005   4.145   4.900
 5725SOL    HW118074   7.018   4.066   4.841
 5725SOL    HW218075   0.071   4.176   4.935
 5726SOL     OW18076   5.475   4.251   2.455
 5726SOL    HW118077   5.386   4.291   2.430
 5726SOL    HW218078   5.468   4.210   2.546
 5727SOL     OW18079   0.638   1.862   4.934
 5727SOL    HW118080   0.559   1.871   4.995
 5727SOL    HW218081   0.646   1.943   4.877
 5728SOL     OW18082   4.536   6.639   5.117
 5728SOL    HW118083   4.507   6.733   5.104
 5728SOL    HW218084   4.457   6.578   5.111
 5729SOL     OW18085   1.976   2.161   5.302
 5729SOL    HW118086   1.910   2.110   5.247
 5729SOL    HW218087   1.975   2.127   5.396
 5730SOL     OW18088   6.974   3.905   4.800
 5730SOL    HW118089   0.006   3.854   4.734
 5730SOL    HW218090   6.901   3.846   4.835
 5731SOL     OW18091   0.210   6.487   2.380
 5731SOL    HW118092   0.255   6.522   2.298
 5731SOL    HW218093   0.146   6.555   2.415
 5732SOL     OW18094   0.682   0.020   3.427
 5732SOL    HW118095   0.653   0.051   3.517
 5732SOL    HW218096   0.651   0.084   3.357
 5733SOL     OW18097   3.275   0.391   5.834
 5733SOL    HW118098   3.280   0.489   5.812
 5733SOL    HW218099   3.219   0.378   5.915
 5734SOL     OW18100   2.076   6.396   3.530
 5734SOL    HW118101   2.119   6.306   3.526
 5734SOL    HW218102   1.987   6.389   3.575
 5735SOL     OW18103   2.881   1.090   1.554
 5735SOL    HW118104   2.954   1.153   1.527
 5735SOL    HW218105   2.807   1.093   1.486
 5736SOL     OW18106   1.187   5.051   6.504
 5736SOL    HW118107   1.201   5.071   6.601
 5736SOL    HW218108   1.260   4.991   6.472
 5737SOL     OW18109   5.353   4.524   0.878
 5737SOL    HW118110   5.303   4.586   0.938
 5737SOL    HW218111   5.451   4.540   0.887
 5738SOL     OW18112   1.596   3.931   5.955
 5738SOL    HW118113   1.519   3.897   5.902
 5738SOL    HW218114   1.575   3.923   6.053
 5739SOL     OW18115   0.631   1.746   1.397
 5739SOL    HW118116   0.659   1.812   1.467
 5739SOL    HW218117   0.708   1.688   1.373
 5740SOL     OW18118   3.889   5.883   6.004
 5740SOL    HW118119   3.983   5.850   5.988
 5740SOL    HW218120   3.824   5.816   5.967
 5741SOL     OW18121   0.125   4.720   3.402
 5741SOL    HW118122   0.169   4.711   3.313
 5741SOL    HW218123   0.094   4.630   3.434
 5742SOL     OW18124   7.013   6.298   4.494
 5742SOL    HW118125   0.079   6.257   4.475
 5742SOL    HW218126   6.963   6.241   4.560
 5743SOL     OW18127   2.054   6.896   4.911
 5743SOL    HW118128   2.141   6.851   4.892
 5743SOL    HW218129   2.063   6.994   4.899
 5744SOL     OW18130   5.328   6.568   1.846
 5744SOL    HW118131   5.310   6.593   1.751
 5744SOL    HW218132   5.332   6.468   1.854
 5745SOL     OW18133   1.197   1.870   3.779
 5745SOL    HW118134   1.294   1.887   3.767
 5745SOL    HW218135   1.160   1.824   3.698
 5746SOL     OW18136   6.436   4.367   0.228
 5746SOL    HW118137   6.395   4.401   0.313
 5746SOL    HW218138   6.532   4.344   0.244
 5747SOL     OW18139   0.764   6.189   2.670
 5747SOL    HW118140   0.742   6.252   2.744
 5747SOL    HW218141   0.774   6.096   2.706
 5748SOL     OW18142   2.292   6.638   2.925
 5748SOL    HW118143   2.368   6.595   2.975
 5748SOL    HW218144   2.216   6.573   2.919
 5749SOL     OW18145   2.201   1.963   3.264
 5749SOL    HW118146   2.235   1.882   3.312
 5749SOL    HW218147   2.261   2.041   3.283
 5750SOL     OW18148   6.680   5.477   2.690
 5750SOL    HW118149   6.586   5.513   2.689
 5750SOL    HW218150   6.683   5.392   2.637
 5751SOL     OW18151   2.251   2.903   6.269
 5751SOL    HW118152   2.320   2.953   6.320
 5751SOL    HW218153   2.183   2.865   6.332
 5752SOL     OW18154   6.715   1.048   0.036
 5752SOL    HW118155   6.685   1.144   0.030
 5752SOL    HW218156   6.670   1.004   0.113
 5753SOL     OW18157   4.087   2.297   0.278
 5753SOL    HW118158   4.026   2.337   0.209
 5753SOL    HW218159   4.095   2.361   0.355
 5754SOL     OW18160   6.226   4.507   1.093
 5754SOL    HW118161   6.308   4.481   1.143
 5754SOL    HW218162   6.176   4.425   1.064
 5755SOL     OW18163   3.673   3.672   1.350
 5755SOL    HW118164   3.615   3.613   1.407
 5755SOL    HW218165   3.753   3.700   1.403
 5756SOL     OW18166   0.197   6.313   4.014
 5756SOL    HW118167   0.255   6.308   4.095
 5756SOL    HW218168   0.254   6.302   3.932
 5757SOL     OW18169   0.482   5.405   1.843
 5757SOL    HW118170   0.401   5.415   1.785
 5757SOL    HW218171   0.454   5.407   1.939
 5758SOL     OW18172   1.146   1.453   5.450
 5758SOL    HW118173   1.072   1.518   5.470
 5758SOL    HW218174   1.233   1.501   5.448
 5759SOL     OW18175   5.822   1.812   5.172
 5759SOL    HW118176   5.822   1.911   5.159
 5759SOL    HW218177   5.728   1.780   5.179
 5760SOL     OW18178   1.856   5.452   1.562
 5760SOL    HW118179   1.924   5.465   1.634
 5760SOL    HW218180   1.900   5.459   1.473
 5761SOL     OW18181   5.306   0.562   5.301
 5761SOL    HW118182   5.306   0.656   5.267
 5761SOL    HW218183   5.337   0.501   5.228
 5762SOL     OW18184   5.663   6.065   1.251
 5762SOL    HW118185   5.601   5.991   1.275
 5762SOL    HW218186   5.685   6.059   1.153
 5763SOL     OW18187   1.348   1.994   1.197
 5763SOL    HW118188   1.391   2.008   1.286
 5763SOL    HW218189   1.416   1.957   1.133
 5764SOL     OW18190   4.753   3.249   5.608
 5764SOL    HW118191   4.768   3.162   5.655
 5764SOL    HW218192   4.711   3.232   5.519
 5765SOL     OW18193   5.874   4.777   0.363
 5765SOL    HW118194   5.783   4.745   0.337
 5765SOL    HW218195   5.930   4.699   0.390
 5766SOL     OW18196   2.765   1.005   3.332
 5766SOL    HW118197   2.853   1.044   3.305
 5766SOL    HW218198   2.780   0.929   3.395
 5767SOL     OW18199   6.601   0.004   0.806
 5767SOL    HW118200   6.601   6.954   0.875
 5767SOL    HW218201   6.695   0.031   0.786
 5768SOL     OW18202   6.403   0.536   2.701
 5768SOL    HW118203   6.457   0.452   2.691
 5768SOL    HW218204   6.306   0.514   2.693
 5769SOL     OW18205   2.090   6.097   3.459
 5769SOL    HW118206   2.015   6.071   3.520
 5769SOL    HW218207   2.132   6.014   3.422
 5770SOL     OW18208   6.325   1.029   1.840
 5770SOL    HW118209   6.366   1.120   1.836
 5770SOL    HW218210   6.345   0.980   1.754
 5771SOL     OW18211   1.032   1.396   2.001
 5771SOL    HW118212   1.088   1.479   1.999
 5771SOL    HW218213   1.062   1.338   2.077
 5772SOL     OW18214   0.037   4.273   6.850
 5772SOL    HW118215   0.012   4.305   6.758
 5772SOL    HW218216   6.996   4.201   6.878
 5773SOL     OW18217   5.513   5.829   4.649
 5773SOL    HW118218   5.538   5.778   4.567
 5773SOL    HW218219   5.559   5.918   4.650
 5774SOL     OW18220   2.755   4.729   2.780
 5774SOL    HW118221   2.846   4.761   2.805
 5774SOL    HW218222   2.759   4.678   2.694
 5775SOL     OW18223   0.675   0.491   0.229
 5775SOL    HW118224   0.742   0.467   0.158
 5775SOL    HW218225   0.583   0.476   0.195
 5776SOL     OW18226   5.578   1.090   6.115
 5776SOL    HW118227   5.654   1.137   6.070
 5776SOL    HW218228   5.508   1.156   6.141
 5777SOL     OW18229   6.161   0.795   5.189
 5777SOL    HW118230   6.206   0.720   5.141
 5777SOL    HW218231   6.064   0.796   5.165
 5778SOL     OW18232   2.157   0.038   3.779
 5778SOL    HW118233   2.131   0.111   3.716
 5778SOL    HW218234   2.196   0.078   3.862
 5779SOL     OW18235   4.133   0.527   1.840
 5779SOL    HW118236   4.089   0.614   1.816
 5779SOL    HW218237   4.064   0.456   1.853
 5780SOL     OW18238   6.063   3.636   1.608
 5780SOL    HW118239   6.072   3.541   1.635
 5780SOL    HW218240   6.068   3.644   1.509
 5781SOL     OW18241   2.574   4.884   5.053
 5781SOL    HW118242   2.574   4.798   5.104
 5781SOL    HW218243   2.662   4.897   5.008
 5782SOL     OW18244   3.080   1.462   3.185
 5782SOL    HW118245   3.071   1.526   3.109
 5782SOL    HW218246   3.119   1.376   3.152
 5783SOL     OW18247   2.488   6.456   1.232
 5783SOL    HW118248   2.414   6.490   1.174
 5783SOL    HW218249   2.575   6.492   1.198
 5784SOL     OW18250   1.662   5.782   0.196
 5784SOL    HW118251   1.758   5.756   0.188
 5784SOL    HW218252   1.613   5.751   0.114
 5785SOL     OW18253   2.496   1.266   0.440
 5785SOL    HW118254   2.416   1.205   0.440
 5785SOL    HW218255   2.533   1.272   0.348
 5786SOL     OW18256   0.933   3.384   0.281
 5786SOL    HW118257   0.951   3.431   0.368
 5786SOL    HW218258   0.999   3.414   0.213
 5787SOL     OW18259   0.245   3.230   5.457
 5787SOL    HW118260   0.296   3.174   5.391
 5787SOL    HW218261   0.252   3.188   5.548
 5788SOL     OW18262   2.019   2.733   2.154
 5788SOL    HW118263   2.057   2.662   2.094
 5788SOL    HW218264   1.925   2.753   2.127
 5789SOL     OW18265   2.827   5.140   0.064
 5789SOL    HW118266   2.742   5.090   0.077
 5789SOL    HW218267   2.904   5.084   0.095
 5790SOL     OW18268   6.322   6.134   3.533
 5790SOL    HW118269   6.274   6.221   3.519
 5790SOL    HW218270   6.414   6.152   3.568
 5791SOL     OW18271   4.322   1.832   1.341
 5791SOL    HW118272   4.243   1.886   1.370
 5791SOL    HW218273   4.291   1.740   1.314
 5792SOL     OW18274   4.108   2.160   3.250
 5792SOL    HW118275   4.107   2.064   3.222
 5792SOL    HW218276   4.064   2.216   3.181
 5793SOL     OW18277   3.984   3.025   6.751
 5793SOL    HW118278   4.011   3.045   6.845
 5793SOL    HW218279   3.985   2.927   6.735
 5794SOL     OW18280   3.437   6.199   0.022
 5794SOL    HW118281   3.402   6.151   0.102
 5794SOL    HW218282   3.528   6.235   0.041
 5795SOL     OW18283   2.139   6.877   1.428
 5795SOL    HW118284   2.177   6.952   1.483
 5795SOL    HW218285   2.164   6.789   1.468
 5796SOL     OW18286   4.916   0.830   6.784
 5796SOL    HW118287   4.961   0.764   6.845
 5796SOL    HW218288   4.981   0.901   6.759
 5797SOL     OW18289   6.991   2.738   0.621
 5797SOL    HW118290   6.954   2.674   0.553
 5797SOL    HW218291   0.042   2.693   0.672
 5798SOL     OW18292   1.607   3.606   4.539
 5798SOL    HW118293   1.613   3.519   4.489
 5798SOL    HW218294   1.687   3.662   4.516
 5799SOL     OW18295   2.982   0.183   3.382
 5799SOL    HW118296   3.073   0.194   3.343
 5799SOL    HW218297   2.989   0.173   3.481
 5800SOL     OW18298   1.092   0.228   1.660
 5800SOL    HW118299   1.028   0.155   1.685
 5800SOL    HW218300   1.077   0.255   1.565
 5801SOL     OW18301   1.523   1.529   2.264
 5801SOL    HW118302   1.515   1.625   2.236
 5801SOL    HW218303   1.611   1.514   2.308
 5802SOL     OW18304   0.493   0.392   2.815
 5802SOL    HW118305   0.457   0.298   2.824
 5802SOL    HW218306   0.508   0.430   2.906
 5803SOL     OW18307   0.373   5.978   4.505
 5803SOL    HW118308   0.395   5.907   4.573
 5803SOL    HW218309   0.450   5.988   4.442
 5804SOL     OW18310   5.611   2.255   3.083
 5804SOL    HW118311   5.538   2.245   3.151
 5804SOL    HW218312   5.592   2.194   3.006
 5805SOL     OW18313   1.215   2.948   2.243
 5805SOL    HW118314   1.226   3.046   2.227
 5805SOL    HW218315   1.273   2.920   2.319
 5806SOL     OW18316   6.793   4.094   2.553
 5806SOL    HW118317   6.698   4.127   2.551
 5806SOL    HW218318   6.849   4.152   2.493
 5807SOL     OW18319   1.400   1.274   2.282
 5807SOL    HW118320   1.469   1.344   2.302
 5807SOL    HW218321   1.370   1.232   2.368
 5808SOL     OW18322   6.852   0.536   5.959
 5808SOL    HW118323   6.813   0.595   6.029
 5808SOL    HW218324   6.831   0.440   5.980
 5809SOL     OW18325   0.031   2.559   4.669
 5809SOL    HW118326   0.079   2.513   4.744
 5809SOL    HW218327   0.060   2.520   4.582
 5810SOL     OW18328   2.840   6.060   5.207
 5810SOL    HW118329   2.880   5.983   5.257
 5810SOL    HW218330   2.912   6.122   5.177
 5811SOL     OW18331   3.826   4.063   6.625
 5811SOL    HW118332   3.812   4.105   6.536
 5811SOL    HW218333   3.810   4.131   6.697
 5812SOL     OW18334   5.900   2.799   6.169
 5812SOL    HW118335   5.912   2.840   6.259
 5812SOL    HW218336   5.874   2.703   6.179
 5813SOL     OW18337   5.087   5.362   0.615
 5813SOL    HW118338   5.149   5.343   0.691
 5813SOL    HW218339   5.061   5.459   0.616
 5814SOL     OW18340   5.847   1.146   1.952
 5814SOL    HW118341   5.753   1.162   1.982
 5814SOL    HW218342   5.910   1.168   2.026
 5815SOL     OW18343   6.187   3.522   4.478
 5815SOL    HW118344   6.173   3.551   4.573
 5815SOL    HW218345   6.269   3.566   4.441
 5816SOL     OW18346   0.231   3.894   2.142
 5816SOL    HW118347   0.259   3.802   2.115
 5816SOL    HW218348   0.132   3.903   2.136
 5817SOL     OW18349   6.071   3.843   3.203
 5817SOL    HW118350   6.021   3.923   3.234
 5817SOL    HW218351   6.024   3.760   3.233
 5818SOL     OW18352   2.505   0.196   4.765
 5818SOL    HW118353   2.420   0.228   4.725
 5818SOL    HW218354   2.582   0.239   4.719
 5819SOL     OW18355   3.747   3.904   0.414
 5819SOL    HW118356   3.733   4.001   0.430
 5819SOL    HW218357   3.710   3.852   0.492
 5820SOL     OW18358   6.254   0.107   2.629
 5820SOL    HW118359   6.303   0.020   2.621
 5820SOL    HW218360   6.221   0.135   2.538
 5821SOL     OW18361   6.838   0.077   1.935
 5821SOL    HW118362   6.802   7.006   1.941
 5821SOL    HW218363   6.764   0.140   1.914
 5822SOL     OW18364   1.062   4.177   2.415
 5822SOL    HW118365   1.041   4.220   2.327
 5822SOL    HW218366   1.085   4.248   2.482
 5823SOL     OW18367   2.314   6.715   3.989
 5823SOL    HW118368   2.320   6.645   4.061
 5823SOL    HW218369   2.345   6.803   4.025
 5824SOL     OW18370   1.799   6.840   2.475
 5824SOL    HW118371   1.785   6.778   2.553
 5824SOL    HW218372   1.846   6.791   2.402
 5825SOL     OW18373   4.633   1.431   4.024
 5825SOL    HW118374   4.666   1.340   4.048
 5825SOL    HW218375   4.663   1.454   3.931
 5826SOL     OW18376   1.522   6.541   5.093
 5826SOL    HW118377   1.440   6.590   5.122
 5826SOL    HW218378   1.499   6.444   5.079
 5827SOL     OW18379   2.161   3.952   3.681
 5827SOL    HW118380   2.245   3.919   3.638
 5827SOL    HW218381   2.085   3.944   3.616
 5828SOL     OW18382   4.660   0.518   5.788
 5828SOL    HW118383   4.665   0.618   5.782
 5828SOL    HW218384   4.693   0.478   5.702
 5829SOL     OW18385   2.063   0.501   2.969
 5829SOL    HW118386   1.983   0.459   2.926
 5829SOL    HW218387   2.070   0.469   3.064
 5830SOL     OW18388   3.943   5.297   4.202
 5830SOL    HW118389   3.953   5.265   4.107
 5830SOL    HW218390   3.850   5.278   4.233
 5831SOL     OW18391   2.131   2.427   5.127
 5831SOL    HW118392   2.087   2.495   5.186
 5831SOL    HW218393   2.231   2.437   5.134
 5832SOL     OW18394   3.044   5.423   2.172
 5832SOL    HW118395   2.958   5.373   2.159
 5832SOL    HW218396   3.119   5.358   2.182
 5833SOL     OW18397   3.711   5.511   6.920
 5833SOL    HW118398   3.711   5.433   6.983
 5833SOL    HW218399   3.677   5.592   6.967
 5834SOL     OW18400   6.540   3.161   6.006
 5834SOL    HW118401   6.599   3.089   6.044
 5834SOL    HW218402   6.562   3.248   6.048
 5835SOL     OW18403   4.571   1.774   3.165
 5835SOL    HW118404   4.513   1.813   3.236
 5835SOL    HW218405   4.655   1.738   3.206
 5836SOL     OW18406   4.942   6.242   1.851
 5836SOL    HW118407   4.941   6.142   1.849
 5836SOL    HW218408   4.898   6.274   1.934
 5837SOL     OW18409   3.093   4.624   6.692
 5837SOL    HW118410   3.155   4.638   6.615
 5837SOL    HW218411   3.101   4.529   6.723
 5838SOL     OW18412   4.276   3.140   0.261
 5838SOL    HW118413   4.346   3.212   0.270
 5838SOL    HW218414   4.195   3.167   0.312
 5839SOL     OW18415   2.049   2.521   0.728
 5839SOL    HW118416   1.952   2.497   0.727
 5839SOL    HW218417   2.094   2.479   0.807
 5840SOL     OW18418   0.492   3.751   3.895
 5840SOL    HW118419   0.450   3.708   3.814
 5840SOL    HW218420   0.488   3.851   3.885
 5841SOL     OW18421   5.209   1.400   0.516
 5841SOL    HW118422   5.302   1.405   0.554
 5841SOL    HW218423   5.203   1.456   0.434
 5842SOL     OW18424   3.135   1.569   1.354
 5842SOL    HW118425   3.182   1.635   1.413
 5842SOL    HW218426   3.075   1.512   1.410
 5843SOL     OW18427   3.637   3.406   0.222
 5843SOL    HW118428   3.635   3.306   0.219
 5843SOL    HW218429   3.728   3.437   0.248
 5844SOL     OW18430   0.463   6.022   5.287
 5844SOL    HW118431   0.504   6.107   5.321
 5844SOL    HW218432   0.424   6.037   5.197
 5845SOL     OW18433   1.456   6.867   2.745
 5845SOL    HW118434   1.426   6.888   2.652
 5845SOL    HW218435   1.482   6.952   2.791
 5846SOL     OW18436   1.073   4.306   5.192
 5846SOL    HW118437   0.992   4.308   5.133
 5846SOL    HW218438   1.152   4.275   5.139
 5847SOL     OW18439   1.660   3.803   6.318
 5847SOL    HW118440   1.699   3.729   6.264
 5847SOL    HW218441   1.571   3.829   6.281
 5848SOL     OW18442   2.090   5.557   1.946
 5848SOL    HW118443   2.051   5.561   2.038
 5848SOL    HW218444   2.171   5.498   1.947
 5849SOL     OW18445   2.610   5.250   6.327
 5849SOL    HW118446   2.522   5.212   6.354
 5849SOL    HW218447   2.680   5.225   6.394
 5850SOL     OW18448   0.530   1.771   1.801
 5850SOL    HW118449   0.552   1.810   1.890
 5850SOL    HW218450   0.504   1.675   1.812
 5851SOL     OW18451   6.252   3.851   4.936
 5851SOL    HW118452   6.214   3.806   5.018
 5851SOL    HW218453   6.177   3.888   4.881
 5852SOL     OW18454   4.985   4.310   2.166
 5852SOL    HW118455   4.966   4.214   2.184
 5852SOL    HW218456   4.930   4.341   2.088
 5853SOL     OW18457   4.922   4.788   6.361
 5853SOL    HW118458   4.887   4.872   6.404
 5853SOL    HW218459   5.017   4.774   6.390
 5854SOL     OW18460   3.422   4.897   5.091
 5854SOL    HW118461   3.345   4.909   5.153
 5854SOL    HW218462   3.507   4.917   5.140
 5855SOL     OW18463   2.256   2.854   2.990
 5855SOL    HW118464   2.168   2.887   3.025
 5855SOL    HW218465   2.321   2.848   3.066
 5856SOL     OW18466   0.879   6.525   2.868
 5856SOL    HW118467   0.914   6.610   2.908
 5856SOL    HW218468   0.859   6.459   2.941
 5857SOL     OW18469   5.671   4.819   6.328
 5857SOL    HW118470   5.649   4.747   6.394
 5857SOL    HW218471   5.750   4.871   6.361
 5858SOL     OW18472   1.770   1.350   2.908
 5858SOL    HW118473   1.685   1.337   2.856
 5858SOL    HW218474   1.839   1.393   2.850
 5859SOL     OW18475   5.702   5.472   2.229
 5859SOL    HW118476   5.627   5.517   2.277
 5859SOL    HW218477   5.704   5.503   2.134
 5860SOL     OW18478   0.585   4.046   2.907
 5860SOL    HW118479   0.582   4.054   2.807
 5860SOL    HW218480   0.640   3.966   2.932
 5861SOL     OW18481   4.744   0.777   5.766
 5861SOL    HW118482   4.821   0.816   5.815
 5861SOL    HW218483   4.742   0.813   5.673
 5862SOL     OW18484   6.385   5.065   3.180
 5862SOL    HW118485   6.385   5.116   3.094
 5862SOL    HW218486   6.311   5.100   3.238
 5863SOL     OW18487   3.990   6.866   6.429
 5863SOL    HW118488   4.006   6.931   6.503
 5863SOL    HW218489   3.907   6.813   6.448
 5864SOL     OW18490   3.292   3.471   2.572
 5864SOL    HW118491   3.198   3.437   2.563
 5864SOL    HW218492   3.352   3.419   2.511
 5865SOL     OW18493   6.714   0.617   6.830
 5865SOL    HW118494   6.665   0.592   6.913
 5865SOL    HW218495   6.656   0.674   6.773
 5866SOL     OW18496   3.280   2.982   2.723
 5866SOL    HW118497   3.252   3.060   2.668
 5866SOL    HW218498   3.222   2.975   2.804
 5867SOL     OW18499   3.629   1.592   1.562
 5867SOL    HW118500   3.624   1.643   1.476
 5867SOL    HW218501   3.671   1.502   1.545
 5868SOL     OW18502   1.216   0.818   0.385
 5868SOL    HW118503   1.121   0.786   0.391
 5868SOL    HW218504   1.261   0.775   0.307
 5869SOL     OW18505   1.113   5.908   3.343
 5869SOL    HW118506   1.188   5.844   3.332
 5869SOL    HW218507   1.041   5.888   3.276
 5870SOL     OW18508   3.857   6.549   3.960
 5870SOL    HW118509   3.766   6.592   3.965
 5870SOL    HW218510   3.847   6.450   3.968
 5871SOL     OW18511   3.701   3.228   3.597
 5871SOL    HW118512   3.615   3.207   3.550
 5871SOL    HW218513   3.755   3.290   3.539
 5872SOL     OW18514   4.461   6.424   0.390
 5872SOL    HW118515   4.505   6.339   0.419
 5872SOL    HW218516   4.433   6.416   0.294
 5873SOL     OW18517   3.924   6.152   1.984
 5873SOL    HW118518   4.005   6.104   2.018
 5873SOL    HW218519   3.906   6.232   2.042
 5874SOL     OW18520   0.718   4.026   5.556
 5874SOL    HW118521   0.703   4.035   5.458
 5874SOL    HW218522   0.753   4.113   5.592
 5875SOL     OW18523   3.790   1.955   1.321
 5875SOL    HW118524   3.793   2.002   1.233
 5875SOL    HW218525   3.769   1.859   1.307
 5876SOL     OW18526   3.430   3.592   2.008
 5876SOL    HW118527   3.401   3.615   1.915
 5876SOL    HW218528   3.425   3.493   2.021
 5877SOL     OW18529   5.551   4.652   1.241
 5877SOL    HW118530   5.619   4.585   1.269
 5877SOL    HW218531   5.570   4.681   1.147
 5878SOL     OW18532   1.980   4.026   2.644
 5878SOL    HW118533   1.990   3.931   2.672
 5878SOL    HW218534   2.056   4.080   2.679
 5879SOL     OW18535   0.840   4.187   3.975
 5879SOL    HW118536   0.755   4.235   3.999
 5879SOL    HW218537   0.841   4.168   3.877
 5880SOL     OW18538   3.474   6.060   0.417
 5880SOL    HW118539   3.415   6.058   0.336
 5880SOL    HW218540   3.500   5.966   0.441
 5881SOL     OW18541   1.131   5.908   4.315
 5881SOL    HW118542   1.128   5.960   4.401
 5881SOL    HW218543   1.198   5.835   4.323
 5882SOL     OW18544   4.950   0.786   2.877
 5882SOL    HW118545   4.867   0.797   2.823
 5882SOL    HW218546   4.965   0.868   2.933
 5883SOL     OW18547   0.620   3.424   5.516
 5883SOL    HW118548   0.666   3.471   5.592
 5883SOL    HW218549   0.539   3.477   5.490
 5884SOL     OW18550   0.474   0.753   3.588
 5884SOL    HW118551   0.539   0.708   3.527
 5884SOL    HW218552   0.430   0.829   3.541
 5885SOL     OW18553   6.023   6.326   1.081
 5885SOL    HW118554   6.021   6.241   1.028
 5885SOL    HW218555   5.951   6.386   1.048
 5886SOL     OW18556   0.640   0.986   6.439
 5886SOL    HW118557   0.713   1.012   6.376
 5886SOL    HW218558   0.582   0.917   6.396
 5887SOL     OW18559   4.395   6.469   3.111
 5887SOL    HW118560   4.330   6.524   3.058
 5887SOL    HW218561   4.446   6.529   3.173
 5888SOL     OW18562   0.586   1.207   2.726
 5888SOL    HW118563   0.595   1.125   2.782
 5888SOL    HW218564   0.676   1.250   2.715
 5889SOL     OW18565   2.365   0.301   0.098
 5889SOL    HW118566   2.338   0.208   0.125
 5889SOL    HW218567   2.462   0.301   0.074
 5890SOL     OW18568   3.429   4.732   5.535
 5890SOL    HW118569   3.407   4.765   5.627
 5890SOL    HW218570   3.364   4.662   5.508
 5891SOL     OW18571   2.453   3.531   6.363
 5891SOL    HW118572   2.444   3.504   6.267
 5891SOL    HW218573   2.516   3.609   6.369
 5892SOL     OW18574   1.970   6.674   2.676
 5892SOL    HW118575   1.922   6.750   2.721
 5892SOL    HW218576   1.907   6.629   2.612
 5893SOL     OW18577   1.846   0.800   3.315
 5893SOL    HW118578   1.807   0.716   3.352
 5893SOL    HW218579   1.773   0.868   3.303
 5894SOL     OW18580   0.659   3.459   4.377
 5894SOL    HW118581   0.565   3.480   4.350
 5894SOL    HW218582   0.718   3.462   4.296
 5895SOL     OW18583   5.589   3.939   3.690
 5895SOL    HW118584   5.680   3.920   3.727
 5895SOL    HW218585   5.581   4.036   3.669
 5896SOL     OW18586   4.856   2.486   5.843
 5896SOL    HW118587   4.907   2.400   5.843
 5896SOL    HW218588   4.892   2.545   5.771
 5897SOL     OW18589   4.168   0.063   1.470
 5897SOL    HW118590   4.261   0.028   1.459
 5897SOL    HW218591   4.103   7.022   1.429
 5898SOL     OW18592   2.602   6.698   2.631
 5898SOL    HW118593   2.698   6.688   2.660
 5898SOL    HW218594   2.562   6.608   2.617
 5899SOL     OW18595   5.798   0.529   3.653
 5899SOL    HW118596   5.833   0.622   3.641
 5899SOL    HW218597   5.699   0.529   3.640
 5900SOL     OW18598   3.935   4.954   2.395
 5900SOL    HW118599   3.868   4.934   2.324
 5900SOL    HW218600   3.930   5.052   2.419
 5901SOL     OW18601   3.303   6.297   4.874
 5901SOL    HW118602   3.286   6.292   4.776
 5901SOL    HW218603   3.318   6.205   4.910
 5902SOL     OW18604   6.095   1.668   6.565
 5902SOL    HW118605   6.024   1.713   6.511
 5902SOL    HW218606   6.170   1.732   6.581
 5903SOL     OW18607   6.538   3.675   6.790
 5903SOL    HW118608   6.471   3.667   6.865
 5903SOL    HW218609   6.622   3.628   6.816
 5904SOL     OW18610   0.625   3.827   1.970
 5904SOL    HW118611   0.669   3.775   2.043
 5904SOL    HW218612   0.647   3.924   1.980
 5905SOL     OW18613   6.535   5.083   2.080
 5905SOL    HW118614   6.451   5.137   2.076
 5905SOL    HW218615   6.605   5.126   2.023
 5906SOL     OW18616   0.278   1.664   3.954
 5906SOL    HW118617   0.300   1.579   4.001
 5906SOL    HW218618   0.362   1.709   3.924
 5907SOL     OW18619   1.925   0.113   2.271
 5907SOL    HW118620   1.963   0.076   2.186
 5907SOL    HW218621   1.825   0.104   2.270
 5908SOL     OW18622   0.153   2.776   5.876
 5908SOL    HW118623   0.109   2.820   5.797
 5908SOL    HW218624   0.087   2.767   5.950
 5909SOL     OW18625   6.990   4.015   0.965
 5909SOL    HW118626   0.058   4.057   0.958
 5909SOL    HW218627   6.927   4.061   0.904
 5910SOL     OW18628   2.192   1.559   3.578
 5910SOL    HW118629   2.181   1.639   3.636
 5910SOL    HW218630   2.102   1.528   3.547
 5911SOL     OW18631   6.444   6.019   6.554
 5911SOL    HW118632   6.434   5.977   6.644
 5911SOL    HW218633   6.411   6.113   6.558
 5912SOL     OW18634   0.876   0.456   3.946
 5912SOL    HW118635   0.828   0.473   3.860
 5912SOL    HW218636   0.939   0.531   3.965
 5913SOL     OW18637   6.148   2.005   0.268
 5913SOL    HW118638   6.174   1.914   0.301
 5913SOL    HW218639   6.227   2.066   0.274
 5914SOL     OW18640   1.022   6.495   0.390
 5914SOL    HW118641   1.104   6.471   0.442
 5914SOL    HW218642   0.944   6.443   0.424
 5915SOL     OW18643   3.915   1.779   5.841
 5915SOL    HW118644   3.952   1.854   5.896
 5915SOL    HW218645   3.815   1.777   5.851
 5916SOL     OW18646   0.886   6.656   2.052
 5916SOL    HW118647   0.803   6.601   2.056
 5916SOL    HW218648   0.870   6.745   2.094
 5917SOL     OW18649   3.672   4.175   0.472
 5917SOL    HW118650   3.607   4.144   0.402
 5917SOL    HW218651   3.723   4.253   0.437
 5918SOL     OW18652   3.105   6.522   4.786
 5918SOL    HW118653   3.171   6.458   4.825
 5918SOL    HW218654   3.146   6.613   4.782
 5919SOL     OW18655   3.214   3.413   4.928
 5919SOL    HW118656   3.130   3.360   4.919
 5919SOL    HW218657   3.196   3.493   4.985
 5920SOL     OW18658   6.300   0.250   5.496
 5920SOL    HW118659   6.273   0.265   5.591
 5920SOL    HW218660   6.392   0.287   5.482
 5921SOL     OW18661   2.666   4.247   6.737
 5921SOL    HW118662   2.650   4.152   6.764
 5921SOL    HW218663   2.615   4.267   6.654
 5922SOL     OW18664   5.003   2.703   2.319
 5922SOL    HW118665   4.953   2.715   2.405
 5922SOL    HW218666   4.944   2.730   2.243
 5923SOL     OW18667   6.089   0.959   3.354
 5923SOL    HW118668   6.098   0.954   3.453
 5923SOL    HW218669   6.100   0.868   3.315
 5924SOL     OW18670   5.216   6.793   3.476
 5924SOL    HW118671   5.165   6.781   3.561
 5924SOL    HW218672   5.302   6.841   3.495
 5925SOL     OW18673   4.625   1.109   1.340
 5925SOL    HW118674   4.544   1.087   1.394
 5925SOL    HW218675   4.619   1.202   1.305
 5926SOL     OW18676   4.835   4.403   3.345
 5926SOL    HW118677   4.810   4.472   3.276
 5926SOL    HW218678   4.898   4.337   3.304
 5927SOL     OW18679   0.380   4.504   1.903
 5927SOL    HW118680   0.453   4.552   1.855
 5927SOL    HW218681   0.307   4.568   1.926
 5928SOL     OW18682   2.757   0.197   0.120
 5928SOL    HW118683   2.714   0.241   0.041
 5928SOL    HW218684   2.710   0.110   0.138
 5929SOL     OW18685   1.836   0.808   6.960
 5929SOL    HW118686   1.789   0.883   7.008
 5929SOL    HW218687   1.861   0.737   0.003
 5930SOL     OW18688   1.722   3.706   2.426
 5930SOL    HW118689   1.767   3.617   2.426
 5930SOL    HW218690   1.674   3.719   2.339
 5931SOL     OW18691   4.997   6.853   3.168
 5931SOL    HW118692   4.918   6.906   3.200
 5931SOL    HW218693   5.018   6.781   3.235
 5932SOL     OW18694   2.723   0.504   6.737
 5932SOL    HW118695   2.815   0.490   6.774
 5932SOL    HW218696   2.695   0.424   6.684
 5933SOL     OW18697   6.028   6.106   4.723
 5933SOL    HW118698   6.067   6.184   4.674
 5933SOL    HW218699   6.078   6.093   4.809
 5934SOL     OW18700   3.383   3.396   6.836
 5934SOL    HW118701   3.340   3.309   6.858
 5934SOL    HW218702   3.434   3.387   6.751
 5935SOL     OW18703   1.222   6.185   6.320
 5935SOL    HW118704   1.275   6.193   6.236
 5935SOL    HW218705   1.189   6.091   6.330
 5936SOL     OW18706   3.789   3.341   2.190
 5936SOL    HW118707   3.739   3.273   2.137
 5936SOL    HW218708   3.770   3.432   2.153
 5937SOL     OW18709   0.468   3.315   0.977
 5937SOL    HW118710   0.520   3.288   1.058
 5937SOL    HW218711   0.392   3.251   0.964
 5938SOL     OW18712   0.418   4.480   4.303
 5938SOL    HW118713   0.471   4.396   4.309
 5938SOL    HW218714   0.326   4.465   4.339
 5939SOL     OW18715   3.897   1.651   5.281
 5939SOL    HW118716   3.850   1.620   5.198
 5939SOL    HW218717   3.896   1.579   5.349
 5940SOL     OW18718   4.837   5.540   1.855
 5940SOL    HW118719   4.852   5.482   1.935
 5940SOL    HW218720   4.898   5.620   1.860
 5941SOL     OW18721   0.333   2.255   3.110
 5941SOL    HW118722   0.299   2.161   3.098
 5941SOL    HW218723   0.291   2.295   3.192
 5942SOL     OW18724   5.018   2.985   6.017
 5942SOL    HW118725   5.014   3.011   6.114
 5942SOL    HW218726   5.020   3.068   5.961
 5943SOL     OW18727   2.858   4.294   1.708
 5943SOL    HW118728   2.906   4.366   1.758
 5943SOL    HW218729   2.759   4.308   1.717
 5944SOL     OW18730   6.566   3.480   6.457
 5944SOL    HW118731   6.556   3.472   6.358
 5944SOL    HW218732   6.661   3.500   6.480
 5945SOL     OW18733   6.706   6.356   4.651
 5945SOL    HW118734   6.663   6.276   4.695
 5945SOL    HW218735   6.723   6.335   4.555
 5946SOL     OW18736   2.035   3.558   0.366
 5946SOL    HW118737   2.046   3.505   0.450
 5946SOL    HW218738   1.984   3.503   0.299
 5947SOL     OW18739   3.906   3.110   4.772
 5947SOL    HW118740   3.917   3.081   4.677
 5947SOL    HW218741   3.890   3.031   4.830
 5948SOL     OW18742   4.957   3.296   2.010
 5948SOL    HW118743   4.927   3.221   2.069
 5948SOL    HW218744   4.915   3.287   1.920
 5949SOL     OW18745   0.338   4.473   3.001
 5949SOL    HW118746   0.306   4.565   2.976
 5949SOL    HW218747   0.373   4.426   2.920
 5950SOL     OW18748   3.988   0.036   4.507
 5950SOL    HW118749   3.895   0.025   4.471
 5950SOL    HW218750   3.993   0.118   4.563
 5951SOL     OW18751   0.364   3.634   6.698
 5951SOL    HW118752   0.416   3.716   6.725
 5951SOL    HW218753   0.298   3.658   6.627
 5952SOL     OW18754   4.521   4.617   1.315
 5952SOL    HW118755   4.430   4.605   1.356
 5952SOL    HW218756   4.512   4.621   1.216
 5953SOL     OW18757   6.441   2.840   5.259
 5953SOL    HW118758   6.382   2.797   5.327
 5953SOL    HW218759   6.388   2.909   5.208
 5954SOL     OW18760   1.851   6.172   4.148
 5954SOL    HW118761   1.769   6.211   4.104
 5954SOL    HW218762   1.823   6.104   4.216
 5955SOL     OW18763   5.448   3.468   0.328
 5955SOL    HW118764   5.386   3.491   0.403
 5955SOL    HW218765   5.519   3.406   0.361
 5956SOL     OW18766   5.579   2.537   5.517
 5956SOL    HW118767   5.552   2.545   5.421
 5956SOL    HW218768   5.644   2.462   5.527
 5957SOL     OW18769   6.648   1.866   3.149
 5957SOL    HW118770   6.632   1.901   3.241
 5957SOL    HW218771   6.621   1.770   3.145
 5958SOL     OW18772   3.105   0.097   2.780
 5958SOL    HW118773   3.039   0.155   2.828
 5958SOL    HW218774   3.181   0.075   2.841
 5959SOL     OW18775   4.900   2.542   3.970
 5959SOL    HW118776   4.948   2.570   4.053
 5959SOL    HW218777   4.829   2.475   3.992
 5960SOL     OW18778   4.067   0.235   6.132
 5960SOL    HW118779   4.077   0.177   6.213
 5960SOL    HW218780   4.076   0.331   6.159
 5961SOL     OW18781   2.731   2.415   2.927
 5961SOL    HW118782   2.699   2.480   2.859
 5961SOL    HW218783   2.787   2.345   2.882
 5962SOL     OW18784   5.136   5.888   0.823
 5962SOL    HW118785   5.223   5.863   0.780
 5962SOL    HW218786   5.143   5.979   0.863
 5963SOL     OW18787   2.885   3.797   0.334
 5963SOL    HW118788   2.891   3.779   0.236
 5963SOL    HW218789   2.935   3.881   0.355
 5964SOL     OW18790   2.762   6.624   2.164
 5964SOL    HW118791   2.690   6.643   2.230
 5964SOL    HW218792   2.783   6.526   2.164
 5965SOL     OW18793   2.048   0.394   0.197
 5965SOL    HW118794   2.051   0.304   0.154
 5965SOL    HW218795   2.139   0.418   0.231
 5966SOL     OW18796   2.811   1.535   4.610
 5966SOL    HW118797   2.714   1.552   4.627
 5966SOL    HW218798   2.823   1.445   4.570
 5967SOL     OW18799   3.922   1.506   4.408
 5967SOL    HW118800   3.995   1.444   4.378
 5967SOL    HW218801   3.929   1.521   4.507
 5968SOL     OW18802   5.699   2.705   1.852
 5968SOL    HW118803   5.799   2.712   1.858
 5968SOL    HW218804   5.662   2.793   1.824
 5969SOL     OW18805   5.897   0.177   0.546
 5969SOL    HW118806   5.889   0.081   0.520
 5969SOL    HW218807   5.866   0.235   0.470
 5970SOL     OW18808   0.050   3.815   0.431
 5970SOL    HW118809   0.138   3.795   0.387
 5970SOL    HW218810   7.004   3.750   0.398
 5971SOL     OW18811   7.011   6.581   3.729
 5971SOL    HW118812   7.012   6.533   3.817
 5971SOL    HW218813   6.917   6.600   3.702
 5972SOL     OW18814   5.074   4.822   0.820
 5972SOL    HW118815   5.039   4.844   0.911
 5972SOL    HW218816   5.037   4.733   0.791
 5973SOL     OW18817   3.083   1.240   2.398
 5973SOL    HW118818   2.989   1.260   2.372
 5973SOL    HW218819   3.120   1.318   2.450
 5974SOL     OW18820   5.136   2.075   5.567
 5974SOL    HW118821   5.208   2.030   5.514
 5974SOL    HW218822   5.135   2.039   5.660
 5975SOL     OW18823   4.656   5.290   0.998
 5975SOL    HW118824   4.672   5.348   1.078
 5975SOL    HW218825   4.704   5.328   0.919
 5976SOL     OW18826   2.484   3.309   5.662
 5976SOL    HW118827   2.477   3.215   5.628
 5976SOL    HW218828   2.485   3.309   5.762
 5977SOL     OW18829   6.654   4.597   0.988
 5977SOL    HW118830   6.576   4.571   1.045
 5977SOL    HW218831   6.638   4.687   0.948
 5978SOL     OW18832   2.496   3.545   7.004
 5978SOL    HW118833   2.530   3.528   6.911
 5978SOL    HW218834   2.545   3.486   0.046
 5979SOL     OW18835   5.831   0.770   1.759
 5979SOL    HW118836   5.756   0.777   1.693
 5979SOL    HW218837   5.873   0.860   1.772
 5980SOL     OW18838   2.893   2.676   1.102
 5980SOL    HW118839   2.979   2.631   1.078
 5980SOL    HW218840   2.825   2.607   1.128
 5981SOL     OW18841   3.290   2.181   0.407
 5981SOL    HW118842   3.315   2.085   0.419
 5981SOL    HW218843   3.206   2.188   0.354
 5982SOL     OW18844   5.212   3.103   0.187
 5982SOL    HW118845   5.311   3.119   0.182
 5982SOL    HW218846   5.181   3.111   0.282
 5983SOL     OW18847   6.767   1.013   3.752
 5983SOL    HW118848   6.848   1.050   3.707
 5983SOL    HW218849   6.717   1.086   3.799
 5984SOL     OW18850   5.772   6.939   4.226
 5984SOL    HW118851   5.855   6.885   4.214
 5984SOL    HW218852   5.786   0.008   4.190
 5985SOL     OW18853   6.420   3.175   2.242
 5985SOL    HW118854   6.402   3.273   2.232
 5985SOL    HW218855   6.338   3.123   2.221
 5986SOL     OW18856   3.938   3.377   4.647
 5986SOL    HW118857   4.018   3.421   4.687
 5986SOL    HW218858   3.921   3.290   4.693
 5987SOL     OW18859   0.262   6.578   5.404
 5987SOL    HW118860   0.235   6.517   5.478
 5987SOL    HW218861   0.213   6.553   5.320
 5988SOL     OW18862   0.815   2.870   6.060
 5988SOL    HW118863   0.806   2.961   6.020
 5988SOL    HW218864   0.886   2.872   6.131
 5989SOL     OW18865   0.719   6.329   5.926
 5989SOL    HW118866   0.685   6.285   6.009
 5989SOL    HW218867   0.794   6.391   5.949
 5990SOL     OW18868   3.001   4.829   2.045
 5990SOL    HW118869   2.956   4.740   2.041
 5990SOL    HW218870   2.981   4.880   1.961
 5991SOL     OW18871   4.643   0.341   0.538
 5991SOL    HW118872   4.631   0.425   0.591
 5991SOL    HW218873   4.556   0.313   0.499
 5992SOL     OW18874   3.363   6.324   2.186
 5992SOL    HW118875   3.425   6.266   2.132
 5992SOL    HW218876   3.318   6.268   2.256
 5993SOL     OW18877   5.613   2.061   0.177
 5993SOL    HW118878   5.710   2.040   0.187
 5993SOL    HW218879   5.575   2.009   0.100
 5994SOL     OW18880   0.190   3.409   0.039
 5994SOL    HW118881   0.235   3.477   0.096
 5994SOL    HW218882   0.238   3.321   0.049
 5995SOL     OW18883   4.811   3.728   1.394
 5995SOL    HW118884   4.740   3.783   1.350
 5995SOL    HW218885   4.895   3.783   1.402
 5996SOL     OW18886   2.657   5.625   1.315
 5996SOL    HW118887   2.586   5.657   1.377
 5996SOL    HW218888   2.746   5.631   1.361
 5997SOL     OW18889   6.083   0.467   4.007
 5997SOL    HW118890   6.010   0.442   3.944
 5997SOL    HW218891   6.060   0.553   4.053
 5998SOL     OW18892   6.075   5.740   0.651
 5998SOL    HW118893   6.115   5.754   0.561
 5998SOL    HW218894   6.138   5.688   0.708
 5999SOL     OW18895   5.048   3.040   1.574
 5999SOL    HW118896   5.144   3.068   1.573
 5999SOL    HW218897   5.038   2.953   1.622
 6000SOL     OW18898   0.687   4.325   1.088
 6000SOL    HW118899   0.749   4.326   1.009
 6000SOL    HW218900   0.686   4.234   1.128
 6001SOL     OW18901   6.560   5.631   5.827
 6001SOL    HW118902   6.526   5.682   5.906
 6001SOL    HW218903   6.483   5.591   5.778
 6002SOL     OW18904   5.623   4.847   5.389
 6002SOL    HW118905   5.719   4.824   5.405
 6002SOL    HW218906   5.566   4.766   5.401
 6003SOL     OW18907   1.926   2.575   4.783
 6003SOL    HW118908   2.014   2.541   4.818
 6003SOL    HW218909   1.943   2.642   4.710
 6004SOL     OW18910   5.186   2.154   4.250
 6004SOL    HW118911   5.106   2.101   4.223
 6004SOL    HW218912   5.183   2.244   4.206
 6005SOL     OW18913   4.386   4.720   6.525
 6005SOL    HW118914   4.477   4.734   6.486
 6005SOL    HW218915   4.369   4.622   6.535
 6006SOL     OW18916   3.370   6.077   6.467
 6006SOL    HW118917   3.279   6.079   6.510
 6006SOL    HW218918   3.367   6.018   6.386
 6007SOL     OW18919   2.655   5.956   6.224
 6007SOL    HW118920   2.732   6.008   6.187
 6007SOL    HW218921   2.634   5.989   6.316
 6008SOL     OW18922   3.277   3.964   6.280
 6008SOL    HW118923   3.292   3.872   6.243
 6008SOL    HW218924   3.327   4.031   6.224
 6009SOL     OW18925   3.597   5.100   3.050
 6009SOL    HW118926   3.665   5.027   3.039
 6009SOL    HW218927   3.630   5.167   3.116
 6010SOL     OW18928   0.520   5.240   3.931
 6010SOL    HW118929   0.461   5.183   3.989
 6010SOL    HW218930   0.616   5.216   3.947
 6011SOL     OW18931   6.240   2.017   1.920
 6011SOL    HW118932   6.207   2.072   1.996
 6011SOL    HW218933   6.292   1.939   1.956
 6012SOL     OW18934   6.768   0.418   6.238
 6012SOL    HW118935   6.743   0.515   6.239
 6012SOL    HW218936   6.758   0.381   6.330
 6013SOL     OW18937   5.721   1.491   2.331
 6013SOL    HW118938   5.684   1.578   2.366
 6013SOL    HW218939   5.702   1.484   2.233
 6014SOL     OW18940   3.296   3.996   4.072
 6014SOL    HW118941   3.381   4.005   4.019
 6014SOL    HW218942   3.307   4.042   4.160
 6015SOL     OW18943   5.931   0.380   4.287
 6015SOL    HW118944   5.894   0.299   4.241
 6015SOL    HW218945   5.933   0.456   4.222
 6016SOL     OW18946   4.812   1.326   4.832
 6016SOL    HW118947   4.719   1.313   4.798
 6016SOL    HW218948   4.870   1.251   4.799
 6017SOL     OW18949   0.207   1.685   5.658
 6017SOL    HW118950   0.177   1.722   5.570
 6017SOL    HW218951   0.205   1.585   5.655
 6018SOL     OW18952   2.827   1.023   4.331
 6018SOL    HW118953   2.830   0.934   4.378
 6018SOL    HW218954   2.864   1.094   4.391
 6019SOL     OW18955   6.362   4.157   0.034
 6019SOL    HW118956   6.283   4.097   0.040
 6019SOL    HW218957   6.356   4.228   0.104
 6020SOL     OW18958   0.735   4.839   6.074
 6020SOL    HW118959   0.754   4.908   6.144
 6020SOL    HW218960   0.666   4.775   6.108
 6021SOL     OW18961   5.894   6.836   3.518
 6021SOL    HW118962   5.797   6.821   3.536
 6021SOL    HW218963   5.949   6.774   3.574
 6022SOL     OW18964   6.673   2.097   1.512
 6022SOL    HW118965   6.579   2.106   1.545
 6022SOL    HW218966   6.732   2.069   1.587
 6023SOL     OW18967   3.816   0.268   1.636
 6023SOL    HW118968   3.912   0.287   1.655
 6023SOL    HW218969   3.763   0.352   1.645
 6024SOL     OW18970   1.403   6.270   0.552
 6024SOL    HW118971   1.476   6.249   0.487
 6024SOL    HW218972   1.355   6.186   0.576
 6025SOL     OW18973   3.004   0.514   4.621
 6025SOL    HW118974   3.021   0.550   4.529
 6025SOL    HW218975   3.026   0.417   4.624
 6026SOL     OW18976   5.850   5.760   4.501
 6026SOL    HW118977   5.760   5.770   4.460
 6026SOL    HW218978   5.848   5.794   4.595
 6027SOL     OW18979   5.246   4.454   6.628
 6027SOL    HW118980   5.172   4.466   6.695
 6027SOL    HW218981   5.217   4.388   6.558
 6028SOL     OW18982   5.824   5.201   5.835
 6028SOL    HW118983   5.894   5.191   5.906
 6028SOL    HW218984   5.792   5.296   5.833
 6029SOL     OW18985   2.604   0.908   2.393
 6029SOL    HW118986   2.523   0.855   2.369
 6029SOL    HW218987   2.674   0.896   2.322
 6030SOL     OW18988   5.851   3.408   4.311
 6030SOL    HW118989   5.820   3.459   4.391
 6030SOL    HW218990   5.829   3.459   4.228
 6031SOL     OW18991   0.388   5.831   5.484
 6031SOL    HW118992   0.443   5.753   5.517
 6031SOL    HW218993   0.428   5.865   5.399
 6032SOL     OW18994   3.681   5.575   3.415
 6032SOL    HW118995   3.621   5.649   3.382
 6032SOL    HW218996   3.776   5.596   3.390
 6033SOL     OW18997   1.223   1.888   2.747
 6033SOL    HW118998   1.163   1.967   2.739
 6033SOL    HW218999   1.215   1.849   2.839
 6034SOL     OW19000   1.120   0.205   1.157
 6034SOL    HW119001   1.190   0.168   1.096
 6034SOL    HW219002   1.153   0.290   1.197
 6035SOL     OW19003   2.196   0.255   2.800
 6035SOL    HW119004   2.221   0.204   2.882
 6035SOL    HW219005   2.167   0.347   2.826
 6036SOL     OW19006   6.887   3.312   1.046
 6036SOL    HW119007   6.819   3.278   1.110
 6036SOL    HW219008   6.974   3.327   1.093
 6037SOL     OW19009   4.839   2.041   6.817
 6037SOL    HW119010   4.832   1.942   6.811
 6037SOL    HW219011   4.872   2.067   6.908
 6038SOL     OW19012   0.957   1.838   5.933
 6038SOL    HW119013   0.964   1.938   5.933
 6038SOL    HW219014   1.047   1.798   5.918
 6039SOL     OW19015   3.950   3.226   3.754
 6039SOL    HW119016   3.948   3.127   3.771
 6039SOL    HW219017   3.981   3.242   3.660
 6040SOL     OW19018   0.555   1.287   0.065
 6040SOL    HW119019   0.525   1.194   0.085
 6040SOL    HW219020   0.648   1.300   0.099
 6041SOL     OW19021   2.379   3.543   5.615
 6041SOL    HW119022   2.430   3.459   5.636
 6041SOL    HW219023   2.353   3.542   5.519
 6042SOL     OW19024   3.453   5.821   3.964
 6042SOL    HW119025   3.553   5.828   3.960
 6042SOL    HW219026   3.412   5.894   3.910
 6043SOL     OW19027   2.680   0.608   3.297
 6043SOL    HW119028   2.656   0.557   3.380
 6043SOL    HW219029   2.606   0.671   3.274
 6044SOL     OW19030   1.322   3.258   1.433
 6044SOL    HW119031   1.365   3.209   1.509
 6044SOL    HW219032   1.307   3.195   1.357
 6045SOL     OW19033   5.029   1.710   3.571
 6045SOL    HW119034   4.947   1.660   3.542
 6045SOL    HW219035   5.002   1.798   3.610
 6046SOL     OW19036   3.673   2.865   2.849
 6046SOL    HW119037   3.636   2.950   2.813
 6046SOL    HW219038   3.677   2.796   2.777
 6047SOL     OW19039   6.823   1.905   0.612
 6047SOL    HW119040   6.923   1.905   0.613
 6047SOL    HW219041   6.789   1.892   0.705
 6048SOL     OW19042   5.294   5.789   4.136
 6048SOL    HW119043   5.277   5.722   4.208
 6048SOL    HW219044   5.284   5.882   4.172
 6049SOL     OW19045   4.327   4.799   5.683
 6049SOL    HW119046   4.389   4.876   5.665
 6049SOL    HW219047   4.362   4.717   5.638
 6050SOL     OW19048   3.149   5.964   2.183
 6050SOL    HW119049   3.070   5.904   2.170
 6050SOL    HW219050   3.172   5.970   2.280
 6051SOL     OW19051   0.318   1.394   3.378
 6051SOL    HW119052   0.302   1.492   3.366
 6051SOL    HW219053   0.415   1.374   3.363
 6052SOL     OW19054   5.080   6.330   0.213
 6052SOL    HW119055   5.066   6.253   0.274
 6052SOL    HW219056   5.134   6.401   0.260
 6053SOL     OW19057   4.248   2.461   5.996
 6053SOL    HW119058   4.171   2.404   5.966
 6053SOL    HW219059   4.329   2.438   5.943
 6054SOL     OW19060   3.721   4.446   0.792
 6054SOL    HW119061   3.630   4.471   0.760
 6054SOL    HW219062   3.727   4.346   0.801
 6055SOL     OW19063   3.277   4.003   1.143
 6055SOL    HW119064   3.303   3.936   1.074
 6055SOL    HW219065   3.348   4.008   1.214
 6056SOL     OW19066   5.353   6.164   3.853
 6056SOL    HW119067   5.417   6.221   3.906
 6056SOL    HW219068   5.388   6.070   3.850
 6057SOL     OW19069   4.657   0.272   4.292
 6057SOL    HW119070   4.755   0.269   4.307
 6057SOL    HW219071   4.629   0.194   4.236
 6058SOL     OW19072   5.877   2.563   5.964
 6058SOL    HW119073   5.845   2.537   6.056
 6058SOL    HW219074   5.972   2.593   5.970
 6059SOL     OW19075   4.604   2.888   6.913
 6059SOL    HW119076   4.538   2.831   6.962
 6059SOL    HW219077   4.608   2.978   6.955
 6060SOL     OW19078   2.173   3.268   0.222
 6060SOL    HW119079   2.204   3.318   0.302
 6060SOL    HW219080   2.093   3.213   0.246
 6061SOL     OW19081   2.652   4.166   0.117
 6061SOL    HW119082   2.626   4.234   0.049
 6061SOL    HW219083   2.602   4.183   0.202
 6062SOL     OW19084   1.826   2.329   0.132
 6062SOL    HW119085   1.780   2.350   0.046
 6062SOL    HW219086   1.869   2.411   0.168
 6063SOL     OW19087   4.692   4.467   6.374
 6063SOL    HW119088   4.679   4.437   6.468
 6063SOL    HW219089   4.764   4.412   6.331
 6064SOL     OW19090   6.655   5.336   1.330
 6064SOL    HW119091   6.742   5.381   1.352
 6064SOL    HW219092   6.583   5.373   1.389
 6065SOL     OW19093   1.369   0.130   2.204
 6065SOL    HW119094   1.399   0.034   2.211
 6065SOL    HW219095   1.271   0.132   2.188
 6066SOL     OW19096   5.484   5.958   3.522
 6066SOL    HW119097   5.529   6.020   3.585
 6066SOL    HW219098   5.477   6.000   3.431
 6067SOL     OW19099   5.931   6.862   6.011
 6067SOL    HW119100   5.892   6.916   6.086
 6067SOL    HW219101   6.028   6.844   6.030
 6068SOL     OW19102   4.392   2.385   4.373
 6068SOL    HW119103   4.427   2.475   4.399
 6068SOL    HW219104   4.464   2.316   4.385
 6069SOL     OW19105   0.304   4.233   6.008
 6069SOL    HW119106   0.227   4.171   5.995
 6069SOL    HW219107   0.331   4.270   5.919
 6070SOL     OW19108   2.737   1.203   0.570
 6070SOL    HW119109   2.800   1.218   0.495
 6070SOL    HW219110   2.645   1.232   0.544
 6071SOL     OW19111   5.778   0.962   5.860
 6071SOL    HW119112   5.808   0.968   5.764
 6071SOL    HW219113   5.759   1.054   5.894
 6072SOL     OW19114   0.087   2.469   0.506
 6072SOL    HW119115   0.118   2.452   0.599
 6072SOL    HW219116   0.014   2.404   0.483
 6073SOL     OW19117   5.026   2.764   0.140
 6073SOL    HW119118   5.001   2.668   0.152
 6073SOL    HW219119   4.969   2.821   0.198
 6074SOL     OW19120   0.653   6.695   2.357
 6074SOL    HW119121   0.744   6.672   2.391
 6074SOL    HW219122   0.611   6.763   2.417
 6075SOL     OW19123   5.427   0.277   6.445
 6075SOL    HW119124   5.393   0.189   6.411
 6075SOL    HW219125   5.376   0.351   6.400
 6076SOL     OW19126   1.120   5.720   2.887
 6076SOL    HW119127   1.201   5.728   2.945
 6076SOL    HW219128   1.137   5.765   2.800
 6077SOL     OW19129   5.390   6.929   2.372
 6077SOL    HW119130   5.322   6.979   2.426
 6077SOL    HW219131   5.436   6.862   2.430
 6078SOL     OW19132   4.208   4.229   0.586
 6078SOL    HW119133   4.143   4.155   0.607
 6078SOL    HW219134   4.179   4.312   0.633
 6079SOL     OW19135   3.082   2.988   0.606
 6079SOL    HW119136   2.993   3.028   0.586
 6079SOL    HW219137   3.110   2.930   0.530
 6080SOL     OW19138   0.036   5.091   6.632
 6080SOL    HW119139   0.120   5.138   6.659
 6080SOL    HW219140   6.995   5.091   6.710
 6081SOL     OW19141   1.279   3.911   3.773
 6081SOL    HW119142   1.240   3.994   3.734
 6081SOL    HW219143   1.219   3.877   3.846
 6082SOL     OW19144   4.696   0.778   1.077
 6082SOL    HW119145   4.621   0.835   1.110
 6082SOL    HW219146   4.767   0.773   1.147
 6083SOL     OW19147   4.563   0.609   6.184
 6083SOL    HW119148   4.542   0.546   6.109
 6083SOL    HW219149   4.609   0.559   6.257
 6084SOL     OW19150   0.119   6.250   2.274
 6084SOL    HW119151   0.158   6.335   2.308
 6084SOL    HW219152   0.138   6.241   2.176
 6085SOL     OW19153   0.711   0.101   0.556
 6085SOL    HW119154   0.716   0.182   0.613
 6085SOL    HW219155   0.631   0.107   0.495
 6086SOL     OW19156   3.290   4.052   6.526
 6086SOL    HW119157   3.225   4.014   6.591
 6086SOL    HW219158   3.277   4.009   6.437
 6087SOL     OW19159   5.157   6.591   0.746
 6087SOL    HW119160   5.095   6.667   0.765
 6087SOL    HW219161   5.117   6.531   0.677
 6088SOL     OW19162   5.453   6.065   3.243
 6088SOL    HW119163   5.483   6.110   3.159
 6088SOL    HW219164   5.398   6.129   3.297
 6089SOL     OW19165   6.499   4.001   3.810
 6089SOL    HW119166   6.550   3.984   3.726
 6089SOL    HW219167   6.511   3.925   3.873
 6090SOL     OW19168   3.813   6.075   4.354
 6090SOL    HW119169   3.758   6.073   4.437
 6090SOL    HW219170   3.863   5.988   4.344
 6091SOL     OW19171   1.123   1.516   2.319
 6091SOL    HW119172   1.149   1.575   2.243
 6091SOL    HW219173   1.024   1.518   2.330
 6092SOL     OW19174   3.083   5.983   0.740
 6092SOL    HW119175   3.134   5.899   0.722
 6092SOL    HW219176   2.989   5.960   0.766
 6093SOL     OW19177   2.193   2.162   2.549
 6093SOL    HW119178   2.261   2.090   2.562
 6093SOL    HW219179   2.210   2.209   2.463
 6094SOL     OW19180   0.360   6.124   5.066
 6094SOL    HW119181   0.303   6.113   4.985
 6094SOL    HW219182   0.437   6.184   5.045
 6095SOL     OW19183   4.810   4.916   1.802
 6095SOL    HW119184   4.882   4.849   1.782
 6095SOL    HW219185   4.789   4.967   1.718
 6096SOL     OW19186   5.490   6.453   3.200
 6096SOL    HW119187   5.482   6.359   3.165
 6096SOL    HW219188   5.423   6.512   3.154
 6097SOL     OW19189   1.667   5.225   1.686
 6097SOL    HW119190   1.724   5.274   1.621
 6097SOL    HW219191   1.704   5.237   1.779
 6098SOL     OW19192   6.345   0.313   4.569
 6098SOL    HW119193   6.414   0.385   4.575
 6098SOL    HW219194   6.260   0.352   4.533
 6099SOL     OW19195   3.881   0.708   6.146
 6099SOL    HW119196   3.960   0.763   6.118
 6099SOL    HW219197   3.815   0.767   6.192
 6100SOL     OW19198   0.350   6.275   5.407
 6100SOL    HW119199   0.311   6.240   5.322
 6100SOL    HW219200   0.448   6.256   5.409
 6101SOL     OW19201   6.981   2.928   1.811
 6101SOL    HW119202   7.000   2.978   1.896
 6101SOL    HW219203   6.890   2.952   1.778
 6102SOL     OW19204   4.443   7.018   2.671
 6102SOL    HW119205   4.435   0.095   2.672
 6102SOL    HW219206   4.436   6.983   2.764
 6103SOL     OW19207   6.328   1.819   2.079
 6103SOL    HW119208   6.370   1.734   2.047
 6103SOL    HW219209   6.399   1.878   2.119
 6104SOL     OW19210   6.972   0.518   3.979
 6104SOL    HW119211   7.011   0.574   3.906
 6104SOL    HW219212   6.875   0.501   3.960
 6105SOL     OW19213   3.058   4.587   5.414
 6105SOL    HW119214   3.002   4.579   5.331
 6105SOL    HW219215   3.154   4.572   5.390
 6106SOL     OW19216   6.011   5.172   5.599
 6106SOL    HW119217   5.918   5.208   5.610
 6106SOL    HW219218   6.032   5.109   5.674
 6107SOL     OW19219   5.285   5.338   5.046
 6107SOL    HW119220   5.336   5.406   5.098
 6107SOL    HW219221   5.305   5.347   4.949
 6108SOL     OW19222   2.498   1.537   0.490
 6108SOL    HW119223   2.582   1.589   0.503
 6108SOL    HW219224   2.520   1.440   0.483
 6109SOL     OW19225   6.352   0.035   3.438
 6109SOL    HW119226   6.308   0.081   3.361
 6109SOL    HW219227   6.370   6.962   3.413
 6110SOL     OW19228   1.653   1.404   4.331
 6110SOL    HW119229   1.563   1.360   4.341
 6110SOL    HW219230   1.640   1.495   4.293
 6111SOL     OW19231   1.775   4.388   0.564
 6111SOL    HW119232   1.703   4.331   0.526
 6111SOL    HW219233   1.848   4.329   0.600
 6112SOL     OW19234   4.715   0.158   2.912
 6112SOL    HW119235   4.762   0.245   2.930
 6112SOL    HW219236   4.638   0.148   2.976
 6113SOL     OW19237   2.862   5.119   0.494
 6113SOL    HW119238   2.942   5.130   0.554
 6113SOL    HW219239   2.783   5.164   0.536
 6114SOL     OW19240   4.706   2.264   0.123
 6114SOL    HW119241   4.688   2.280   0.220
 6114SOL    HW219242   4.794   2.217   0.113
 6115SOL     OW19243   0.871   0.834   5.686
 6115SOL    HW119244   0.864   0.870   5.593
 6115SOL    HW219245   0.943   0.765   5.690
 6116SOL     OW19246   5.418   2.039   6.104
 6116SOL    HW119247   5.344   2.107   6.106
 6116SOL    HW219248   5.485   2.064   6.034
 6117SOL     OW19249   2.125   2.085   1.237
 6117SOL    HW119250   2.156   1.997   1.202
 6117SOL    HW219251   2.149   2.094   1.333
 6118SOL     OW19252   6.064   0.687   0.996
 6118SOL    HW119253   6.044   0.600   0.951
 6118SOL    HW219254   6.116   0.745   0.934
 6119SOL     OW19255   0.007   2.094   0.243
 6119SOL    HW119256   0.038   2.004   0.214
 6119SOL    HW219257   0.086   2.157   0.244
 6120SOL     OW19258   2.401   1.067   4.463
 6120SOL    HW119259   2.479   1.095   4.519
 6120SOL    HW219260   2.320   1.059   4.522
 6121SOL     OW19261   0.482   2.968   5.073
 6121SOL    HW119262   0.398   3.010   5.039
 6121SOL    HW219263   0.506   2.890   5.015
 6122SOL     OW19264   5.000   4.742   5.784
 6122SOL    HW119265   5.009   4.780   5.692
 6122SOL    HW219266   4.906   4.712   5.799
 6123SOL     OW19267   5.317   1.564   5.517
 6123SOL    HW119268   5.316   1.637   5.585
 6123SOL    HW219269   5.227   1.558   5.473
 6124SOL     OW19270   2.482   6.159   4.058
 6124SOL    HW119271   2.490   6.107   4.143
 6124SOL    HW219272   2.462   6.097   3.982
 6125SOL     OW19273   2.436   2.148   6.878
 6125SOL    HW119274   2.503   2.220   6.896
 6125SOL    HW219275   2.413   2.146   6.781
 6126SOL     OW19276   5.986   3.246   5.041
 6126SOL    HW119277   5.971   3.169   4.980
 6126SOL    HW219278   5.898   3.281   5.074
 6127SOL     OW19279   4.284   2.358   1.522
 6127SOL    HW119280   4.348   2.433   1.539
 6127SOL    HW219281   4.211   2.360   1.591
 6128SOL     OW19282   5.577   5.767   0.387
 6128SOL    HW119283   5.560   5.713   0.304
 6128SOL    HW219284   5.524   5.729   0.463
 6129SOL     OW19285   1.389   5.365   1.993
 6129SOL    HW119286   1.479   5.397   1.965
 6129SOL    HW219287   1.381   5.367   2.092
 6130SOL     OW19288   5.810   2.430   0.339
 6130SOL    HW119289   5.858   2.496   0.397
 6130SOL    HW219290   5.864   2.413   0.257
 6131SOL     OW19291   6.453   1.626   2.908
 6131SOL    HW119292   6.385   1.566   2.865
 6131SOL    HW219293   6.430   1.641   3.004
 6132SOL     OW19294   3.634   1.389   6.834
 6132SOL    HW119295   3.600   1.309   6.883
 6132SOL    HW219296   3.709   1.430   6.885
 6133SOL     OW19297   1.949   1.986   3.654
 6133SOL    HW119298   2.006   1.921   3.703
 6133SOL    HW219299   1.950   1.964   3.556
 6134SOL     OW19300   5.966   0.139   6.389
 6134SOL    HW119301   5.873   0.166   6.412
 6134SOL    HW219302   6.012   0.216   6.343
 6135SOL     OW19303   6.549   0.331   0.122
 6135SOL    HW119304   6.529   0.329   0.024
 6135SOL    HW219305   6.597   0.416   0.145
 6136SOL     OW19306   1.276   3.543   2.666
 6136SOL    HW119307   1.183   3.580   2.658
 6136SOL    HW219308   1.295   3.482   2.589
 6137SOL     OW19309   6.913   3.721   2.292
 6137SOL    HW119310   6.932   3.757   2.384
 6137SOL    HW219311   6.937   3.790   2.224
 6138SOL     OW19312   4.087   0.179   1.957
 6138SOL    HW119313   4.167   0.203   2.013
 6138SOL    HW219314   4.106   0.202   1.862
 6139SOL     OW19315   1.153   0.468   5.772
 6139SOL    HW119316   1.087   0.394   5.757
 6139SOL    HW219317   1.229   0.458   5.708
 6140SOL     OW19318   1.125   0.278   3.384
 6140SOL    HW119319   1.040   0.329   3.374
 6140SOL    HW219320   1.110   0.200   3.445
 6141SOL     OW19321   0.228   1.232   5.846
 6141SOL    HW119322   0.196   1.242   5.940
 6141SOL    HW219323   0.313   1.179   5.845
 6142SOL     OW19324   0.207   0.712   1.359
 6142SOL    HW119325   0.289   0.733   1.412
 6142SOL    HW219326   0.203   0.771   1.278
 6143SOL     OW19327   6.726   3.967   5.582
 6143SOL    HW119328   6.748   4.054   5.625
 6143SOL    HW219329   6.806   3.933   5.532
 6144SOL     OW19330   4.049   5.336   3.073
 6144SOL    HW119331   4.072   5.346   3.170
 6144SOL    HW219332   4.093   5.254   3.037
 6145SOL     OW19333   4.817   2.949   3.719
 6145SOL    HW119334   4.808   3.038   3.675
 6145SOL    HW219335   4.886   2.954   3.791
 6146SOL     OW19336   5.491   6.639   4.994
 6146SOL    HW119337   5.471   6.717   4.935
 6146SOL    HW219338   5.416   6.627   5.060
 6147SOL     OW19339   1.495   2.159   4.238
 6147SOL    HW119340   1.577   2.153   4.295
 6147SOL    HW219341   1.415   2.164   4.297
 6148SOL     OW19342   3.282   6.054   0.221
 6148SOL    HW119343   3.250   6.041   0.127
 6148SOL    HW219344   3.219   6.009   0.284
 6149SOL     OW19345   2.911   0.602   1.619
 6149SOL    HW119346   2.908   0.603   1.519
 6149SOL    HW219347   2.973   0.530   1.649
 6150SOL     OW19348   0.255   3.954   5.600
 6150SOL    HW119349   0.179   3.898   5.566
 6150SOL    HW219350   0.335   3.896   5.614
 6151SOL     OW19351   4.427   5.323   4.034
 6151SOL    HW119352   4.484   5.274   4.099
 6151SOL    HW219353   4.469   5.412   4.014
 6152SOL     OW19354   1.123   5.115   4.111
 6152SOL    HW119355   1.200   5.160   4.066
 6152SOL    HW219356   1.122   5.018   4.086
 6153SOL     OW19357   5.207   5.538   1.479
 6153SOL    HW119358   5.305   5.523   1.465
 6153SOL    HW219359   5.161   5.546   1.391
 6154SOL     OW19360   5.356   3.130   1.868
 6154SOL    HW119361   5.449   3.123   1.905
 6154SOL    HW219362   5.293   3.081   1.927
 6155SOL     OW19363   1.681   1.711   3.049
 6155SOL    HW119364   1.734   1.719   2.965
 6155SOL    HW219365   1.743   1.700   3.127
 6156SOL     OW19366   5.142   5.273   1.495
 6156SOL    HW119367   5.084   5.266   1.414
 6156SOL    HW219368   5.164   5.369   1.512
 6157SOL     OW19369   1.711   2.744   2.165
 6157SOL    HW119370   1.615   2.757   2.141
 6157SOL    HW219371   1.718   2.679   2.240
 6158SOL     OW19372   2.932   2.391   5.234
 6158SOL    HW119373   3.022   2.394   5.190
 6158SOL    HW219374   2.920   2.473   5.290
 6159SOL     OW19375   6.156   3.062   0.801
 6159SOL    HW119376   6.163   3.120   0.720
 6159SOL    HW219377   6.210   3.101   0.876
 6160SOL     OW19378   1.542   0.720   0.445
 6160SOL    HW119379   1.597   0.643   0.476
 6160SOL    HW219380   1.532   0.716   0.346
 6161SOL     OW19381   4.392   3.316   6.538
 6161SOL    HW119382   4.458   3.390   6.553
 6161SOL    HW219383   4.369   3.274   6.625
 6162SOL     OW19384   5.780   5.281   3.249
 6162SOL    HW119385   5.693   5.252   3.209
 6162SOL    HW219386   5.797   5.377   3.225
 6163SOL     OW19387   5.345   6.380   3.680
 6163SOL    HW119388   5.246   6.378   3.694
 6163SOL    HW219389   5.386   6.297   3.719
 6164SOL     OW19390   3.150   3.851   4.319
 6164SOL    HW119391   3.246   3.825   4.304
 6164SOL    HW219392   3.100   3.773   4.355
 6165SOL     OW19393   4.124   1.649   0.296
 6165SOL    HW119394   4.195   1.643   0.367
 6165SOL    HW219395   4.103   1.746   0.280
 6166SOL     OW19396   2.009   2.859   6.449
 6166SOL    HW119397   1.915   2.832   6.470
 6166SOL    HW219398   2.043   2.920   6.520
 6167SOL     OW19399   1.558   4.124   3.573
 6167SOL    HW119400   1.541   4.034   3.614
 6167SOL    HW219401   1.472   4.174   3.566
 6168SOL     OW19402   0.083   3.960   3.945
 6168SOL    HW119403   0.059   4.049   3.907
 6168SOL    HW219404   0.139   3.909   3.880
 6169SOL     OW19405   2.297   0.042   0.286
 6169SOL    HW119406   2.228   0.066   0.217
 6169SOL    HW219407   2.271   0.081   0.374
 6170SOL     OW19408   3.235   3.822   0.423
 6170SOL    HW119409   3.277   3.790   0.338
 6170SOL    HW219410   3.174   3.898   0.404
 6171SOL     OW19411   2.190   3.966   2.380
 6171SOL    HW119412   2.096   3.995   2.368
 6171SOL    HW219413   2.240   4.034   2.433
 6172SOL     OW19414   1.737   6.445   2.861
 6172SOL    HW119415   1.701   6.460   2.769
 6172SOL    HW219416   1.715   6.525   2.918
 6173SOL     OW19417   1.517   6.098   2.251
 6173SOL    HW119418   1.475   6.184   2.222
 6173SOL    HW219419   1.541   6.044   2.171
 6174SOL     OW19420   5.361   5.593   2.974
 6174SOL    HW119421   5.293   5.617   3.043
 6174SOL    HW219422   5.320   5.596   2.883
 6175SOL     OW19423   5.089   0.477   3.630
 6175SOL    HW119424   5.135   0.522   3.554
 6175SOL    HW219425   5.102   0.378   3.623
 6176SOL     OW19426   6.488   3.611   5.491
 6176SOL    HW119427   6.558   3.611   5.420
 6176SOL    HW219428   6.401   3.579   5.453
 6177SOL     OW19429   6.245   2.820   6.969
 6177SOL    HW119430   6.316   2.772   7.021
 6177SOL    HW219431   6.225   2.770   6.885
 6178SOL     OW19432   6.258   3.177   1.004
 6178SOL    HW119433   6.184   3.182   1.072
 6178SOL    HW219434   6.346   3.175   1.051
 6179SOL     OW19435   0.215   2.415   5.608
 6179SOL    HW119436   0.157   2.455   5.537
 6179SOL    HW219437   0.311   2.437   5.589
 6180SOL     OW19438   3.759   6.749   0.231
 6180SOL    HW119439   3.693   6.773   0.302
 6180SOL    HW219440   3.797   6.832   0.192
 6181SOL     OW19441   4.765   6.426   6.721
 6181SOL    HW119442   4.764   6.425   6.621
 6181SOL    HW219443   4.843   6.478   6.754
 6182SOL     OW19444   4.683   6.058   6.541
 6182SOL    HW119445   4.607   6.009   6.583
 6182SOL    HW219446   4.733   6.109   6.612
 6183SOL     OW19447   3.608   0.426   3.420
 6183SOL    HW119448   3.685   0.362   3.417
 6183SOL    HW219449   3.628   0.505   3.361
 6184SOL     OW19450   0.393   7.013   6.741
 6184SOL    HW119451   0.492   6.999   6.740
 6184SOL    HW219452   0.357   6.992   6.831
 6185SOL     OW19453   6.996   3.578   5.698
 6185SOL    HW119454   6.990   3.479   5.690
 6185SOL    HW219455   6.905   3.619   5.683
 6186SOL     OW19456   5.444   0.324   4.728
 6186SOL    HW119457   5.518   0.392   4.723
 6186SOL    HW219458   5.475   0.238   4.689
 6187SOL     OW19459   4.408   4.998   3.551
 6187SOL    HW119460   4.372   5.056   3.477
 6187SOL    HW219461   4.506   5.016   3.563
 6188SOL     OW19462   2.661   6.191   1.297
 6188SOL    HW119463   2.736   6.194   1.363
 6188SOL    HW219464   2.606   6.274   1.306
 6189SOL     OW19465   5.748   4.656   3.119
 6189SOL    HW119466   5.796   4.673   3.205
 6189SOL    HW219467   5.650   4.665   3.134
 6190SOL     OW19468   5.439   2.454   0.200
 6190SOL    HW119469   5.446   2.359   0.230
 6190SOL    HW219470   5.388   2.459   0.115
 6191SOL     OW19471   6.560   2.378   0.060
 6191SOL    HW119472   6.646   2.353   0.015
 6191SOL    HW219473   6.487   2.317   0.030
 6192SOL     OW19474   3.083   2.786   6.529
 6192SOL    HW119475   2.996   2.834   6.538
 6192SOL    HW219476   3.079   2.726   6.449
 6193SOL     OW19477   5.389   0.104   1.480
 6193SOL    HW119478   5.319   0.109   1.550
 6193SOL    HW219479   5.473   0.147   1.513
 6194SOL     OW19480   1.892   0.716   0.417
 6194SOL    HW119481   1.890   0.807   0.458
 6194SOL    HW219482   1.970   0.708   0.355
 6195SOL     OW19483   3.594   0.809   6.556
 6195SOL    HW119484   3.551   0.803   6.646
 6195SOL    HW219485   3.544   0.876   6.500
 6196SOL     OW19486   0.469   1.101   5.791
 6196SOL    HW119487   0.561   1.081   5.824
 6196SOL    HW219488   0.446   1.038   5.717
 6197SOL     OW19489   2.545   3.048   0.762
 6197SOL    HW119490   2.534   3.093   0.850
 6197SOL    HW219491   2.632   2.998   0.761
 6198SOL     OW19492   4.061   4.758   2.602
 6198SOL    HW119493   4.033   4.663   2.586
 6198SOL    HW219494   4.004   4.819   2.548
 6199SOL     OW19495   1.666   6.934   6.364
 6199SOL    HW119496   1.574   6.935   6.404
 6199SOL    HW219497   1.705   6.842   6.372
 6200SOL     OW19498   3.927   0.385   6.393
 6200SOL    HW119499   3.965   0.412   6.305
 6200SOL    HW219500   3.933   0.461   6.458
 6201SOL     OW19501   2.121   3.861   5.431
 6201SOL    HW119502   2.047   3.815   5.479
 6201SOL    HW219503   2.152   3.804   5.355
 6202SOL     OW19504   3.503   1.755   1.091
 6202SOL    HW119505   3.410   1.747   1.127
 6202SOL    HW219506   3.522   1.850   1.065
 6203SOL     OW19507   5.024   1.308   4.170
 6203SOL    HW119508   4.978   1.385   4.214
 6203SOL    HW219509   4.955   1.249   4.126
 6204SOL     OW19510   2.033   6.355   5.784
 6204SOL    HW119511   1.970   6.419   5.741
 6204SOL    HW219512   2.033   6.370   5.883
 6205SOL     OW19513   5.619   5.905   6.570
 6205SOL    HW119514   5.561   5.972   6.615
 6205SOL    HW219515   5.680   5.951   6.505
 6206SOL     OW19516   5.525   0.110   2.237
 6206SOL    HW119517   5.552   0.183   2.299
 6206SOL    HW219518   5.485   0.034   2.289
 6207SOL     OW19519   1.846   4.143   4.822
 6207SOL    HW119520   1.891   4.123   4.735
 6207SOL    HW219521   1.871   4.075   4.890
 6208SOL     OW19522   6.099   6.709   5.683
 6208SOL    HW119523   6.000   6.717   5.679
 6208SOL    HW219524   6.140   6.768   5.614
 6209SOL     OW19525   3.723   5.598   0.620
 6209SOL    HW119526   3.816   5.599   0.583
 6209SOL    HW219527   3.658   5.620   0.548
 6210SOL     OW19528   5.586   4.655   3.580
 6210SOL    HW119529   5.574   4.568   3.532
 6210SOL    HW219530   5.683   4.671   3.598
 6211SOL     OW19531   3.305   6.747   4.927
 6211SOL    HW119532   3.281   6.797   5.011
 6211SOL    HW219533   3.312   6.811   4.851
 6212SOL     OW19534   6.378   6.562   3.798
 6212SOL    HW119535   6.372   6.534   3.703
 6212SOL    HW219536   6.446   6.636   3.807
 6213SOL     OW19537   6.676   0.098   6.680
 6213SOL    HW119538   6.742   0.112   6.607
 6213SOL    HW219539   6.721   0.051   6.757
 6214SOL     OW19540   6.478   4.587   2.775
 6214SOL    HW119541   6.450   4.682   2.762
 6214SOL    HW219542   6.526   4.578   2.862
 6215SOL     OW19543   3.402   2.931   0.612
 6215SOL    HW119544   3.339   2.854   0.601
 6215SOL    HW219545   3.368   2.992   0.684
 6216SOL     OW19546   5.390   1.611   2.100
 6216SOL    HW119547   5.327   1.612   2.177
 6216SOL    HW219548   5.469   1.669   2.120
 6217SOL     OW19549   5.250   2.963   1.112
 6217SOL    HW119550   5.164   2.995   1.153
 6217SOL    HW219551   5.315   3.039   1.109
 6218SOL     OW19552   2.960   5.206   4.913
 6218SOL    HW119553   2.929   5.246   4.827
 6218SOL    HW219554   2.913   5.120   4.930
 6219SOL     OW19555   0.948   1.826   4.920
 6219SOL    HW119556   0.969   1.761   4.993
 6219SOL    HW219557   0.911   1.778   4.841
 6220SOL     OW19558   2.179   4.387   5.287
 6220SOL    HW119559   2.175   4.351   5.380
 6220SOL    HW219560   2.148   4.317   5.223
 6221SOL     OW19561   3.665   5.179   4.263
 6221SOL    HW119562   3.636   5.090   4.227
 6221SOL    HW219563   3.676   5.173   4.362
 6222SOL     OW19564   6.936   0.779   1.177
 6222SOL    HW119565   6.918   0.875   1.195
 6222SOL    HW219566   0.005   0.755   1.208
 6223SOL     OW19567   4.663   2.779   4.675
 6223SOL    HW119568   4.725   2.727   4.734
 6223SOL    HW219569   4.642   2.867   4.718
 6224SOL     OW19570   2.988   1.383   5.028
 6224SOL    HW119571   2.933   1.452   4.981
 6224SOL    HW219572   3.074   1.423   5.058
 6225SOL     OW19573   3.695   3.115   0.206
 6225SOL    HW119574   3.656   3.029   0.173
 6225SOL    HW219575   3.781   3.134   0.159
 6226SOL     OW19576   5.539   0.795   5.153
 6226SOL    HW119577   5.602   0.826   5.081
 6226SOL    HW219578   5.589   0.738   5.218
 6227SOL     OW19579   3.281   4.397   5.720
 6227SOL    HW119580   3.370   4.384   5.677
 6227SOL    HW219581   3.225   4.315   5.707
 6228SOL     OW19582   6.933   0.701   3.063
 6228SOL    HW119583   6.962   0.664   3.151
 6228SOL    HW219584   6.934   0.801   3.067
 6229SOL     OW19585   2.392   2.658   2.177
 6229SOL    HW119586   2.451   2.577   2.171
 6229SOL    HW219587   2.386   2.701   2.087
 6230SOL     OW19588   2.772   2.330   3.540
 6230SOL    HW119589   2.737   2.265   3.607
 6230SOL    HW219590   2.724   2.417   3.549
 6231SOL     OW19591   6.882   5.169   1.792
 6231SOL    HW119592   6.961   5.168   1.731
 6231SOL    HW219593   6.798   5.158   1.738
 6232SOL     OW19594   0.879   1.222   0.214
 6232SOL    HW119595   0.820   1.145   0.237
 6232SOL    HW219596   0.974   1.194   0.217
 6233SOL     OW19597   4.577   2.100   6.763
 6233SOL    HW119598   4.524   2.063   6.840
 6233SOL    HW219599   4.674   2.081   6.777
 6234SOL     OW19600   2.327   1.906   3.890
 6234SOL    HW119601   2.408   1.874   3.841
 6234SOL    HW219602   2.311   1.847   3.970
 6235SOL     OW19603   2.705   0.023   2.917
 6235SOL    HW119604   2.634   6.975   2.922
 6235SOL    HW219605   2.689   0.081   2.837
 6236SOL     OW19606   0.114   4.374   0.742
 6236SOL    HW119607   0.174   4.314   0.689
 6236SOL    HW219608   0.031   4.393   0.689
 6237SOL     OW19609   4.113   0.109   0.505
 6237SOL    HW119610   4.205   0.098   0.542
 6237SOL    HW219611   4.050   0.048   0.553
 6238SOL     OW19612   4.921   5.257   1.196
 6238SOL    HW119613   4.919   5.179   1.259
 6238SOL    HW219614   4.900   5.225   1.103
 6239SOL     OW19615   2.775   0.433   3.060
 6239SOL    HW119616   2.736   0.479   2.981
 6239SOL    HW219617   2.791   0.499   3.134
 6240SOL     OW19618   1.561   3.844   0.692
 6240SOL    HW119619   1.577   3.768   0.629
 6240SOL    HW219620   1.575   3.813   0.786
 6241SOL     OW19621   4.434   0.423   1.581
 6241SOL    HW119622   4.519   0.387   1.541
 6241SOL    HW219623   4.372   0.451   1.508
 6242SOL     OW19624   4.784   2.524   3.638
 6242SOL    HW119625   4.775   2.455   3.710
 6242SOL    HW219626   4.805   2.479   3.551
 6243SOL     OW19627   6.010   6.062   4.104
 6243SOL    HW119628   5.927   6.029   4.059
 6243SOL    HW219629   6.010   6.034   4.200
 6244SOL     OW19630   2.887   1.884   2.280
 6244SOL    HW119631   2.894   1.930   2.369
 6244SOL    HW219632   2.844   1.794   2.293
 6245SOL     OW19633   3.058   4.342   0.765
 6245SOL    HW119634   3.054   4.442   0.762
 6245SOL    HW219635   2.965   4.305   0.773
 6246SOL     OW19636   2.672   1.386   5.697
 6246SOL    HW119637   2.669   1.447   5.776
 6246SOL    HW219638   2.741   1.315   5.713
 6247SOL     OW19639   0.460   6.249   2.958
 6247SOL    HW119640   0.407   6.329   2.929
 6247SOL    HW219641   0.549   6.250   2.913
 6248SOL     OW19642   0.449   5.001   1.207
 6248SOL    HW119643   0.474   4.938   1.134
 6248SOL    HW219644   0.372   5.058   1.177
 6249SOL     OW19645   5.968   4.144   6.509
 6249SOL    HW119646   6.001   4.198   6.586
 6249SOL    HW219647   6.018   4.057   6.506
 6250SOL     OW19648   6.060   6.108   0.099
 6250SOL    HW119649   6.092   6.097   0.193
 6250SOL    HW219650   5.984   6.045   0.083
 6251SOL     OW19651   4.764   1.813   0.278
 6251SOL    HW119652   4.693   1.820   0.208
 6251SOL    HW219653   4.854   1.828   0.238
 6252SOL     OW19654   2.599   6.108   5.331
 6252SOL    HW119655   2.691   6.109   5.292
 6252SOL    HW219656   2.555   6.021   5.312
 6253SOL     OW19657   2.232   3.958   2.104
 6253SOL    HW119658   2.241   3.940   2.202
 6253SOL    HW219659   2.208   4.054   2.090
 6254SOL     OW19660   5.489   0.455   0.464
 6254SOL    HW119661   5.462   0.368   0.505
 6254SOL    HW219662   5.480   0.528   0.531
 6255SOL     OW19663   0.835   1.359   2.511
 6255SOL    HW119664   0.822   1.446   2.462
 6255SOL    HW219665   0.837   1.284   2.444
 6256SOL     OW19666   3.295   5.308   2.953
 6256SOL    HW119667   3.225   5.332   2.886
 6256SOL    HW219668   3.338   5.221   2.927
 6257SOL     OW19669   5.595   2.727   6.719
 6257SOL    HW119670   5.582   2.806   6.778
 6257SOL    HW219671   5.524   2.726   6.648
 6258SOL     OW19672   4.784   1.615   2.183
 6258SOL    HW119673   4.784   1.704   2.228
 6258SOL    HW219674   4.691   1.593   2.154
 6259SOL     OW19675   2.769   2.504   1.666
 6259SOL    HW119676   2.827   2.527   1.587
 6259SOL    HW219677   2.825   2.507   1.749
 6260SOL     OW19678   3.732   3.953   6.937
 6260SOL    HW119679   3.675   3.952   6.855
 6260SOL    HW219680   3.693   3.892   7.005
 6261SOL     OW19681   4.424   1.032   0.486
 6261SOL    HW119682   4.481   0.968   0.435
 6261SOL    HW219683   4.385   1.100   0.422
 6262SOL     OW19684   0.767   4.988   6.287
 6262SOL    HW119685   0.677   5.009   6.324
 6262SOL    HW219686   0.834   5.054   6.321
 6263SOL     OW19687   6.869   0.069   0.777
 6263SOL    HW119688   6.951   0.111   0.815
 6263SOL    HW219689   6.893   0.010   0.701
 6264SOL     OW19690   3.155   1.533   0.785
 6264SOL    HW119691   3.072   1.585   0.767
 6264SOL    HW219692   3.228   1.595   0.814
 6265SOL     OW19693   3.543   2.827   1.185
 6265SOL    HW119694   3.640   2.841   1.202
 6265SOL    HW219695   3.498   2.798   1.270
 6266SOL     OW19696   2.656   0.571   2.867
 6266SOL    HW119697   2.612   0.496   2.817
 6266SOL    HW219698   2.603   0.655   2.855
 6267SOL     OW19699   3.366   0.191   6.396
 6267SOL    HW119700   3.450   0.245   6.385
 6267SOL    HW219701   3.382   0.119   6.463
 6268SOL     OW19702   3.919   5.211   2.484
 6268SOL    HW119703   3.983   5.289   2.479
 6268SOL    HW219704   3.895   5.194   2.579
 6269SOL     OW19705   6.072   5.160   1.532
 6269SOL    HW119706   6.170   5.168   1.515
 6269SOL    HW219707   6.032   5.251   1.541
 6270SOL     OW19708   0.711   0.482   4.858
 6270SOL    HW119709   0.790   0.466   4.799
 6270SOL    HW219710   0.668   0.395   4.880
 6271SOL     OW19711   6.118   1.441   0.873
 6271SOL    HW119712   6.204   1.396   0.849
 6271SOL    HW219713   6.110   1.528   0.825
 6272SOL     OW19714   1.874   1.921   3.385
 6272SOL    HW119715   1.841   1.830   3.359
 6272SOL    HW219716   1.925   1.962   3.309
 6273SOL     OW19717   3.569   1.166   1.433
 6273SOL    HW119718   3.653   1.217   1.451
 6273SOL    HW219719   3.568   1.134   1.339
 6274SOL     OW19720   3.914   6.750   6.170
 6274SOL    HW119721   3.815   6.740   6.174
 6274SOL    HW219722   3.947   6.790   6.256
 6275SOL     OW19723   2.238   0.490   4.497
 6275SOL    HW119724   2.278   0.443   4.576
 6275SOL    HW219725   2.279   0.582   4.490
 6276SOL     OW19726   1.026   5.483   3.947
 6276SOL    HW119727   1.040   5.580   3.926
 6276SOL    HW219728   0.969   5.474   4.028
 6277SOL     OW19729   5.341   3.379   2.827
 6277SOL    HW119730   5.296   3.467   2.809
 6277SOL    HW219731   5.327   3.318   2.749
 6278SOL     OW19732   5.041   0.626   4.743
 6278SOL    HW119733   4.955   0.576   4.743
 6278SOL    HW219734   5.025   0.722   4.763
 6279SOL     OW19735   4.499   2.096   0.039
 6279SOL    HW119736   4.404   2.117   0.064
 6279SOL    HW219737   4.558   2.171   0.069
 6280SOL     OW19738   0.465   4.772   5.776
 6280SOL    HW119739   0.562   4.767   5.798
 6280SOL    HW219740   0.428   4.679   5.768
 6281SOL     OW19741   2.935   6.721   5.582
 6281SOL    HW119742   2.903   6.694   5.491
 6281SOL    HW219743   3.022   6.675   5.601
 6282SOL     OW19744   1.817   0.029   4.396
 6282SOL    HW119745   1.758   7.015   4.324
 6282SOL    HW219746   1.897   6.993   4.407
 6283SOL     OW19747   6.457   2.441   4.989
 6283SOL    HW119748   6.462   2.345   5.015
 6283SOL    HW219749   6.365   2.477   5.010
 6284SOL     OW19750   1.608   4.359   5.699
 6284SOL    HW119751   1.618   4.288   5.629
 6284SOL    HW219752   1.594   4.316   5.788
 6285SOL     OW19753   1.835   4.302   2.827
 6285SOL    HW119754   1.749   4.346   2.854
 6285SOL    HW219755   1.879   4.263   2.908
 6286SOL     OW19756   5.853   1.089   3.925
 6286SOL    HW119757   5.853   1.137   3.837
 6286SOL    HW219758   5.760   1.060   3.948
 6287SOL     OW19759   4.586   4.440   1.737
 6287SOL    HW119760   4.561   4.529   1.776
 6287SOL    HW219761   4.530   4.368   1.779
 6288SOL     OW19762   5.821   3.650   1.083
 6288SOL    HW119763   5.868   3.586   1.023
 6288SOL    HW219764   5.851   3.743   1.062
 6289SOL     OW19765   1.607   1.274   3.910
 6289SOL    HW119766   1.569   1.355   3.953
 6289SOL    HW219767   1.540   1.200   3.913
 6290SOL     OW19768   5.172   3.800   3.145
 6290SOL    HW119769   5.216   3.861   3.211
 6290SOL    HW219770   5.216   3.711   3.147
 6291SOL     OW19771   3.413   4.007   3.420
 6291SOL    HW119772   3.333   4.067   3.433
 6291SOL    HW219773   3.435   4.001   3.323
 6292SOL     OW19774   0.950   1.925   2.524
 6292SOL    HW119775   0.968   1.996   2.592
 6292SOL    HW219776   0.974   1.836   2.562
 6293SOL     OW19777   5.090   0.195   0.271
 6293SOL    HW119778   5.066   0.242   0.185
 6293SOL    HW219779   5.053   0.246   0.348
 6294SOL     OW19780   4.310   5.105   2.775
 6294SOL    HW119781   4.232   5.096   2.838
 6294SOL    HW219782   4.277   5.127   2.684
 6295SOL     OW19783   5.898   6.729   6.415
 6295SOL    HW119784   5.888   6.630   6.425
 6295SOL    HW219785   5.934   6.769   6.500
 6296SOL     OW19786   6.399   1.359   3.268
 6296SOL    HW119787   6.371   1.368   3.364
 6296SOL    HW219788   6.401   1.262   3.243
 6297SOL     OW19789   5.381   6.650   5.262
 6297SOL    HW119790   5.338   6.724   5.314
 6297SOL    HW219791   5.437   6.594   5.323
 6298SOL     OW19792   1.211   2.137   5.149
 6298SOL    HW119793   1.116   2.156   5.122
 6298SOL    HW219794   1.264   2.222   5.145
 6299SOL     OW19795   6.348   3.089   6.919
 6299SOL    HW119796   6.439   3.065   6.952
 6299SOL    HW219797   6.288   3.009   6.922
 6300SOL     OW19798   5.296   0.081   3.936
 6300SOL    HW119799   5.311   0.099   3.839
 6300SOL    HW219800   5.329   0.159   3.990
 6301SOL     OW19801   3.074   6.809   0.809
 6301SOL    HW119802   3.076   6.808   0.709
 6301SOL    HW219803   3.165   6.830   0.844
 6302SOL     OW19804   1.070   0.723   3.568
 6302SOL    HW119805   1.050   0.747   3.663
 6302SOL    HW219806   1.169   0.717   3.555
 6303SOL     OW19807   2.113   5.985   5.258
 6303SOL    HW119808   2.152   5.905   5.212
 6303SOL    HW219809   2.014   5.987   5.243
 6304SOL     OW19810   3.112   1.213   6.733
 6304SOL    HW119811   3.046   1.160   6.786
 6304SOL    HW219812   3.082   1.218   6.637
 6305SOL     OW19813   6.362   0.615   1.050
 6305SOL    HW119814   6.395   0.663   0.969
 6305SOL    HW219815   6.264   0.599   1.042
 6306SOL     OW19816   6.438   2.827   3.703
 6306SOL    HW119817   6.340   2.831   3.683
 6306SOL    HW219818   6.469   2.732   3.704
 6307SOL     OW19819   2.439   4.594   0.516
 6307SOL    HW119820   2.346   4.569   0.541
 6307SOL    HW219821   2.500   4.515   0.528
 6308SOL     OW19822   3.179   2.057   5.217
 6308SOL    HW119823   3.220   2.032   5.129
 6308SOL    HW219824   3.153   2.153   5.215
 6309SOL     OW19825   5.953   2.232   4.212
 6309SOL    HW119826   5.901   2.317   4.208
 6309SOL    HW219827   6.027   2.236   4.145
 6310SOL     OW19828   1.714   5.165   5.149
 6310SOL    HW119829   1.782   5.103   5.188
 6310SOL    HW219830   1.759   5.247   5.115
 6311SOL     OW19831   5.730   0.888   4.911
 6311SOL    HW119832   5.770   0.860   4.824
 6311SOL    HW219833   5.716   0.987   4.911
 6312SOL     OW19834   3.905   5.097   5.568
 6312SOL    HW119835   3.846   5.083   5.647
 6312SOL    HW219836   3.860   5.158   5.503
 6313SOL     OW19837   2.098   5.342   3.029
 6313SOL    HW119838   2.045   5.266   2.990
 6313SOL    HW219839   2.084   5.424   2.974
 6314SOL     OW19840   2.514   6.712   3.242
 6314SOL    HW119841   2.449   6.703   3.318
 6314SOL    HW219842   2.510   6.629   3.185
 6315SOL     OW19843   2.825   3.097   0.579
 6315SOL    HW119844   2.741   3.109   0.527
 6315SOL    HW219845   2.803   3.083   0.676
 6316SOL     OW19846   5.436   2.345   5.646
 6316SOL    HW119847   5.468   2.427   5.600
 6316SOL    HW219848   5.513   2.299   5.690
 6317SOL     OW19849   6.351   6.346   4.546
 6317SOL    HW119850   6.271   6.379   4.595
 6317SOL    HW219851   6.393   6.422   4.496
 6318SOL     OW19852   2.442   1.917   4.620
 6318SOL    HW119853   2.507   1.877   4.685
 6318SOL    HW219854   2.376   1.973   4.669
 6319SOL     OW19855   6.906   1.455   3.315
 6319SOL    HW119856   6.807   1.472   3.312
 6319SOL    HW219857   6.946   1.482   3.227
 6320SOL     OW19858   6.161   3.363   3.032
 6320SOL    HW119859   6.216   3.299   3.087
 6320SOL    HW219860   6.070   3.324   3.016
 6321SOL     OW19861   2.405   3.741   0.333
 6321SOL    HW119862   2.322   3.785   0.368
 6321SOL    HW219863   2.414   3.762   0.236
 6322SOL     OW19864   1.454   1.072   0.051
 6322SOL    HW119865   1.441   1.083   0.149
 6322SOL    HW219866   1.403   1.144   0.002
 6323SOL     OW19867   3.799   2.760   0.326
 6323SOL    HW119868   3.716   2.778   0.379
 6323SOL    HW219869   3.860   2.700   0.379
 6324SOL     OW19870   4.304   1.119   6.586
 6324SOL    HW119871   4.281   1.213   6.564
 6324SOL    HW219872   4.262   1.094   6.673
 6325SOL     OW19873   0.888   2.386   2.689
 6325SOL    HW119874   0.911   2.323   2.615
 6325SOL    HW219875   0.792   2.374   2.714
 6326SOL     OW19876   5.205   5.983   1.403
 6326SOL    HW119877   5.221   6.081   1.414
 6326SOL    HW219878   5.267   5.946   1.334
 6327SOL     OW19879   5.452   5.598   5.846
 6327SOL    HW119880   5.416   5.633   5.933
 6327SOL    HW219881   5.382   5.543   5.801
 6328SOL     OW19882   2.991   4.130   6.478
 6328SOL    HW119883   2.955   4.042   6.447
 6328SOL    HW219884   3.044   4.173   6.405
 6329SOL     OW19885   0.526   1.617   3.526
 6329SOL    HW119886   0.429   1.635   3.512
 6329SOL    HW219887   0.575   1.627   3.439
 6330SOL     OW19888   3.874   1.237   0.073
 6330SOL    HW119889   3.775   1.242   0.061
 6330SOL    HW219890   3.902   1.304   0.142
 6331SOL     OW19891   6.435   2.801   1.776
 6331SOL    HW119892   6.411   2.780   1.681
 6331SOL    HW219893   6.465   2.896   1.782
 6332SOL     OW19894   5.748   6.206   1.469
 6332SOL    HW119895   5.727   6.160   1.383
 6332SOL    HW219896   5.769   6.302   1.452
 6333SOL     OW19897   3.182   4.993   2.644
 6333SOL    HW119898   3.211   4.965   2.553
 6333SOL    HW219899   3.123   5.074   2.637
 6334SOL     OW19900   2.294   1.431   2.935
 6334SOL    HW119901   2.283   1.463   3.029
 6334SOL    HW219902   2.302   1.332   2.934
 6335SOL     OW19903   0.022   1.519   6.686
 6335SOL    HW119904   6.992   1.604   6.686
 6335SOL    HW219905   0.069   1.509   6.598
 6336SOL     OW19906   0.334   2.493   4.720
 6336SOL    HW119907   0.346   2.508   4.622
 6336SOL    HW219908   0.363   2.575   4.770
 6337SOL     OW19909   5.928   4.801   5.355
 6337SOL    HW119910   5.946   4.767   5.448
 6337SOL    HW219911   5.967   4.737   5.289
 6338SOL     OW19912   3.934   1.053   3.380
 6338SOL    HW119913   3.909   0.957   3.381
 6338SOL    HW219914   4.017   1.066   3.325
 6339SOL     OW19915   6.647   1.913   4.065
 6339SOL    HW119916   6.570   1.849   4.060
 6339SOL    HW219917   6.684   1.927   3.974
 6340SOL     OW19918   1.981   5.701   3.990
 6340SOL    HW119919   1.956   5.798   3.983
 6340SOL    HW219920   2.078   5.690   3.970
 6341SOL     OW19921   0.421   4.863   3.347
 6341SOL    HW119922   0.388   4.828   3.435
 6341SOL    HW219923   0.353   4.843   3.276
 6342SOL     OW19924   1.647   2.513   1.130
 6342SOL    HW119925   1.595   2.465   1.202
 6342SOL    HW219926   1.744   2.515   1.154
 6343SOL     OW19927   3.962   1.238   6.701
 6343SOL    HW119928   3.928   1.291   6.778
 6343SOL    HW219929   3.890   1.179   6.666
 6344SOL     OW19930   0.932   4.298   4.390
 6344SOL    HW119931   0.963   4.374   4.333
 6344SOL    HW219932   0.972   4.306   4.481
 6345SOL     OW19933   3.733   1.803   2.497
 6345SOL    HW119934   3.797   1.757   2.558
 6345SOL    HW219935   3.775   1.888   2.462
 6346SOL     OW19936   0.719   4.676   3.495
 6346SOL    HW119937   0.622   4.699   3.504
 6346SOL    HW219938   0.771   4.723   3.565
 6347SOL     OW19939   2.920   0.618   1.349
 6347SOL    HW119940   2.996   0.656   1.297
 6347SOL    HW219941   2.863   0.563   1.288
 6348SOL     OW19942   1.079   3.147   4.319
 6348SOL    HW119943   1.077   3.068   4.380
 6348SOL    HW219944   1.162   3.200   4.336
 6349SOL     OW19945   2.864   0.357   0.514
 6349SOL    HW119946   2.824   0.364   0.423
 6349SOL    HW219947   2.794   0.375   0.583
 6350SOL     OW19948   1.364   6.323   2.233
 6350SOL    HW119949   1.316   6.370   2.159
 6350SOL    HW219950   1.409   6.391   2.292
 6351SOL     OW19951   6.974   0.914   2.810
 6351SOL    HW119952   6.887   0.888   2.769
 6351SOL    HW219953   0.015   0.941   2.738
 6352SOL     OW19954   0.418   5.787   1.973
 6352SOL    HW119955   0.336   5.733   1.989
 6352SOL    HW219956   0.498   5.736   2.005
 6353SOL     OW19957   0.223   6.779   1.584
 6353SOL    HW119958   0.284   6.849   1.620
 6353SOL    HW219959   0.136   6.780   1.634
 6354SOL     OW19960   0.359   6.727   3.455
 6354SOL    HW119961   0.390   6.634   3.472
 6354SOL    HW219962   0.291   6.753   3.524
 6355SOL     OW19963   2.017   2.493   3.084
 6355SOL    HW119964   1.971   2.404   3.082
 6355SOL    HW219965   1.961   2.561   3.036
 6356SOL     OW19966   3.468   3.505   1.435
 6356SOL    HW119967   3.512   3.420   1.405
 6356SOL    HW219968   3.425   3.490   1.524
 6357SOL     OW19969   4.581   1.822   0.070
 6357SOL    HW119970   4.606   1.807   6.997
 6357SOL    HW219971   4.558   1.918   0.084
 6358SOL     OW19972   6.593   2.151   3.377
 6358SOL    HW119973   6.516   2.155   3.313
 6358SOL    HW219974   6.648   2.070   3.357
 6359SOL     OW19975   7.017   1.165   0.093
 6359SOL    HW119976   6.945   1.098   0.075
 6359SOL    HW219977   7.022   1.230   0.017
 6360SOL     OW19978   3.207   5.942   4.077
 6360SOL    HW119979   3.200   5.931   4.176
 6360SOL    HW219980   3.183   5.856   4.033
 6361SOL     OW19981   4.604   6.161   5.995
 6361SOL    HW119982   4.531   6.229   6.000
 6361SOL    HW219983   4.677   6.186   6.058
 6362SOL     OW19984   6.180   5.353   6.873
 6362SOL    HW119985   6.143   5.441   6.903
 6362SOL    HW219986   6.125   5.279   6.913
 6363SOL     OW19987   0.625   5.549   4.532
 6363SOL    HW119988   0.652   5.462   4.491
 6363SOL    HW219989   0.656   5.624   4.474
 6364SOL     OW19990   2.730   2.298   5.888
 6364SOL    HW119991   2.723   2.288   5.988
 6364SOL    HW219992   2.748   2.208   5.847
 6365SOL     OW19993   4.833   6.509   2.879
 6365SOL    HW119994   4.854   6.516   2.781
 6365SOL    HW219995   4.787   6.422   2.896
 6366SOL     OW19996   0.508   5.051   5.425
 6366SOL    HW119997   0.426   5.096   5.459
 6366SOL    HW219998   0.565   5.023   5.502
 6367SOL     OW19999   5.750   6.598   3.865
 6367SOL    HW120000   5.783   6.576   3.957
 6367SOL    HW220001   5.650   6.591   3.863
 6368SOL     OW20002   2.695   0.174   4.066
 6368SOL    HW120003   2.785   0.213   4.047
 6368SOL    HW220004   2.682   0.092   4.010
 6369SOL     OW20005   2.375   5.435   4.198
 6369SOL    HW120006   2.319   5.356   4.221
 6369SOL    HW220007   2.452   5.406   4.141
 6370SOL     OW20008   5.852   2.778   1.580
 6370SOL    HW120009   5.801   2.853   1.538
 6370SOL    HW220010   5.805   2.692   1.563
 6371SOL     OW20011   4.960   2.267   3.043
 6371SOL    HW120012   4.928   2.177   3.015
 6371SOL    HW220013   5.049   2.286   3.002
 6372SOL     OW20014   2.934   6.104   2.430
 6372SOL    HW120015   2.846   6.097   2.383
 6372SOL    HW220016   2.930   6.178   2.497
 6373SOL     OW20017   3.870   4.456   6.517
 6373SOL    HW120018   3.959   4.503   6.508
 6373SOL    HW220019   3.809   4.489   6.445
 6374SOL     OW20020   2.903   3.352   2.189
 6374SOL    HW120021   2.846   3.271   2.173
 6374SOL    HW220022   2.977   3.355   2.122
 6375SOL     OW20023   1.776   6.509   2.539
 6375SOL    HW120024   1.681   6.536   2.554
 6375SOL    HW220025   1.778   6.425   2.485
 6376SOL     OW20026   0.253   2.379   5.129
 6376SOL    HW120027   0.274   2.352   5.223
 6376SOL    HW220028   0.176   2.325   5.095
 6377SOL     OW20029   0.658   0.868   3.818
 6377SOL    HW120030   0.659   0.932   3.741
 6377SOL    HW220031   0.606   0.787   3.793
 6378SOL     OW20032   4.778   3.999   3.586
 6378SOL    HW120033   4.759   4.069   3.655
 6378SOL    HW220034   4.757   4.035   3.495
 6379SOL     OW20035   2.382   4.382   3.397
 6379SOL    HW120036   2.448   4.422   3.333
 6379SOL    HW220037   2.357   4.290   3.366
 6380SOL     OW20038   0.075   0.817   6.037
 6380SOL    HW120039   0.147   0.887   6.034
 6380SOL    HW220040   0.081   0.767   6.123
 6381SOL     OW20041   3.408   4.110   2.742
 6381SOL    HW120042   3.349   4.144   2.815
 6381SOL    HW220043   3.353   4.067   2.671
 6382SOL     OW20044   0.818   3.588   5.646
 6382SOL    HW120045   0.800   3.670   5.701
 6382SOL    HW220046   0.879   3.612   5.570
 6383SOL     OW20047   3.083   0.900   4.517
 6383SOL    HW120048   2.995   0.853   4.507
 6383SOL    HW220049   3.109   0.942   4.430
 6384SOL     OW20050   6.774   4.703   3.267
 6384SOL    HW120051   6.736   4.778   3.213
 6384SOL    HW220052   6.767   4.725   3.364
 6385SOL     OW20053   0.258   5.696   4.362
 6385SOL    HW120054   0.304   5.684   4.274
 6385SOL    HW220055   0.326   5.705   4.434
 6386SOL     OW20056   2.880   5.292   1.309
 6386SOL    HW120057   2.886   5.227   1.233
 6386SOL    HW220058   2.905   5.383   1.278
 6387SOL     OW20059   6.521   0.675   5.258
 6387SOL    HW120060   6.467   0.756   5.237
 6387SOL    HW220061   6.609   0.703   5.295
 6388SOL     OW20062   2.698   4.715   2.453
 6388SOL    HW120063   2.766   4.783   2.481
 6388SOL    HW220064   2.607   4.747   2.478
 6389SOL     OW20065   0.784   4.642   3.001
 6389SOL    HW120066   0.773   4.643   2.902
 6389SOL    HW220067   0.738   4.561   3.039
 6390SOL     OW20068   0.801   3.445   4.130
 6390SOL    HW120069   0.705   3.444   4.101
 6390SOL    HW220070   0.850   3.370   4.085
 6391SOL     OW20071   3.168   1.280   0.432
 6391SOL    HW120072   3.218   1.225   0.498
 6391SOL    HW220073   3.221   1.287   0.347
 6392SOL     OW20074   1.424   6.908   4.075
 6392SOL    HW120075   1.406   6.820   4.030
 6392SOL    HW220076   1.358   6.976   4.042
 6393SOL     OW20077   5.998   6.671   0.259
 6393SOL    HW120078   6.029   6.764   0.237
 6393SOL    HW220079   6.055   6.605   0.211
 6394SOL     OW20080   2.547   4.549   0.808
 6394SOL    HW120081   2.631   4.572   0.761
 6394SOL    HW220082   2.481   4.511   0.743
 6395SOL     OW20083   6.122   1.709   0.820
 6395SOL    HW120084   6.186   1.721   0.895
 6395SOL    HW220085   6.103   1.799   0.779
 6396SOL     OW20086   5.199   4.158   5.003
 6396SOL    HW120087   5.158   4.211   5.077
 6396SOL    HW220088   5.284   4.116   5.035
 6397SOL     OW20089   0.270   1.375   1.088
 6397SOL    HW120090   0.337   1.343   1.155
 6397SOL    HW220091   0.228   1.460   1.122
 6398SOL     OW20092   3.419   1.515   1.718
 6398SOL    HW120093   3.484   1.579   1.677
 6398SOL    HW220094   3.467   1.431   1.745
 6399SOL     OW20095   2.484   5.268   6.666
 6399SOL    HW120096   2.552   5.206   6.706
 6399SOL    HW220097   2.452   5.232   6.579
 6400SOL     OW20098   2.552   5.617   3.761
 6400SOL    HW120099   2.464   5.588   3.800
 6400SOL    HW220100   2.539   5.703   3.711
 6401SOL     OW20101   0.831   5.214   3.980
 6401SOL    HW120102   0.777   5.133   4.000
 6401SOL    HW220103   0.929   5.191   3.981
 6402SOL     OW20104   2.223   1.115   3.091
 6402SOL    HW120105   2.131   1.123   3.053
 6402SOL    HW220106   2.251   1.019   3.090
 6403SOL     OW20107   0.100   6.070   0.078
 6403SOL    HW120108   0.177   6.111   0.127
 6403SOL    HW220109   0.041   6.023   0.142
 6404SOL     OW20110   5.261   1.023   2.828
 6404SOL    HW120111   5.262   0.992   2.923
 6404SOL    HW220112   5.268   0.944   2.767
 6405SOL     OW20113   2.613   1.149   2.512
 6405SOL    HW120114   2.610   1.069   2.452
 6405SOL    HW220115   2.552   1.220   2.477
 6406SOL     OW20116   2.740   2.045   3.701
 6406SOL    HW120117   2.791   1.962   3.721
 6406SOL    HW220118   2.650   2.021   3.665
 6407SOL     OW20119   3.948   5.245   6.284
 6407SOL    HW120120   4.046   5.261   6.274
 6407SOL    HW220121   3.922   5.252   6.381
 6408SOL     OW20122   6.384   2.054   6.905
 6408SOL    HW120123   6.352   2.148   6.912
 6408SOL    HW220124   6.401   2.031   6.809
 6409SOL     OW20125   1.794   4.408   2.129
 6409SOL    HW120126   1.826   4.313   2.132
 6409SOL    HW220127   1.778   4.440   2.222
 6410SOL     OW20128   1.180   1.469   1.365
 6410SOL    HW120129   1.093   1.481   1.316
 6410SOL    HW220130   1.248   1.531   1.326
 6411SOL     OW20131   1.205   0.754   3.282
 6411SOL    HW120132   1.218   0.656   3.294
 6411SOL    HW220133   1.227   0.801   3.368
 6412SOL     OW20134   0.049   2.302   4.937
 6412SOL    HW120135   0.014   2.273   4.848
 6412SOL    HW220136   0.008   2.390   4.962
 6413SOL     OW20137   6.792   4.572   0.755
 6413SOL    HW120138   6.883   4.608   0.774
 6413SOL    HW220139   6.743   4.557   0.841
 6414SOL     OW20140   5.466   6.413   2.307
 6414SOL    HW120141   5.431   6.352   2.236
 6414SOL    HW220142   5.565   6.422   2.297
 6415SOL     OW20143   2.017   2.121   2.164
 6415SOL    HW120144   2.016   2.077   2.253
 6415SOL    HW220145   2.019   2.221   2.176
 6416SOL     OW20146   1.414   0.555   6.548
 6416SOL    HW120147   1.502   0.561   6.594
 6416SOL    HW220148   1.346   0.516   6.610
 6417SOL     OW20149   0.769   6.948   2.769
 6417SOL    HW120150   0.864   6.934   2.745
 6417SOL    HW220151   0.758   0.016   2.811
 6418SOL     OW20152   6.139   6.075   2.324
 6418SOL    HW120153   6.217   6.132   2.349
 6418SOL    HW220154   6.162   6.019   2.245
 6419SOL     OW20155   2.998   4.955   1.775
 6419SOL    HW120156   3.091   4.980   1.750
 6419SOL    HW220157   2.949   5.036   1.807
 6420SOL     OW20158   1.412   3.978   0.142
 6420SOL    HW120159   1.314   3.967   0.158
 6420SOL    HW220160   1.430   3.980   0.043
 6421SOL     OW20161   5.328   1.810   1.003
 6421SOL    HW120162   5.393   1.772   0.937
 6421SOL    HW220163   5.242   1.760   0.998
 6422SOL     OW20164   5.689   1.499   3.333
 6422SOL    HW120165   5.736   1.587   3.335
 6422SOL    HW220166   5.739   1.436   3.273
 6423SOL     OW20167   5.006   3.923   0.284
 6423SOL    HW120168   4.999   3.870   0.369
 6423SOL    HW220169   4.979   3.865   0.207
 6424SOL     OW20170   0.057   4.728   5.690
 6424SOL    HW120171   6.991   4.749   5.647
 6424SOL    HW220172   0.047   4.730   5.789
 6425SOL     OW20173   0.840   4.934   1.624
 6425SOL    HW120174   0.821   4.836   1.619
 6425SOL    HW220175   0.807   4.978   1.541
 6426SOL     OW20176   0.069   3.045   3.917
 6426SOL    HW120177   0.028   3.082   4.000
 6426SOL    HW220178   0.100   3.121   3.859
 6427SOL     OW20179   2.137   3.273   5.216
 6427SOL    HW120180   2.047   3.310   5.237
 6427SOL    HW220181   2.128   3.195   5.154
 6428SOL     OW20182   6.562   3.446   2.490
 6428SOL    HW120183   6.476   3.489   2.462
 6428SOL    HW220184   6.571   3.451   2.589
 6429SOL     OW20185   1.387   0.560   4.349
 6429SOL    HW120186   1.432   0.582   4.436
 6429SOL    HW220187   1.385   0.461   4.337
 6430SOL     OW20188   6.059   3.296   1.132
 6430SOL    HW120189   6.090   3.355   1.207
 6430SOL    HW220190   6.016   3.351   1.061
 6431SOL     OW20191   5.535   0.434   2.833
 6431SOL    HW120192   5.528   0.387   2.745
 6431SOL    HW220193   5.527   0.533   2.819
 6432SOL     OW20194   5.235   3.156   0.825
 6432SOL    HW120195   5.223   3.170   0.726
 6432SOL    HW220196   5.305   3.086   0.840
 6433SOL     OW20197   2.735   3.648   1.663
 6433SOL    HW120198   2.695   3.740   1.664
 6433SOL    HW220199   2.768   3.626   1.754
 6434SOL     OW20200   1.409   4.825   1.043
 6434SOL    HW120201   1.347   4.789   1.113
 6434SOL    HW220202   1.376   4.914   1.012
 6435SOL     OW20203   4.881   4.308   6.958
 6435SOL    HW120204   4.870   4.209   6.963
 6435SOL    HW220205   4.792   4.351   6.941
 6436SOL     OW20206   1.747   3.155   2.970
 6436SOL    HW120207   1.773   3.159   2.874
 6436SOL    HW220208   1.827   3.166   3.028
 6437SOL     OW20209   1.117   0.755   6.776
 6437SOL    HW120210   1.188   0.799   6.831
 6437SOL    HW220211   1.159   0.686   6.717
 6438SOL     OW20212   1.185   3.576   3.870
 6438SOL    HW120213   1.248   3.545   3.942
 6438SOL    HW220214   1.102   3.612   3.912
 6439SOL     OW20215   0.587   0.215   1.646
 6439SOL    HW120216   0.567   0.129   1.693
 6439SOL    HW220217   0.534   0.220   1.562
 6440SOL     OW20218   1.024   1.691   2.637
 6440SOL    HW120219   0.967   1.651   2.709
 6440SOL    HW220220   1.101   1.739   2.678
 6441SOL     OW20221   2.853   1.380   3.308
 6441SOL    HW120222   2.809   1.294   3.280
 6441SOL    HW220223   2.931   1.399   3.247
 6442SOL     OW20224   3.207   1.249   3.654
 6442SOL    HW120225   3.141   1.268   3.726
 6442SOL    HW220226   3.207   1.324   3.587
 6443SOL     OW20227   2.906   1.285   0.386
 6443SOL    HW120228   2.869   1.372   0.353
 6443SOL    HW220229   3.000   1.298   0.416
 6444SOL     OW20230   0.217   1.097   3.296
 6444SOL    HW120231   0.250   1.136   3.210
 6444SOL    HW220232   0.172   1.169   3.349
 6445SOL     OW20233   4.092   3.484   5.541
 6445SOL    HW120234   4.175   3.540   5.548
 6445SOL    HW220235   4.102   3.403   5.599
 6446SOL     OW20236   6.339   1.586   0.438
 6446SOL    HW120237   6.259   1.645   0.427
 6446SOL    HW220238   6.343   1.552   0.532
 6447SOL     OW20239   0.943   1.091   3.116
 6447SOL    HW120240   0.886   1.172   3.126
 6447SOL    HW220241   1.034   1.109   3.153
 6448SOL     OW20242   5.683   2.895   2.922
 6448SOL    HW120243   5.705   2.955   2.999
 6448SOL    HW220244   5.620   2.824   2.952
 6449SOL     OW20245   3.256   2.978   1.067
 6449SOL    HW120246   3.317   3.034   1.123
 6449SOL    HW220247   3.225   3.032   0.989
 6450SOL     OW20248   6.623   3.446   0.342
 6450SOL    HW120249   6.539   3.464   0.394
 6450SOL    HW220250   6.634   3.347   0.331
 6451SOL     OW20251   2.567   6.942   4.790
 6451SOL    HW120252   2.657   6.942   4.834
 6451SOL    HW220253   2.532   0.013   4.787
 6452SOL     OW20254   3.761   6.205   3.502
 6452SOL    HW120255   3.830   6.188   3.574
 6452SOL    HW220256   3.728   6.117   3.468
 6453SOL     OW20257   1.820   5.815   6.727
 6453SOL    HW120258   1.803   5.717   6.731
 6453SOL    HW220259   1.856   5.838   6.636
 6454SOL     OW20260   3.245   1.496   5.091
 6454SOL    HW120261   3.247   1.595   5.077
 6454SOL    HW220262   3.329   1.456   5.056
 6455SOL     OW20263   6.108   2.665   5.573
 6455SOL    HW120264   6.169   2.600   5.617
 6455SOL    HW220265   6.056   2.619   5.501
 6456SOL     OW20266   7.005   0.749   4.133
 6456SOL    HW120267   6.974   0.675   4.074
 6456SOL    HW220268   6.970   0.836   4.098
 6457SOL     OW20269   6.685   2.956   0.945
 6457SOL    HW120270   6.782   2.975   0.959
 6457SOL    HW220271   6.672   2.909   0.858
 6458SOL     OW20272   1.427   5.610   2.659
 6458SOL    HW120273   1.462   5.524   2.623
 6458SOL    HW220274   1.488   5.644   2.731
 6459SOL     OW20275   5.568   4.756   0.255
 6459SOL    HW120276   5.574   4.853   0.279
 6459SOL    HW220277   5.476   4.722   0.274
 6460SOL     OW20278   3.421   5.079   6.198
 6460SOL    HW120279   3.326   5.102   6.177
 6460SOL    HW220280   3.478   5.160   6.185
 6461SOL     OW20281   3.726   5.673   4.641
 6461SOL    HW120282   3.776   5.758   4.654
 6461SOL    HW220283   3.680   5.674   4.552
 6462SOL     OW20284   2.142   3.639   4.429
 6462SOL    HW120285   2.151   3.540   4.421
 6462SOL    HW220286   2.104   3.662   4.518
 6463SOL     OW20287   1.341   4.757   5.559
 6463SOL    HW120288   1.435   4.790   5.575
 6463SOL    HW220289   1.345   4.665   5.521
 6464SOL     OW20290   0.674   5.271   3.206
 6464SOL    HW120291   0.640   5.330   3.279
 6464SOL    HW220292   0.665   5.175   3.234
 6465SOL     OW20293   6.467   0.853   3.070
 6465SOL    HW120294   6.552   0.802   3.054
 6465SOL    HW220295   6.437   0.894   2.984
 6466SOL     OW20296   6.806   2.690   4.673
 6466SOL    HW120297   6.885   2.642   4.711
 6466SOL    HW220298   6.723   2.657   4.718
 6467SOL     OW20299   2.521   0.693   6.666
 6467SOL    HW120300   2.506   0.781   6.712
 6467SOL    HW220301   2.601   0.648   6.707
 6468SOL     OW20302   5.009   5.177   0.852
 6468SOL    HW120303   5.008   5.099   0.915
 6468SOL    HW220304   5.035   5.146   0.761
 6469SOL     OW20305   6.885   1.409   5.724
 6469SOL    HW120306   6.815   1.471   5.687
 6469SOL    HW220307   6.845   1.318   5.737
 6470SOL     OW20308   6.717   6.947   5.823
 6470SOL    HW120309   6.771   6.884   5.768
 6470SOL    HW220310   6.620   6.923   5.817
 6471SOL     OW20311   5.576   5.028   5.590
 6471SOL    HW120312   5.635   4.992   5.663
 6471SOL    HW220313   5.578   4.966   5.512
 6472SOL     OW20314   1.231   6.230   1.073
 6472SOL    HW120315   1.159   6.297   1.057
 6472SOL    HW220316   1.226   6.158   1.003
 6473SOL     OW20317   2.331   1.680   6.230
 6473SOL    HW120318   2.407   1.631   6.189
 6473SOL    HW220319   2.247   1.662   6.178
 6474SOL     OW20320   1.942   3.113   5.439
 6474SOL    HW120321   1.948   3.114   5.339
 6474SOL    HW220322   2.027   3.149   5.478
 6475SOL     OW20323   4.191   6.328   4.003
 6475SOL    HW120324   4.265   6.343   3.937
 6475SOL    HW220325   4.163   6.415   4.042
 6476SOL     OW20326   4.656   5.115   2.832
 6476SOL    HW120327   4.632   5.045   2.899
 6476SOL    HW220328   4.714   5.074   2.761
 6477SOL     OW20329   6.743   5.375   6.672
 6477SOL    HW120330   6.807   5.416   6.607
 6477SOL    HW220331   6.673   5.442   6.696
 6478SOL     OW20332   4.703   6.540   0.720
 6478SOL    HW120333   4.712   6.575   0.627
 6478SOL    HW220334   4.656   6.452   0.718
 6479SOL     OW20335   3.867   5.125   2.737
 6479SOL    HW120336   3.789   5.189   2.740
 6479SOL    HW220337   3.833   5.032   2.727
 6480SOL     OW20338   2.975   2.365   6.666
 6480SOL    HW120339   2.985   2.274   6.705
 6480SOL    HW220340   3.058   2.390   6.616
 6481SOL     OW20341   4.833   0.989   1.231
 6481SOL    HW120342   4.866   1.072   1.187
 6481SOL    HW220343   4.753   1.009   1.286
 6482SOL     OW20344   0.144   0.676   6.688
 6482SOL    HW120345   0.064   0.623   6.717
 6482SOL    HW220346   0.199   0.700   6.767
 6483SOL     OW20347   2.053   6.500   2.861
 6483SOL    HW120348   2.043   6.562   2.784
 6483SOL    HW220349   1.964   6.461   2.885
 6484SOL     OW20350   5.043   6.872   3.674
 6484SOL    HW120351   5.044   6.815   3.756
 6484SOL    HW220352   4.977   6.947   3.686
 6485SOL     OW20353   1.554   2.803   3.222
 6485SOL    HW120354   1.593   2.714   3.200
 6485SOL    HW220355   1.558   2.862   3.141
 6486SOL     OW20356   1.665   3.620   3.613
 6486SOL    HW120357   1.748   3.636   3.666
 6486SOL    HW220358   1.616   3.542   3.651
 6487SOL     OW20359   6.063   6.347   4.256
 6487SOL    HW120360   6.063   6.281   4.181
 6487SOL    HW220361   6.144   6.405   4.250
 6488SOL     OW20362   3.304   5.343   5.963
 6488SOL    HW120363   3.235   5.277   5.994
 6488SOL    HW220364   3.266   5.401   5.892
 6489SOL     OW20365   1.776   1.753   5.492
 6489SOL    HW120366   1.784   1.755   5.592
 6489SOL    HW220367   1.854   1.704   5.453
 6490SOL     OW20368   3.326   0.966   0.374
 6490SOL    HW120369   3.412   0.915   0.375
 6490SOL    HW220370   3.299   0.987   0.467
 6491SOL     OW20371   3.654   1.845   6.694
 6491SOL    HW120372   3.637   1.781   6.768
 6491SOL    HW220373   3.627   1.937   6.723
 6492SOL     OW20374   5.807   6.341   0.129
 6492SOL    HW120375   5.865   6.409   0.174
 6492SOL    HW220376   5.820   6.347   0.030
 6493SOL     OW20377   0.847   6.598   6.063
 6493SOL    HW120378   0.907   6.525   6.096
 6493SOL    HW220379   0.753   6.580   6.094
 6494SOL     OW20380   1.242   0.449   3.758
 6494SOL    HW120381   1.212   0.524   3.817
 6494SOL    HW220382   1.325   0.476   3.708
 6495SOL     OW20383   5.433   4.674   2.848
 6495SOL    HW120384   5.426   4.644   2.943
 6495SOL    HW220385   5.442   4.595   2.788
 6496SOL     OW20386   1.734   0.066   2.639
 6496SOL    HW120387   1.711   0.062   2.737
 6496SOL    HW220388   1.811   0.005   2.620
 6497SOL     OW20389   0.876   4.395   0.293
 6497SOL    HW120390   0.936   4.333   0.241
 6497SOL    HW220391   0.929   4.438   0.366
 6498SOL     OW20392   1.429   4.845   4.143
 6498SOL    HW120393   1.465   4.753   4.125
 6498SOL    HW220394   1.385   4.847   4.233
 6499SOL     OW20395   5.908   1.286   4.462
 6499SOL    HW120396   5.958   1.236   4.390
 6499SOL    HW220397   5.811   1.287   4.440
 6500SOL     OW20398   5.400   5.105   3.754
 6500SOL    HW120399   5.467   5.150   3.813
 6500SOL    HW220400   5.313   5.096   3.802
 6501SOL     OW20401   0.264   4.092   1.209
 6501SOL    HW120402   0.167   4.081   1.232
 6501SOL    HW220403   0.272   4.129   1.117
 6502SOL     OW20404   1.289   5.005   2.643
 6502SOL    HW120405   1.267   4.915   2.604
 6502SOL    HW220406   1.316   4.994   2.739
 6503SOL     OW20407   4.578   0.230   4.746
 6503SOL    HW120408   4.588   0.159   4.676
 6503SOL    HW220409   4.484   0.232   4.779
 6504SOL     OW20410   2.816   0.956   0.835
 6504SOL    HW120411   2.890   0.982   0.773
 6504SOL    HW220412   2.854   0.906   0.913
 6505SOL     OW20413   5.958   4.919   1.167
 6505SOL    HW120414   5.949   4.897   1.264
 6505SOL    HW220415   6.036   4.981   1.154
 6506SOL     OW20416   2.371   2.334   0.994
 6506SOL    HW120417   2.273   2.341   0.973
 6506SOL    HW220418   2.409   2.426   1.005
 6507SOL     OW20419   2.128   0.771   1.892
 6507SOL    HW120420   2.078   0.713   1.955
 6507SOL    HW220421   2.074   0.786   1.809
 6508SOL     OW20422   1.877   1.783   2.890
 6508SOL    HW120423   1.878   1.864   2.948
 6508SOL    HW220424   1.971   1.756   2.869
 6509SOL     OW20425   0.214   2.510   4.203
 6509SOL    HW120426   0.157   2.443   4.156
 6509SOL    HW220427   0.310   2.484   4.196
 6510SOL     OW20428   5.521   4.660   5.757
 6510SOL    HW120429   5.569   4.748   5.763
 6510SOL    HW220430   5.438   4.664   5.813
 6511SOL     OW20431   6.161   6.038   6.389
 6511SOL    HW120432   6.209   5.952   6.407
 6511SOL    HW220433   6.218   6.115   6.416
 6512SOL     OW20434   4.796   6.546   3.497
 6512SOL    HW120435   4.884   6.581   3.464
 6512SOL    HW220436   4.809   6.502   3.586
 6513SOL     OW20437   3.395   6.951   2.924
 6513SOL    HW120438   3.410   6.852   2.926
 6513SOL    HW220439   3.453   6.992   2.854
 6514SOL     OW20440   3.260   6.827   3.918
 6514SOL    HW120441   3.161   6.813   3.918
 6514SOL    HW220442   3.293   6.833   3.823
 6515SOL     OW20443   0.999   6.959   5.283
 6515SOL    HW120444   1.052   6.893   5.230
 6515SOL    HW220445   0.929   6.999   5.226
 6516SOL     OW20446   0.571   1.750   5.365
 6516SOL    HW120447   0.472   1.740   5.371
 6516SOL    HW220448   0.613   1.660   5.355
 6517SOL     OW20449   1.114   1.849   0.166
 6517SOL    HW120450   1.186   1.896   0.215
 6517SOL    HW220451   1.109   1.883   0.072
 6518SOL     OW20452   6.489   6.139   1.234
 6518SOL    HW120453   6.407   6.089   1.264
 6518SOL    HW220454   6.569   6.102   1.280
 6519SOL     OW20455   2.383   2.139   3.349
 6519SOL    HW120456   2.447   2.072   3.387
 6519SOL    HW220457   2.370   2.213   3.415
 6520SOL     OW20458   5.660   5.618   1.356
 6520SOL    HW120459   5.689   5.542   1.414
 6520SOL    HW220460   5.723   5.625   1.278
 6521SOL     OW20461   0.281   1.694   5.315
 6521SOL    HW120462   0.287   1.605   5.359
 6521SOL    HW220463   0.311   1.688   5.220
 6522SOL     OW20464   2.491   5.513   5.938
 6522SOL    HW120465   2.399   5.487   5.910
 6522SOL    HW220466   2.544   5.541   5.859
 6523SOL     OW20467   1.925   2.124   6.166
 6523SOL    HW120468   1.839   2.140   6.117
 6523SOL    HW220469   1.914   2.047   6.229
 6524SOL     OW20470   3.795   4.126   4.366
 6524SOL    HW120471   3.868   4.058   4.355
 6524SOL    HW220472   3.758   4.120   4.459
 6525SOL     OW20473   0.023   2.847   3.738
 6525SOL    HW120474   6.950   2.822   3.752
 6525SOL    HW220475   0.050   2.914   3.807
 6526SOL     OW20476   1.265   6.209   4.762
 6526SOL    HW120477   1.207   6.257   4.828
 6526SOL    HW220478   1.323   6.143   4.810
 6527SOL     OW20479   1.398   0.987   4.411
 6527SOL    HW120480   1.325   0.996   4.479
 6527SOL    HW220481   1.487   0.984   4.457
 6528SOL     OW20482   6.173   0.884   4.138
 6528SOL    HW120483   6.269   0.901   4.163
 6528SOL    HW220484   6.143   0.956   4.075
 6529SOL     OW20485   6.955   2.304   2.432
 6529SOL    HW120486   6.915   2.212   2.432
 6529SOL    HW220487   6.887   2.370   2.461
 6530SOL     OW20488   0.088   2.042   0.581
 6530SOL    HW120489   0.026   2.116   0.610
 6530SOL    HW220490   0.076   2.025   0.484
 6531SOL     OW20491   4.700   2.815   4.394
 6531SOL    HW120492   4.668   2.795   4.487
 6531SOL    HW220493   4.759   2.895   4.395
 6532SOL     OW20494   0.273   2.091   6.462
 6532SOL    HW120495   0.276   2.095   6.562
 6532SOL    HW220496   0.329   2.165   6.425
 6533SOL     OW20497   4.520   0.317   0.970
 6533SOL    HW120498   4.602   0.266   0.996
 6533SOL    HW220499   4.444   0.292   1.030
 6534SOL     OW20500   2.089   4.084   1.232
 6534SOL    HW120501   2.151   4.158   1.209
 6534SOL    HW220502   2.009   4.088   1.173
 6535SOL     OW20503   1.043   3.983   5.752
 6535SOL    HW120504   1.007   4.074   5.732
 6535SOL    HW220505   1.143   3.986   5.752
 6536SOL     OW20506   6.664   2.746   0.062
 6536SOL    HW120507   6.577   2.703   0.088
 6536SOL    HW220508   6.712   2.688   7.019
 6537SOL     OW20509   1.311   6.943   0.418
 6537SOL    HW120510   1.250   7.009   0.460
 6537SOL    HW220511   1.334   6.872   0.484
 6538SOL     OW20512   2.290   3.225   6.738
 6538SOL    HW120513   2.300   3.308   6.683
 6538SOL    HW220514   2.231   3.243   6.817
 6539SOL     OW20515   2.426   1.831   0.100
 6539SOL    HW120516   2.373   1.867   0.177
 6539SOL    HW220517   2.375   1.845   0.015
 6540SOL     OW20518   3.219   1.352   4.451
 6540SOL    HW120519   3.316   1.325   4.452
 6540SOL    HW220520   3.166   1.282   4.404
 6541SOL     OW20521   2.176   2.135   6.394
 6541SOL    HW120522   2.135   2.158   6.306
 6541SOL    HW220523   2.167   2.037   6.411
 6542SOL     OW20524   5.918   4.439   3.389
 6542SOL    HW120525   5.948   4.533   3.374
 6542SOL    HW220526   5.989   4.389   3.438
 6543SOL     OW20527   6.710   5.807   6.812
 6543SOL    HW120528   6.614   5.817   6.838
 6543SOL    HW220529   6.719   5.821   6.713
 6544SOL     OW20530   6.778   6.326   4.381
 6544SOL    HW120531   6.874   6.327   4.410
 6544SOL    HW220532   6.763   6.398   4.313
 6545SOL     OW20533   4.972   2.244   5.887
 6545SOL    HW120534   5.056   2.191   5.873
 6545SOL    HW220535   4.956   2.256   5.985
 6546SOL     OW20536   3.106   4.230   6.214
 6546SOL    HW120537   3.034   4.299   6.213
 6546SOL    HW220538   3.189   4.269   6.252
 6547SOL     OW20539   4.649   2.398   6.665
 6547SOL    HW120540   4.700   2.403   6.750
 6547SOL    HW220541   4.552   2.379   6.684
 6548SOL     OW20542   6.785   5.089   5.492
 6548SOL    HW120543   6.742   5.148   5.560
 6548SOL    HW220544   6.791   4.996   5.527
 6549SOL     OW20545   3.975   1.560   0.962
 6549SOL    HW120546   3.999   1.604   0.876
 6549SOL    HW220547   4.057   1.554   1.020
 6550SOL     OW20548   0.692   5.592   3.409
 6550SOL    HW120549   0.768   5.645   3.448
 6550SOL    HW220550   0.707   5.495   3.428
 6551SOL     OW20551   1.980   4.746   2.374
 6551SOL    HW120552   2.058   4.714   2.428
 6551SOL    HW220553   1.976   4.846   2.378
 6552SOL     OW20554   3.119   4.921   5.993
 6552SOL    HW120555   3.180   4.856   5.948
 6552SOL    HW220556   3.049   4.952   5.929
 6553SOL     OW20557   0.242   2.983   2.726
 6553SOL    HW120558   0.172   2.943   2.666
 6553SOL    HW220559   0.197   3.032   2.801
 6554SOL     OW20560   0.174   2.665   5.379
 6554SOL    HW120561   0.271   2.641   5.378
 6554SOL    HW220562   0.164   2.764   5.371
 6555SOL     OW20563   0.144   1.332   1.957
 6555SOL    HW120564   0.146   1.423   1.915
 6555SOL    HW220565   0.236   1.295   1.961
 6556SOL     OW20566   3.950   6.745   4.264
 6556SOL    HW120567   4.035   6.797   4.253
 6556SOL    HW220568   3.872   6.803   4.240
 6557SOL     OW20569   6.676   5.714   1.275
 6557SOL    HW120570   6.764   5.668   1.287
 6557SOL    HW220571   6.618   5.696   1.354
 6558SOL     OW20572   6.444   5.374   6.807
 6558SOL    HW120573   6.346   5.381   6.824
 6558SOL    HW220574   6.482   5.299   6.862
 6559SOL     OW20575   3.988   3.390   0.892
 6559SOL    HW120576   4.032   3.397   0.982
 6559SOL    HW220577   3.916   3.320   0.895
 6560SOL     OW20578   3.880   2.380   0.145
 6560SOL    HW120579   3.897   2.371   0.047
 6560SOL    HW220580   3.783   2.366   0.163
 6561SOL     OW20581   4.137   3.705   4.163
 6561SOL    HW120582   4.136   3.621   4.218
 6561SOL    HW220583   4.230   3.741   4.160
 6562SOL     OW20584   6.066   4.242   5.932
 6562SOL    HW120585   6.089   4.202   5.844
 6562SOL    HW220586   5.967   4.247   5.942
 6563SOL     OW20587   1.762   5.405   1.905
 6563SOL    HW120588   1.702   5.446   1.974
 6563SOL    HW220589   1.744   5.447   1.816
 6564SOL     OW20590   1.290   5.435   2.239
 6564SOL    HW120591   1.300   5.416   2.337
 6564SOL    HW220592   1.199   5.408   2.209
 6565SOL     OW20593   6.587   3.103   5.302
 6565SOL    HW120594   6.494   3.134   5.325
 6565SOL    HW220595   6.588   3.004   5.294
 6566SOL     OW20596   3.363   6.829   0.839
 6566SOL    HW120597   3.335   6.917   0.800
 6566SOL    HW220598   3.416   6.778   0.772
 6567SOL     OW20599   5.745   3.008   1.462
 6567SOL    HW120600   5.782   3.100   1.457
 6567SOL    HW220601   5.686   2.999   1.542
 6568SOL     OW20602   3.880   4.547   1.288
 6568SOL    HW120603   3.959   4.527   1.231
 6568SOL    HW220604   3.798   4.503   1.250
 6569SOL     OW20605   0.266   4.555   6.703
 6569SOL    HW120606   0.346   4.609   6.729
 6569SOL    HW220607   0.209   4.539   6.784
 6570SOL     OW20608   6.177   2.273   1.070
 6570SOL    HW120609   6.193   2.175   1.080
 6570SOL    HW220610   6.215   2.304   0.982
 6571SOL     OW20611   2.516   5.872   3.599
 6571SOL    HW120612   2.605   5.873   3.553
 6571SOL    HW220613   2.454   5.934   3.552
 6572SOL     OW20614   0.657   3.972   6.032
 6572SOL    HW120615   0.716   3.898   6.000
 6572SOL    HW220616   0.664   4.050   5.969
 6573SOL     OW20617   2.059   1.728   2.569
 6573SOL    HW120618   2.000   1.806   2.549
 6573SOL    HW220619   2.144   1.760   2.611
 6574SOL     OW20620   2.781   5.250   2.871
 6574SOL    HW120621   2.791   5.159   2.911
 6574SOL    HW220622   2.699   5.252   2.813
 6575SOL     OW20623   0.507   1.393   3.081
 6575SOL    HW120624   0.472   1.439   3.163
 6575SOL    HW220625   0.467   1.434   3.000
 6576SOL     OW20626   0.974   6.360   6.099
 6576SOL    HW120627   1.007   6.275   6.059
 6576SOL    HW220628   1.001   6.364   6.196
 6577SOL     OW20629   6.124   2.300   3.695
 6577SOL    HW120630   6.216   2.322   3.728
 6577SOL    HW220631   6.089   2.221   3.746
 6578SOL     OW20632   6.102   5.107   3.604
 6578SOL    HW120633   6.060   5.060   3.682
 6578SOL    HW220634   6.039   5.177   3.571
 6579SOL     OW20635   0.506   3.981   2.379
 6579SOL    HW120636   0.469   4.065   2.340
 6579SOL    HW220637   0.432   3.924   2.414
 6580SOL     OW20638   6.066   2.433   1.965
 6580SOL    HW120639   6.090   2.423   1.869
 6580SOL    HW220640   6.048   2.342   2.004
 6581SOL     OW20641   2.853   1.465   6.273
 6581SOL    HW120642   2.807   1.380   6.248
 6581SOL    HW220643   2.936   1.476   6.219
 6582SOL     OW20644   6.600   6.930   2.777
 6582SOL    HW120645   6.552   6.877   2.707
 6582SOL    HW220646   6.691   6.890   2.792
 6583SOL     OW20647   5.897   1.674   5.475
 6583SOL    HW120648   5.930   1.755   5.426
 6583SOL    HW220649   5.886   1.696   5.572
 6584SOL     OW20650   5.901   1.960   6.618
 6584SOL    HW120651   5.929   1.960   6.714
 6584SOL    HW220652   5.956   2.026   6.567
 6585SOL     OW20653   1.981   1.152   6.527
 6585SOL    HW120654   1.895   1.161   6.477
 6585SOL    HW220655   2.003   1.239   6.571
 6586SOL     OW20656   6.775   2.554   5.994
 6586SOL    HW120657   6.813   2.646   6.000
 6586SOL    HW220658   6.838   2.494   5.946
 6587SOL     OW20659   2.230   6.756   2.612
 6587SOL    HW120660   2.305   6.690   2.622
 6587SOL    HW220661   2.146   6.717   2.650
 6588SOL     OW20662   1.734   2.987   0.268
 6588SOL    HW120663   1.781   2.951   0.187
 6588SOL    HW220664   1.673   3.062   0.240
 6589SOL     OW20665   4.555   1.611   5.931
 6589SOL    HW120666   4.462   1.631   5.964
 6589SOL    HW220667   4.551   1.588   5.833
 6590SOL     OW20668   6.838   1.202   5.276
 6590SOL    HW120669   6.902   1.162   5.342
 6590SOL    HW220670   6.888   1.234   5.196
 6591SOL     OW20671   5.384   1.250   2.726
 6591SOL    HW120672   5.411   1.239   2.631
 6591SOL    HW220673   5.349   1.162   2.760
 6592SOL     OW20674   4.586   5.952   4.431
 6592SOL    HW120675   4.627   5.898   4.357
 6592SOL    HW220676   4.487   5.939   4.431
 6593SOL     OW20677   3.813   1.057   2.177
 6593SOL    HW120678   3.743   1.124   2.151
 6593SOL    HW220679   3.772   0.989   2.239
 6594SOL     OW20680   5.796   0.717   6.283
 6594SOL    HW120681   5.770   0.813   6.286
 6594SOL    HW220682   5.732   0.663   6.337
 6595SOL     OW20683   1.048   3.924   0.793
 6595SOL    HW120684   0.958   3.957   0.766
 6595SOL    HW220685   1.097   3.889   0.713
 6596SOL     OW20686   4.107   6.930   5.116
 6596SOL    HW120687   4.207   6.941   5.116
 6596SOL    HW220688   4.068   6.990   5.046
 6597SOL     OW20689   0.078   4.628   5.291
 6597SOL    HW120690   0.120   4.547   5.333
 6597SOL    HW220691   7.015   4.648   5.338
 6598SOL     OW20692   1.741   6.053   5.521
 6598SOL    HW120693   1.808   6.048   5.595
 6598SOL    HW220694   1.789   6.073   5.435
 6599SOL     OW20695   3.986   4.297   5.881
 6599SOL    HW120696   3.983   4.388   5.922
 6599SOL    HW220697   3.896   4.256   5.886
 6600SOL     OW20698   4.555   6.197   4.295
 6600SOL    HW120699   4.522   6.111   4.335
 6600SOL    HW220700   4.570   6.264   4.368
 6601SOL     OW20701   1.391   0.423   0.634
 6601SOL    HW120702   1.456   0.347   0.632
 6601SOL    HW220703   1.375   0.456   0.541
 6602SOL     OW20704   6.408   1.659   1.253
 6602SOL    HW120705   6.416   1.737   1.316
 6602SOL    HW220706   6.399   1.575   1.305
 6603SOL     OW20707   2.121   3.535   3.667
 6603SOL    HW120708   2.211   3.538   3.711
 6603SOL    HW220709   2.079   3.446   3.683
 6604SOL     OW20710   3.524   6.020   2.835
 6604SOL    HW120711   3.456   6.003   2.906
 6604SOL    HW220712   3.574   5.936   2.815
 6605SOL     OW20713   6.119   6.508   0.089
 6605SOL    HW120714   6.066   6.424   0.095
 6605SOL    HW220715   6.122   6.539   7.017
 6606SOL     OW20716   4.861   1.218   2.882
 6606SOL    HW120717   4.797   1.291   2.860
 6606SOL    HW220718   4.911   1.191   2.800
 6607SOL     OW20719   1.065   2.658   2.598
 6607SOL    HW120720   1.082   2.733   2.534
 6607SOL    HW220721   0.978   2.673   2.644
 6608SOL     OW20722   5.911   3.817   4.391
 6608SOL    HW120723   5.939   3.813   4.487
 6608SOL    HW220724   5.850   3.741   4.371
 6609SOL     OW20725   5.585   1.716   6.928
 6609SOL    HW120726   5.645   1.639   6.906
 6609SOL    HW220727   5.596   1.788   6.860
 6610SOL     OW20728   2.483   0.793   0.003
 6610SOL    HW120729   2.424   0.833   6.955
 6610SOL    HW220730   2.465   0.695   0.010
 6611SOL     OW20731   5.570   3.145   2.839
 6611SOL    HW120732   5.619   3.226   2.871
 6611SOL    HW220733   5.619   3.063   2.867
 6612SOL     OW20734   1.751   6.497   6.747
 6612SOL    HW120735   1.828   6.559   6.732
 6612SOL    HW220736   1.702   6.524   6.830
 6613SOL     OW20737   4.701   5.533   1.616
 6613SOL    HW120738   4.743   5.548   1.705
 6613SOL    HW220739   4.690   5.434   1.600
 6614SOL     OW20740   5.567   5.586   6.148
 6614SOL    HW120741   5.619   5.660   6.105
 6614SOL    HW220742   5.524   5.620   6.232
 6615SOL     OW20743   1.046   3.973   4.951
 6615SOL    HW120744   1.110   4.050   4.955
 6615SOL    HW220745   0.991   3.981   4.867
 6616SOL     OW20746   4.768   0.519   4.773
 6616SOL    HW120747   4.752   0.473   4.860
 6616SOL    HW220748   4.724   0.467   4.699
 6617SOL     OW20749   3.860   0.245   5.396
 6617SOL    HW120750   3.935   0.181   5.389
 6617SOL    HW220751   3.896   0.338   5.408
 6618SOL     OW20752   1.040   4.598   1.773
 6618SOL    HW120753   1.097   4.655   1.712
 6618SOL    HW220754   1.096   4.523   1.809
 6619SOL     OW20755   4.990   5.610   2.805
 6619SOL    HW120756   4.906   5.662   2.794
 6619SOL    HW220757   4.979   5.543   2.878
 6620SOL     OW20758   2.518   2.732   5.476
 6620SOL    HW120759   2.569   2.650   5.449
 6620SOL    HW220760   2.443   2.705   5.537
 6621SOL     OW20761   2.454   3.791   0.070
 6621SOL    HW120762   2.549   3.805   0.098
 6621SOL    HW220763   2.448   3.707   0.016
 6622SOL     OW20764   0.089   6.909   0.341
 6622SOL    HW120765   0.028   6.844   0.296
 6622SOL    HW220766   0.178   6.908   0.296
 6623SOL     OW20767   3.707   3.589   2.039
 6623SOL    HW120768   3.754   3.675   2.017
 6623SOL    HW220769   3.608   3.604   2.034
 6624SOL     OW20770   4.157   4.819   4.012
 6624SOL    HW120771   4.083   4.882   3.988
 6624SOL    HW220772   4.233   4.829   3.948
 6625SOL     OW20773   6.616   0.646   0.367
 6625SOL    HW120774   6.638   0.742   0.350
 6625SOL    HW220775   6.701   0.596   0.389
 6626SOL     OW20776   3.284   4.900   3.267
 6626SOL    HW120777   3.364   4.909   3.326
 6626SOL    HW220778   3.310   4.859   3.180
 6627SOL     OW20779   2.013   6.124   1.273
 6627SOL    HW120780   2.074   6.173   1.210
 6627SOL    HW220781   1.931   6.179   1.287
 6628SOL     OW20782   3.989   5.751   2.889
 6628SOL    HW120783   4.042   5.805   2.823
 6628SOL    HW220784   4.027   5.659   2.895
 6629SOL     OW20785   3.473   4.433   0.274
 6629SOL    HW120786   3.549   4.370   0.259
 6629SOL    HW220787   3.386   4.385   0.265
 6630SOL     OW20788   3.104   2.298   6.376
 6630SOL    HW120789   3.022   2.354   6.362
 6630SOL    HW220790   3.172   2.352   6.426
 6631SOL     OW20791   4.742   0.692   2.385
 6631SOL    HW120792   4.771   0.632   2.460
 6631SOL    HW220793   4.755   0.788   2.413
 6632SOL     OW20794   6.770   1.786   2.021
 6632SOL    HW120795   6.699   1.804   1.953
 6632SOL    HW220796   6.844   1.734   1.979
 6633SOL     OW20797   0.632   0.179   1.133
 6633SOL    HW120798   0.651   0.084   1.159
 6633SOL    HW220799   0.563   0.180   1.060
 6634SOL     OW20800   6.577   3.131   5.723
 6634SOL    HW120801   6.622   3.211   5.685
 6634SOL    HW220802   6.582   3.134   5.823
 6635SOL     OW20803   4.708   4.158   3.362
 6635SOL    HW120804   4.717   4.257   3.373
 6635SOL    HW220805   4.659   4.139   3.276
 6636SOL     OW20806   2.279   2.330   4.150
 6636SOL    HW120807   2.206   2.263   4.159
 6636SOL    HW220808   2.282   2.388   4.231
 6637SOL     OW20809   6.401   0.934   0.784
 6637SOL    HW120810   6.349   0.962   0.864
 6637SOL    HW220811   6.478   0.877   0.814
 6638SOL     OW20812   2.698   5.556   5.689
 6638SOL    HW120813   2.625   5.551   5.621
 6638SOL    HW220814   2.768   5.619   5.658
 6639SOL     OW20815   5.777   5.490   6.898
 6639SOL    HW120816   5.803   5.549   6.822
 6639SOL    HW220817   5.678   5.478   6.898
 6640SOL     OW20818   5.526   3.261   3.276
 6640SOL    HW120819   5.509   3.334   3.210
 6640SOL    HW220820   5.439   3.234   3.318
 6641SOL     OW20821   1.851   4.221   6.124
 6641SOL    HW120822   1.765   4.211   6.074
 6641SOL    HW220823   1.895   4.307   6.100
 6642SOL     OW20824   0.580   6.153   0.246
 6642SOL    HW120825   0.636   6.234   0.230
 6642SOL    HW220826   0.607   6.081   0.182
 6643SOL     OW20827   4.702   4.814   0.260
 6643SOL    HW120828   4.639   4.741   0.233
 6643SOL    HW220829   4.694   4.890   0.195
 6644SOL     OW20830   3.029   4.837   2.373
 6644SOL    HW120831   3.000   4.801   2.285
 6644SOL    HW220832   2.950   4.876   2.421
 6645SOL     OW20833   0.702   5.311   5.670
 6645SOL    HW120834   0.792   5.273   5.648
 6645SOL    HW220835   0.643   5.239   5.707
 6646SOL     OW20836   2.548   5.917   3.881
 6646SOL    HW120837   2.629   5.959   3.921
 6646SOL    HW220838   2.556   5.915   3.782
 6647SOL     OW20839   3.380   1.909   2.203
 6647SOL    HW120840   3.317   1.979   2.237
 6647SOL    HW220841   3.327   1.835   2.160
 6648SOL     OW20842   4.903   5.372   2.108
 6648SOL    HW120843   4.875   5.278   2.088
 6648SOL    HW220844   4.984   5.371   2.166
 6649SOL     OW20845   3.966   2.885   6.437
 6649SOL    HW120846   3.952   2.983   6.450
 6649SOL    HW220847   4.004   2.846   6.521
 6650SOL     OW20848   3.481   2.046   2.960
 6650SOL    HW120849   3.464   1.989   3.040
 6650SOL    HW220850   3.470   1.992   2.877
 6651SOL     OW20851   1.020   2.532   6.269
 6651SOL    HW120852   1.079   2.610   6.291
 6651SOL    HW220853   0.933   2.565   6.234
 6652SOL     OW20854   6.784   5.638   3.214
 6652SOL    HW120855   6.866   5.607   3.262
 6652SOL    HW220856   6.763   5.576   3.139
 6653SOL     OW20857   3.454   3.423   3.860
 6653SOL    HW120858   3.534   3.418   3.920
 6653SOL    HW220859   3.419   3.517   3.859
 6654SOL     OW20860   2.191   3.207   1.834
 6654SOL    HW120861   2.213   3.296   1.874
 6654SOL    HW220862   2.094   3.188   1.847
 6655SOL     OW20863   2.544   6.470   1.491
 6655SOL    HW120864   2.521   6.472   1.393
 6655SOL    HW220865   2.460   6.478   1.545
 6656SOL     OW20866   6.223   2.685   1.204
 6656SOL    HW120867   6.153   2.700   1.134
 6656SOL    HW220868   6.303   2.741   1.184
 6657SOL     OW20869   3.170   6.403   6.263
 6657SOL    HW120870   3.224   6.370   6.186
 6657SOL    HW220871   3.125   6.489   6.239
 6658SOL     OW20872   5.044   0.906   5.710
 6658SOL    HW120873   5.024   0.960   5.792
 6658SOL    HW220874   4.987   0.938   5.634
 6659SOL     OW20875   1.573   3.006   6.719
 6659SOL    HW120876   1.564   3.032   6.815
 6659SOL    HW220877   1.490   2.959   6.689
 6660SOL     OW20878   6.848   6.677   3.260
 6660SOL    HW120879   6.920   6.709   3.198
 6660SOL    HW220880   6.791   6.755   3.287
 6661SOL     OW20881   0.559   6.198   3.570
 6661SOL    HW120882   0.487   6.154   3.622
 6661SOL    HW220883   0.606   6.131   3.513
 6662SOL     OW20884   1.522   2.728   0.215
 6662SOL    HW120885   1.583   2.688   0.283
 6662SOL    HW220886   1.576   2.757   0.135
 6663SOL     OW20887   0.499   5.664   2.580
 6663SOL    HW120888   0.516   5.763   2.578
 6663SOL    HW220889   0.492   5.633   2.675
 6664SOL     OW20890   1.270   1.473   3.177
 6664SOL    HW120891   1.320   1.546   3.130
 6664SOL    HW220892   1.229   1.510   3.260
 6665SOL     OW20893   2.552   6.840   2.874
 6665SOL    HW120894   2.585   6.788   2.795
 6665SOL    HW220895   2.511   6.778   2.940
 6666SOL     OW20896   6.554   0.617   0.044
 6666SOL    HW120897   6.615   0.642   0.118
 6666SOL    HW220898   6.460   0.644   0.067
 6667SOL     OW20899   6.849   4.640   4.770
 6667SOL    HW120900   6.798   4.634   4.855
 6667SOL    HW220901   6.837   4.731   4.730
 6668SOL     OW20902   1.151   4.746   1.548
 6668SOL    HW120903   1.208   4.828   1.553
 6668SOL    HW220904   1.066   4.768   1.501
 6669SOL     OW20905   2.375   6.066   2.912
 6669SOL    HW120906   2.334   6.052   2.822
 6669SOL    HW220907   2.324   6.014   2.980
 6670SOL     OW20908   3.955   4.659   0.204
 6670SOL    HW120909   3.881   4.684   0.266
 6670SOL    HW220910   3.944   4.564   0.176
 6671SOL     OW20911   6.681   2.988   4.660
 6671SOL    HW120912   6.704   2.893   4.637
 6671SOL    HW220913   6.694   3.003   4.757
 6672SOL     OW20914   1.715   1.180   5.346
 6672SOL    HW120915   1.782   1.233   5.398
 6672SOL    HW220916   1.657   1.128   5.409
 6673SOL     OW20917   4.556   4.883   1.392
 6673SOL    HW120918   4.598   4.799   1.360
 6673SOL    HW220919   4.557   4.951   1.319
 6674SOL     OW20920   0.937   6.786   4.185
 6674SOL    HW120921   0.993   6.710   4.217
 6674SOL    HW220922   0.873   6.754   4.116
 6675SOL     OW20923   5.928   5.089   0.170
 6675SOL    HW120924   5.983   5.147   0.230
 6675SOL    HW220925   5.912   5.137   0.084
 6676SOL     OW20926   1.044   2.500   5.897
 6676SOL    HW120927   0.999   2.571   5.843
 6676SOL    HW220928   1.134   2.531   5.926
 6677SOL     OW20929   0.419   3.513   0.196
 6677SOL    HW120930   0.361   3.451   0.249
 6677SOL    HW220931   0.503   3.466   0.170
 6678SOL     OW20932   1.163   3.117   5.486
 6678SOL    HW120933   1.175   3.211   5.453
 6678SOL    HW220934   1.101   3.117   5.564
 6679SOL     OW20935   1.457   2.000   4.599
 6679SOL    HW120936   1.427   1.922   4.544
 6679SOL    HW220937   1.442   1.980   4.696
 6680SOL     OW20938   3.018   6.665   6.214
 6680SOL    HW120939   2.925   6.656   6.180
 6680SOL    HW220940   3.016   6.686   6.312
 6681SOL     OW20941   5.287   4.945   0.294
 6681SOL    HW120942   5.360   4.982   0.352
 6681SOL    HW220943   5.203   4.938   0.347
 6682SOL     OW20944   0.331   6.545   1.794
 6682SOL    HW120945   0.426   6.569   1.813
 6682SOL    HW220946   0.278   6.628   1.778
 6683SOL     OW20947   5.114   1.889   3.898
 6683SOL    HW120948   5.114   1.799   3.942
 6683SOL    HW220949   5.205   1.930   3.906
 6684SOL     OW20950   1.954   0.131   2.941
 6684SOL    HW120951   2.029   0.064   2.933
 6684SOL    HW220952   1.959   0.194   2.864
 6685SOL     OW20953   4.981   3.693   6.272
 6685SOL    HW120954   5.043   3.619   6.244
 6685SOL    HW220955   4.904   3.655   6.324
 6686SOL     OW20956   6.437   3.682   3.497
 6686SOL    HW120957   6.351   3.714   3.457
 6686SOL    HW220958   6.418   3.632   3.581
 6687SOL     OW20959   1.224   2.040   0.362
 6687SOL    HW120960   1.318   2.005   0.362
 6687SOL    HW220961   1.192   2.048   0.457
 6688SOL     OW20962   0.566   5.040   2.633
 6688SOL    HW120963   0.555   5.136   2.603
 6688SOL    HW220964   0.647   5.032   2.690
 6689SOL     OW20965   4.445   4.754   6.865
 6689SOL    HW120966   4.356   4.766   6.821
 6689SOL    HW220967   4.437   4.779   6.962
 6690SOL     OW20968   2.070   2.358   1.174
 6690SOL    HW120969   2.039   2.265   1.195
 6690SOL    HW220970   2.137   2.386   1.243
 6691SOL     OW20971   2.234   4.390   1.595
 6691SOL    HW120972   2.185   4.303   1.590
 6691SOL    HW220973   2.262   4.406   1.690
 6692SOL     OW20974   3.264   3.889   5.913
 6692SOL    HW120975   3.185   3.947   5.935
 6692SOL    HW220976   3.268   3.813   5.979
 6693SOL     OW20977   4.035   3.560   5.291
 6693SOL    HW120978   4.055   3.508   5.374
 6693SOL    HW220979   4.117   3.565   5.234
 6694SOL     OW20980   3.212   6.168   0.952
 6694SOL    HW120981   3.117   6.181   0.982
 6694SOL    HW220982   3.213   6.138   0.857
 6695SOL     OW20983   1.588   2.233   0.266
 6695SOL    HW120984   1.510   2.256   0.207
 6695SOL    HW220985   1.668   2.214   0.209
 6696SOL     OW20986   2.346   3.019   1.732
 6696SOL    HW120987   2.420   3.067   1.685
 6696SOL    HW220988   2.295   3.083   1.789
 6697SOL     OW20989   5.013   1.382   3.045
 6697SOL    HW120990   4.959   1.321   2.987
 6697SOL    HW220991   5.004   1.353   3.140
 6698SOL     OW20992   3.875   3.491   0.315
 6698SOL    HW120993   3.966   3.450   0.316
 6698SOL    HW220994   3.863   3.546   0.398
 6699SOL     OW20995   1.316   3.786   6.936
 6699SOL    HW120996   1.370   3.848   6.880
 6699SOL    HW220997   1.265   3.723   6.877
 6700SOL     OW20998   6.822   6.173   0.305
 6700SOL    HW120999   6.753   6.212   0.244
 6700SOL    HW221000   6.890   6.243   0.328
 6701SOL     OW21001   0.667   1.943   0.788
 6701SOL    HW121002   0.591   1.988   0.833
 6701SOL    HW221003   0.637   1.857   0.748
 6702SOL     OW21004   2.937   2.038   1.373
 6702SOL    HW121005   2.935   2.138   1.380
 6702SOL    HW221006   3.003   2.010   1.304
 6703SOL     OW21007   0.373   2.095   6.758
 6703SOL    HW121008   0.427   2.032   6.813
 6703SOL    HW221009   0.414   2.186   6.761
 6704SOL     OW21010   5.081   1.849   2.334
 6704SOL    HW121011   5.087   1.847   2.434
 6704SOL    HW221012   5.158   1.900   2.297
 6705SOL     OW21013   5.500   1.379   0.315
 6705SOL    HW121014   5.510   1.378   0.415
 6705SOL    HW221015   5.530   1.468   0.280
 6706SOL     OW21016   0.572   4.654   6.219
 6706SOL    HW121017   0.583   4.556   6.208
 6706SOL    HW221018   0.483   4.673   6.261
 6707SOL     OW21019   1.314   6.484   2.495
 6707SOL    HW121020   1.241   6.417   2.484
 6707SOL    HW221021   1.283   6.574   2.462
 6708SOL     OW21022   2.216   5.774   1.149
 6708SOL    HW121023   2.225   5.679   1.179
 6708SOL    HW221024   2.282   5.831   1.199
 6709SOL     OW21025   4.244   1.504   2.936
 6709SOL    HW121026   4.207   1.582   2.885
 6709SOL    HW221027   4.267   1.431   2.872
 6710SOL     OW21028   3.098   2.515   1.035
 6710SOL    HW121029   3.140   2.588   0.980
 6710SOL    HW221030   3.083   2.435   0.977
 6711SOL     OW21031   3.798   4.163   1.062
 6711SOL    HW121032   3.803   4.116   1.150
 6711SOL    HW221033   3.714   4.138   1.016
 6712SOL     OW21034   3.523   5.513   0.392
 6712SOL    HW121035   3.454   5.465   0.338
 6712SOL    HW221036   3.600   5.539   0.334
 6713SOL     OW21037   2.013   1.983   2.429
 6713SOL    HW121038   2.042   2.064   2.481
 6713SOL    HW221039   2.090   1.920   2.421
 6714SOL     OW21040   6.388   0.494   4.216
 6714SOL    HW121041   6.336   0.567   4.261
 6714SOL    HW221042   6.329   0.413   4.206
 6715SOL     OW21043   0.454   1.634   1.138
 6715SOL    HW121044   0.520   1.599   1.072
 6715SOL    HW221045   0.500   1.649   1.226
 6716SOL     OW21046   2.463   5.868   0.397
 6716SOL    HW121047   2.406   5.819   0.331
 6716SOL    HW221048   2.422   5.860   0.488
 6717SOL     OW21049   3.375   1.718   6.693
 6717SOL    HW121050   3.399   1.624   6.667
 6717SOL    HW221051   3.436   1.749   6.766
 6718SOL     OW21052   3.401   0.058   0.106
 6718SOL    HW121053   3.306   0.029   0.121
 6718SOL    HW221054   3.438   0.011   0.026
 6719SOL     OW21055   0.462   0.534   5.527
 6719SOL    HW121056   0.446   0.451   5.473
 6719SOL    HW221057   0.463   0.510   5.625
 6720SOL     OW21058   2.169   4.829   2.208
 6720SOL    HW121059   2.191   4.767   2.133
 6720SOL    HW221060   2.083   4.800   2.250
 6721SOL     OW21061   6.081   6.359   3.723
 6721SOL    HW121062   5.987   6.348   3.755
 6721SOL    HW221063   6.136   6.282   3.753
 6722SOL     OW21064   4.577   3.561   6.961
 6722SOL    HW121065   4.497   3.618   6.978
 6722SOL    HW221066   4.566   3.473   7.008
 6723SOL     OW21067   4.102   6.435   2.047
 6723SOL    HW121068   4.085   6.433   1.949
 6723SOL    HW221069   4.043   6.504   2.090
 6724SOL     OW21070   3.094   5.055   5.437
 6724SOL    HW121071   3.077   4.992   5.362
 6724SOL    HW221072   3.019   5.050   5.503
 6725SOL     OW21073   0.418   4.867   2.480
 6725SOL    HW121074   0.448   4.953   2.520
 6725SOL    HW221075   0.374   4.884   2.392
 6726SOL     OW21076   2.400   1.982   2.547
 6726SOL    HW121077   2.445   1.980   2.458
 6726SOL    HW221078   2.442   2.053   2.604
 6727SOL     OW21079   3.874   3.731   0.095
 6727SOL    HW121080   3.776   3.750   0.106
 6727SOL    HW221081   3.926   3.786   0.161
 6728SOL     OW21082   4.510   0.942   4.140
 6728SOL    HW121083   4.531   0.982   4.051
 6728SOL    HW221084   4.591   0.894   4.175
 6729SOL     OW21085   5.877   0.142   2.293
 6729SOL    HW121086   5.838   0.235   2.292
 6729SOL    HW221087   5.803   0.075   2.297
 6730SOL     OW21088   1.746   0.524   0.468
 6730SOL    HW121089   1.746   0.461   0.390
 6730SOL    HW221090   1.820   0.590   0.458
 6731SOL     OW21091   2.745   4.865   1.907
 6731SOL    HW121092   2.765   4.769   1.926
 6731SOL    HW221093   2.706   4.874   1.816
 6732SOL     OW21094   2.384   4.429   1.367
 6732SOL    HW121095   2.348   4.405   1.457
 6732SOL    HW221096   2.353   4.521   1.342
 6733SOL     OW21097   5.654   5.865   6.008
 6733SOL    HW121098   5.555   5.882   6.008
 6733SOL    HW221099   5.694   5.907   5.927
 6734SOL     OW21100   2.133   3.345   5.723
 6734SOL    HW121101   2.160   3.296   5.640
 6734SOL    HW221102   2.210   3.346   5.787
 6735SOL     OW21103   0.155   5.129   5.868
 6735SOL    HW121104   0.155   5.030   5.875
 6735SOL    HW221105   0.157   5.169   5.960
 6736SOL     OW21106   2.093   3.770   2.742
 6736SOL    HW121107   2.122   3.689   2.691
 6736SOL    HW221108   2.006   3.751   2.788
 6737SOL     OW21109   2.309   1.277   0.805
 6737SOL    HW121110   2.269   1.219   0.734
 6737SOL    HW221111   2.394   1.235   0.837
 6738SOL     OW21112   3.591   1.218   2.122
 6738SOL    HW121113   3.528   1.151   2.082
 6738SOL    HW221114   3.619   1.284   2.052
 6739SOL     OW21115   3.960   6.499   4.756
 6739SOL    HW121116   4.032   6.521   4.821
 6739SOL    HW221117   3.972   6.552   4.672
 6740SOL     OW21118   6.481   2.593   4.089
 6740SOL    HW121119   6.555   2.573   4.025
 6740SOL    HW221120   6.434   2.676   4.061
 6741SOL     OW21121   6.887   0.062   6.483
 6741SOL    HW121122   6.978   0.046   6.521
 6741SOL    HW221123   6.895   0.094   6.389
 6742SOL     OW21124   6.526   6.054   5.894
 6742SOL    HW121125   6.464   6.107   5.951
 6742SOL    HW221126   6.481   6.033   5.807
 6743SOL     OW21127   4.927   3.285   1.158
 6743SOL    HW121128   4.994   3.357   1.140
 6743SOL    HW221129   4.836   3.316   1.133
 6744SOL     OW21130   4.839   5.088   5.736
 6744SOL    HW121131   4.800   5.068   5.826
 6744SOL    HW221132   4.767   5.114   5.673
 6745SOL     OW21133   6.985   4.158   3.626
 6745SOL    HW121134   6.930   4.094   3.680
 6745SOL    HW221135   6.980   4.249   3.668
 6746SOL     OW21136   0.138   1.625   1.137
 6746SOL    HW121137   0.188   1.707   1.166
 6746SOL    HW221138   0.074   1.648   1.064
 6747SOL     OW21139   5.735   6.102   5.873
 6747SOL    HW121140   5.648   6.125   5.916
 6747SOL    HW221141   5.800   6.177   5.888
 6748SOL     OW21142   0.335   0.085   1.968
 6748SOL    HW121143   0.423   0.105   2.012
 6748SOL    HW221144   0.266   0.069   2.039
 6749SOL     OW21145   3.466   6.242   1.489
 6749SOL    HW121146   3.538   6.243   1.420
 6749SOL    HW221147   3.434   6.148   1.501
 6750SOL     OW21148   2.588   3.239   5.382
 6750SOL    HW121149   2.556   3.233   5.477
 6750SOL    HW221150   2.537   3.173   5.327
 6751SOL     OW21151   3.371   1.961   5.387
 6751SOL    HW121152   3.411   2.040   5.432
 6751SOL    HW221153   3.318   1.991   5.307
 6752SOL     OW21154   6.286   2.268   7.022
 6752SOL    HW121155   6.198   2.314   0.006
 6752SOL    HW221156   6.299   2.209   0.079
 6753SOL     OW21157   5.183   2.131   6.187
 6753SOL    HW121158   5.190   2.035   6.216
 6753SOL    HW221159   5.115   2.178   6.243
 6754SOL     OW21160   5.721   0.686   0.211
 6754SOL    HW121161   5.723   0.592   0.246
 6754SOL    HW221162   5.626   0.715   0.200
 6755SOL     OW21163   4.852   1.767   3.181
 6755SOL    HW121164   4.817   1.854   3.215
 6755SOL    HW221165   4.941   1.748   3.222
 6756SOL     OW21166   5.082   4.078   3.992
 6756SOL    HW121167   4.983   4.065   3.989
 6756SOL    HW221168   5.111   4.094   4.086
 6757SOL     OW21169   5.376   5.324   2.109
 6757SOL    HW121170   5.387   5.243   2.167
 6757SOL    HW221171   5.301   5.380   2.144
 6758SOL     OW21172   5.219   2.118   2.982
 6758SOL    HW121173   5.142   2.066   3.020
 6758SOL    HW221174   5.305   2.073   3.007
 6759SOL     OW21175   0.264   4.758   3.845
 6759SOL    HW121176   0.320   4.676   3.837
 6759SOL    HW221177   0.238   4.791   3.754
 6760SOL     OW21178   0.097   4.569   4.801
 6760SOL    HW121179   0.009   4.599   4.764
 6760SOL    HW221180   0.121   4.625   4.880
 6761SOL     OW21181   5.896   3.334   6.605
 6761SOL    HW121182   5.936   3.328   6.696
 6761SOL    HW221183   5.915   3.424   6.566
 6762SOL     OW21184   5.887   4.982   3.991
 6762SOL    HW121185   5.834   4.948   4.069
 6762SOL    HW221186   5.871   4.924   3.912
 6763SOL     OW21187   5.517   6.174   6.027
 6763SOL    HW121188   5.485   6.138   6.114
 6763SOL    HW221189   5.442   6.222   5.981
 6764SOL     OW21190   2.093   3.809   6.798
 6764SOL    HW121191   2.132   3.868   6.869
 6764SOL    HW221192   2.090   3.715   6.831
 6765SOL     OW21193   4.818   4.968   2.660
 6765SOL    HW121194   4.909   4.936   2.686
 6765SOL    HW221195   4.751   4.895   2.676
 6766SOL     OW21196   1.350   1.236   5.280
 6766SOL    HW121197   1.371   1.214   5.375
 6766SOL    HW221198   1.256   1.208   5.260
 6767SOL     OW21199   1.256   2.302   6.018
 6767SOL    HW121200   1.174   2.246   6.004
 6767SOL    HW221201   1.230   2.396   6.036
 6768SOL     OW21202   0.051   0.513   5.634
 6768SOL    HW121203   0.057   0.592   5.695
 6768SOL    HW221204   0.133   0.457   5.643
 6769SOL     OW21205   1.711   2.850   6.511
 6769SOL    HW121206   1.671   2.880   6.424
 6769SOL    HW221207   1.658   2.889   6.586
 6770SOL     OW21208   6.976   1.401   3.690
 6770SOL    HW121209   6.986   1.438   3.782
 6770SOL    HW221210   0.041   1.409   3.642
 6771SOL     OW21211   3.929   1.439   2.112
 6771SOL    HW121212   3.936   1.520   2.055
 6771SOL    HW221213   3.833   1.419   2.132
 6772SOL     OW21214   0.408   1.276   1.730
 6772SOL    HW121215   0.387   1.220   1.810
 6772SOL    HW221216   0.486   1.237   1.682
 6773SOL     OW21217   1.043   0.928   1.460
 6773SOL    HW121218   0.999   0.910   1.548
 6773SOL    HW221219   1.086   1.018   1.461
 6774SOL     OW21220   2.958   1.308   5.443
 6774SOL    HW121221   3.056   1.292   5.429
 6774SOL    HW221222   2.910   1.302   5.356
 6775SOL     OW21223   0.643   2.640   5.009
 6775SOL    HW121224   0.728   2.692   5.018
 6775SOL    HW221225   0.662   2.542   5.018
 6776SOL     OW21226   3.352   3.829   3.678
 6776SOL    HW121227   3.278   3.855   3.617
 6776SOL    HW221228   3.437   3.873   3.648
 6777SOL     OW21229   6.984   6.385   6.898
 6777SOL    HW121230   6.939   6.461   6.852
 6777SOL    HW221231   0.036   6.419   6.955
 6778SOL     OW21232   5.791   5.972   2.205
 6778SOL    HW121233   5.766   5.887   2.249
 6778SOL    HW221234   5.772   6.049   2.266
 6779SOL     OW21235   4.892   4.289   6.282
 6779SOL    HW121236   4.941   4.216   6.331
 6779SOL    HW221237   4.828   4.247   6.217
 6780SOL     OW21238   3.682   0.939   2.393
 6780SOL    HW121239   3.707   0.917   2.487
 6780SOL    HW221240   3.611   1.009   2.391
 6781SOL     OW21241   5.985   2.641   2.927
 6781SOL    HW121242   6.006   2.584   2.848
 6781SOL    HW221243   5.902   2.609   2.971
 6782SOL     OW21244   0.074   1.834   3.293
 6782SOL    HW121245   0.067   1.918   3.240
 6782SOL    HW221246   0.047   1.756   3.236
 6783SOL     OW21247   0.208   6.218   6.145
 6783SOL    HW121248   0.136   6.288   6.139
 6783SOL    HW221249   0.240   6.196   6.053
 6784SOL     OW21250   1.645   4.257   1.113
 6784SOL    HW121251   1.589   4.321   1.165
 6784SOL    HW221252   1.593   4.222   1.035
 6785SOL     OW21253   5.123   5.061   3.890
 6785SOL    HW121254   5.115   5.057   3.989
 6785SOL    HW221255   5.161   4.976   3.855
 6786SOL     OW21256   6.385   2.038   5.673
 6786SOL    HW121257   6.373   2.050   5.772
 6786SOL    HW221258   6.388   1.941   5.651
 6787SOL     OW21259   3.044   1.869   0.546
 6787SOL    HW121260   3.023   1.922   0.627
 6787SOL    HW221261   3.005   1.777   0.555
 6788SOL     OW21262   0.626   4.588   1.190
 6788SOL    HW121263   0.535   4.580   1.233
 6788SOL    HW221264   0.656   4.497   1.160
 6789SOL     OW21265   5.937   5.079   2.429
 6789SOL    HW121266   5.935   4.979   2.440
 6789SOL    HW221267   5.855   5.109   2.381
 6790SOL     OW21268   0.556   5.648   0.354
 6790SOL    HW121269   0.507   5.659   0.268
 6790SOL    HW221270   0.598   5.736   0.380
 6791SOL     OW21271   2.510   6.632   3.551
 6791SOL    HW121272   2.596   6.581   3.542
 6791SOL    HW221273   2.435   6.576   3.515
 6792SOL     OW21274   3.658   0.008   6.214
 6792SOL    HW121275   3.702   0.024   6.126
 6792SOL    HW221276   3.706   0.059   6.285
 6793SOL     OW21277   2.032   3.408   6.248
 6793SOL    HW121278   2.006   3.494   6.292
 6793SOL    HW221279   1.961   3.382   6.182
 6794SOL     OW21280   5.593   2.503   5.239
 6794SOL    HW121281   5.545   2.576   5.191
 6794SOL    HW221282   5.529   2.428   5.257
 6795SOL     OW21283   1.625   0.947   1.529
 6795SOL    HW121284   1.560   0.912   1.596
 6795SOL    HW221285   1.691   1.006   1.574
 6796SOL     OW21286   6.882   1.962   3.018
 6796SOL    HW121287   6.810   1.924   3.076
 6796SOL    HW221288   6.868   1.933   2.924
 6797SOL     OW21289   1.263   3.084   1.232
 6797SOL    HW121290   1.236   2.996   1.271
 6797SOL    HW221291   1.205   3.105   1.153
 6798SOL     OW21292   4.963   1.184   2.212
 6798SOL    HW121293   4.978   1.280   2.185
 6798SOL    HW221294   4.915   1.137   2.138
 6799SOL     OW21295   6.407   0.089   2.854
 6799SOL    HW121296   6.336   0.117   2.789
 6799SOL    HW221297   6.467   0.021   2.812
 6800SOL     OW21298   6.624   2.666   1.511
 6800SOL    HW121299   6.682   2.626   1.582
 6800SOL    HW221300   6.530   2.671   1.543
 6801SOL     OW21301   1.182   5.914   6.405
 6801SOL    HW121302   1.166   5.942   6.500
 6801SOL    HW221303   1.119   5.840   6.381
 6802SOL     OW21304   2.938   4.711   1.670
 6802SOL    HW121305   2.966   4.791   1.723
 6802SOL    HW221306   2.916   4.637   1.733
 6803SOL     OW21307   5.330   5.459   6.454
 6803SOL    HW121308   5.370   5.450   6.362
 6803SOL    HW221309   5.348   5.377   6.507
 6804SOL     OW21310   3.668   5.155   2.078
 6804SOL    HW121311   3.619   5.193   2.157
 6804SOL    HW221312   3.741   5.218   2.051
 6805SOL     OW21313   0.864   4.050   4.329
 6805SOL    HW121314   0.908   4.134   4.362
 6805SOL    HW221315   0.766   4.054   4.351
 6806SOL     OW21316   6.270   3.211   1.957
 6806SOL    HW121317   6.214   3.154   1.897
 6806SOL    HW221318   6.242   3.307   1.949
 6807SOL     OW21319   3.655   4.055   2.656
 6807SOL    HW121320   3.559   4.082   2.667
 6807SOL    HW221321   3.661   3.978   2.592
 6808SOL     OW21322   3.451   0.671   3.353
 6808SOL    HW121323   3.452   0.620   3.268
 6808SOL    HW221324   3.492   0.761   3.339
 6809SOL     OW21325   5.707   3.067   0.402
 6809SOL    HW121326   5.684   3.164   0.415
 6809SOL    HW221327   5.725   3.025   0.491
 6810SOL     OW21328   3.003   0.600   4.362
 6810SOL    HW121329   2.990   0.654   4.279
 6810SOL    HW221330   2.940   0.522   4.361
 6811SOL     OW21331   6.504   1.506   1.053
 6811SOL    HW121332   6.592   1.530   1.011
 6811SOL    HW221333   6.473   1.581   1.110
 6812SOL     OW21334   3.109   4.835   5.240
 6812SOL    HW121335   3.090   4.865   5.146
 6812SOL    HW221336   3.107   4.735   5.244
 6813SOL     OW21337   0.369   4.146   2.204
 6813SOL    HW121338   0.341   4.052   2.183
 6813SOL    HW221339   0.398   4.192   2.120
 6814SOL     OW21340   5.756   1.258   0.771
 6814SOL    HW121341   5.687   1.186   0.764
 6814SOL    HW221342   5.792   1.261   0.864
 6815SOL     OW21343   0.654   5.783   6.561
 6815SOL    HW121344   0.559   5.761   6.584
 6815SOL    HW221345   0.707   5.698   6.553
 6816SOL     OW21346   6.879   6.863   4.134
 6816SOL    HW121347   6.925   6.777   4.159
 6816SOL    HW221348   6.933   6.940   4.168
 6817SOL     OW21349   4.508   2.151   1.300
 6817SOL    HW121350   4.524   2.095   1.382
 6817SOL    HW221351   4.415   2.135   1.266
 6818SOL     OW21352   0.787   0.047   5.174
 6818SOL    HW121353   0.760   6.980   5.139
 6818SOL    HW221354   0.710   0.090   5.221
 6819SOL     OW21355   5.094   4.520   1.713
 6819SOL    HW121356   5.146   4.437   1.691
 6819SOL    HW221357   4.998   4.505   1.690
 6820SOL     OW21358   2.689   5.134   1.685
 6820SOL    HW121359   2.741   5.157   1.767
 6820SOL    HW221360   2.692   5.035   1.670
 6821SOL     OW21361   3.434   2.788   5.569
 6821SOL    HW121362   3.421   2.707   5.627
 6821SOL    HW221363   3.350   2.808   5.519
 6822SOL     OW21364   5.867   3.816   5.343
 6822SOL    HW121365   5.867   3.833   5.442
 6822SOL    HW221366   5.778   3.840   5.304
 6823SOL     OW21367   0.800   2.686   5.327
 6823SOL    HW121368   0.803   2.681   5.427
 6823SOL    HW221369   0.876   2.743   5.295
 6824SOL     OW21370   1.090   0.201   5.447
 6824SOL    HW121371   1.064   0.140   5.373
 6824SOL    HW221372   1.178   0.172   5.485
 6825SOL     OW21373   4.171   4.353   1.399
 6825SOL    HW121374   4.184   4.412   1.320
 6825SOL    HW221375   4.108   4.397   1.463
 6826SOL     OW21376   6.132   0.205   3.731
 6826SOL    HW121377   6.192   0.284   3.720
 6826SOL    HW221378   6.151   0.161   3.819
 6827SOL     OW21379   4.708   5.960   4.958
 6827SOL    HW121380   4.774   5.995   5.024
 6827SOL    HW221381   4.639   6.031   4.940
 6828SOL     OW21382   3.645   1.963   1.947
 6828SOL    HW121383   3.622   1.983   1.851
 6828SOL    HW221384   3.677   2.047   1.991
 6829SOL     OW21385   3.930   6.801   3.318
 6829SOL    HW121386   3.850   6.747   3.293
 6829SOL    HW221387   3.965   6.770   3.406
 6830SOL     OW21388   4.303   4.728   2.211
 6830SOL    HW121389   4.233   4.741   2.141
 6830SOL    HW221390   4.373   4.666   2.177
 6831SOL     OW21391   1.825   1.503   6.504
 6831SOL    HW121392   1.798   1.550   6.588
 6831SOL    HW221393   1.772   1.419   6.494
 6832SOL     OW21394   2.712   2.275   6.744
 6832SOL    HW121395   2.725   2.182   6.777
 6832SOL    HW221396   2.801   2.320   6.734
 6833SOL     OW21397   3.601   5.263   6.188
 6833SOL    HW121398   3.617   5.264   6.287
 6833SOL    HW221399   3.680   5.222   6.142
 6834SOL     OW21400   6.357   6.729   6.389
 6834SOL    HW121401   6.394   6.641   6.417
 6834SOL    HW221402   6.432   6.794   6.375
 6835SOL     OW21403   3.311   0.803   3.974
 6835SOL    HW121404   3.395   0.816   3.921
 6835SOL    HW221405   3.239   0.766   3.914
 6836SOL     OW21406   0.685   4.369   6.690
 6836SOL    HW121407   0.704   4.303   6.763
 6836SOL    HW221408   0.593   4.354   6.654
 6837SOL     OW21409   5.952   0.864   2.109
 6837SOL    HW121410   6.012   0.785   2.100
 6837SOL    HW221411   5.862   0.842   2.071
 6838SOL     OW21412   2.956   3.825   5.919
 6838SOL    HW121413   2.981   3.903   5.977
 6838SOL    HW221414   3.016   3.822   5.840
 6839SOL     OW21415   6.085   3.261   4.492
 6839SOL    HW121416   6.087   3.212   4.404
 6839SOL    HW221417   6.120   3.353   4.479
 6840SOL     OW21418   2.889   6.438   4.412
 6840SOL    HW121419   2.960   6.385   4.366
 6840SOL    HW221420   2.925   6.527   4.439
 6841SOL     OW21421   4.656   6.618   0.992
 6841SOL    HW121422   4.562   6.588   1.009
 6841SOL    HW221423   4.679   6.604   0.896
 6842SOL     OW21424   0.627   3.948   4.693
 6842SOL    HW121425   0.640   4.045   4.674
 6842SOL    HW221426   0.658   3.928   4.786
 6843SOL     OW21427   4.525   2.802   1.521
 6843SOL    HW121428   4.594   2.767   1.457
 6843SOL    HW221429   4.571   2.845   1.598
 6844SOL     OW21430   3.499   5.391   4.223
 6844SOL    HW121431   3.431   5.387   4.297
 6844SOL    HW221432   3.567   5.318   4.236
 6845SOL     OW21433   3.814   4.385   0.405
 6845SOL    HW121434   3.881   4.438   0.457
 6845SOL    HW221435   3.838   4.387   0.308
 6846SOL     OW21436   3.926   3.032   2.386
 6846SOL    HW121437   3.891   2.973   2.314
 6846SOL    HW221438   3.985   3.102   2.346
 6847SOL     OW21439   6.565   3.584   1.249
 6847SOL    HW121440   6.658   3.606   1.218
 6847SOL    HW221441   6.522   3.523   1.182
 6848SOL     OW21442   6.640   5.827   3.908
 6848SOL    HW121443   6.644   5.770   3.826
 6848SOL    HW221444   6.548   5.866   3.917
 6849SOL     OW21445   3.552   6.366   4.090
 6849SOL    HW121446   3.530   6.398   3.998
 6849SOL    HW221447   3.481   6.304   4.122
 6850SOL     OW21448   5.125   3.366   1.366
 6850SOL    HW121449   5.027   3.368   1.383
 6850SOL    HW221450   5.143   3.380   1.269
 6851SOL     OW21451   1.558   5.398   4.920
 6851SOL    HW121452   1.515   5.308   4.917
 6851SOL    HW221453   1.645   5.391   4.968
 6852SOL     OW21454   0.014   4.797   1.818
 6852SOL    HW121455   0.076   4.777   1.894
 6852SOL    HW221456   7.001   4.712   1.781
 6853SOL     OW21457   6.516   3.728   5.143
 6853SOL    HW121458   6.448   3.655   5.141
 6853SOL    HW221459   6.470   3.815   5.159
 6854SOL     OW21460   0.231   1.830   0.106
 6854SOL    HW121461   0.280   1.915   0.125
 6854SOL    HW221462   0.178   1.803   0.186
 6855SOL     OW21463   2.962   6.347   1.938
 6855SOL    HW121464   2.893   6.360   2.009
 6855SOL    HW221465   2.935   6.396   1.855
 6856SOL     OW21466   0.697   4.754   5.011
 6856SOL    HW121467   0.681   4.822   5.083
 6856SOL    HW221468   0.620   4.690   5.007
 6857SOL     OW21469   3.557   1.490   5.747
 6857SOL    HW121470   3.528   1.584   5.730
 6857SOL    HW221471   3.599   1.483   5.838
 6858SOL     OW21472   3.813   2.413   5.518
 6858SOL    HW121473   3.865   2.493   5.486
 6858SOL    HW221474   3.875   2.336   5.530
 6859SOL     OW21475   3.451   0.552   0.156
 6859SOL    HW121476   3.456   0.475   0.093
 6859SOL    HW221477   3.537   0.561   0.206
 6860SOL     OW21478   4.148   4.921   6.853
 6860SOL    HW121479   4.122   5.001   6.907
 6860SOL    HW221480   4.179   4.950   6.763
 6861SOL     OW21481   5.919   4.210   0.795
 6861SOL    HW121482   5.989   4.264   0.843
 6861SOL    HW221483   5.832   4.218   0.843
 6862SOL     OW21484   3.209   5.323   3.728
 6862SOL    HW121485   3.266   5.247   3.761
 6862SOL    HW221486   3.221   5.332   3.629
 6863SOL     OW21487   0.618   3.096   4.081
 6863SOL    HW121488   0.564   3.012   4.075
 6863SOL    HW221489   0.636   3.130   3.988
 6864SOL     OW21490   4.551   5.640   5.474
 6864SOL    HW121491   4.544   5.543   5.452
 6864SOL    HW221492   4.635   5.657   5.525
 6865SOL     OW21493   6.293   3.150   4.732
 6865SOL    HW121494   6.337   3.097   4.660
 6865SOL    HW221495   6.222   3.207   4.693
 6866SOL     OW21496   0.584   2.986   2.067
 6866SOL    HW121497   0.507   3.048   2.080
 6866SOL    HW221498   0.668   3.039   2.053
 6867SOL     OW21499   2.503   4.825   2.644
 6867SOL    HW121500   2.552   4.886   2.706
 6867SOL    HW221501   2.405   4.827   2.665
 6868SOL     OW21502   1.917   5.133   4.868
 6868SOL    HW121503   2.014   5.118   4.888
 6868SOL    HW221504   1.871   5.165   4.950
 6869SOL     OW21505   6.132   3.475   4.956
 6869SOL    HW121506   6.221   3.431   4.952
 6869SOL    HW221507   6.061   3.405   4.966
 6870SOL     OW21508   5.220   4.003   2.067
 6870SOL    HW121509   5.231   3.924   2.007
 6870SOL    HW221510   5.128   4.002   2.106
 6871SOL     OW21511   4.562   0.127   1.377
 6871SOL    HW121512   4.477   0.174   1.357
 6871SOL    HW221513   4.621   0.186   1.433
 6872SOL     OW21514   2.811   3.311   6.687
 6872SOL    HW121515   2.884   3.352   6.632
 6872SOL    HW221516   2.847   3.284   6.776
 6873SOL     OW21517   5.170   3.876   5.610
 6873SOL    HW121518   5.121   3.963   5.617
 6873SOL    HW221519   5.266   3.890   5.635
 6874SOL     OW21520   1.210   2.461   5.442
 6874SOL    HW121521   1.141   2.415   5.497
 6874SOL    HW221522   1.175   2.550   5.412
 6875SOL     OW21523   3.039   1.950   3.883
 6875SOL    HW121524   3.070   1.892   3.958
 6875SOL    HW221525   2.958   1.910   3.841
 6876SOL     OW21526   3.550   6.492   5.300
 6876SOL    HW121527   3.612   6.427   5.345
 6876SOL    HW221528   3.517   6.453   5.214
 6877SOL     OW21529   2.684   3.923   0.021
 6877SOL    HW121530   2.778   3.890   0.031
 6877SOL    HW221531   2.676   4.016   0.056
 6878SOL     OW21532   1.516   1.705   5.062
 6878SOL    HW121533   1.463   1.782   5.098
 6878SOL    HW221534   1.466   1.620   5.077
 6879SOL     OW21535   1.010   1.126   5.679
 6879SOL    HW121536   0.913   1.115   5.701
 6879SOL    HW221537   1.026   1.098   5.584
 6880SOL     OW21538   1.872   3.885   4.963
 6880SOL    HW121539   1.785   3.843   4.989
 6880SOL    HW221540   1.947   3.823   4.984
 6881SOL     OW21541   6.386   4.768   1.839
 6881SOL    HW121542   6.448   4.751   1.916
 6881SOL    HW221543   6.293   4.741   1.865
 6882SOL     OW21544   2.581   6.774   5.104
 6882SOL    HW121545   2.567   6.784   5.202
 6882SOL    HW221546   2.676   6.796   5.081
 6883SOL     OW21547   2.873   6.235   1.491
 6883SOL    HW121548   2.834   6.226   1.583
 6883SOL    HW221549   2.970   6.213   1.494
 6884SOL     OW21550   2.564   4.678   2.966
 6884SOL    HW121551   2.628   4.710   2.896
 6884SOL    HW221552   2.552   4.750   3.035
 6885SOL     OW21553   3.975   5.483   5.123
 6885SOL    HW121554   3.972   5.383   5.112
 6885SOL    HW221555   3.946   5.527   5.038
 6886SOL     OW21556   5.187   2.201   2.140
 6886SOL    HW121557   5.239   2.239   2.217
 6886SOL    HW221558   5.094   2.237   2.140
 6887SOL     OW21559   4.926   0.877   4.840
 6887SOL    HW121560   4.857   0.871   4.768
 6887SOL    HW221561   4.903   0.813   4.914
 6888SOL     OW21562   5.287   6.000   4.985
 6888SOL    HW121563   5.199   6.032   5.020
 6888SOL    HW221564   5.275   5.964   4.892
 6889SOL     OW21565   1.450   3.936   6.204
 6889SOL    HW121566   1.379   3.868   6.182
 6889SOL    HW221567   1.410   4.009   6.260
 6890SOL     OW21568   2.241   0.665   0.619
 6890SOL    HW121569   2.204   0.617   0.698
 6890SOL    HW221570   2.181   0.742   0.596
 6891SOL     OW21571   3.527   5.009   4.882
 6891SOL    HW121572   3.481   4.992   4.795
 6891SOL    HW221573   3.485   4.953   4.953
 6892SOL     OW21574   3.714   0.935   4.323
 6892SOL    HW121575   3.794   0.878   4.339
 6892SOL    HW221576   3.675   0.915   4.233
 6893SOL     OW21577   6.609   6.928   1.827
 6893SOL    HW121578   6.525   6.982   1.830
 6893SOL    HW221579   6.586   6.833   1.804
 6894SOL     OW21580   6.220   4.727   5.859
 6894SOL    HW121581   6.288   4.694   5.925
 6894SOL    HW221582   6.134   4.678   5.873
 6895SOL     OW21583   4.180   5.091   6.643
 6895SOL    HW121584   4.217   5.183   6.653
 6895SOL    HW221585   4.084   5.096   6.614
 6896SOL     OW21586   4.370   6.894   3.418
 6896SOL    HW121587   4.333   6.803   3.396
 6896SOL    HW221588   4.467   6.897   3.396
 6897SOL     OW21589   3.623   1.986   0.480
 6897SOL    HW121590   3.614   2.086   0.480
 6897SOL    HW221591   3.533   1.944   0.467
 6898SOL     OW21592   3.791   1.473   3.107
 6898SOL    HW121593   3.825   1.424   3.027
 6898SOL    HW221594   3.869   1.512   3.158
 6899SOL     OW21595   5.614   6.426   6.684
 6899SOL    HW121596   5.553   6.393   6.612
 6899SOL    HW221597   5.595   6.377   6.769
 6900SOL     OW21598   4.050   1.239   5.390
 6900SOL    HW121599   4.133   1.186   5.408
 6900SOL    HW221600   4.008   1.207   5.306
 6901SOL     OW21601   1.557   0.717   0.150
 6901SOL    HW121602   1.647   0.755   0.132
 6901SOL    HW221603   1.557   0.619   0.130
 6902SOL     OW21604   6.523   5.665   1.493
 6902SOL    HW121605   6.437   5.717   1.496
 6902SOL    HW221606   6.580   5.690   1.571
 6903SOL     OW21607   4.111   4.741   1.066
 6903SOL    HW121608   4.048   4.673   1.029
 6903SOL    HW221609   4.197   4.697   1.091
 6904SOL     OW21610   0.154   1.482   2.956
 6904SOL    HW121611   0.205   1.445   2.879
 6904SOL    HW221612   0.123   1.406   3.014
 6905SOL     OW21613   4.359   4.978   1.078
 6905SOL    HW121614   4.295   4.965   1.003
 6905SOL    HW221615   4.321   5.044   1.143
 6906SOL     OW21616   4.124   5.825   3.734
 6906SOL    HW121617   4.186   5.830   3.655
 6906SOL    HW221618   4.032   5.803   3.703
 6907SOL     OW21619   3.893   1.470   1.279
 6907SOL    HW121620   3.853   1.383   1.307
 6907SOL    HW221621   3.882   1.482   1.180
 6908SOL     OW21622   6.834   6.668   6.793
 6908SOL    HW121623   6.783   6.726   6.729
 6908SOL    HW221624   6.813   6.695   6.887
 6909SOL     OW21625   4.503   3.078   6.740
 6909SOL    HW121626   4.550   2.991   6.750
 6909SOL    HW221627   4.570   3.150   6.722
 6910SOL     OW21628   6.480   1.346   2.128
 6910SOL    HW121629   6.394   1.398   2.126
 6910SOL    HW221630   6.467   1.263   2.183
 6911SOL     OW21631   4.126   0.781   5.132
 6911SOL    HW121632   4.212   0.755   5.088
 6911SOL    HW221633   4.132   0.764   5.231
 6912SOL     OW21634   4.584   5.283   1.552
 6912SOL    HW121635   4.630   5.195   1.537
 6912SOL    HW221636   4.501   5.287   1.497
 6913SOL     OW21637   4.480   5.866   5.120
 6913SOL    HW121638   4.571   5.828   5.134
 6913SOL    HW221639   4.485   5.944   5.058
 6914SOL     OW21640   5.948   4.835   0.112
 6914SOL    HW121641   5.931   4.934   0.115
 6914SOL    HW221642   5.932   4.795   0.202
 6915SOL     OW21643   1.346   5.706   1.168
 6915SOL    HW121644   1.405   5.730   1.245
 6915SOL    HW221645   1.279   5.637   1.197
 6916SOL     OW21646   6.363   1.435   6.491
 6916SOL    HW121647   6.347   1.526   6.530
 6916SOL    HW221648   6.449   1.434   6.441
 6917SOL     OW21649   4.710   6.994   6.542
 6917SOL    HW121650   4.682   6.898   6.534
 6917SOL    HW221651   4.734   7.014   6.637
 6918SOL     OW21652   2.285   2.715   3.730
 6918SOL    HW121653   2.316   2.775   3.656
 6918SOL    HW221654   2.199   2.672   3.704
 6919SOL     OW21655   1.247   6.363   3.363
 6919SOL    HW121656   1.234   6.423   3.442
 6919SOL    HW221657   1.345   6.351   3.345
 6920SOL     OW21658   4.789   6.685   4.747
 6920SOL    HW121659   4.849   6.606   4.733
 6920SOL    HW221660   4.725   6.693   4.671
 6921SOL     OW21661   0.253   6.470   2.911
 6921SOL    HW121662   0.155   6.471   2.892
 6921SOL    HW221663   0.281   6.560   2.946
 6922SOL     OW21664   1.451   5.940   6.908
 6922SOL    HW121665   1.497   5.955   6.821
 6922SOL    HW221666   1.361   5.900   6.892
 6923SOL     OW21667   4.509   6.837   4.362
 6923SOL    HW121668   4.497   6.936   4.361
 6923SOL    HW221669   4.521   6.804   4.268
 6924SOL     OW21670   6.711   6.009   1.336
 6924SOL    HW121671   6.803   6.041   1.360
 6924SOL    HW221672   6.716   5.914   1.305
 6925SOL     OW21673   6.042   5.595   2.958
 6925SOL    HW121674   6.054   5.654   3.037
 6925SOL    HW221675   5.957   5.620   2.910
 6926SOL     OW21676   2.970   3.939   4.923
 6926SOL    HW121677   2.898   4.002   4.893
 6926SOL    HW221678   3.053   3.991   4.944
 6927SOL     OW21679   4.154   3.833   6.195
 6927SOL    HW121680   4.163   3.735   6.178
 6927SOL    HW221681   4.178   3.853   6.289
 6928SOL     OW21682   6.269   0.070   6.501
 6928SOL    HW121683   6.305   7.020   6.559
 6928SOL    HW221684   6.249   0.034   6.410
 6929SOL     OW21685   3.856   5.021   0.256
 6929SOL    HW121686   3.800   5.028   0.173
 6929SOL    HW221687   3.906   5.106   0.270
 6930SOL     OW21688   1.199   6.844   3.128
 6930SOL    HW121689   1.167   6.935   3.154
 6930SOL    HW221690   1.208   6.788   3.210
 6931SOL     OW21691   1.495   0.823   1.719
 6931SOL    HW121692   1.450   0.739   1.748
 6931SOL    HW221693   1.587   0.826   1.756
 6932SOL     OW21694   2.825   1.987   0.218
 6932SOL    HW121695   2.919   1.957   0.232
 6932SOL    HW221696   2.823   2.083   0.191
 6933SOL     OW21697   3.496   6.427   6.426
 6933SOL    HW121698   3.458   6.375   6.350
 6933SOL    HW221699   3.565   6.491   6.392
 6934SOL     OW21700   6.275   4.311   6.079
 6934SOL    HW121701   6.203   4.298   6.010
 6934SOL    HW221702   6.234   4.343   6.165
 6935SOL     OW21703   4.339   5.473   3.620
 6935SOL    HW121704   4.289   5.440   3.701
 6935SOL    HW221705   4.416   5.530   3.649
 6936SOL     OW21706   1.475   4.482   1.174
 6936SOL    HW121707   1.400   4.547   1.186
 6936SOL    HW221708   1.559   4.531   1.151
 6937SOL     OW21709   4.361   6.773   6.129
 6937SOL    HW121710   4.319   6.683   6.137
 6937SOL    HW221711   4.360   6.802   6.033
 6938SOL     OW21712   5.928   2.127   4.936
 6938SOL    HW121713   5.858   2.174   4.883
 6938SOL    HW221714   5.962   2.048   4.884
 6939SOL     OW21715   0.562   5.374   2.575
 6939SOL    HW121716   0.573   5.464   2.534
 6939SOL    HW221717   0.524   5.311   2.507
 6940SOL     OW21718   3.854   0.818   5.145
 6940SOL    HW121719   3.802   0.872   5.079
 6940SOL    HW221720   3.951   0.833   5.131
 6941SOL     OW21721   3.947   3.074   3.318
 6941SOL    HW121722   3.848   3.073   3.337
 6941SOL    HW221723   3.965   3.023   3.234
 6942SOL     OW21724   6.986   1.614   0.435
 6942SOL    HW121725   6.889   1.608   0.410
 6942SOL    HW221726   6.994   1.642   0.531
 6943SOL     OW21727   5.446   6.092   6.737
 6943SOL    HW121728   5.450   6.162   6.808
 6943SOL    HW221729   5.356   6.049   6.738
 6944SOL     OW21730   1.344   6.624   6.071
 6944SOL    HW121731   1.339   6.723   6.067
 6944SOL    HW221732   1.417   6.592   6.010
 6945SOL     OW21733   4.586   1.922   5.241
 6945SOL    HW121734   4.544   1.901   5.153
 6945SOL    HW221735   4.628   2.013   5.237
 6946SOL     OW21736   6.037   4.499   3.787
 6946SOL    HW121737   6.056   4.535   3.879
 6946SOL    HW221738   5.960   4.435   3.792
 6947SOL     OW21739   4.077   6.816   3.095
 6947SOL    HW121740   4.021   6.821   3.177
 6947SOL    HW221741   4.021   6.838   3.015
 6948SOL     OW21742   3.868   1.777   4.646
 6948SOL    HW121743   3.779   1.787   4.600
 6948SOL    HW221744   3.888   1.680   4.659
 6949SOL     OW21745   5.080   0.681   2.343
 6949SOL    HW121746   5.014   0.702   2.415
 6949SOL    HW221747   5.081   0.755   2.276
 6950SOL     OW21748   2.181   1.144   3.435
 6950SOL    HW121749   2.090   1.179   3.412
 6950SOL    HW221750   2.246   1.220   3.438
 6951SOL     OW21751   5.415   5.209   5.790
 6951SOL    HW121752   5.467   5.135   5.746
 6951SOL    HW221753   5.473   5.255   5.857
 6952SOL     OW21754   0.325   5.143   4.757
 6952SOL    HW121755   0.420   5.116   4.771
 6952SOL    HW221756   0.280   5.153   4.846
 6953SOL     OW21757   5.367   1.991   5.397
 6953SOL    HW121758   5.433   2.041   5.341
 6953SOL    HW221759   5.342   1.906   5.351
 6954SOL     OW21760   0.699   5.354   2.955
 6954SOL    HW121761   0.700   5.315   3.047
 6954SOL    HW221762   0.778   5.413   2.942
 6955SOL     OW21763   6.439   5.579   2.621
 6955SOL    HW121764   6.401   5.649   2.681
 6955SOL    HW221765   6.380   5.499   2.622
 6956SOL     OW21766   3.232   4.860   1.002
 6956SOL    HW121767   3.215   4.951   0.964
 6956SOL    HW221768   3.173   4.845   1.081
 6957SOL     OW21769   0.535   3.962   0.167
 6957SOL    HW121770   0.609   4.028   0.179
 6957SOL    HW221771   0.469   3.973   0.241
 6958SOL     OW21772   2.621   3.760   6.346
 6958SOL    HW121773   2.611   3.822   6.424
 6958SOL    HW221774   2.659   3.810   6.268
 6959SOL     OW21775   3.136   1.145   4.237
 6959SOL    HW121776   3.036   1.140   4.236
 6959SOL    HW221777   3.168   1.179   4.148
 6960SOL     OW21778   6.839   4.928   6.729
 6960SOL    HW121779   6.860   4.902   6.635
 6960SOL    HW221780   6.859   4.852   6.790
 6961SOL     OW21781   6.767   1.526   2.948
 6961SOL    HW121782   6.810   1.568   2.867
 6961SOL    HW221783   6.685   1.476   2.920
 6962SOL     OW21784   4.440   3.610   0.400
 6962SOL    HW121785   4.342   3.633   0.399
 6962SOL    HW221786   4.486   3.658   0.325
 6963SOL     OW21787   5.795   5.497   1.939
 6963SOL    HW121788   5.827   5.588   1.963
 6963SOL    HW221789   5.872   5.441   1.908
 6964SOL     OW21790   3.963   6.196   5.033
 6964SOL    HW121791   4.037   6.138   4.999
 6964SOL    HW221792   3.993   6.291   5.039
 6965SOL     OW21793   6.706   3.398   5.735
 6965SOL    HW121794   6.624   3.454   5.741
 6965SOL    HW221795   6.745   3.388   5.827
 6966SOL     OW21796   4.681   2.721   3.815
 6966SOL    HW121797   4.727   2.668   3.743
 6966SOL    HW221798   4.679   2.818   3.789
 6967SOL     OW21799   1.967   1.677   6.883
 6967SOL    HW121800   2.010   1.753   6.834
 6967SOL    HW221801   2.015   1.662   6.969
 6968SOL     OW21802   4.723   7.021   2.249
 6968SOL    HW121803   4.697   7.016   2.346
 6968SOL    HW221804   4.769   6.937   2.223
 6969SOL     OW21805   3.228   1.826   1.507
 6969SOL    HW121806   3.239   1.903   1.445
 6969SOL    HW221807   3.277   1.844   1.592
 6970SOL     OW21808   4.936   3.723   0.483
 6970SOL    HW121809   4.871   3.689   0.415
 6970SOL    HW221810   4.887   3.777   0.552
 6971SOL     OW21811   5.597   1.088   2.487
 6971SOL    HW121812   5.513   1.141   2.498
 6971SOL    HW221813   5.576   1.001   2.442
 6972SOL     OW21814   5.365   4.800   4.462
 6972SOL    HW121815   5.315   4.874   4.506
 6972SOL    HW221816   5.358   4.810   4.362
 6973SOL     OW21817   2.090   4.941   4.173
 6973SOL    HW121818   2.044   4.864   4.128
 6973SOL    HW221819   2.135   4.908   4.256
 6974SOL     OW21820   3.742   3.700   4.710
 6974SOL    HW121821   3.643   3.709   4.707
 6974SOL    HW221822   3.775   3.655   4.627
 6975SOL     OW21823   3.678   1.326   5.522
 6975SOL    HW121824   3.772   1.354   5.503
 6975SOL    HW221825   3.642   1.379   5.599
 6976SOL     OW21826   2.005   5.596   6.971
 6976SOL    HW121827   1.912   5.574   6.939
 6976SOL    HW221828   2.049   5.657   6.905
 6977SOL     OW21829   3.991   2.203   2.980
 6977SOL    HW121830   4.043   2.182   2.897
 6977SOL    HW221831   3.894   2.181   2.965
 6978SOL     OW21832   6.350   0.983   2.862
 6978SOL    HW121833   6.312   1.072   2.836
 6978SOL    HW221834   6.387   0.937   2.781
 6979SOL     OW21835   0.472   4.650   3.586
 6979SOL    HW121836   0.429   4.663   3.676
 6979SOL    HW221837   0.473   4.553   3.563
 6980SOL     OW21838   3.244   1.243   4.013
 6980SOL    HW121839   3.343   1.246   4.030
 6980SOL    HW221840   3.227   1.261   3.916
 6981SOL     OW21841   2.875   4.712   6.558
 6981SOL    HW121842   2.960   4.675   6.595
 6981SOL    HW221843   2.816   4.637   6.529
 6982SOL     OW21844   0.243   6.713   4.854
 6982SOL    HW121845   0.168   6.777   4.870
 6982SOL    HW221846   0.314   6.758   4.801
 6983SOL     OW21847   6.162   1.087   3.943
 6983SOL    HW121848   6.194   1.021   3.875
 6983SOL    HW221849   6.067   1.110   3.924
 6984SOL     OW21850   2.064   1.363   6.731
 6984SOL    HW121851   2.117   1.386   6.649
 6984SOL    HW221852   2.046   1.446   6.784
 6985SOL     OW21853   4.986   6.310   2.510
 6985SOL    HW121854   4.893   6.292   2.478
 6985SOL    HW221855   5.048   6.240   2.474
 6986SOL     OW21856   2.181   6.631   4.894
 6986SOL    HW121857   2.211   6.563   4.827
 6986SOL    HW221858   2.087   6.611   4.920
 6987SOL     OW21859   6.820   3.584   6.521
 6987SOL    HW121860   6.807   3.635   6.606
 6987SOL    HW221861   6.915   3.590   6.492
 6988SOL     OW21862   4.865   0.994   5.202
 6988SOL    HW121863   4.906   0.929   5.138
 6988SOL    HW221864   4.820   1.067   5.150
 6989SOL     OW21865   1.402   2.659   4.253
 6989SOL    HW121866   1.390   2.584   4.318
 6989SOL    HW221867   1.348   2.642   4.171
 6990SOL     OW21868   4.120   3.563   0.109
 6990SOL    HW121869   4.053   3.623   0.065
 6990SOL    HW221870   4.124   3.476   0.059
 6991SOL     OW21871   4.243   4.512   5.425
 6991SOL    HW121872   4.321   4.492   5.485
 6991SOL    HW221873   4.159   4.478   5.468
 6992SOL     OW21874   5.131   6.720   5.200
 6992SOL    HW121875   5.061   6.648   5.195
 6992SOL    HW221876   5.221   6.679   5.206
 6993SOL     OW21877   0.326   6.738   2.966
 6993SOL    HW121878   0.342   6.777   3.057
 6993SOL    HW221879   0.414   6.731   2.917
 6994SOL     OW21880   1.308   3.119   0.263
 6994SOL    HW121881   1.248   3.061   0.207
 6994SOL    HW221882   1.254   3.193   0.303
 6995SOL     OW21883   0.540   5.626   3.174
 6995SOL    HW121884   0.446   5.592   3.169
 6995SOL    HW221885   0.588   5.579   3.249
 6996SOL     OW21886   2.522   6.622   5.848
 6996SOL    HW121887   2.535   6.527   5.877
 6996SOL    HW221888   2.505   6.625   5.750
 6997SOL     OW21889   4.692   0.394   4.541
 6997SOL    HW121890   4.667   0.322   4.605
 6997SOL    HW221891   4.649   0.376   4.452
 6998SOL     OW21892   1.554   2.700   3.785
 6998SOL    HW121893   1.528   2.654   3.870
 6998SOL    HW221894   1.489   2.675   3.713
 6999SOL     OW21895   3.874   1.637   6.596
 6999SOL    HW121896   3.783   1.677   6.609
 6999SOL    HW221897   3.888   1.563   6.662
 7000SOL     OW21898   0.093   6.360   1.483
 7000SOL    HW121899   0.171   6.344   1.543
 7000SOL    HW221900   0.119   6.421   1.409
 7001SOL     OW21901   2.885   1.598   5.516
 7001SOL    HW121902   2.872   1.608   5.417
 7001SOL    HW221903   2.822   1.529   5.551
 7002SOL     OW21904   1.734   5.462   3.164
 7002SOL    HW121905   1.694   5.386   3.215
 7002SOL    HW221906   1.743   5.436   3.068
 7003SOL     OW21907   2.390   6.195   6.812
 7003SOL    HW121908   2.311   6.210   6.871
 7003SOL    HW221909   2.474   6.202   6.866
 7004SOL     OW21910   0.848   5.228   0.671
 7004SOL    HW121911   0.750   5.208   0.668
 7004SOL    HW221912   0.874   5.256   0.763
 7005SOL     OW21913   5.261   6.852   5.394
 7005SOL    HW121914   5.246   6.951   5.400
 7005SOL    HW221915   5.186   6.811   5.341
 7006SOL     OW21916   4.385   4.819   5.012
 7006SOL    HW121917   4.356   4.726   4.988
 7006SOL    HW221918   4.305   4.876   5.026
 7007SOL     OW21919   5.027   5.163   2.236
 7007SOL    HW121920   4.949   5.120   2.281
 7007SOL    HW221921   5.102   5.175   2.301
 7008SOL     OW21922   0.955   4.770   4.599
 7008SOL    HW121923   0.898   4.807   4.672
 7008SOL    HW221924   1.031   4.833   4.582
 7009SOL     OW21925   0.196   4.711   2.511
 7009SOL    HW121926   0.282   4.762   2.520
 7009SOL    HW221927   0.212   4.615   2.533
 7010SOL     OW21928   4.046   4.677   6.457
 7010SOL    HW121929   3.972   4.686   6.524
 7010SOL    HW221930   4.126   4.728   6.490
 7011SOL     OW21931   2.506   1.593   4.511
 7011SOL    HW121932   2.481   1.588   4.608
 7011SOL    HW221933   2.476   1.680   4.473
 7012SOL     OW21934   1.106   1.248   2.209
 7012SOL    HW121935   1.188   1.192   2.203
 7012SOL    HW221936   1.124   1.327   2.268
 7013SOL     OW21937   0.842   0.892   2.330
 7013SOL    HW121938   0.802   0.817   2.383
 7013SOL    HW221939   0.814   0.884   2.235
 7014SOL     OW21940   2.437   4.895   1.457
 7014SOL    HW121941   2.525   4.922   1.418
 7014SOL    HW221942   2.449   4.876   1.555
 7015SOL     OW21943   4.978   2.600   1.994
 7015SOL    HW121944   4.978   2.526   2.061
 7015SOL    HW221945   4.918   2.674   2.024
 7016SOL     OW21946   3.040   4.641   0.728
 7016SOL    HW121947   3.140   4.644   0.734
 7016SOL    HW221948   3.013   4.618   0.634
 7017SOL     OW21949   4.116   1.565   4.025
 7017SOL    HW121950   4.204   1.542   4.066
 7017SOL    HW221951   4.117   1.660   3.994
 7018SOL     OW21952   0.054   5.234   4.014
 7018SOL    HW121953   0.003   5.199   4.093
 7018SOL    HW221954   0.060   5.162   3.945
 7019SOL     OW21955   2.220   6.125   0.339
 7019SOL    HW121956   2.228   6.195   0.410
 7019SOL    HW221957   2.283   6.050   0.358
 7020SOL     OW21958   0.120   6.922   5.922
 7020SOL    HW121959   0.174   7.000   5.889
 7020SOL    HW221960   0.147   6.839   5.872
 7021SOL     OW21961   3.398   0.665   5.890
 7021SOL    HW121962   3.422   0.671   5.793
 7021SOL    HW221963   3.441   0.584   5.930
 7022SOL     OW21964   5.205   4.987   6.369
 7022SOL    HW121965   5.142   4.998   6.292
 7022SOL    HW221966   5.291   4.948   6.336
 7023SOL     OW21967   6.127   4.239   2.964
 7023SOL    HW121968   6.164   4.150   2.991
 7023SOL    HW221969   6.038   4.253   3.009
 7024SOL     OW21970   0.288   6.512   0.640
 7024SOL    HW121971   0.314   6.562   0.558
 7024SOL    HW221972   0.216   6.446   0.618
 7025SOL     OW21973   2.462   0.550   6.198
 7025SOL    HW121974   2.435   0.532   6.292
 7025SOL    HW221975   2.381   0.573   6.144
 7026SOL     OW21976   4.304   2.209   0.889
 7026SOL    HW121977   4.261   2.210   0.799
 7026SOL    HW221978   4.332   2.302   0.913
 7027SOL     OW21979   4.391   0.272   4.449
 7027SOL    HW121980   4.455   0.196   4.462
 7027SOL    HW221981   4.343   0.261   4.362
 7028SOL     OW21982   3.246   6.720   4.581
 7028SOL    HW121983   3.282   6.808   4.550
 7028SOL    HW221984   3.267   6.650   4.513
 7029SOL     OW21985   3.464   0.100   4.892
 7029SOL    HW121986   3.422   0.187   4.867
 7029SOL    HW221987   3.442   0.032   4.822
 7030SOL     OW21988   2.171   4.053   3.916
 7030SOL    HW121989   2.253   4.110   3.908
 7030SOL    HW221990   2.146   4.018   3.826
 7031SOL     OW21991   2.831   6.665   5.326
 7031SOL    HW121992   2.742   6.618   5.325
 7031SOL    HW221993   2.881   6.643   5.242
 7032SOL     OW21994   5.653   1.858   2.793
 7032SOL    HW121995   5.730   1.868   2.857
 7032SOL    HW221996   5.589   1.790   2.828
 7033SOL     OW21997   6.370   7.018   4.270
 7033SOL    HW121998   6.278   0.032   4.257
 7033SOL    HW221999   6.437   0.060   4.233
 7034SOL     OW22000   6.499   5.700   2.947
 7034SOL    HW122001   6.578   5.693   2.887
 7034SOL    HW222002   6.486   5.796   2.975
 7035SOL     OW22003   6.262   5.169   1.816
 7035SOL    HW122004   6.287   5.160   1.913
 7035SOL    HW222005   6.200   5.095   1.791
 7036SOL     OW22006   6.858   4.501   1.505
 7036SOL    HW122007   6.841   4.408   1.473
 7036SOL    HW222008   6.774   4.541   1.541
 7037SOL     OW22009   0.986   6.967   6.893
 7037SOL    HW122010   0.941   6.891   6.939
 7037SOL    HW222011   1.064   6.933   6.840
 7038SOL     OW22012   1.664   4.129   4.193
 7038SOL    HW122013   1.639   4.223   4.216
 7038SOL    HW222014   1.613   4.099   4.112
 7039SOL     OW22015   4.204   1.417   6.015
 7039SOL    HW122016   4.139   1.394   5.943
 7039SOL    HW222017   4.196   1.352   6.091
 7040SOL     OW22018   4.831   2.692   6.213
 7040SOL    HW122019   4.778   2.662   6.292
 7040SOL    HW222020   4.774   2.686   6.131
 7041SOL     OW22021   2.598   1.382   2.309
 7041SOL    HW122022   2.555   1.393   2.219
 7041SOL    HW222023   2.533   1.404   2.381
 7042SOL     OW22024   2.033   0.215   6.888
 7042SOL    HW122025   2.101   0.283   6.860
 7042SOL    HW222026   2.042   0.133   6.831
 7043SOL     OW22027   1.599   2.303   3.179
 7043SOL    HW122028   1.621   2.392   3.220
 7043SOL    HW222029   1.505   2.278   3.203
 7044SOL     OW22030   4.684   6.333   2.413
 7044SOL    HW122031   4.652   6.427   2.421
 7044SOL    HW222032   4.607   6.270   2.425
 7045SOL     OW22033   5.730   4.937   0.973
 7045SOL    HW122034   5.814   4.947   1.026
 7045SOL    HW222035   5.752   4.899   0.883
 7046SOL     OW22036   2.420   1.028   4.216
 7046SOL    HW122037   2.425   1.042   4.315
 7046SOL    HW222038   2.413   0.931   4.196
 7047SOL     OW22039   1.983   1.575   3.920
 7047SOL    HW122040   1.952   1.483   3.898
 7047SOL    HW222041   1.984   1.587   4.019
 7048SOL     OW22042   6.218   6.411   0.575
 7048SOL    HW122043   6.214   6.456   0.665
 7048SOL    HW222044   6.313   6.385   0.556
 7049SOL     OW22045   2.320   1.017   0.673
 7049SOL    HW122046   2.416   1.027   0.649
 7049SOL    HW222047   2.272   0.969   0.600
 7050SOL     OW22048   4.097   3.639   4.944
 7050SOL    HW122049   4.110   3.601   4.853
 7050SOL    HW222050   4.184   3.639   4.993
 7051SOL     OW22051   6.536   6.764   2.160
 7051SOL    HW122052   6.547   6.667   2.137
 7051SOL    HW222053   6.483   6.809   2.088
 7052SOL     OW22054   6.286   1.806   3.243
 7052SOL    HW122055   6.290   1.904   3.226
 7052SOL    HW222056   6.196   1.771   3.218
 7053SOL     OW22057   6.782   4.454   6.261
 7053SOL    HW122058   6.710   4.409   6.314
 7053SOL    HW222059   6.781   4.417   6.167
 7054SOL     OW22060   6.900   6.965   1.525
 7054SOL    HW122061   6.915   6.910   1.607
 7054SOL    HW222062   6.873   0.035   1.552
 7055SOL     OW22063   3.319   6.907   5.473
 7055SOL    HW122064   3.266   6.870   5.396
 7055SOL    HW222065   3.262   6.906   5.555
 7056SOL     OW22066   4.748   5.325   3.836
 7056SOL    HW122067   4.829   5.288   3.791
 7056SOL    HW222068   4.772   5.359   3.927
 7057SOL     OW22069   0.787   6.347   3.055
 7057SOL    HW122070   0.766   6.249   3.044
 7057SOL    HW222071   0.775   6.373   3.151
 7058SOL     OW22072   0.528   5.108   5.065
 7058SOL    HW122073   0.435   5.097   5.101
 7058SOL    HW222074   0.589   5.043   5.109
 7059SOL     OW22075   1.878   0.364   2.834
 7059SOL    HW122076   1.787   0.356   2.874
 7059SOL    HW222077   1.870   0.371   2.735
 7060SOL     OW22078   2.649   0.146   1.365
 7060SOL    HW122079   2.627   0.243   1.360
 7060SOL    HW222080   2.749   0.135   1.366
 7061SOL     OW22081   0.047   1.070   2.324
 7061SOL    HW122082   0.058   1.161   2.284
 7061SOL    HW222083   0.057   1.001   2.252
 7062SOL     OW22084   6.355   1.127   5.334
 7062SOL    HW122085   6.409   1.193   5.281
 7062SOL    HW222086   6.307   1.175   5.407
 7063SOL     OW22087   2.605   6.778   1.840
 7063SOL    HW122088   2.546   6.852   1.871
 7063SOL    HW222089   2.700   6.799   1.862
 7064SOL     OW22090   4.376   2.384   0.265
 7064SOL    HW122091   4.279   2.359   0.256
 7064SOL    HW222092   4.415   2.398   0.174
 7065SOL     OW22093   4.438   4.056   1.614
 7065SOL    HW122094   4.454   4.117   1.537
 7065SOL    HW222095   4.443   4.108   1.699
 7066SOL     OW22096   3.518   6.322   0.326
 7066SOL    HW122097   3.592   6.325   0.259
 7066SOL    HW222098   3.520   6.234   0.374
 7067SOL     OW22099   0.189   4.327   4.937
 7067SOL    HW122100   0.172   4.405   4.877
 7067SOL    HW222101   0.282   4.292   4.922
 7068SOL     OW22102   0.819   1.351   3.062
 7068SOL    HW122103   0.719   1.350   3.071
 7068SOL    HW222104   0.844   1.356   2.965
 7069SOL     OW22105   1.578   4.057   4.858
 7069SOL    HW122106   1.669   4.099   4.859
 7069SOL    HW222107   1.511   4.123   4.893
 7070SOL     OW22108   5.594   5.748   4.402
 7070SOL    HW122109   5.574   5.657   4.364
 7070SOL    HW222110   5.579   5.818   4.332
 7071SOL     OW22111   1.597   6.574   5.510
 7071SOL    HW122112   1.612   6.666   5.474
 7071SOL    HW222113   1.503   6.547   5.492
 7072SOL     OW22114   0.018   6.592   6.607
 7072SOL    HW122115   6.983   6.517   6.573
 7072SOL    HW222116   6.992   6.641   6.679
 7073SOL     OW22117   1.135   0.894   6.038
 7073SOL    HW122118   1.149   0.926   6.131
 7073SOL    HW222119   1.151   0.795   6.033
 7074SOL     OW22120   3.446   2.396   1.527
 7074SOL    HW122121   3.399   2.452   1.596
 7074SOL    HW222122   3.544   2.393   1.549
 7075SOL     OW22123   1.031   5.449   3.173
 7075SOL    HW122124   0.962   5.501   3.121
 7075SOL    HW222125   0.986   5.371   3.217
 7076SOL     OW22126   3.274   2.476   6.478
 7076SOL    HW122127   3.272   2.534   6.560
 7076SOL    HW222128   3.261   2.532   6.397
 7077SOL     OW22129   1.976   5.474   5.721
 7077SOL    HW122130   1.963   5.563   5.678
 7077SOL    HW222131   1.916   5.407   5.678
 7078SOL     OW22132   6.643   0.673   2.937
 7078SOL    HW122133   6.740   0.679   2.961
 7078SOL    HW222134   6.604   0.590   2.978
 7079SOL     OW22135   5.164   5.586   5.167
 7079SOL    HW122136   5.263   5.586   5.180
 7079SOL    HW222137   5.133   5.493   5.147
 7080SOL     OW22138   5.392   0.319   4.172
 7080SOL    HW122139   5.406   0.360   4.262
 7080SOL    HW222140   5.325   0.372   4.121
 7081SOL     OW22141   3.800   1.269   5.168
 7081SOL    HW122142   3.737   1.284   5.244
 7081SOL    HW222143   3.784   1.337   5.097
 7082SOL     OW22144   5.397   0.897   6.223
 7082SOL    HW122145   5.461   0.954   6.171
 7082SOL    HW222146   5.361   0.825   6.164
 7083SOL     OW22147   3.445   6.979   6.017
 7083SOL    HW122148   3.482   6.985   5.924
 7083SOL    HW222149   3.515   7.007   6.083
 7084SOL     OW22150   6.537   6.652   6.839
 7084SOL    HW122151   6.461   6.637   6.776
 7084SOL    HW222152   6.582   6.565   6.859
 7085SOL     OW22153   2.760   2.363   0.893
 7085SOL    HW122154   2.711   2.369   0.806
 7085SOL    HW222155   2.708   2.410   0.964
 7086SOL     OW22156   6.728   1.148   6.437
 7086SOL    HW122157   6.774   1.195   6.512
 7086SOL    HW222158   6.631   1.136   6.458
 7087SOL     OW22159   1.752   2.526   4.132
 7087SOL    HW122160   1.708   2.607   4.093
 7087SOL    HW222161   1.807   2.482   4.062
 7088SOL     OW22162   6.797   2.252   5.174
 7088SOL    HW122163   6.719   2.279   5.230
 7088SOL    HW222164   6.836   2.167   5.210
 7089SOL     OW22165   2.828   1.558   0.340
 7089SOL    HW122166   2.911   1.609   0.316
 7089SOL    HW222167   2.750   1.619   0.336
 7090SOL     OW22168   2.541   2.219   4.638
 7090SOL    HW122169   2.517   2.211   4.541
 7090SOL    HW222170   2.614   2.286   4.648
 7091SOL     OW22171   0.351   5.593   6.880
 7091SOL    HW122172   0.293   5.657   6.931
 7091SOL    HW222173   0.317   5.500   6.892
 7092SOL     OW22174   2.858   3.485   0.722
 7092SOL    HW122175   2.795   3.499   0.646
 7092SOL    HW222176   2.937   3.544   0.712
 7093SOL     OW22177   3.316   2.864   4.865
 7093SOL    HW122178   3.365   2.919   4.797
 7093SOL    HW222179   3.346   2.769   4.858
 7094SOL     OW22180   0.387   0.540   5.824
 7094SOL    HW122181   0.411   0.632   5.793
 7094SOL    HW222182   0.307   0.544   5.884
 7095SOL     OW22183   0.647   2.894   6.389
 7095SOL    HW122184   0.626   2.979   6.341
 7095SOL    HW222185   0.739   2.900   6.427
 7096SOL     OW22186   4.680   1.449   2.447
 7096SOL    HW122187   4.777   1.447   2.470
 7096SOL    HW222188   4.666   1.505   2.365
 7097SOL     OW22189   0.639   0.659   1.831
 7097SOL    HW122190   0.660   0.570   1.791
 7097SOL    HW222191   0.614   0.724   1.759
 7098SOL     OW22192   2.096   6.813   5.798
 7098SOL    HW122193   2.149   6.897   5.811
 7098SOL    HW222194   2.114   6.751   5.874
 7099SOL     OW22195   0.498   0.781   6.297
 7099SOL    HW122196   0.540   0.804   6.209
 7099SOL    HW222197   0.428   0.711   6.284
 7100SOL     OW22198   5.716   2.737   1.258
 7100SOL    HW122199   5.739   2.749   1.161
 7100SOL    HW222200   5.624   2.771   1.274
 7101SOL     OW22201   2.824   6.875   4.919
 7101SOL    HW122202   2.807   6.783   4.884
 7101SOL    HW222203   2.920   6.883   4.945
 7102SOL     OW22204   4.844   2.712   0.578
 7102SOL    HW122205   4.783   2.636   0.601
 7102SOL    HW222206   4.870   2.760   0.661
 7103SOL     OW22207   3.750   6.361   6.314
 7103SOL    HW122208   3.803   6.407   6.385
 7103SOL    HW222209   3.746   6.420   6.233
 7104SOL     OW22210   0.916   2.099   3.177
 7104SOL    HW122211   0.844   2.165   3.197
 7104SOL    HW222212   0.974   2.134   3.103
 7105SOL     OW22213   3.146   3.941   5.322
 7105SOL    HW122214   3.058   3.899   5.299
 7105SOL    HW222215   3.180   3.992   5.243
 7106SOL     OW22216   3.204   2.319   5.455
 7106SOL    HW122217   3.197   2.325   5.355
 7106SOL    HW222218   3.285   2.267   5.480
 7107SOL     OW22219   2.694   0.996   0.136
 7107SOL    HW122220   2.648   1.006   0.048
 7107SOL    HW222221   2.648   0.925   0.190
 7108SOL     OW22222   4.677   0.035   1.137
 7108SOL    HW122223   4.612   0.065   1.207
 7108SOL    HW222224   4.770   0.060   1.164
 7109SOL     OW22225   3.513   6.063   6.708
 7109SOL    HW122226   3.497   6.067   6.609
 7109SOL    HW222227   3.427   6.039   6.754
 7110SOL     OW22228   4.487   4.522   3.046
 7110SOL    HW122229   4.422   4.598   3.055
 7110SOL    HW222230   4.527   4.524   2.955
 7111SOL     OW22231   1.755   3.174   3.621
 7111SOL    HW122232   1.695   3.245   3.659
 7111SOL    HW222233   1.741   3.088   3.671
 7112SOL     OW22234   0.992   6.784   2.935
 7112SOL    HW122235   1.068   6.815   2.993
 7112SOL    HW222236   1.013   6.803   2.840
 7113SOL     OW22237   4.089   3.737   4.572
 7113SOL    HW122238   4.028   3.811   4.599
 7113SOL    HW222239   4.111   3.746   4.474
 7114SOL     OW22240   3.795   1.090   0.771
 7114SOL    HW122241   3.716   1.040   0.806
 7114SOL    HW222242   3.839   1.038   0.698
 7115SOL     OW22243   4.441   2.009   0.997
 7115SOL    HW122244   4.402   2.082   0.940
 7115SOL    HW222245   4.539   2.025   1.009
 7116SOL     OW22246   5.471   3.857   2.848
 7116SOL    HW122247   5.439   3.923   2.915
 7116SOL    HW222248   5.526   3.904   2.779
 7117SOL     OW22249   5.929   6.360   1.785
 7117SOL    HW122250   5.896   6.345   1.878
 7117SOL    HW222251   5.853   6.388   1.726
 7118SOL     OW22252   0.015   2.980   1.449
 7118SOL    HW122253   6.940   2.959   1.447
 7118SOL    HW222254   0.032   3.053   1.517
 7119SOL     OW22255   6.010   1.701   3.216
 7119SOL    HW122256   5.948   1.737   3.146
 7119SOL    HW222257   6.040   1.609   3.190
 7120SOL     OW22258   5.423   0.449   3.801
 7120SOL    HW122259   5.474   0.466   3.886
 7120SOL    HW222260   5.434   0.353   3.776
 7121SOL     OW22261   3.230   6.679   2.299
 7121SOL    HW122262   3.162   6.622   2.343
 7121SOL    HW222263   3.206   6.691   2.202
 7122SOL     OW22264   6.472   1.073   6.473
 7122SOL    HW122265   6.407   1.140   6.508
 7122SOL    HW222266   6.425   0.987   6.455
 7123SOL     OW22267   2.499   4.817   0.903
 7123SOL    HW122268   2.549   4.873   0.837
 7123SOL    HW222269   2.501   4.722   0.875
 7124SOL     OW22270   0.780   5.190   1.088
 7124SOL    HW122271   0.787   5.187   1.187
 7124SOL    HW222272   0.705   5.251   1.061
 7125SOL     OW22273   5.955   5.911   2.561
 7125SOL    HW122274   6.030   5.905   2.494
 7125SOL    HW222275   5.972   5.989   2.622
 7126SOL     OW22276   1.137   4.815   0.264
 7126SOL    HW122277   1.186   4.757   0.330
 7126SOL    HW222278   1.145   4.774   0.173
 7127SOL     OW22279   3.607   6.602   4.331
 7127SOL    HW122280   3.606   6.567   4.237
 7127SOL    HW222281   3.694   6.579   4.374
 7128SOL     OW22282   3.111   4.674   1.451
 7128SOL    HW122283   3.150   4.686   1.543
 7128SOL    HW222284   3.060   4.588   1.449
 7129SOL     OW22285   2.528   0.840   1.654
 7129SOL    HW122286   2.566   0.911   1.713
 7129SOL    HW222287   2.601   0.802   1.597
 7130SOL     OW22288   2.021   5.368   2.740
 7130SOL    HW122289   2.109   5.358   2.693
 7130SOL    HW222290   1.971   5.282   2.735
 7131SOL     OW22291   2.880   0.848   3.082
 7131SOL    HW122292   2.822   0.786   3.135
 7131SOL    HW222293   2.965   0.802   3.057
 7132SOL     OW22294   3.460   3.975   3.145
 7132SOL    HW122295   3.521   3.899   3.122
 7132SOL    HW222296   3.504   4.061   3.122
 7133SOL     OW22297   5.444   5.109   2.636
 7133SOL    HW122298   5.419   5.047   2.561
 7133SOL    HW222299   5.469   5.056   2.716
 7134SOL     OW22300   5.530   3.728   4.076
 7134SOL    HW122301   5.463   3.788   4.120
 7134SOL    HW222302   5.500   3.706   3.983
 7135SOL     OW22303   1.050   1.442   5.063
 7135SOL    HW122304   1.110   1.511   5.024
 7135SOL    HW222305   1.000   1.396   4.990
 7136SOL     OW22306   2.232   1.516   0.390
 7136SOL    HW122307   2.229   1.553   0.297
 7136SOL    HW222308   2.326   1.515   0.422
 7137SOL     OW22309   4.067   0.655   4.796
 7137SOL    HW122310   4.068   0.670   4.697
 7137SOL    HW222311   4.148   0.697   4.836
 7138SOL     OW22312   2.512   3.994   0.311
 7138SOL    HW122313   2.493   3.897   0.301
 7138SOL    HW222314   2.454   4.046   0.248
 7139SOL     OW22315   3.545   2.033   1.067
 7139SOL    HW122316   3.506   2.116   1.107
 7139SOL    HW222317   3.644   2.042   1.061
 7140SOL     OW22318   6.375   3.316   5.020
 7140SOL    HW122319   6.457   3.324   4.963
 7140SOL    HW222320   6.351   3.220   5.030
 7141SOL     OW22321   3.035   6.447   0.743
 7141SOL    HW122322   3.023   6.513   0.668
 7141SOL    HW222323   3.097   6.485   0.811
 7142SOL     OW22324   3.985   5.840   4.610
 7142SOL    HW122325   4.083   5.835   4.594
 7142SOL    HW222326   3.964   5.800   4.699
 7143SOL     OW22327   1.948   3.417   4.821
 7143SOL    HW122328   1.906   3.377   4.902
 7143SOL    HW222329   1.881   3.420   4.747
 7144SOL     OW22330   0.289   2.771   3.752
 7144SOL    HW122331   0.298   2.689   3.808
 7144SOL    HW222332   0.193   2.787   3.729
 7145SOL     OW22333   4.770   0.036   6.844
 7145SOL    HW122334   4.760   7.009   6.930
 7145SOL    HW222335   4.773   0.134   6.862
 7146SOL     OW22336   3.579   4.513   0.536
 7146SOL    HW122337   3.504   4.466   0.490
 7146SOL    HW222338   3.665   4.466   0.515
 7147SOL     OW22339   0.345   0.283   3.473
 7147SOL    HW122340   0.336   0.190   3.438
 7147SOL    HW222341   0.267   0.338   3.443
 7148SOL     OW22342   0.631   1.102   1.029
 7148SOL    HW122343   0.719   1.119   1.075
 7148SOL    HW222344   0.567   1.063   1.095
 7149SOL     OW22345   6.108   1.387   4.207
 7149SOL    HW122346   6.130   1.316   4.274
 7149SOL    HW222347   6.020   1.367   4.165
 7150SOL     OW22348   5.682   3.312   0.028
 7150SOL    HW122349   5.662   3.404   0.061
 7150SOL    HW222350   5.628   3.246   0.081
 7151SOL     OW22351   2.666   6.101   1.010
 7151SOL    HW122352   2.751   6.140   0.973
 7151SOL    HW222353   2.658   6.123   1.107
 7152SOL     OW22354   1.276   2.569   3.968
 7152SOL    HW122355   1.242   2.646   3.915
 7152SOL    HW222356   1.346   2.520   3.915
 7153SOL     OW22357   3.622   1.297   3.563
 7153SOL    HW122358   3.710   1.322   3.601
 7153SOL    HW222359   3.550   1.310   3.631
 7154SOL     OW22360   4.833   6.287   4.231
 7154SOL    HW122361   4.762   6.217   4.230
 7154SOL    HW222362   4.858   6.311   4.137
 7155SOL     OW22363   2.589   0.408   1.394
 7155SOL    HW122364   2.492   0.434   1.393
 7155SOL    HW222365   2.634   0.450   1.472
 7156SOL     OW22366   6.824   5.561   4.797
 7156SOL    HW122367   6.789   5.605   4.715
 7156SOL    HW222368   6.805   5.619   4.877
 7157SOL     OW22369   4.857   4.282   0.933
 7157SOL    HW122370   4.772   4.315   0.892
 7157SOL    HW222371   4.925   4.268   0.861
 7158SOL     OW22372   6.052   6.846   4.290
 7158SOL    HW122373   6.054   6.775   4.360
 7158SOL    HW222374   6.075   6.806   4.202
 7159SOL     OW22375   0.636   5.737   6.917
 7159SOL    HW122376   0.563   5.685   6.871
 7159SOL    HW222377   0.650   5.699   7.008
 7160SOL     OW22378   5.688   0.815   2.089
 7160SOL    HW122379   5.715   0.758   2.011
 7160SOL    HW222380   5.635   0.893   2.056
 7161SOL     OW22381   3.985   3.618   3.931
 7161SOL    HW122382   4.019   3.658   4.016
 7161SOL    HW222383   3.929   3.685   3.882
 7162SOL     OW22384   3.079   5.020   3.123
 7162SOL    HW122385   3.165   4.989   3.162
 7162SOL    HW222386   3.075   5.120   3.125
 7163SOL     OW22387   2.642   0.151   2.690
 7163SOL    HW122388   2.638   0.146   2.590
 7163SOL    HW222389   2.586   0.228   2.721
 7164SOL     OW22390   2.495   1.586   2.821
 7164SOL    HW122391   2.461   1.627   2.736
 7164SOL    HW222392   2.420   1.535   2.865
 7165SOL     OW22393   4.845   0.521   1.597
 7165SOL    HW122394   4.804   0.602   1.637
 7165SOL    HW222395   4.883   0.463   1.669
 7166SOL     OW22396   5.039   4.777   1.722
 7166SOL    HW122397   5.054   4.678   1.728
 7166SOL    HW222398   5.123   4.825   1.747
 7167SOL     OW22399   4.666   2.780   5.119
 7167SOL    HW122400   4.704   2.714   5.183
 7167SOL    HW222401   4.637   2.733   5.035
 7168SOL     OW22402   1.646   0.976   4.557
 7168SOL    HW122403   1.676   1.071   4.555
 7168SOL    HW222404   1.612   0.954   4.649
 7169SOL     OW22405   1.925   2.415   6.191
 7169SOL    HW122406   1.937   2.320   6.162
 7169SOL    HW222407   1.886   2.468   6.115
 7170SOL     OW22408   6.584   4.876   4.290
 7170SOL    HW122409   6.626   4.789   4.265
 7170SOL    HW222410   6.565   4.876   4.389
 7171SOL     OW22411   3.902   3.143   5.193
 7171SOL    HW122412   3.848   3.206   5.249
 7171SOL    HW222413   3.943   3.192   5.117
 7172SOL     OW22414   1.675   6.797   0.870
 7172SOL    HW122415   1.621   6.740   0.932
 7172SOL    HW222416   1.772   6.783   0.888
 7173SOL     OW22417   6.396   6.192   5.676
 7173SOL    HW122418   6.470   6.241   5.721
 7173SOL    HW222419   6.314   6.249   5.676
 7174SOL     OW22420   1.234   5.701   0.222
 7174SOL    HW122421   1.316   5.644   0.212
 7174SOL    HW222422   1.162   5.648   0.267
 7175SOL     OW22423   6.727   3.354   5.185
 7175SOL    HW122424   6.690   3.261   5.186
 7175SOL    HW222425   6.825   3.351   5.205
 7176SOL     OW22426   6.046   4.073   1.673
 7176SOL    HW122427   6.025   4.010   1.748
 7176SOL    HW222428   6.003   4.041   1.589
 7177SOL     OW22429   0.616   6.372   1.744
 7177SOL    HW122430   0.696   6.425   1.773
 7177SOL    HW222431   0.549   6.370   1.817
 7178SOL     OW22432   0.311   2.839   6.089
 7178SOL    HW122433   0.265   2.816   6.003
 7178SOL    HW222434   0.409   2.821   6.080
 7179SOL     OW22435   2.523   4.048   6.287
 7179SOL    HW122436   2.465   3.998   6.351
 7179SOL    HW222437   2.466   4.106   6.228
 7180SOL     OW22438   6.915   6.209   2.152
 7180SOL    HW122439   6.990   6.230   2.214
 7180SOL    HW222440   6.904   6.110   2.146
 7181SOL     OW22441   4.829   0.957   2.350
 7181SOL    HW122442   4.856   1.036   2.295
 7181SOL    HW222443   4.903   0.934   2.414
 7182SOL     OW22444   3.158   3.496   5.506
 7182SOL    HW122445   3.109   3.505   5.592
 7182SOL    HW222446   3.202   3.406   5.501
 7183SOL     OW22447   1.290   5.367   2.496
 7183SOL    HW122448   1.201   5.366   2.542
 7183SOL    HW222449   1.362   5.348   2.562
 7184SOL     OW22450   1.805   6.689   3.423
 7184SOL    HW122451   1.845   6.751   3.356
 7184SOL    HW222452   1.803   6.596   3.386
 7185SOL     OW22453   4.291   2.504   6.531
 7185SOL    HW122454   4.255   2.482   6.440
 7185SOL    HW222455   4.281   2.424   6.590
 7186SOL     OW22456   0.561   6.470   4.587
 7186SOL    HW122457   0.642   6.528   4.590
 7186SOL    HW222458   0.574   6.391   4.646
 7187SOL     OW22459   2.008   4.946   1.370
 7187SOL    HW122460   1.946   4.993   1.432
 7187SOL    HW222461   2.010   4.994   1.282
 7188SOL     OW22462   5.146   1.160   1.340
 7188SOL    HW122463   5.195   1.080   1.305
 7188SOL    HW222464   5.145   1.157   1.440
 7189SOL     OW22465   6.074   0.667   4.643
 7189SOL    HW122466   6.106   0.729   4.714
 7189SOL    HW222467   6.146   0.653   4.576
 7190SOL     OW22468   4.685   5.073   3.618
 7190SOL    HW122469   4.632   5.142   3.668
 7190SOL    HW222470   4.706   4.997   3.679
 7191SOL     OW22471   1.346   3.324   2.449
 7191SOL    HW122472   1.377   3.260   2.519
 7191SOL    HW222473   1.424   3.356   2.395
 7192SOL     OW22474   3.279   4.846   5.740
 7192SOL    HW122475   3.192   4.813   5.702
 7192SOL    HW222476   3.277   4.945   5.749
 7193SOL     OW22477   4.597   1.256   3.356
 7193SOL    HW122478   4.513   1.278   3.406
 7193SOL    HW222479   4.609   1.320   3.281
 7194SOL     OW22480   3.052   1.532   1.707
 7194SOL    HW122481   3.138   1.569   1.742
 7194SOL    HW222482   2.979   1.550   1.774
 7195SOL     OW22483   0.846   5.154   1.351
 7195SOL    HW122484   0.779   5.136   1.424
 7195SOL    HW222485   0.927   5.197   1.390
 7196SOL     OW22486   3.769   2.930   2.091
 7196SOL    HW122487   3.678   2.964   2.112
 7196SOL    HW222488   3.763   2.861   2.019
 7197SOL     OW22489   1.072   2.121   5.899
 7197SOL    HW122490   1.012   2.146   5.823
 7197SOL    HW222491   1.143   2.059   5.866
 7198SOL     OW22492   1.125   6.043   6.651
 7198SOL    HW122493   1.026   6.044   6.659
 7198SOL    HW222494   1.166   6.073   6.738
 7199SOL     OW22495   6.295   6.407   2.725
 7199SOL    HW122496   6.367   6.373   2.664
 7199SOL    HW222497   6.249   6.330   2.769
 7200SOL     OW22498   2.165   1.858   1.081
 7200SOL    HW122499   2.114   1.883   0.999
 7200SOL    HW222500   2.145   1.763   1.106
 7201SOL     OW22501   2.129   4.420   3.896
 7201SOL    HW122502   2.192   4.487   3.857
 7201SOL    HW222503   2.057   4.400   3.830
 7202SOL     OW22504   3.826   1.000   6.718
 7202SOL    HW122505   3.837   0.962   6.810
 7202SOL    HW222506   3.755   0.949   6.669
 7203SOL     OW22507   5.737   1.030   6.635
 7203SOL    HW122508   5.698   1.117   6.665
 7203SOL    HW222509   5.823   1.046   6.586
 7204SOL     OW22510   6.019   1.618   2.662
 7204SOL    HW122511   6.076   1.569   2.727
 7204SOL    HW222512   6.071   1.636   2.578
 7205SOL     OW22513   2.166   4.639   2.549
 7205SOL    HW122514   2.262   4.610   2.543
 7205SOL    HW222515   2.116   4.576   2.608
 7206SOL     OW22516   5.922   1.217   1.677
 7206SOL    HW122517   5.936   1.209   1.579
 7206SOL    HW222518   5.970   1.143   1.724
 7207SOL     OW22519   3.751   7.013   1.689
 7207SOL    HW122520   3.783   6.934   1.636
 7207SOL    HW222521   3.806   0.071   1.667
 7208SOL     OW22522   3.174   0.136   5.091
 7208SOL    HW122523   3.244   0.207   5.084
 7208SOL    HW222524   3.122   0.147   5.176
 7209SOL     OW22525   4.154   3.524   4.701
 7209SOL    HW122526   4.153   3.619   4.669
 7209SOL    HW222527   4.218   3.470   4.646
 7210SOL     OW22528   3.989   0.366   4.435
 7210SOL    HW122529   4.007   0.340   4.340
 7210SOL    HW222530   3.985   0.284   4.492
 7211SOL     OW22531   1.285   5.441   2.880
 7211SOL    HW122532   1.216   5.502   2.841
 7211SOL    HW222533   1.369   5.446   2.825
 7212SOL     OW22534   5.377   6.671   4.373
 7212SOL    HW122535   5.279   6.691   4.361
 7212SOL    HW222536   5.424   6.684   4.286
 7213SOL     OW22537   5.174   0.702   5.859
 7213SOL    HW122538   5.117   0.768   5.810
 7213SOL    HW222539   5.138   0.610   5.842
 7214SOL     OW22540   1.075   4.960   4.912
 7214SOL    HW122541   1.071   5.049   4.959
 7214SOL    HW222542   0.983   4.934   4.882
 7215SOL     OW22543   1.085   3.387   3.442
 7215SOL    HW122544   0.989   3.365   3.460
 7215SOL    HW222545   1.112   3.467   3.495
 7216SOL     OW22546   2.134   1.041   1.315
 7216SOL    HW122547   2.142   1.135   1.347
 7216SOL    HW222548   2.203   0.985   1.360
 7217SOL     OW22549   0.962   2.906   2.103
 7217SOL    HW122550   1.058   2.904   2.132
 7217SOL    HW222551   0.947   2.984   2.042
 7218SOL     OW22552   5.576   2.409   5.958
 7218SOL    HW122553   5.654   2.427   5.898
 7218SOL    HW222554   5.520   2.337   5.919
 7219SOL     OW22555   3.856   1.512   1.781
 7219SOL    HW122556   3.872   1.562   1.696
 7219SOL    HW222557   3.854   1.576   1.858
 7220SOL     OW22558   6.849   0.566   2.584
 7220SOL    HW122559   6.917   0.581   2.511
 7220SOL    HW222560   6.890   0.511   2.656
 7221SOL     OW22561   5.927   5.290   5.142
 7221SOL    HW122562   5.934   5.212   5.204
 7221SOL    HW222563   5.845   5.344   5.165
 7222SOL     OW22564   6.806   6.431   2.378
 7222SOL    HW122565   6.838   6.342   2.346
 7222SOL    HW222566   6.856   6.504   2.331
 7223SOL     OW22567   3.451   0.652   5.523
 7223SOL    HW122568   3.377   0.715   5.547
 7223SOL    HW222569   3.460   0.647   5.423
 7224SOL     OW22570   4.783   6.985   4.454
 7224SOL    HW122571   4.818   6.892   4.459
 7224SOL    HW222572   4.836   0.015   4.388
 7225SOL     OW22573   2.098   6.487   6.897
 7225SOL    HW122574   2.036   6.549   6.849
 7225SOL    HW222575   2.178   6.537   6.928
 7226SOL     OW22576   6.445   6.911   0.592
 7226SOL    HW122577   6.496   6.962   0.660
 7226SOL    HW222578   6.355   6.887   0.629
 7227SOL     OW22579   6.470   2.762   6.209
 7227SOL    HW122580   6.472   2.662   6.209
 7227SOL    HW222581   6.375   2.793   6.202
 7228SOL     OW22582   1.349   1.046   2.719
 7228SOL    HW122583   1.297   1.093   2.791
 7228SOL    HW222584   1.363   0.951   2.746
 7229SOL     OW22585   0.875   0.308   3.625
 7229SOL    HW122586   0.875   0.324   3.527
 7229SOL    HW222587   0.793   0.256   3.651
 7230SOL     OW22588   5.716   4.070   2.979
 7230SOL    HW122589   5.751   3.985   2.940
 7230SOL    HW222590   5.780   4.104   3.048
 7231SOL     OW22591   5.480   0.978   6.505
 7231SOL    HW122592   5.576   0.993   6.532
 7231SOL    HW222593   5.475   0.964   6.406
 7232SOL     OW22594   3.697   4.407   1.151
 7232SOL    HW122595   3.708   4.309   1.131
 7232SOL    HW222596   3.726   4.460   1.071
 7233SOL     OW22597   0.195   2.424   5.880
 7233SOL    HW122598   0.269   2.369   5.918
 7233SOL    HW222599   0.222   2.461   5.791
 7234SOL     OW22600   5.694   2.066   2.211
 7234SOL    HW122601   5.689   2.069   2.111
 7234SOL    HW222602   5.676   2.158   2.248
 7235SOL     OW22603   6.166   3.617   4.736
 7235SOL    HW122604   6.262   3.642   4.742
 7235SOL    HW222605   6.137   3.577   4.823
 7236SOL     OW22606   3.209   1.236   3.005
 7236SOL    HW122607   3.185   1.318   2.953
 7236SOL    HW222608   3.168   1.155   2.962
 7237SOL     OW22609   6.203   5.837   6.004
 7237SOL    HW122610   6.259   5.815   6.085
 7237SOL    HW222611   6.157   5.924   6.019
 7238SOL     OW22612   1.163   1.199   1.420
 7238SOL    HW122613   1.251   1.161   1.394
 7238SOL    HW222614   1.164   1.298   1.407
 7239SOL     OW22615   4.403   1.444   2.002
 7239SOL    HW122616   4.429   1.474   1.910
 7239SOL    HW222617   4.439   1.352   2.018
 7240SOL     OW22618   3.094   3.661   0.615
 7240SOL    HW122619   3.025   3.716   0.662
 7240SOL    HW222620   3.134   3.714   0.540
 7241SOL     OW22621   3.740   0.143   4.989
 7241SOL    HW122622   3.721   0.209   5.061
 7241SOL    HW222623   3.656   0.093   4.966
 7242SOL     OW22624   4.735   4.663   0.952
 7242SOL    HW122625   4.790   4.699   1.028
 7242SOL    HW222626   4.788   4.596   0.901
 7243SOL     OW22627   0.414   5.676   0.132
 7243SOL    HW122628   0.440   5.619   0.054
 7243SOL    HW222629   0.318   5.702   0.124
 7244SOL     OW22630   5.791   1.317   1.039
 7244SOL    HW122631   5.705   1.287   1.080
 7244SOL    HW222632   5.816   1.407   1.076
 7245SOL     OW22633   6.597   1.855   3.768
 7245SOL    HW122634   6.689   1.827   3.797
 7245SOL    HW222635   6.529   1.816   3.829
 7246SOL     OW22636   1.221   5.909   5.335
 7246SOL    HW122637   1.132   5.866   5.343
 7246SOL    HW222638   1.275   5.891   5.417
 7247SOL     OW22639   3.430   5.451   2.779
 7247SOL    HW122640   3.436   5.551   2.788
 7247SOL    HW222641   3.400   5.412   2.866
 7248SOL     OW22642   3.198   0.749   4.865
 7248SOL    HW122643   3.124   0.811   4.840
 7248SOL    HW222644   3.170   0.655   4.848
 7249SOL     OW22645   6.433   5.038   6.842
 7249SOL    HW122646   6.416   5.090   6.925
 7249SOL    HW222647   6.362   5.058   6.774
 7250SOL     OW22648   2.935   4.228   6.758
 7250SOL    HW122649   2.837   4.236   6.780
 7250SOL    HW222650   2.947   4.231   6.659
 7251SOL     OW22651   5.413   0.204   5.228
 7251SOL    HW122652   5.456   0.193   5.318
 7251SOL    HW222653   5.314   0.198   5.239
 7252SOL     OW22654   4.272   3.587   5.172
 7252SOL    HW122655   4.309   3.679   5.183
 7252SOL    HW222656   4.344   3.520   5.191
 7253SOL     OW22657   5.333   5.402   0.861
 7253SOL    HW122658   5.349   5.303   0.857
 7253SOL    HW222659   5.384   5.442   0.937
 7254SOL     OW22660   4.814   6.610   5.004
 7254SOL    HW122661   4.779   6.663   5.081
 7254SOL    HW222662   4.794   6.657   4.918
 7255SOL     OW22663   3.477   4.053   2.145
 7255SOL    HW122664   3.394   4.082   2.194
 7255SOL    HW222665   3.556   4.063   2.205
 7256SOL     OW22666   4.497   4.554   3.901
 7256SOL    HW122667   4.454   4.644   3.892
 7256SOL    HW222668   4.498   4.509   3.812
 7257SOL     OW22669   5.997   4.238   3.592
 7257SOL    HW122670   6.078   4.187   3.622
 7257SOL    HW222671   5.948   4.184   3.524
 7258SOL     OW22672   3.194   6.605   5.610
 7258SOL    HW122673   3.250   6.687   5.621
 7258SOL    HW222674   3.172   6.568   5.700
 7259SOL     OW22675   1.740   5.870   5.782
 7259SOL    HW122676   1.649   5.831   5.769
 7259SOL    HW222677   1.745   5.912   5.873
 7260SOL     OW22678   3.840   1.722   1.953
 7260SOL    HW122679   3.750   1.718   1.995
 7260SOL    HW222680   3.863   1.818   1.933
 7261SOL     OW22681   1.607   4.245   1.730
 7261SOL    HW122682   1.603   4.275   1.825
 7261SOL    HW222683   1.550   4.163   1.718
 7262SOL     OW22684   6.288   1.880   5.394
 7262SOL    HW122685   6.278   1.858   5.491
 7262SOL    HW222686   6.384   1.870   5.368
 7263SOL     OW22687   4.817   6.794   2.158
 7263SOL    HW122688   4.903   6.844   2.170
 7263SOL    HW222689   4.813   6.757   2.065
 7264SOL     OW22690   1.175   6.978   4.598
 7264SOL    HW122691   1.264   7.020   4.616
 7264SOL    HW222692   1.157   6.978   4.500
 7265SOL     OW22693   4.196   3.929   5.921
 7265SOL    HW122694   4.205   3.893   6.015
 7265SOL    HW222695   4.180   4.027   5.924
 7266SOL     OW22696   5.108   1.587   1.892
 7266SOL    HW122697   5.051   1.626   1.820
 7266SOL    HW222698   5.205   1.598   1.867
 7267SOL     OW22699   0.057   2.855   4.596
 7267SOL    HW122700   0.014   2.772   4.632
 7267SOL    HW222701   0.134   2.829   4.537
 7268SOL     OW22702   2.969   6.991   1.058
 7268SOL    HW122703   2.987   6.938   0.976
 7268SOL    HW222704   2.874   6.979   1.087
 7269SOL     OW22705   1.448   6.860   1.951
 7269SOL    HW122706   1.469   6.826   2.042
 7269SOL    HW222707   1.449   6.785   1.886
 7270SOL     OW22708   3.366   1.820   2.486
 7270SOL    HW122709   3.295   1.885   2.511
 7270SOL    HW222710   3.383   1.823   2.388
 7271SOL     OW22711   6.000   4.876   4.378
 7271SOL    HW122712   6.029   4.781   4.369
 7271SOL    HW222713   6.071   4.936   4.341
 7272SOL     OW22714   6.289   1.767   1.017
 7272SOL    HW122715   6.323   1.713   1.094
 7272SOL    HW222716   6.293   1.864   1.040
 7273SOL     OW22717   6.091   6.108   6.083
 7273SOL    HW122718   6.026   6.170   6.040
 7273SOL    HW222719   6.090   6.122   6.182
 7274SOL     OW22720   0.300   4.503   4.616
 7274SOL    HW122721   0.324   4.406   4.615
 7274SOL    HW222722   0.223   4.518   4.678
 7275SOL     OW22723   5.604   6.755   1.284
 7275SOL    HW122724   5.604   6.816   1.364
 7275SOL    HW222725   5.676   6.686   1.296
 7276SOL     OW22726   2.934   2.252   4.010
 7276SOL    HW122727   3.003   2.249   3.937
 7276SOL    HW222728   2.845   2.227   3.973
 7277SOL     OW22729   5.302   1.676   4.253
 7277SOL    HW122730   5.329   1.770   4.272
 7277SOL    HW222731   5.335   1.616   4.325
 7278SOL     OW22732   2.109   1.588   3.169
 7278SOL    HW122733   2.193   1.634   3.199
 7278SOL    HW222734   2.080   1.626   3.081
 7279SOL     OW22735   4.036   4.281   1.007
 7279SOL    HW122736   4.093   4.232   0.942
 7279SOL    HW222737   3.946   4.238   1.012
 7280SOL     OW22738   6.537   1.815   5.356
 7280SOL    HW122739   6.601   1.834   5.281
 7280SOL    HW222740   6.541   1.718   5.379
 7281SOL     OW22741   3.756   5.892   2.064
 7281SOL    HW122742   3.856   5.892   2.059
 7281SOL    HW222743   3.726   5.822   2.129
 7282SOL     OW22744   6.649   3.644   2.307
 7282SOL    HW122745   6.741   3.674   2.285
 7282SOL    HW222746   6.653   3.570   2.375
 7283SOL     OW22747   4.361   5.150   3.056
 7283SOL    HW122748   4.407   5.230   3.095
 7283SOL    HW222749   4.375   5.150   2.957
 7284SOL     OW22750   0.461   1.348   2.514
 7284SOL    HW122751   0.496   1.347   2.608
 7284SOL    HW222752   0.464   1.256   2.476
 7285SOL     OW22753   4.872   3.210   1.753
 7285SOL    HW122754   4.898   3.137   1.689
 7285SOL    HW222755   4.789   3.183   1.803
 7286SOL     OW22756   5.979   1.786   3.842
 7286SOL    HW122757   5.881   1.791   3.823
 7286SOL    HW222758   5.996   1.719   3.914
 7287SOL     OW22759   3.177   1.458   2.852
 7287SOL    HW122760   3.168   1.441   2.754
 7287SOL    HW222761   3.255   1.518   2.869
 7288SOL     OW22762   2.770   1.614   2.244
 7288SOL    HW122763   2.717   1.558   2.308
 7288SOL    HW222764   2.843   1.558   2.204
 7289SOL     OW22765   6.842   2.260   1.746
 7289SOL    HW122766   6.890   2.319   1.812
 7289SOL    HW222767   6.746   2.252   1.773
 7290SOL     OW22768   3.730   1.303   4.896
 7290SOL    HW122769   3.663   1.249   4.846
 7290SOL    HW222770   3.815   1.310   4.843
 7291SOL     OW22771   2.819   1.356   0.836
 7291SOL    HW122772   2.901   1.317   0.877
 7291SOL    HW222773   2.803   1.315   0.746
 7292SOL     OW22774   2.634   0.061   2.233
 7292SOL    HW122775   2.669   0.140   2.283
 7292SOL    HW222776   2.635   7.004   2.292
 7293SOL     OW22777   6.445   1.656   3.936
 7293SOL    HW122778   6.400   1.567   3.946
 7293SOL    HW222779   6.409   1.719   4.004
 7294SOL     OW22780   3.215   6.203   2.405
 7294SOL    HW122781   3.131   6.151   2.396
 7294SOL    HW222782   3.266   6.171   2.485
 7295SOL     OW22783   5.432   4.151   1.090
 7295SOL    HW122784   5.492   4.176   1.167
 7295SOL    HW222785   5.360   4.220   1.081
 7296SOL     OW22786   4.565   5.319   2.106
 7296SOL    HW122787   4.567   5.299   2.008
 7296SOL    HW222788   4.592   5.414   2.121
 7297SOL     OW22789   4.283   6.825   0.974
 7297SOL    HW122790   4.264   6.751   0.910
 7297SOL    HW222791   4.360   6.879   0.940
 7298SOL     OW22792   3.738   5.305   0.423
 7298SOL    HW122793   3.735   5.233   0.492
 7298SOL    HW222794   3.670   5.375   0.444
 7299SOL     OW22795   1.208   3.080   5.801
 7299SOL    HW122796   1.217   3.175   5.831
 7299SOL    HW222797   1.122   3.069   5.753
 7300SOL     OW22798   6.894   5.391   2.391
 7300SOL    HW122799   6.889   5.311   2.452
 7300SOL    HW222800   6.986   5.398   2.353
 7301SOL     OW22801   4.376   1.951   6.252
 7301SOL    HW122802   4.464   1.949   6.205
 7301SOL    HW222803   4.315   2.015   6.206
 7302SOL     OW22804   5.956   2.222   6.108
 7302SOL    HW122805   5.857   2.229   6.118
 7302SOL    HW222806   5.998   2.216   6.198
 7303SOL     OW22807   2.850   1.631   1.902
 7303SOL    HW122808   2.750   1.634   1.911
 7303SOL    HW222809   2.887   1.723   1.911
 7304SOL     OW22810   2.758   5.325   0.818
 7304SOL    HW122811   2.730   5.286   0.906
 7304SOL    HW222812   2.849   5.365   0.827
 7305SOL     OW22813   5.940   1.295   0.029
 7305SOL    HW122814   5.946   1.247   6.965
 7305SOL    HW222815   6.032   1.326   0.057
 7306SOL     OW22816   1.258   2.946   1.790
 7306SOL    HW122817   1.296   2.988   1.707
 7306SOL    HW222818   1.332   2.908   1.845
 7307SOL     OW22819   1.895   0.164   1.277
 7307SOL    HW122820   1.871   0.067   1.276
 7307SOL    HW222821   1.965   0.180   1.347
 7308SOL     OW22822   3.932   1.096   2.478
 7308SOL    HW122823   3.929   1.048   2.391
 7308SOL    HW222824   3.904   1.191   2.465
 7309SOL     OW22825   2.281   5.534   3.809
 7309SOL    HW122826   2.305   5.456   3.752
 7309SOL    HW222827   2.241   5.502   3.895
 7310SOL     OW22828   2.719   2.804   6.254
 7310SOL    HW122829   2.746   2.764   6.166
 7310SOL    HW222830   2.680   2.895   6.238
 7311SOL     OW22831   0.418   5.942   5.772
 7311SOL    HW122832   0.516   5.942   5.793
 7311SOL    HW222833   0.404   5.916   5.676
 7312SOL     OW22834   6.265   2.437   3.952
 7312SOL    HW122835   6.324   2.499   4.003
 7312SOL    HW222836   6.320   2.376   3.895
 7313SOL     OW22837   2.455   0.469   2.677
 7313SOL    HW122838   2.450   0.569   2.677
 7313SOL    HW222839   2.400   0.433   2.602
 7314SOL     OW22840   1.022   4.691   5.701
 7314SOL    HW122841   1.103   4.633   5.685
 7314SOL    HW222842   1.011   4.755   5.625
 7315SOL     OW22843   2.406   4.840   2.353
 7315SOL    HW122844   2.323   4.837   2.297
 7315SOL    HW222845   2.467   4.766   2.326
 7316SOL     OW22846   4.254   1.508   1.294
 7316SOL    HW122847   4.253   1.522   1.195
 7316SOL    HW222848   4.247   1.410   1.314
 7317SOL     OW22849   4.239   2.120   0.095
 7317SOL    HW122850   4.164   2.161   0.147
 7317SOL    HW222851   4.231   2.146   7.021
 7318SOL     OW22852   5.445   6.617   0.740
 7318SOL    HW122853   5.346   6.608   0.746
 7318SOL    HW222854   5.488   6.570   0.817
 7319SOL     OW22855   5.914   6.419   6.404
 7319SOL    HW122856   6.002   6.415   6.357
 7319SOL    HW222857   5.924   6.383   6.497
 7320SOL     OW22858   0.960   2.843   1.140
 7320SOL    HW122859   1.044   2.823   1.089
 7320SOL    HW222860   0.907   2.912   1.090
 7321SOL     OW22861   2.154   1.925   0.166
 7321SOL    HW122862   2.185   1.971   0.249
 7321SOL    HW222863   2.099   1.988   0.112
 7322SOL     OW22864   0.795   3.157   3.339
 7322SOL    HW122865   0.835   3.201   3.259
 7322SOL    HW222866   0.801   3.219   3.417
 7323SOL     OW22867   1.205   2.693   0.283
 7323SOL    HW122868   1.289   2.655   0.246
 7323SOL    HW222869   1.128   2.634   0.260
 7324SOL     OW22870   5.139   3.749   3.467
 7324SOL    HW122871   5.052   3.776   3.509
 7324SOL    HW222872   5.128   3.661   3.420
 7325SOL     OW22873   4.029   1.344   5.816
 7325SOL    HW122874   4.036   1.256   5.769
 7325SOL    HW222875   4.041   1.418   5.749
 7326SOL     OW22876   3.688   0.275   0.584
 7326SOL    HW122877   3.767   0.336   0.596
 7326SOL    HW222878   3.605   0.321   0.614
 7327SOL     OW22879   1.623   4.545   3.605
 7327SOL    HW122880   1.577   4.598   3.534
 7327SOL    HW222881   1.705   4.501   3.567
 7328SOL     OW22882   4.658   4.748   5.079
 7328SOL    HW122883   4.571   4.750   5.031
 7328SOL    HW222884   4.712   4.828   5.054
 7329SOL     OW22885   2.677   3.181   1.076
 7329SOL    HW122886   2.604   3.151   1.137
 7329SOL    HW222887   2.681   3.280   1.074
 7330SOL     OW22888   2.480   3.303   1.397
 7330SOL    HW122889   2.534   3.236   1.448
 7330SOL    HW222890   2.466   3.270   1.303
 7331SOL     OW22891   5.329   2.341   2.344
 7331SOL    HW122892   5.429   2.340   2.348
 7331SOL    HW222893   5.295   2.430   2.376
 7332SOL     OW22894   3.506   6.487   5.969
 7332SOL    HW122895   3.460   6.574   5.984
 7332SOL    HW222896   3.500   6.462   5.872
 7333SOL     OW22897   0.696   1.354   1.438
 7333SOL    HW122898   0.709   1.374   1.341
 7333SOL    HW222899   0.740   1.424   1.493
 7334SOL     OW22900   1.640   5.859   3.904
 7334SOL    HW122901   1.662   5.762   3.895
 7334SOL    HW222902   1.721   5.909   3.935
 7335SOL     OW22903   0.277   3.853   2.450
 7335SOL    HW122904   0.213   3.916   2.406
 7335SOL    HW222905   0.233   3.810   2.529
 7336SOL     OW22906   2.400   6.590   1.714
 7336SOL    HW122907   2.450   6.652   1.774
 7336SOL    HW222908   2.366   6.641   1.634
 7337SOL     OW22909   2.802   1.287   2.972
 7337SOL    HW122910   2.811   1.270   2.874
 7337SOL    HW222911   2.741   1.218   3.012
 7338SOL     OW22912   5.152   3.737   1.168
 7338SOL    HW122913   5.227   3.799   1.146
 7338SOL    HW222914   5.100   3.774   1.245
 7339SOL     OW22915   6.857   6.174   5.102
 7339SOL    HW122916   6.780   6.226   5.064
 7339SOL    HW222917   6.831   6.135   5.190
 7340SOL     OW22918   2.975   6.466   0.158
 7340SOL    HW122919   2.914   6.527   0.209
 7340SOL    HW222920   3.008   6.394   0.219
 7341SOL     OW22921   6.798   5.749   5.014
 7341SOL    HW122922   6.705   5.787   5.019
 7341SOL    HW222923   6.812   5.687   5.091
 7342SOL     OW22924   1.474   5.109   1.329
 7342SOL    HW122925   1.491   5.207   1.314
 7342SOL    HW222926   1.544   5.056   1.282
 7343SOL     OW22927   5.208   2.658   3.308
 7343SOL    HW122928   5.138   2.604   3.356
 7343SOL    HW222929   5.215   2.748   3.349
 7344SOL     OW22930   2.417   1.153   0.007
 7344SOL    HW122931   2.328   1.168   0.051
 7344SOL    HW222932   2.410   1.177   6.933
 7345SOL     OW22933   2.871   5.568   0.438
 7345SOL    HW122934   2.847   5.501   0.367
 7345SOL    HW222935   2.794   5.578   0.502
 7346SOL     OW22936   3.646   4.927   1.626
 7346SOL    HW122937   3.548   4.942   1.610
 7346SOL    HW222938   3.697   4.960   1.547
 7347SOL     OW22939   6.659   3.287   2.277
 7347SOL    HW122940   6.627   3.344   2.353
 7347SOL    HW222941   6.584   3.229   2.246
 7348SOL     OW22942   0.429   1.446   4.888
 7348SOL    HW122943   0.449   1.349   4.871
 7348SOL    HW222944   0.514   1.493   4.911
 7349SOL     OW22945   3.930   1.383   0.690
 7349SOL    HW122946   3.971   1.440   0.761
 7349SOL    HW222947   3.893   1.300   0.731
 7350SOL     OW22948   2.133   1.074   2.760
 7350SOL    HW122949   2.121   1.100   2.664
 7350SOL    HW222950   2.069   1.126   2.816
 7351SOL     OW22951   4.870   4.819   0.521
 7351SOL    HW122952   4.832   4.859   0.438
 7351SOL    HW222953   4.798   4.774   0.573
 7352SOL     OW22954   6.391   1.081   3.170
 7352SOL    HW122955   6.413   0.995   3.122
 7352SOL    HW222956   6.292   1.092   3.174
 7353SOL     OW22957   5.276   2.101   4.482
 7353SOL    HW122958   5.282   2.129   4.386
 7353SOL    HW222959   5.359   2.051   4.508
 7354SOL     OW22960   6.515   4.346   5.142
 7354SOL    HW122961   6.600   4.298   5.119
 7354SOL    HW222962   6.537   4.432   5.189
 7355SOL     OW22963   1.280   4.307   1.103
 7355SOL    HW122964   1.220   4.350   1.035
 7355SOL    HW222965   1.339   4.377   1.144
 7356SOL     OW22966   6.803   1.756   5.823
 7356SOL    HW122967   6.753   1.833   5.782
 7356SOL    HW222968   6.895   1.785   5.846
 7357SOL     OW22969   0.536   1.853   0.413
 7357SOL    HW122970   0.514   1.772   0.360
 7357SOL    HW222971   0.576   1.826   0.500
 7358SOL     OW22972   3.375   0.462   3.825
 7358SOL    HW122973   3.436   0.384   3.817
 7358SOL    HW222974   3.370   0.510   3.737
 7359SOL     OW22975   3.165   3.006   2.963
 7359SOL    HW122976   3.124   3.074   3.024
 7359SOL    HW222977   3.262   2.995   2.986
 7360SOL     OW22978   0.304   3.130   5.731
 7360SOL    HW122979   0.324   3.037   5.700
 7360SOL    HW222980   0.383   3.165   5.782
 7361SOL     OW22981   5.111   7.018   1.838
 7361SOL    HW122982   5.187   6.953   1.842
 7361SOL    HW222983   5.111   0.052   1.920
 7362SOL     OW22984   1.920   6.792   6.166
 7362SOL    HW122985   1.967   6.825   6.248
 7362SOL    HW222986   1.987   6.750   6.105
 7363SOL     OW22987   5.406   3.008   6.114
 7363SOL    HW122988   5.484   2.945   6.120
 7363SOL    HW222989   5.438   3.100   6.091
 7364SOL     OW22990   5.322   0.741   1.335
 7364SOL    HW122991   5.337   0.837   1.359
 7364SOL    HW222992   5.238   0.709   1.380
 7365SOL     OW22993   3.439   0.443   1.808
 7365SOL    HW122994   3.399   0.359   1.772
 7365SOL    HW222995   3.369   0.494   1.859
 7366SOL     OW22996   0.988   5.388   7.007
 7366SOL    HW122997   0.936   5.389   0.070
 7366SOL    HW222998   0.942   5.447   6.940
 7367SOL     OW22999   4.906   3.488   6.661
 7367SOL    HW123000   4.941   3.418   6.722
 7367SOL    HW223001   4.963   3.493   6.579
 7368SOL     OW23002   2.912   3.427   3.646
 7368SOL    HW123003   2.947   3.334   3.635
 7368SOL    HW223004   2.904   3.448   3.743
 7369SOL     OW23005   4.958   2.225   6.359
 7369SOL    HW123006   4.903   2.206   6.441
 7369SOL    HW223007   4.932   2.314   6.321
 7370SOL     OW23008   1.743   5.686   1.116
 7370SOL    HW123009   1.751   5.722   1.023
 7370SOL    HW223010   1.819   5.721   1.172
 7371SOL     OW23011   2.244   5.199   4.240
 7371SOL    HW123012   2.188   5.147   4.304
 7371SOL    HW223013   2.338   5.162   4.241
 7372SOL     OW23014   3.236   6.200   5.726
 7372SOL    HW123015   3.188   6.170   5.809
 7372SOL    HW223016   3.312   6.138   5.708
 7373SOL     OW23017   3.663   0.491   1.645
 7373SOL    HW123018   3.572   0.465   1.678
 7373SOL    HW223019   3.691   0.576   1.690
 7374SOL     OW23020   2.217   3.964   6.586
 7374SOL    HW123021   2.161   4.044   6.564
 7374SOL    HW223022   2.166   3.902   6.644
 7375SOL     OW23023   1.638   6.569   3.097
 7375SOL    HW123024   1.573   6.644   3.104
 7375SOL    HW223025   1.677   6.550   3.187
 7376SOL     OW23026   2.748   3.926   5.524
 7376SOL    HW123027   2.719   3.901   5.432
 7376SOL    HW223028   2.817   3.861   5.556
 7377SOL     OW23029   4.747   5.041   1.530
 7377SOL    HW123030   4.835   5.049   1.483
 7377SOL    HW223031   4.681   4.995   1.470
 7378SOL     OW23032   6.953   2.384   5.894
 7378SOL    HW123033   0.030   2.383   5.880
 7378SOL    HW223034   6.925   2.301   5.941
 7379SOL     OW23035   4.110   1.114   1.191
 7379SOL    HW123036   4.183   1.058   1.153
 7379SOL    HW223037   4.055   1.152   1.117
 7380SOL     OW23038   6.443   2.165   4.906
 7380SOL    HW123039   6.537   2.158   4.940
 7380SOL    HW223040   6.444   2.183   4.808
 7381SOL     OW23041   5.137   2.317   0.150
 7381SOL    HW123042   5.217   2.261   0.171
 7381SOL    HW223043   5.167   2.405   0.114
 7382SOL     OW23044   0.089   5.705   3.914
 7382SOL    HW123045   0.125   5.612   3.918
 7382SOL    HW223046   0.125   5.751   3.833
 7383SOL     OW23047   6.916   5.590   3.514
 7383SOL    HW123048   6.907   5.687   3.490
 7383SOL    HW223049   6.896   5.578   3.611
 7384SOL     OW23050   5.876   1.505   1.780
 7384SOL    HW123051   5.895   1.408   1.765
 7384SOL    HW223052   5.962   1.556   1.780
 7385SOL     OW23053   5.141   0.201   1.663
 7385SOL    HW123054   5.119   0.285   1.713
 7385SOL    HW223055   5.138   0.123   1.727
 7386SOL     OW23056   0.575   2.801   5.989
 7386SOL    HW123057   0.658   2.840   6.029
 7386SOL    HW223058   0.575   2.817   5.890
 7387SOL     OW23059   3.990   5.970   3.994
 7387SOL    HW123060   4.006   6.011   4.084
 7387SOL    HW223061   4.074   5.923   3.963
 7388SOL     OW23062   6.001   4.590   4.898
 7388SOL    HW123063   6.047   4.502   4.882
 7388SOL    HW223064   5.939   4.609   4.822
 7389SOL     OW23065   0.750   4.313   5.339
 7389SOL    HW123066   0.805   4.321   5.256
 7389SOL    HW223067   0.712   4.402   5.362
 7390SOL     OW23068   2.298   0.052   5.816
 7390SOL    HW123069   2.351   0.071   5.899
 7390SOL    HW223070   2.359   0.052   5.736
 7391SOL     OW23071   6.927   3.921   0.126
 7391SOL    HW123072   6.935   4.008   0.174
 7391SOL    HW223073   7.017   3.880   0.115
 7392SOL     OW23074   1.933   4.918   3.308
 7392SOL    HW123075   1.834   4.927   3.302
 7392SOL    HW223076   1.973   5.005   3.338
 7393SOL     OW23077   0.700   3.347   0.531
 7393SOL    HW123078   0.621   3.336   0.471
 7393SOL    HW223079   0.760   3.418   0.494
 7394SOL     OW23080   3.088   3.154   6.301
 7394SOL    HW123081   3.108   3.247   6.334
 7394SOL    HW223082   3.173   3.111   6.271
 7395SOL     OW23083   1.965   6.230   0.481
 7395SOL    HW123084   2.032   6.222   0.407
 7395SOL    HW223085   1.968   6.148   0.538
 7396SOL     OW23086   1.079   6.899   1.133
 7396SOL    HW123087   1.020   6.872   1.057
 7396SOL    HW223088   1.057   6.993   1.159
 7397SOL     OW23089   6.145   4.431   4.676
 7397SOL    HW123090   6.221   4.481   4.717
 7397SOL    HW223091   6.160   4.423   4.577
 7398SOL     OW23092   3.932   5.626   3.345
 7398SOL    HW123093   3.994   5.599   3.418
 7398SOL    HW223094   3.903   5.721   3.359
 7399SOL     OW23095   5.153   4.354   4.792
 7399SOL    HW123096   5.174   4.256   4.788
 7399SOL    HW223097   5.223   4.401   4.845
 7400SOL     OW23098   2.275   5.109   6.796
 7400SOL    HW123099   2.251   5.100   6.893
 7400SOL    HW223100   2.357   5.166   6.787
 7401SOL     OW23101   5.385   1.583   4.530
 7401SOL    HW123102   5.288   1.602   4.542
 7401SOL    HW223103   5.420   1.537   4.612
 7402SOL     OW23104   2.291   6.898   3.596
 7402SOL    HW123105   2.232   6.959   3.648
 7402SOL    HW223106   2.357   6.855   3.658
 7403SOL     OW23107   1.864   3.626   1.418
 7403SOL    HW123108   1.825   3.694   1.356
 7403SOL    HW223109   1.947   3.588   1.378
 7404SOL     OW23110   0.975   1.803   3.145
 7404SOL    HW123111   0.946   1.898   3.137
 7404SOL    HW223112   1.067   1.793   3.106
 7405SOL     OW23113   3.016   4.723   6.210
 7405SOL    HW123114   3.085   4.689   6.274
 7405SOL    HW223115   3.018   4.822   6.207
 7406SOL     OW23116   0.656   5.681   2.070
 7406SOL    HW123117   0.714   5.606   2.037
 7406SOL    HW223118   0.648   5.676   2.169
 7407SOL     OW23119   1.835   0.563   5.638
 7407SOL    HW123120   1.804   0.652   5.671
 7407SOL    HW223121   1.861   0.505   5.715
 7408SOL     OW23122   0.515   3.760   5.411
 7408SOL    HW123123   0.517   3.714   5.500
 7408SOL    HW223124   0.609   3.776   5.380
 7409SOL     OW23125   3.192   5.888   5.894
 7409SOL    HW123126   3.233   5.804   5.929
 7409SOL    HW223127   3.154   5.871   5.803
 7410SOL     OW23128   5.615   5.123   0.728
 7410SOL    HW123129   5.678   5.200   0.717
 7410SOL    HW223130   5.666   5.041   0.752
 7411SOL     OW23131   5.190   5.101   5.929
 7411SOL    HW123132   5.132   5.183   5.924
 7411SOL    HW223133   5.196   5.059   5.838
 7412SOL     OW23134   1.354   2.238   0.088
 7412SOL    HW123135   1.345   2.329   0.046
 7412SOL    HW223136   1.273   2.218   0.143
 7413SOL     OW23137   0.005   3.349   4.506
 7413SOL    HW123138   6.984   3.262   4.531
 7413SOL    HW223139   7.003   3.419   4.573
 7414SOL     OW23140   6.775   5.433   2.954
 7414SOL    HW123141   6.736   5.448   2.863
 7414SOL    HW223142   6.756   5.340   2.984
 7415SOL     OW23143   2.612   1.698   2.527
 7415SOL    HW123144   2.628   1.606   2.561
 7415SOL    HW223145   2.655   1.765   2.588
 7416SOL     OW23146   5.663   0.486   3.980
 7416SOL    HW123147   5.633   0.531   4.064
 7416SOL    HW223148   5.761   0.467   3.987
 7417SOL     OW23149   0.953   6.156   0.399
 7417SOL    HW123150   0.929   6.121   0.489
 7417SOL    HW223151   0.872   6.199   0.358
 7418SOL     OW23152   1.247   3.726   0.391
 7418SOL    HW123153   1.186   3.663   0.343
 7418SOL    HW223154   1.285   3.680   0.472
 7419SOL     OW23155   5.488   1.092   5.322
 7419SOL    HW123156   5.428   1.035   5.378
 7419SOL    HW223157   5.472   1.188   5.343
 7420SOL     OW23158   6.910   5.926   2.139
 7420SOL    HW123159   6.952   5.865   2.072
 7420SOL    HW223160   6.877   5.873   2.217
 7421SOL     OW23161   3.896   3.052   1.448
 7421SOL    HW123162   3.893   3.147   1.417
 7421SOL    HW223163   3.942   2.996   1.378
 7422SOL     OW23164   1.130   2.600   1.331
 7422SOL    HW123165   1.202   2.595   1.262
 7422SOL    HW223166   1.133   2.519   1.389
 7423SOL     OW23167   2.163   5.369   7.013
 7423SOL    HW123168   2.253   5.373   6.970
 7423SOL    HW223169   2.110   5.449   6.986
 7424SOL     OW23170   5.828   1.512   4.583
 7424SOL    HW123171   5.869   1.430   4.544
 7424SOL    HW223172   5.749   1.540   4.528
 7425SOL     OW23173   4.364   6.864   5.851
 7425SOL    HW123174   4.275   6.833   5.820
 7425SOL    HW223175   4.424   6.876   5.771
 7426SOL     OW23176   0.976   1.438   0.351
 7426SOL    HW123177   1.052   1.491   0.312
 7426SOL    HW223178   0.949   1.367   0.286
 7427SOL     OW23179   4.175   5.592   4.436
 7427SOL    HW123180   4.194   5.494   4.429
 7427SOL    HW223181   4.106   5.607   4.507
 7428SOL     OW23182   2.749   1.601   5.883
 7428SOL    HW123183   2.822   1.588   5.951
 7428SOL    HW223184   2.787   1.647   5.803
 7429SOL     OW23185   6.443   6.766   3.392
 7429SOL    HW123186   6.391   6.781   3.308
 7429SOL    HW223187   6.538   6.794   3.378
 7430SOL     OW23188   0.667   4.224   4.655
 7430SOL    HW123189   0.714   4.312   4.666
 7430SOL    HW223190   0.585   4.237   4.599
 7431SOL     OW23191   1.112   4.549   2.400
 7431SOL    HW123192   1.119   4.500   2.487
 7431SOL    HW223193   1.016   4.570   2.382
 7432SOL     OW23194   1.269   6.297   5.063
 7432SOL    HW123195   1.242   6.263   5.153
 7432SOL    HW223196   1.366   6.277   5.048
 7433SOL     OW23197   6.893   6.285   1.021
 7433SOL    HW123198   6.840   6.313   1.101
 7433SOL    HW223199   6.946   6.363   0.986
 7434SOL     OW23200   4.593   0.253   6.651
 7434SOL    HW123201   4.673   0.276   6.708
 7434SOL    HW223202   4.620   0.250   6.555
 7435SOL     OW23203   1.537   5.987   0.494
 7435SOL    HW123204   1.608   6.027   0.552
 7435SOL    HW223205   1.553   6.014   0.399
 7436SOL     OW23206   5.403   3.030   6.626
 7436SOL    HW123207   5.305   3.026   6.607
 7436SOL    HW223208   5.417   3.027   6.725
 7437SOL     OW23209   0.304   5.536   5.870
 7437SOL    HW123210   0.351   5.612   5.916
 7437SOL    HW223211   0.219   5.569   5.829
 7438SOL     OW23212   6.178   4.440   2.078
 7438SOL    HW123213   6.226   4.499   2.143
 7438SOL    HW223214   6.080   4.440   2.098
 7439SOL     OW23215   1.406   6.183   3.669
 7439SOL    HW123216   1.313   6.152   3.688
 7439SOL    HW223217   1.450   6.119   3.606
 7440SOL     OW23218   0.602   2.232   4.051
 7440SOL    HW123219   0.699   2.217   4.070
 7440SOL    HW223220   0.586   2.229   3.952
 7441SOL     OW23221   5.665   0.048   3.867
 7441SOL    HW123222   5.626   0.100   3.943
 7441SOL    HW223223   5.677   0.109   3.788
 7442SOL     OW23224   1.833   0.845   6.678
 7442SOL    HW123225   1.920   0.883   6.647
 7442SOL    HW223226   1.838   0.825   6.776
 7443SOL     OW23227   7.020   1.331   0.791
 7443SOL    HW123228   0.064   1.263   0.761
 7443SOL    HW223229   6.933   1.287   0.808
 7444SOL     OW23230   0.199   2.521   6.402
 7444SOL    HW123231   0.160   2.529   6.310
 7444SOL    HW223232   0.254   2.603   6.421
 7445SOL     OW23233   5.668   2.919   2.167
 7445SOL    HW123234   5.652   2.921   2.266
 7445SOL    HW223235   5.752   2.869   2.147
 7446SOL     OW23236   0.124   3.528   0.972
 7446SOL    HW123237   0.065   3.608   0.988
 7446SOL    HW223238   0.098   3.455   1.035
 7447SOL     OW23239   6.997   4.075   6.296
 7447SOL    HW123240   6.916   4.066   6.354
 7447SOL    HW223241   7.008   3.991   6.242
 7448SOL     OW23242   6.745   6.587   6.119
 7448SOL    HW123243   6.810   6.552   6.052
 7448SOL    HW223244   6.686   6.655   6.075
 7449SOL     OW23245   4.710   0.772   1.676
 7449SOL    HW123246   4.664   0.722   1.750
 7449SOL    HW223247   4.688   0.869   1.682
 7450SOL     OW23248   3.533   6.927   2.623
 7450SOL    HW123249   3.579   6.853   2.574
 7450SOL    HW223250   3.583   6.946   2.708
 7451SOL     OW23251   1.434   1.302   3.076
 7451SOL    HW123252   1.370   1.368   3.116
 7451SOL    HW223253   1.434   1.311   2.976
 7452SOL     OW23254   1.473   6.496   4.466
 7452SOL    HW123255   1.430   6.572   4.417
 7452SOL    HW223256   1.537   6.532   4.534
 7453SOL     OW23257   5.580   5.760   5.619
 7453SOL    HW123258   5.504   5.821   5.597
 7453SOL    HW223259   5.575   5.735   5.716
 7454SOL     OW23260   0.759   2.978   0.381
 7454SOL    HW123261   0.839   3.005   0.327
 7454SOL    HW223262   0.772   3.005   0.477
 7455SOL     OW23263   5.461   1.384   0.616
 7455SOL    HW123264   5.500   1.451   0.680
 7455SOL    HW223265   5.495   1.293   0.638
 7456SOL     OW23266   1.894   3.003   5.770
 7456SOL    HW123267   1.991   2.980   5.761
 7456SOL    HW223268   1.842   2.958   5.697
 7457SOL     OW23269   6.245   0.105   5.868
 7457SOL    HW123270   6.230   0.118   5.965
 7457SOL    HW223271   6.292   0.185   5.830
 7458SOL     OW23272   2.460   0.739   0.469
 7458SOL    HW123273   2.383   0.729   0.532
 7458SOL    HW223274   2.430   0.793   0.390
 7459SOL     OW23275   4.389   0.479   4.791
 7459SOL    HW123276   4.355   0.496   4.699
 7459SOL    HW223277   4.477   0.431   4.786
 7460SOL     OW23278   0.658   4.929   6.955
 7460SOL    HW123279   0.714   4.988   6.897
 7460SOL    HW223280   0.694   4.929   0.026
 7461SOL     OW23281   4.642   0.258   3.875
 7461SOL    HW123282   4.732   0.300   3.880
 7461SOL    HW223283   4.572   0.324   3.904
 7462SOL     OW23284   1.781   1.611   2.377
 7462SOL    HW123285   1.871   1.582   2.344
 7462SOL    HW223286   1.793   1.682   2.447
 7463SOL     OW23287   3.431   3.784   2.255
 7463SOL    HW123288   3.413   3.725   2.176
 7463SOL    HW223289   3.437   3.879   2.224
 7464SOL     OW23290   5.295   6.423   6.469
 7464SOL    HW123291   5.307   6.513   6.512
 7464SOL    HW223292   5.200   6.413   6.440
 7465SOL     OW23293   3.219   0.863   1.866
 7465SOL    HW123294   3.163   0.937   1.904
 7465SOL    HW223295   3.200   0.853   1.768
 7466SOL     OW23296   0.652   0.410   6.432
 7466SOL    HW123297   0.693   0.434   6.344
 7466SOL    HW223298   0.639   0.493   6.487
 7467SOL     OW23299   6.062   1.694   1.257
 7467SOL    HW123300   6.112   1.772   1.294
 7467SOL    HW223301   6.071   1.691   1.158
 7468SOL     OW23302   6.399   3.565   3.770
 7468SOL    HW123303   6.455   3.510   3.708
 7468SOL    HW223304   6.345   3.505   3.828
 7469SOL     OW23305   6.626   1.328   1.900
 7469SOL    HW123306   6.718   1.288   1.897
 7469SOL    HW223307   6.596   1.335   1.995
 7470SOL     OW23308   0.128   2.496   2.741
 7470SOL    HW123309   0.048   2.556   2.740
 7470SOL    HW223310   0.211   2.551   2.753
 7471SOL     OW23311   5.833   5.207   6.228
 7471SOL    HW123312   5.766   5.251   6.288
 7471SOL    HW223313   5.804   5.113   6.209
 7472SOL     OW23314   3.441   5.591   3.713
 7472SOL    HW123315   3.408   5.670   3.764
 7472SOL    HW223316   3.423   5.508   3.766
 7473SOL     OW23317   0.595   3.630   4.889
 7473SOL    HW123318   0.629   3.564   4.822
 7473SOL    HW223319   0.568   3.582   4.972
 7474SOL     OW23320   4.063   0.948   2.644
 7474SOL    HW123321   3.996   0.906   2.705
 7474SOL    HW223322   4.017   1.000   2.573
 7475SOL     OW23323   4.260   1.442   0.180
 7475SOL    HW123324   4.213   1.522   0.219
 7475SOL    HW223325   4.231   1.429   0.085
 7476SOL     OW23326   3.197   6.851   5.218
 7476SOL    HW123327   3.195   6.751   5.220
 7476SOL    HW223328   3.103   6.886   5.219
 7477SOL     OW23329   4.600   2.464   3.043
 7477SOL    HW123330   4.687   2.446   3.089
 7477SOL    HW223331   4.529   2.406   3.082
 7478SOL     OW23332   2.032   4.753   0.818
 7478SOL    HW123333   1.988   4.834   0.780
 7478SOL    HW223334   2.118   4.779   0.862
 7479SOL     OW23335   4.559   0.391   6.007
 7479SOL    HW123336   4.502   0.311   5.987
 7479SOL    HW223337   4.585   0.435   5.921
 7480SOL     OW23338   0.062   4.921   1.422
 7480SOL    HW123339   0.033   4.825   1.420
 7480SOL    HW223340   7.007   4.980   1.398
 7481SOL     OW23341   6.446   5.422   0.313
 7481SOL    HW123342   6.397   5.358   0.254
 7481SOL    HW223343   6.504   5.481   0.256
 7482SOL     OW23344   4.978   0.334   4.368
 7482SOL    HW123345   5.020   0.311   4.456
 7482SOL    HW223346   4.963   0.250   4.316
 7483SOL     OW23347   3.188   0.104   6.197
 7483SOL    HW123348   3.239   0.034   6.145
 7483SOL    HW223349   3.238   0.126   6.281
 7484SOL     OW23350   2.697   0.292   2.371
 7484SOL    HW123351   2.624   0.360   2.365
 7484SOL    HW223352   2.784   0.337   2.391
 7485SOL     OW23353   1.372   6.974   6.218
 7485SOL    HW123354   1.360   0.049   6.237
 7485SOL    HW223355   1.380   6.924   6.304
 7486SOL     OW23356   1.911   0.556   5.364
 7486SOL    HW123357   1.861   0.469   5.365
 7486SOL    HW223358   1.903   0.600   5.453
 7487SOL     OW23359   4.254   5.098   3.311
 7487SOL    HW123360   4.278   5.095   3.214
 7487SOL    HW223361   4.210   5.185   3.333
 7488SOL     OW23362   3.634   0.830   5.771
 7488SOL    HW123363   3.577   0.899   5.815
 7488SOL    HW223364   3.631   0.842   5.672
 7489SOL     OW23365   6.330   3.714   3.215
 7489SOL    HW123366   6.244   3.765   3.208
 7489SOL    HW223367   6.309   3.617   3.232
 7490SOL     OW23368   5.611   1.320   1.816
 7490SOL    HW123369   5.660   1.399   1.778
 7490SOL    HW223370   5.653   1.236   1.783
 7491SOL     OW23371   6.682   5.878   6.560
 7491SOL    HW123372   6.611   5.934   6.516
 7491SOL    HW223373   6.750   5.850   6.492
 7492SOL     OW23374   2.561   2.502   4.307
 7492SOL    HW123375   2.573   2.533   4.402
 7492SOL    HW223376   2.649   2.505   4.260
 7493SOL     OW23377   5.497   3.866   6.977
 7493SOL    HW123378   5.587   3.864   7.020
 7493SOL    HW223379   5.427   3.848   0.024
 7494SOL     OW23380   4.865   1.972   1.298
 7494SOL    HW123381   4.817   1.890   1.327
 7494SOL    HW223382   4.804   2.029   1.242
 7495SOL     OW23383   0.370   1.605   2.163
 7495SOL    HW123384   0.274   1.628   2.179
 7495SOL    HW223385   0.379   1.561   2.073
 7496SOL     OW23386   1.183   4.773   5.306
 7496SOL    HW123387   1.251   4.788   5.378
 7496SOL    HW223388   1.135   4.688   5.324
 7497SOL     OW23389   1.907   5.053   1.939
 7497SOL    HW123390   2.005   5.033   1.931
 7497SOL    HW223391   1.855   4.993   1.878
 7498SOL     OW23392   4.676   1.306   4.275
 7498SOL    HW123393   4.719   1.394   4.293
 7498SOL    HW223394   4.587   1.303   4.321
 7499SOL     OW23395   4.753   5.922   3.816
 7499SOL    HW123396   4.851   5.921   3.799
 7499SOL    HW223397   4.736   5.960   3.907
 7500SOL     OW23398   5.305   4.895   1.715
 7500SOL    HW123399   5.287   4.985   1.675
 7500SOL    HW223400   5.378   4.850   1.663
 7501SOL     OW23401   6.908   4.448   3.791
 7501SOL    HW123402   6.842   4.490   3.729
 7501SOL    HW223403   6.962   4.520   3.836
 7502SOL     OW23404   2.308   1.541   4.289
 7502SOL    HW123405   2.330   1.448   4.258
 7502SOL    HW223406   2.342   1.554   4.382
 7503SOL     OW23407   2.558   2.635   6.418
 7503SOL    HW123408   2.483   2.600   6.362
 7503SOL    HW223409   2.624   2.683   6.359
 7504SOL     OW23410   4.246   5.731   3.949
 7504SOL    HW123411   4.180   5.719   4.023
 7504SOL    HW223412   4.199   5.767   3.868
 7505SOL     OW23413   1.561   1.758   4.792
 7505SOL    HW123414   1.553   1.732   4.888
 7505SOL    HW223415   1.543   1.856   4.783
 7506SOL     OW23416   4.275   1.573   3.584
 7506SOL    HW123417   4.223   1.654   3.611
 7506SOL    HW223418   4.338   1.548   3.658
 7507SOL     OW23419   1.506   6.336   5.859
 7507SOL    HW123420   1.563   6.417   5.847
 7507SOL    HW223421   1.484   6.297   5.770
 7508SOL     OW23422   4.556   0.093   4.129
 7508SOL    HW123423   4.521   0.003   4.105
 7508SOL    HW223424   4.583   0.142   4.046
 7509SOL     OW23425   4.824   3.387   5.826
 7509SOL    HW123426   4.752   3.383   5.895
 7509SOL    HW223427   4.807   3.317   5.756
 7510SOL     OW23428   3.770   3.990   4.823
 7510SOL    HW123429   3.770   3.895   4.790
 7510SOL    HW223430   3.799   3.991   4.919
 7511SOL     OW23431   1.234   1.147   2.488
 7511SOL    HW123432   1.177   1.080   2.441
 7511SOL    HW223433   1.290   1.101   2.557
 7512SOL     OW23434   2.399   2.766   1.911
 7512SOL    HW123435   2.375   2.847   1.857
 7512SOL    HW223436   2.482   2.725   1.873
 7513SOL     OW23437   1.257   2.974   6.775
 7513SOL    HW123438   1.179   2.912   6.781
 7513SOL    HW223439   1.226   3.065   6.746
 7514SOL     OW23440   2.562   6.385   3.385
 7514SOL    HW123441   2.596   6.324   3.457
 7514SOL    HW223442   2.464   6.400   3.398
 7515SOL     OW23443   6.345   5.229   2.949
 7515SOL    HW123444   6.374   5.324   2.968
 7515SOL    HW223445   6.252   5.229   2.914
 7516SOL     OW23446   0.958   0.816   3.221
 7516SOL    HW123447   1.053   0.801   3.249
 7516SOL    HW223448   0.956   0.886   3.150
 7517SOL     OW23449   0.561   4.191   1.495
 7517SOL    HW123450   0.517   4.159   1.580
 7517SOL    HW223451   0.526   4.138   1.418
 7518SOL     OW23452   5.019   6.121   3.231
 7518SOL    HW123453   5.044   6.070   3.149
 7518SOL    HW223454   5.089   6.106   3.301
 7519SOL     OW23455   2.223   5.743   3.664
 7519SOL    HW123456   2.216   5.677   3.739
 7519SOL    HW223457   2.138   5.742   3.611
 7520SOL     OW23458   2.160   0.154   4.381
 7520SOL    HW123459   2.119   0.063   4.380
 7520SOL    HW223460   2.091   0.222   4.357
 7521SOL     OW23461   5.311   4.305   5.921
 7521SOL    HW123462   5.257   4.280   6.001
 7521SOL    HW223463   5.266   4.380   5.872
 7522SOL     OW23464   1.838   0.690   1.929
 7522SOL    HW123465   1.814   0.644   1.843
 7522SOL    HW223466   1.802   0.783   1.928
 7523SOL     OW23467   5.991   6.857   6.734
 7523SOL    HW123468   5.924   6.899   6.795
 7523SOL    HW223469   6.081   6.898   6.750
 7524SOL     OW23470   6.610   1.248   4.178
 7524SOL    HW123471   6.566   1.241   4.088
 7524SOL    HW223472   6.618   1.344   4.204
 7525SOL     OW23473   1.873   6.574   0.915
 7525SOL    HW123474   1.905   6.633   0.989
 7525SOL    HW223475   1.799   6.516   0.949
 7526SOL     OW23476   3.605   3.056   5.304
 7526SOL    HW123477   3.528   3.095   5.253
 7526SOL    HW223478   3.651   2.987   5.248
 7527SOL     OW23479   5.656   4.625   2.149
 7527SOL    HW123480   5.600   4.605   2.069
 7527SOL    HW223481   5.648   4.551   2.216
 7528SOL     OW23482   6.151   3.929   5.957
 7528SOL    HW123483   6.138   3.974   6.046
 7528SOL    HW223484   6.221   3.978   5.905
 7529SOL     OW23485   2.923   0.276   5.553
 7529SOL    HW123486   2.856   0.202   5.553
 7529SOL    HW223487   2.876   0.364   5.545
 7530SOL     OW23488   0.285   3.312   2.294
 7530SOL    HW123489   0.286   3.404   2.333
 7530SOL    HW223490   0.201   3.300   2.240
 7531SOL     OW23491   3.205   1.978   3.308
 7531SOL    HW123492   3.264   2.028   3.373
 7531SOL    HW223493   3.183   2.038   3.231
 7532SOL     OW23494   5.042   4.717   2.115
 7532SOL    HW123495   4.943   4.719   2.101
 7532SOL    HW223496   5.078   4.632   2.077
 7533SOL     OW23497   3.485   0.120   4.427
 7533SOL    HW123498   3.576   0.079   4.431
 7533SOL    HW223499   3.490   0.216   4.454
 7534SOL     OW23500   5.088   0.035   4.607
 7534SOL    HW123501   5.145   0.109   4.572
 7534SOL    HW223502   5.032   0.068   4.683
 7535SOL     OW23503   3.174   3.675   6.532
 7535SOL    HW123504   3.266   3.687   6.495
 7535SOL    HW223505   3.108   3.725   6.475
 7536SOL     OW23506   3.956   6.176   3.713
 7536SOL    HW123507   4.031   6.236   3.685
 7536SOL    HW223508   3.971   6.146   3.808
 7537SOL     OW23509   2.200   4.914   5.855
 7537SOL    HW123510   2.229   4.825   5.820
 7537SOL    HW223511   2.124   4.902   5.918
 7538SOL     OW23512   3.544   3.285   2.806
 7538SOL    HW123513   3.507   3.242   2.724
 7538SOL    HW223514   3.644   3.282   2.803
 7539SOL     OW23515   2.157   2.468   4.856
 7539SOL    HW123516   2.253   2.495   4.846
 7539SOL    HW223517   2.145   2.422   4.944
 7540SOL     OW23518   1.927   1.239   0.545
 7540SOL    HW123519   1.843   1.249   0.492
 7540SOL    HW223520   1.925   1.301   0.624
 7541SOL     OW23521   6.611   2.681   5.548
 7541SOL    HW123522   6.661   2.766   5.537
 7541SOL    HW223523   6.513   2.700   5.557
 7542SOL     OW23524   1.862   7.000   6.610
 7542SOL    HW123525   1.803   6.956   6.678
 7542SOL    HW223526   1.811   7.014   6.526
 7543SOL     OW23527   4.050   3.044   7.002
 7543SOL    HW123528   4.147   3.070   7.006
 7543SOL    HW223529   4.016   3.029   0.073
 7544SOL     OW23530   1.950   1.926   3.125
 7544SOL    HW123531   2.048   1.944   3.133
 7544SOL    HW223532   1.929   1.835   3.162
 7545SOL     OW23533   5.554   0.143   4.080
 7545SOL    HW123534   5.522   0.226   4.126
 7545SOL    HW223535   5.490   0.069   4.097
 7546SOL     OW23536   4.776   0.594   6.640
 7546SOL    HW123537   4.821   0.677   6.673
 7546SOL    HW223538   4.708   0.565   6.706
 7547SOL     OW23539   3.151   0.112   0.386
 7547SOL    HW123540   3.140   0.175   0.309
 7547SOL    HW223541   3.184   0.024   0.352
 7548SOL     OW23542   1.392   2.629   1.715
 7548SOL    HW123543   1.489   2.637   1.738
 7548SOL    HW223544   1.368   2.532   1.708
 7549SOL     OW23545   6.179   2.163   2.173
 7549SOL    HW123546   6.104   2.099   2.159
 7549SOL    HW223547   6.142   2.252   2.200
 7550SOL     OW23548   1.819   4.954   0.910
 7550SOL    HW123549   1.732   4.918   0.877
 7550SOL    HW223550   1.807   5.048   0.942
 7551SOL     OW23551   4.656   3.957   6.310
 7551SOL    HW123552   4.737   3.943   6.367
 7551SOL    HW223553   4.677   3.932   6.215
 7552SOL     OW23554   3.420   5.390   3.914
 7552SOL    HW123555   3.456   5.403   4.006
 7552SOL    HW223556   3.320   5.384   3.918
 7553SOL     OW23557   4.417   4.480   5.872
 7553SOL    HW123558   4.393   4.533   5.953
 7553SOL    HW223559   4.452   4.391   5.900
 7554SOL     OW23560   6.455   1.060   1.186
 7554SOL    HW123561   6.521   1.126   1.150
 7554SOL    HW223562   6.499   1.000   1.252
 7555SOL     OW23563   0.688   5.911   5.779
 7555SOL    HW123564   0.759   5.931   5.847
 7555SOL    HW223565   0.710   5.827   5.731
 7556SOL     OW23566   6.740   3.092   4.310
 7556SOL    HW123567   6.676   3.140   4.370
 7556SOL    HW223568   6.833   3.098   4.348
 7557SOL     OW23569   4.550   3.956   0.023
 7557SOL    HW123570   4.548   4.044   0.071
 7557SOL    HW223571   4.551   3.972   6.947
 7558SOL     OW23572   1.749   3.274   4.105
 7558SOL    HW123573   1.773   3.338   4.032
 7558SOL    HW223574   1.724   3.326   4.187
 7559SOL     OW23575   0.671   4.913   0.751
 7559SOL    HW123576   0.758   4.887   0.708
 7559SOL    HW223577   0.611   4.833   0.755
 7560SOL     OW23578   4.264   6.800   6.435
 7560SOL    HW123579   4.266   6.853   6.520
 7560SOL    HW223580   4.185   6.827   6.380
 7561SOL     OW23581   0.788   3.054   1.001
 7561SOL    HW123582   0.720   3.108   1.051
 7561SOL    HW223583   0.749   3.022   0.915
 7562SOL     OW23584   4.931   5.426   5.526
 7562SOL    HW123585   4.972   5.487   5.458
 7562SOL    HW223586   4.867   5.363   5.482
 7563SOL     OW23587   2.033   1.099   2.494
 7563SOL    HW123588   2.080   1.164   2.434
 7563SOL    HW223589   2.006   1.019   2.441
 7564SOL     OW23590   5.170   6.335   3.963
 7564SOL    HW123591   5.227   6.275   3.906
 7564SOL    HW223592   5.184   6.313   4.059
 7565SOL     OW23593   4.644   4.404   0.838
 7565SOL    HW123594   4.556   4.359   0.851
 7565SOL    HW223595   4.629   4.501   0.821
 7566SOL     OW23596   1.623   5.718   4.823
 7566SOL    HW123597   1.560   5.690   4.896
 7566SOL    HW223598   1.641   5.816   4.830
 7567SOL     OW23599   2.791   3.218   0.289
 7567SOL    HW123600   2.701   3.249   0.261
 7567SOL    HW223601   2.861   3.272   0.242
 7568SOL     OW23602   5.160   4.743   3.031
 7568SOL    HW123603   5.214   4.803   3.090
 7568SOL    HW223604   5.118   4.796   2.958
 7569SOL     OW23605   3.915   0.088   0.892
 7569SOL    HW123606   3.994   0.037   0.926
 7569SOL    HW223607   3.855   0.111   0.968
 7570SOL     OW23608   6.081   4.850   4.885
 7570SOL    HW123609   6.010   4.906   4.926
 7570SOL    HW223610   6.059   4.753   4.897
 7571SOL     OW23611   5.066   4.007   1.673
 7571SOL    HW123612   5.019   3.955   1.745
 7571SOL    HW223613   4.999   4.063   1.624
 7572SOL     OW23614   2.085   2.191   4.234
 7572SOL    HW123615   2.036   2.220   4.316
 7572SOL    HW223616   2.115   2.097   4.245
 7573SOL     OW23617   2.502   5.858   5.227
 7573SOL    HW123618   2.475   5.872   5.131
 7573SOL    HW223619   2.524   5.762   5.242
 7574SOL     OW23620   4.837   5.943   2.846
 7574SOL    HW123621   4.738   5.934   2.862
 7574SOL    HW223622   4.858   5.916   2.752
 7575SOL     OW23623   4.387   2.302   4.887
 7575SOL    HW123624   4.368   2.354   4.804
 7575SOL    HW223625   4.316   2.321   4.955
 7576SOL     OW23626   6.253   3.442   1.292
 7576SOL    HW123627   6.301   3.503   1.229
 7576SOL    HW223628   6.311   3.365   1.315
 7577SOL     OW23629   4.673   0.579   5.186
 7577SOL    HW123630   4.647   0.675   5.175
 7577SOL    HW223631   4.599   0.520   5.154
 7578SOL     OW23632   2.702   4.709   4.480
 7578SOL    HW123633   2.683   4.708   4.578
 7578SOL    HW223634   2.667   4.625   4.438
 7579SOL     OW23635   4.397   1.942   3.326
 7579SOL    HW123636   4.432   2.035   3.329
 7579SOL    HW223637   4.395   1.904   3.419
 7580SOL     OW23638   1.999   3.948   3.451
 7580SOL    HW123639   1.922   3.887   3.434
 7580SOL    HW223640   1.965   4.040   3.469
 7581SOL     OW23641   5.907   0.384   1.207
 7581SOL    HW123642   5.961   0.468   1.208
 7581SOL    HW223643   5.967   0.306   1.226
 7582SOL     OW23644   2.894   1.341   1.208
 7582SOL    HW123645   2.948   1.306   1.285
 7582SOL    HW223646   2.914   1.287   1.127
 7583SOL     OW23647   0.332   3.579   2.361
 7583SOL    HW123648   0.423   3.550   2.389
 7583SOL    HW223649   0.303   3.657   2.415
 7584SOL     OW23650   2.159   1.311   1.343
 7584SOL    HW123651   2.184   1.407   1.354
 7584SOL    HW223652   2.181   1.282   1.250
 7585SOL     OW23653   1.578   5.252   5.819
 7585SOL    HW123654   1.536   5.224   5.905
 7585SOL    HW223655   1.637   5.331   5.834
 7586SOL     OW23656   2.100   1.263   1.919
 7586SOL    HW123657   2.104   1.280   1.820
 7586SOL    HW223658   2.120   1.167   1.936
 7587SOL     OW23659   2.332   0.969   6.171
 7587SOL    HW123660   2.297   1.046   6.118
 7587SOL    HW223661   2.354   0.893   6.110
 7588SOL     OW23662   0.501   4.005   1.311
 7588SOL    HW123663   0.482   3.943   1.387
 7588SOL    HW223664   0.415   4.031   1.267
 7589SOL     OW23665   5.486   6.039   0.294
 7589SOL    HW123666   5.507   5.944   0.319
 7589SOL    HW223667   5.568   6.095   0.304
 7590SOL     OW23668   2.026   1.001   6.099
 7590SOL    HW123669   2.018   0.937   6.023
 7590SOL    HW223670   2.086   1.077   6.073
 7591SOL     OW23671   6.761   4.971   0.490
 7591SOL    HW123672   6.790   4.937   0.580
 7591SOL    HW223673   6.842   4.989   0.434
 7592SOL     OW23674   5.128   5.657   0.554
 7592SOL    HW123675   5.068   5.655   0.634
 7592SOL    HW223676   5.098   5.729   0.492
 7593SOL     OW23677   5.989   2.949   6.421
 7593SOL    HW123678   6.089   2.952   6.429
 7593SOL    HW223679   5.953   2.871   6.471
 7594SOL     OW23680   1.278   6.068   4.089
 7594SOL    HW123681   1.305   5.991   4.032
 7594SOL    HW223682   1.260   6.035   4.182
 7595SOL     OW23683   6.409   2.628   0.103
 7595SOL    HW123684   6.422   2.529   0.098
 7595SOL    HW223685   6.384   2.653   0.197
 7596SOL     OW23686   5.163   4.490   2.019
 7596SOL    HW123687   5.165   4.460   1.924
 7596SOL    HW223688   5.114   4.423   2.075
 7597SOL     OW23689   2.915   5.447   1.798
 7597SOL    HW123690   3.014   5.431   1.797
 7597SOL    HW223691   2.897   5.540   1.830
 7598SOL     OW23692   6.306   0.694   3.283
 7598SOL    HW123693   6.354   0.758   3.224
 7598SOL    HW223694   6.315   0.601   3.247
 7599SOL     OW23695   6.430   2.188   2.089
 7599SOL    HW123696   6.336   2.165   2.115
 7599SOL    HW223697   6.485   2.104   2.087
 7600SOL     OW23698   2.261   2.040   1.472
 7600SOL    HW123699   2.271   2.126   1.523
 7600SOL    HW223700   2.342   1.983   1.487
 7601SOL     OW23701   2.447   6.500   5.173
 7601SOL    HW123702   2.505   6.552   5.110
 7601SOL    HW223703   2.419   6.414   5.131
 7602SOL     OW23704   2.191   3.439   4.965
 7602SOL    HW123705   2.218   3.357   5.016
 7602SOL    HW223706   2.107   3.421   4.915
 7603SOL     OW23707   0.882   0.432   1.993
 7603SOL    HW123708   0.810   0.474   2.049
 7603SOL    HW223709   0.845   0.412   1.902
 7604SOL     OW23710   4.773   6.290   6.435
 7604SOL    HW123711   4.761   6.301   6.337
 7604SOL    HW223712   4.748   6.197   6.461
 7605SOL     OW23713   5.738   4.491   5.955
 7605SOL    HW123714   5.727   4.471   5.857
 7605SOL    HW223715   5.673   4.437   6.008
 7606SOL     OW23716   5.602   1.774   2.229
 7606SOL    HW123717   5.639   1.866   2.219
 7606SOL    HW223718   5.573   1.759   2.324
 7607SOL     OW23719   5.287   6.532   6.904
 7607SOL    HW123720   5.346   6.606   6.869
 7607SOL    HW223721   5.244   6.561   6.989
 7608SOL     OW23722   3.310   2.977   3.364
 7608SOL    HW123723   3.343   2.974   3.270
 7608SOL    HW223724   3.212   3.000   3.364
 7609SOL     OW23725   1.472   3.166   4.291
 7609SOL    HW123726   1.496   3.070   4.296
 7609SOL    HW223727   1.381   3.176   4.250
 7610SOL     OW23728   5.017   0.262   1.427
 7610SOL    HW123729   5.074   0.304   1.356
 7610SOL    HW223730   5.070   0.252   1.511
 7611SOL     OW23731   1.922   1.914   1.268
 7611SOL    HW123732   1.993   1.983   1.256
 7611SOL    HW223733   1.960   1.824   1.246
 7612SOL     OW23734   4.193   1.350   2.682
 7612SOL    HW123735   4.223   1.272   2.738
 7612SOL    HW223736   4.165   1.318   2.592
 7613SOL     OW23737   4.624   1.328   2.157
 7613SOL    HW123738   4.694   1.356   2.223
 7613SOL    HW223739   4.667   1.311   2.069
 7614SOL     OW23740   4.215   1.937   0.350
 7614SOL    HW123741   4.278   1.980   0.286
 7614SOL    HW223742   4.192   2.001   0.423
 7615SOL     OW23743   3.514   5.208   5.492
 7615SOL    HW123744   3.508   5.239   5.587
 7615SOL    HW223745   3.610   5.195   5.467
 7616SOL     OW23746   6.074   5.182   3.946
 7616SOL    HW123747   6.164   5.143   3.927
 7616SOL    HW223748   6.004   5.114   3.924
 7617SOL     OW23749   3.449   5.852   2.442
 7617SOL    HW123750   3.466   5.945   2.410
 7617SOL    HW223751   3.360   5.848   2.489
 7618SOL     OW23752   1.473   2.592   0.777
 7618SOL    HW123753   1.524   2.648   0.842
 7618SOL    HW223754   1.377   2.620   0.777
 7619SOL     OW23755   5.584   3.191   5.993
 7619SOL    HW123756   5.652   3.252   6.034
 7619SOL    HW223757   5.627   3.135   5.922
 7620SOL     OW23758   3.068   6.613   1.529
 7620SOL    HW123759   2.984   6.579   1.489
 7620SOL    HW223760   3.146   6.564   1.489
 7621SOL     OW23761   2.567   1.434   1.772
 7621SOL    HW123762   2.556   1.498   1.848
 7621SOL    HW223763   2.652   1.383   1.784
 7622SOL     OW23764   4.426   2.471   0.521
 7622SOL    HW123765   4.350   2.516   0.567
 7622SOL    HW223766   4.393   2.433   0.434
 7623SOL     OW23767   5.121   0.759   5.462
 7623SOL    HW123768   5.063   0.700   5.406
 7623SOL    HW223769   5.064   0.803   5.532
 7624SOL     OW23770   0.205   0.421   4.033
 7624SOL    HW123771   0.217   0.372   4.119
 7624SOL    HW223772   0.108   0.431   4.013
 7625SOL     OW23773   4.326   0.265   1.322
 7625SOL    HW123774   4.249   0.225   1.372
 7625SOL    HW223775   4.303   0.269   1.224
 7626SOL     OW23776   1.788   5.114   4.596
 7626SOL    HW123777   1.809   5.133   4.691
 7626SOL    HW223778   1.871   5.084   4.548
 7627SOL     OW23779   0.289   2.575   0.375
 7627SOL    HW123780   0.212   2.567   0.438
 7627SOL    HW223781   0.362   2.513   0.403
 7628SOL     OW23782   3.869   2.159   0.683
 7628SOL    HW123783   3.866   2.063   0.711
 7628SOL    HW223784   3.821   2.215   0.752
 7629SOL     OW23785   6.452   5.558   3.970
 7629SOL    HW123786   6.399   5.507   4.038
 7629SOL    HW223787   6.547   5.563   4.000
 7630SOL     OW23788   6.146   0.930   2.495
 7630SOL    HW123789   6.233   0.882   2.508
 7630SOL    HW223790   6.071   0.865   2.500
 7631SOL     OW23791   0.549   2.393   3.681
 7631SOL    HW123792   0.526   2.326   3.752
 7631SOL    HW223793   0.648   2.398   3.670
 7632SOL     OW23794   4.368   1.393   6.604
 7632SOL    HW123795   4.415   1.362   6.521
 7632SOL    HW223796   4.314   1.475   6.583
 7633SOL     OW23797   5.552   4.238   6.568
 7633SOL    HW123798   5.538   4.332   6.600
 7633SOL    HW223799   5.565   4.178   6.647
 7634SOL     OW23800   0.918   1.808   2.186
 7634SOL    HW123801   0.823   1.796   2.156
 7634SOL    HW223802   0.967   1.864   2.119
 7635SOL     OW23803   2.993   4.575   5.984
 7635SOL    HW123804   3.089   4.570   5.957
 7635SOL    HW223805   2.981   4.648   6.051
 7636SOL     OW23806   1.739   0.115   4.020
 7636SOL    HW123807   1.723   0.043   4.088
 7636SOL    HW223808   1.687   0.096   3.937
 7637SOL     OW23809   2.007   5.778   4.404
 7637SOL    HW123810   2.078   5.817   4.345
 7637SOL    HW223811   2.045   5.702   4.457
 7638SOL     OW23812   4.676   4.673   1.901
 7638SOL    HW123813   4.732   4.729   1.961
 7638SOL    HW223814   4.675   4.712   1.809
 7639SOL     OW23815   1.004   1.799   4.438
 7639SOL    HW123816   0.950   1.758   4.511
 7639SOL    HW223817   1.006   1.737   4.359
 7640SOL     OW23818   2.513   2.457   6.803
 7640SOL    HW123819   2.596   2.410   6.772
 7640SOL    HW223820   2.453   2.473   6.725
 7641SOL     OW23821   6.393   3.531   2.981
 7641SOL    HW123822   6.453   3.510   3.058
 7641SOL    HW223823   6.304   3.487   2.995
 7642SOL     OW23824   3.099   1.715   2.504
 7642SOL    HW123825   3.013   1.723   2.555
 7642SOL    HW223826   3.145   1.804   2.504
 7643SOL     OW23827   4.848   2.974   2.834
 7643SOL    HW123828   4.928   3.019   2.873
 7643SOL    HW223829   4.835   2.885   2.878
 7644SOL     OW23830   0.144   3.412   3.569
 7644SOL    HW123831   0.067   3.353   3.546
 7644SOL    HW223832   0.229   3.371   3.536
 7645SOL     OW23833   4.754   4.046   6.664
 7645SOL    HW123834   4.660   4.061   6.636
 7645SOL    HW223835   4.802   3.992   6.596
 7646SOL     OW23836   1.415   2.066   2.322
 7646SOL    HW123837   1.482   2.125   2.277
 7646SOL    HW223838   1.374   2.005   2.255
 7647SOL     OW23839   2.143   4.145   1.556
 7647SOL    HW123840   2.050   4.109   1.547
 7647SOL    HW223841   2.201   4.105   1.485
 7648SOL     OW23842   4.187   0.567   3.283
 7648SOL    HW123843   4.101   0.583   3.333
 7648SOL    HW223844   4.242   0.650   3.286
 7649SOL     OW23845   2.714   1.020   1.339
 7649SOL    HW123846   2.631   1.073   1.321
 7649SOL    HW223847   2.689   0.927   1.367
 7650SOL     OW23848   6.128   4.748   2.810
 7650SOL    HW123849   6.132   4.812   2.886
 7650SOL    HW223850   6.160   4.658   2.840
 7651SOL     OW23851   3.902   1.492   6.319
 7651SOL    HW123852   3.877   1.436   6.240
 7651SOL    HW223853   3.954   1.571   6.287
 7652SOL     OW23854   0.693   2.932   2.512
 7652SOL    HW123855   0.763   2.951   2.443
 7652SOL    HW223856   0.720   2.854   2.568
 7653SOL     OW23857   3.195   2.287   1.443
 7653SOL    HW123858   3.156   2.294   1.535
 7653SOL    HW223859   3.294   2.278   1.450
 7654SOL     OW23860   4.922   3.785   3.670
 7654SOL    HW123861   4.886   3.695   3.644
 7654SOL    HW223862   4.846   3.848   3.683
 7655SOL     OW23863   4.535   6.371   5.511
 7655SOL    HW123864   4.436   6.365   5.505
 7655SOL    HW223865   4.561   6.441   5.578
 7656SOL     OW23866   1.128   6.018   5.051
 7656SOL    HW123867   1.043   6.030   5.000
 7656SOL    HW223868   1.192   6.091   5.026
 7657SOL     OW23869   4.282   1.097   4.284
 7657SOL    HW123870   4.341   1.076   4.205
 7657SOL    HW223871   4.305   1.036   4.360
 7658SOL     OW23872   4.075   0.540   6.191
 7658SOL    HW123873   4.008   0.609   6.166
 7658SOL    HW223874   4.163   0.584   6.212
 7659SOL     OW23875   5.777   6.885   0.644
 7659SOL    HW123876   5.691   6.856   0.602
 7659SOL    HW223877   5.852   6.872   0.579
 7660SOL     OW23878   5.633   4.607   4.227
 7660SOL    HW123879   5.534   4.602   4.244
 7660SOL    HW223880   5.651   4.598   4.129
 7661SOL     OW23881   5.542   3.395   3.004
 7661SOL    HW123882   5.481   3.358   2.934
 7661SOL    HW223883   5.566   3.489   2.981
 7662SOL     OW23884   0.080   5.415   1.979
 7662SOL    HW123885   0.070   5.317   1.967
 7662SOL    HW223886   0.112   5.457   1.893
 7663SOL     OW23887   0.129   5.497   0.474
 7663SOL    HW123888   0.034   5.494   0.443
 7663SOL    HW223889   0.148   5.419   0.533
 7664SOL     OW23890   2.027   5.476   4.299
 7664SOL    HW123891   2.062   5.392   4.340
 7664SOL    HW223892   2.090   5.508   4.228
 7665SOL     OW23893   2.602   6.403   4.884
 7665SOL    HW123894   2.668   6.339   4.924
 7665SOL    HW223895   2.650   6.486   4.855
 7666SOL     OW23896   1.114   1.177   1.091
 7666SOL    HW123897   1.116   1.139   1.184
 7666SOL    HW223898   1.147   1.108   1.026
 7667SOL     OW23899   5.065   5.507   6.372
 7667SOL    HW123900   4.997   5.441   6.402
 7667SOL    HW223901   5.157   5.473   6.396
 7668SOL     OW23902   3.085   3.885   1.521
 7668SOL    HW123903   3.068   3.788   1.504
 7668SOL    HW223904   3.003   3.937   1.498
 7669SOL     OW23905   4.961   6.465   4.422
 7669SOL    HW123906   4.901   6.405   4.369
 7669SOL    HW223907   5.056   6.434   4.411
 7670SOL     OW23908   2.239   4.808   0.974
 7670SOL    HW123909   2.238   4.753   1.057
 7670SOL    HW223910   2.332   4.811   0.937
 7671SOL     OW23911   5.958   2.356   4.487
 7671SOL    HW123912   5.981   2.434   4.429
 7671SOL    HW223913   6.016   2.356   4.568
 7672SOL     OW23914   5.564   0.873   2.329
 7672SOL    HW123915   5.646   0.885   2.273
 7672SOL    HW223916   5.484   0.902   2.277
 7673SOL     OW23917   0.555   4.800   1.040
 7673SOL    HW123918   0.582   4.711   1.077
 7673SOL    HW223919   0.636   4.858   1.031
 7674SOL     OW23920   6.521   0.677   4.932
 7674SOL    HW123921   6.498   0.665   5.029
 7674SOL    HW223922   6.597   0.616   4.909
 7675SOL     OW23923   4.626   6.782   3.691
 7675SOL    HW123924   4.674   6.749   3.773
 7675SOL    HW223925   4.587   6.704   3.642
 7676SOL     OW23926   1.959   6.890   0.889
 7676SOL    HW123927   2.048   6.855   0.859
 7676SOL    HW223928   1.936   6.972   0.838
 7677SOL     OW23929   2.008   2.923   3.064
 7677SOL    HW123930   1.990   3.021   3.074
 7677SOL    HW223931   1.950   2.872   3.128
 7678SOL     OW23932   5.624   0.032   6.926
 7678SOL    HW123933   5.649   6.959   6.908
 7678SOL    HW223934   5.611   0.044   0.002
 7679SOL     OW23935   0.872   5.089   5.217
 7679SOL    HW123936   0.884   5.161   5.286
 7679SOL    HW223937   0.919   5.116   5.133
 7680SOL     OW23938   4.279   1.951   6.776
 7680SOL    HW123939   4.255   1.989   6.686
 7680SOL    HW223940   4.271   1.851   6.772
 7681SOL     OW23941   3.043   1.664   0.136
 7681SOL    HW123942   2.977   1.678   0.061
 7681SOL    HW223943   3.088   1.576   0.124
 7682SOL     OW23944   3.443   6.822   1.102
 7682SOL    HW123945   3.414   6.823   1.006
 7682SOL    HW223946   3.391   6.891   1.153
 7683SOL     OW23947   5.405   1.762   3.307
 7683SOL    HW123948   5.388   1.673   3.264
 7683SOL    HW223949   5.483   1.806   3.262
 7684SOL     OW23950   4.025   1.999   5.976
 7684SOL    HW123951   4.116   1.957   5.969
 7684SOL    HW223952   4.011   2.034   6.068
 7685SOL     OW23953   3.477   3.449   0.852
 7685SOL    HW123954   3.402   3.467   0.788
 7685SOL    HW223955   3.551   3.402   0.803
 7686SOL     OW23956   3.207   0.139   3.876
 7686SOL    HW123957   3.202   0.088   3.963
 7686SOL    HW223958   3.285   0.202   3.880
 7687SOL     OW23959   4.486   5.088   5.243
 7687SOL    HW123960   4.518   5.106   5.150
 7687SOL    HW223961   4.412   5.021   5.241
 7688SOL     OW23962   7.018   6.475   3.990
 7688SOL    HW123963   0.029   6.551   4.045
 7688SOL    HW223964   0.056   6.397   4.000
 7689SOL     OW23965   3.918   6.497   4.363
 7689SOL    HW123966   3.916   6.588   4.322
 7689SOL    HW223967   3.871   6.432   4.303
 7690SOL     OW23968   0.305   5.857   3.436
 7690SOL    HW123969   0.252   5.920   3.493
 7690SOL    HW223970   0.272   5.863   3.341
 7691SOL     OW23971   5.267   4.097   4.734
 7691SOL    HW123972   5.240   4.006   4.766
 7691SOL    HW223973   5.357   4.120   4.770
 7692SOL     OW23974   2.068   6.588   1.940
 7692SOL    HW123975   1.969   6.578   1.951
 7692SOL    HW223976   2.098   6.536   1.860
 7693SOL     OW23977   5.445   1.655   6.605
 7693SOL    HW123978   5.409   1.562   6.595
 7693SOL    HW223979   5.527   1.654   6.662
 7694SOL     OW23980   0.094   4.985   4.420
 7694SOL    HW123981   0.038   5.013   4.342
 7694SOL    HW223982   0.191   4.991   4.396
 7695SOL     OW23983   4.296   0.423   6.905
 7695SOL    HW123984   4.264   0.337   6.945
 7695SOL    HW223985   4.326   0.407   6.811
 7696SOL     OW23986   0.605   2.841   5.718
 7696SOL    HW123987   0.508   2.825   5.701
 7696SOL    HW223988   0.627   2.936   5.699
 7697SOL     OW23989   3.924   1.790   1.589
 7697SOL    HW123990   3.930   1.694   1.563
 7697SOL    HW223991   3.847   1.832   1.542
 7698SOL     OW23992   6.916   3.230   5.629
 7698SOL    HW123993   6.841   3.296   5.621
 7698SOL    HW223994   6.952   3.230   5.722
 7699SOL     OW23995   2.252   4.924   0.080
 7699SOL    HW123996   2.342   4.927   0.124
 7699SOL    HW223997   2.229   4.830   0.056
 7700SOL     OW23998   5.020   6.454   5.139
 7700SOL    HW123999   4.961   6.506   5.078
 7700SOL    HW224000   5.114   6.458   5.106
 7701SOL     OW24001   5.893   1.577   5.025
 7701SOL    HW124002   5.878   1.658   5.082
 7701SOL    HW224003   5.975   1.529   5.055
 7702SOL     OW24004   2.407   6.488   6.358
 7702SOL    HW124005   2.495   6.441   6.360
 7702SOL    HW224006   2.379   6.511   6.452
 7703SOL     OW24007   0.121   1.856   6.622
 7703SOL    HW124008   0.216   1.825   6.623
 7703SOL    HW224009   0.096   1.883   6.529
 7704SOL     OW24010   4.590   4.357   0.145
 7704SOL    HW124011   4.649   4.311   0.212
 7704SOL    HW224012   4.506   4.304   0.133
 7705SOL     OW24013   3.217   5.177   4.843
 7705SOL    HW124014   3.272   5.195   4.924
 7705SOL    HW224015   3.121   5.197   4.862
 7706SOL     OW24016   6.903   1.031   4.835
 7706SOL    HW124017   6.833   0.992   4.775
 7706SOL    HW224018   6.930   0.963   4.903
 7707SOL     OW24019   0.241   4.881   5.954
 7707SOL    HW124020   0.314   4.834   5.904
 7707SOL    HW224021   0.278   4.916   6.040
 7708SOL     OW24022   4.444   6.891   5.031
 7708SOL    HW124023   4.398   6.975   5.060
 7708SOL    HW224024   4.474   6.901   4.936
 7709SOL     OW24025   3.909   2.140   1.812
 7709SOL    HW124026   3.836   2.165   1.875
 7709SOL    HW224027   3.869   2.114   1.723
 7710SOL     OW24028   2.844   1.683   6.963
 7710SOL    HW124029   2.801   1.773   6.964
 7710SOL    HW224030   2.925   1.685   6.904
 7711SOL     OW24031   5.865   6.542   6.028
 7711SOL    HW124032   5.907   6.632   6.023
 7711SOL    HW224033   5.795   6.542   6.099
 7712SOL     OW24034   5.535   5.584   1.057
 7712SOL    HW124035   5.581   5.654   1.111
 7712SOL    HW224036   5.516   5.505   1.115
 7713SOL     OW24037   1.509   4.677   6.641
 7713SOL    HW124038   1.455   4.595   6.623
 7713SOL    HW224039   1.504   4.700   6.739
 7714SOL     OW24040   5.155   4.435   3.682
 7714SOL    HW124041   5.198   4.351   3.718
 7714SOL    HW224042   5.194   4.514   3.728
 7715SOL     OW24043   4.583   1.545   0.998
 7715SOL    HW124044   4.577   1.609   1.075
 7715SOL    HW224045   4.567   1.594   0.912
 7716SOL     OW24046   4.373   2.329   3.121
 7716SOL    HW124047   4.297   2.388   3.094
 7716SOL    HW224048   4.364   2.240   3.076
 7717SOL     OW24049   3.761   1.207   6.414
 7717SOL    HW124050   3.765   1.306   6.407
 7717SOL    HW224051   3.813   1.165   6.339
 7718SOL     OW24052   2.985   5.914   3.762
 7718SOL    HW124053   3.040   5.869   3.833
 7718SOL    HW224054   2.904   5.955   3.803
 7719SOL     OW24055   6.372   1.885   4.645
 7719SOL    HW124056   6.318   1.968   4.653
 7719SOL    HW224057   6.342   1.819   4.714
 7720SOL     OW24058   5.791   5.872   1.560
 7720SOL    HW124059   5.707   5.905   1.517
 7720SOL    HW224060   5.771   5.842   1.653
 7721SOL     OW24061   1.480   4.431   2.641
 7721SOL    HW124062   1.439   4.374   2.713
 7721SOL    HW224063   1.579   4.431   2.650
 7722SOL     OW24064   6.977   5.113   4.234
 7722SOL    HW124065   6.878   5.102   4.236
 7722SOL    HW224066   7.004   5.187   4.297
 7723SOL     OW24067   6.523   3.190   0.303
 7723SOL    HW124068   6.567   3.132   0.235
 7723SOL    HW224069   6.439   3.229   0.265
 7724SOL     OW24070   1.970   4.604   1.053
 7724SOL    HW124071   2.022   4.661   0.989
 7724SOL    HW224072   1.911   4.662   1.109
 7725SOL     OW24073   4.915   3.339   4.693
 7725SOL    HW124074   4.892   3.413   4.756
 7725SOL    HW224075   4.888   3.364   4.600
 7726SOL     OW24076   6.741   4.580   3.640
 7726SOL    HW124077   6.747   4.673   3.604
 7726SOL    HW224078   6.650   4.543   3.623
 7727SOL     OW24079   6.750   2.565   1.727
 7727SOL    HW124080   6.695   2.588   1.807
 7727SOL    HW224081   6.746   2.466   1.711
 7728SOL     OW24082   2.571   2.182   2.696
 7728SOL    HW124083   2.645   2.191   2.630
 7728SOL    HW224084   2.532   2.272   2.716
 7729SOL     OW24085   5.433   2.084   0.666
 7729SOL    HW124086   5.479   2.169   0.641
 7729SOL    HW224087   5.334   2.096   0.657
 7730SOL     OW24088   5.232   0.774   2.081
 7730SOL    HW124089   5.151   0.771   2.022
 7730SOL    HW224090   5.256   0.682   2.110
 7731SOL     OW24091   6.236   1.238   6.317
 7731SOL    HW124092   6.288   1.322   6.336
 7731SOL    HW224093   6.155   1.260   6.264
 7732SOL     OW24094   4.340   4.924   0.816
 7732SOL    HW124095   4.371   4.834   0.787
 7732SOL    HW224096   4.403   4.994   0.784
 7733SOL     OW24097   3.255   7.000   2.190
 7733SOL    HW124098   3.283   6.926   2.250
 7733SOL    HW224099   3.300   0.062   2.218
 7734SOL     OW24100   1.522   1.602   3.446
 7734SOL    HW124101   1.543   1.550   3.363
 7734SOL    HW224102   1.479   1.689   3.422
 7735SOL     OW24103   5.255   4.118   0.372
 7735SOL    HW124104   5.255   4.203   0.319
 7735SOL    HW224105   5.192   4.053   0.330
 7736SOL     OW24106   6.400   4.620   6.360
 7736SOL    HW124107   6.423   4.605   6.264
 7736SOL    HW224108   6.471   4.677   6.402
 7737SOL     OW24109   5.027   1.208   0.614
 7737SOL    HW124110   5.085   1.242   0.540
 7737SOL    HW224111   4.967   1.281   0.645
 7738SOL     OW24112   2.660   5.045   6.695
 7738SOL    HW124113   2.727   4.985   6.739
 7738SOL    HW224114   2.707   5.111   6.637
 7739SOL     OW24115   6.394   3.149   1.636
 7739SOL    HW124116   6.313   3.108   1.595
 7739SOL    HW224117   6.402   3.120   1.732
 7740SOL     OW24118   0.419   6.851   3.221
 7740SOL    HW124119   0.506   6.818   3.185
 7740SOL    HW224120   0.392   6.794   3.299
 7741SOL     OW24121   2.718   5.775   4.469
 7741SOL    HW124122   2.772   5.845   4.422
 7741SOL    HW224123   2.777   5.721   4.529
 7742SOL     OW24124   6.254   0.840   3.747
 7742SOL    HW124125   6.351   0.827   3.765
 7742SOL    HW224126   6.228   0.792   3.663
 7743SOL     OW24127   4.534   2.525   2.784
 7743SOL    HW124128   4.543   2.514   2.883
 7743SOL    HW224129   4.625   2.533   2.743
 7744SOL     OW24130   6.906   0.197   5.038
 7744SOL    HW124131   6.937   0.113   5.082
 7744SOL    HW224132   6.963   0.217   4.959
 7745SOL     OW24133   4.618   3.653   5.553
 7745SOL    HW124134   4.682   3.633   5.628
 7745SOL    HW224135   4.556   3.575   5.541
 7746SOL     OW24136   1.852   0.953   0.593
 7746SOL    HW124137   1.818   0.948   0.686
 7746SOL    HW224138   1.886   1.046   0.576
 7747SOL     OW24139   5.864   5.703   0.879
 7747SOL    HW124140   5.927   5.706   0.802
 7747SOL    HW224141   5.775   5.668   0.849
 7748SOL     OW24142   3.418   3.518   0.073
 7748SOL    HW124143   3.414   3.504   6.997
 7748SOL    HW224144   3.497   3.470   0.111
 7749SOL     OW24145   5.883   3.219   6.116
 7749SOL    HW124146   5.908   3.143   6.056
 7749SOL    HW224147   5.899   3.194   6.211
 7750SOL     OW24148   5.977   4.654   2.621
 7750SOL    HW124149   5.879   4.668   2.636
 7750SOL    HW224150   6.029   4.703   2.692
 7751SOL     OW24151   0.304   2.624   2.439
 7751SOL    HW124152   0.362   2.590   2.513
 7751SOL    HW224153   0.261   2.547   2.392
 7752SOL     OW24154   4.769   1.986   3.344
 7752SOL    HW124155   4.717   2.065   3.310
 7752SOL    HW224156   4.849   2.018   3.395
 7753SOL     OW24157   3.037   1.804   4.884
 7753SOL    HW124158   3.009   1.890   4.925
 7753SOL    HW224159   3.067   1.820   4.789
 7754SOL     OW24160   5.270   6.479   2.472
 7754SOL    HW124161   5.362   6.465   2.437
 7754SOL    HW224162   5.203   6.450   2.403
 7755SOL     OW24163   0.679   5.034   4.146
 7755SOL    HW124164   0.726   4.960   4.194
 7755SOL    HW224165   0.604   5.068   4.202
 7756SOL     OW24166   2.737   5.030   2.120
 7756SOL    HW124167   2.730   4.979   2.035
 7756SOL    HW224168   2.773   4.971   2.192
 7757SOL     OW24169   0.458   4.231   1.922
 7757SOL    HW124170   0.407   4.190   1.846
 7757SOL    HW224171   0.463   4.330   1.910
 7758SOL     OW24172   1.399   1.457   5.127
 7758SOL    HW124173   1.318   1.515   5.143
 7758SOL    HW224174   1.396   1.378   5.189
 7759SOL     OW24175   3.170   2.158   1.098
 7759SOL    HW124176   3.109   2.194   1.028
 7759SOL    HW224177   3.254   2.213   1.101
 7760SOL     OW24178   5.036   3.084   7.003
 7760SOL    HW124179   5.021   2.989   6.975
 7760SOL    HW224180   5.112   3.088   0.045
 7761SOL     OW24181   4.725   5.663   3.911
 7761SOL    HW124182   4.803   5.602   3.899
 7761SOL    HW224183   4.740   5.748   3.860
 7762SOL     OW24184   5.835   1.683   2.030
 7762SOL    HW124185   5.742   1.649   2.040
 7762SOL    HW224186   5.876   1.645   1.947
 7763SOL     OW24187   2.501   0.361   4.042
 7763SOL    HW124188   2.580   0.301   4.045
 7763SOL    HW224189   2.459   0.366   4.133
 7764SOL     OW24190   2.146   3.970   5.868
 7764SOL    HW124191   2.206   3.905   5.821
 7764SOL    HW224192   2.051   3.952   5.843
 7765SOL     OW24193   5.556   3.153   4.799
 7765SOL    HW124194   5.504   3.235   4.821
 7765SOL    HW224195   5.548   3.087   4.873
 7766SOL     OW24196   6.282   4.139   6.618
 7766SOL    HW124197   6.292   4.144   6.519
 7766SOL    HW224198   6.211   4.202   6.648
 7767SOL     OW24199   3.385   0.554   4.083
 7767SOL    HW124200   3.378   0.651   4.057
 7767SOL    HW224201   3.385   0.498   4.001
 7768SOL     OW24202   3.958   5.431   3.781
 7768SOL    HW124203   3.887   5.496   3.807
 7768SOL    HW224204   4.024   5.420   3.855
 7769SOL     OW24205   3.998   2.589   5.686
 7769SOL    HW124206   3.999   2.593   5.586
 7769SOL    HW224207   3.971   2.678   5.723
 7770SOL     OW24208   1.857   2.884   4.220
 7770SOL    HW124209   1.775   2.919   4.174
 7770SOL    HW224210   1.937   2.901   4.162
 7771SOL     OW24211   2.328   3.474   6.596
 7771SOL    HW124212   2.229   3.488   6.603
 7771SOL    HW224213   2.357   3.489   6.501
 7772SOL     OW24214   5.684   6.813   2.046
 7772SOL    HW124215   5.676   6.829   1.948
 7772SOL    HW224216   5.595   6.787   2.084
 7773SOL     OW24217   2.827   6.100   0.188
 7773SOL    HW124218   2.759   6.070   0.256
 7773SOL    HW224219   2.889   6.166   0.231
 7774SOL     OW24220   4.604   1.249   2.631
 7774SOL    HW124221   4.511   1.225   2.602
 7774SOL    HW224222   4.655   1.284   2.552
 7775SOL     OW24223   2.620   1.994   1.619
 7775SOL    HW124224   2.630   2.048   1.536
 7775SOL    HW224225   2.623   1.897   1.596
 7776SOL     OW24226   2.038   1.289   4.295
 7776SOL    HW124227   2.009   1.200   4.259
 7776SOL    HW224228   1.980   1.361   4.256
 7777SOL     OW24229   5.750   5.967   3.937
 7777SOL    HW124230   5.812   5.958   3.859
 7777SOL    HW224231   5.704   5.880   3.953
 7778SOL     OW24232   6.975   4.653   3.100
 7778SOL    HW124233   6.890   4.660   3.152
 7778SOL    HW224234   0.027   4.695   3.152
 7779SOL     OW24235   4.678   6.001   2.040
 7779SOL    HW124236   4.651   6.095   2.058
 7779SOL    HW224237   4.639   5.941   2.110
 7780SOL     OW24238   5.930   6.305   5.211
 7780SOL    HW124239   5.939   6.381   5.275
 7780SOL    HW224240   6.021   6.273   5.184
 7781SOL     OW24241   1.653   2.722   0.935
 7781SOL    HW124242   1.667   2.647   1.000
 7781SOL    HW224243   1.656   2.809   0.984
 7782SOL     OW24244   5.224   2.951   4.859
 7782SOL    HW124245   5.323   2.952   4.874
 7782SOL    HW224246   5.185   3.037   4.891
 7783SOL     OW24247   1.744   6.298   4.532
 7783SOL    HW124248   1.780   6.391   4.525
 7783SOL    HW224249   1.707   6.270   4.443
 7784SOL     OW24250   1.664   2.218   1.707
 7784SOL    HW124251   1.711   2.290   1.656
 7784SOL    HW224252   1.662   2.134   1.653
 7785SOL     OW24253   6.724   6.415   3.371
 7785SOL    HW124254   6.713   6.402   3.273
 7785SOL    HW224255   6.776   6.339   3.410
 7786SOL     OW24256   4.256   1.120   5.542
 7786SOL    HW124257   4.330   1.186   5.547
 7786SOL    HW224258   4.294   1.028   5.530
 7787SOL     OW24259   2.638   2.361   1.848
 7787SOL    HW124260   2.660   2.390   1.755
 7787SOL    HW224261   2.717   2.377   1.907
 7788SOL     OW24262   0.312   4.821   1.386
 7788SOL    HW124263   0.371   4.883   1.335
 7788SOL    HW224264   0.221   4.862   1.397
 7789SOL     OW24265   3.343   1.215   5.764
 7789SOL    HW124266   3.390   1.273   5.697
 7789SOL    HW224267   3.269   1.165   5.719
 7790SOL     OW24268   4.263   4.653   1.413
 7790SOL    HW124269   4.285   4.665   1.510
 7790SOL    HW224270   4.189   4.716   1.387
 7791SOL     OW24271   2.932   5.703   2.818
 7791SOL    HW124272   2.876   5.657   2.887
 7791SOL    HW224273   2.985   5.634   2.768
 7792SOL     OW24274   0.642   1.594   3.282
 7792SOL    HW124275   0.593   1.645   3.211
 7792SOL    HW224276   0.740   1.591   3.260
 7793SOL     OW24277   5.029   0.519   0.480
 7793SOL    HW124278   4.992   0.427   0.487
 7793SOL    HW224279   5.002   0.573   0.560
 7794SOL     OW24280   0.871   7.009   3.105
 7794SOL    HW124281   0.899   6.945   3.034
 7794SOL    HW224282   0.816   0.060   3.063
 7795SOL     OW24283   3.252   4.496   0.499
 7795SOL    HW124284   3.275   4.457   0.410
 7795SOL    HW224285   3.180   4.566   0.487
 7796SOL     OW24286   3.246   2.649   0.229
 7796SOL    HW124287   3.281   2.709   0.157
 7796SOL    HW224288   3.321   2.595   0.267
 7797SOL     OW24289   0.848   6.005   3.268
 7797SOL    HW124290   0.845   6.080   3.333
 7797SOL    HW224291   0.764   5.951   3.276
 7798SOL     OW24292   1.271   3.568   0.690
 7798SOL    HW124293   1.358   3.616   0.676
 7798SOL    HW224294   1.227   3.602   0.773
 7799SOL     OW24295   3.103   6.054   3.563
 7799SOL    HW124296   3.072   5.993   3.636
 7799SOL    HW224297   3.037   6.053   3.488
 7800SOL     OW24298   0.540   6.613   2.123
 7800SOL    HW124299   0.451   6.659   2.120
 7800SOL    HW224300   0.594   6.649   2.199
 7801SOL     OW24301   1.278   1.888   2.157
 7801SOL    HW124302   1.292   1.878   2.058
 7801SOL    HW224303   1.187   1.926   2.174
 7802SOL     OW24304   6.646   3.562   4.470
 7802SOL    HW124305   6.709   3.624   4.517
 7802SOL    HW224306   6.644   3.585   4.373
 7803SOL     OW24307   3.029   2.405   5.640
 7803SOL    HW124308   2.972   2.331   5.674
 7803SOL    HW224309   3.076   2.375   5.557
 7804SOL     OW24310   3.324   2.010   4.996
 7804SOL    HW124311   3.263   2.044   4.924
 7804SOL    HW224312   3.417   2.041   4.978
 7805SOL     OW24313   5.422   3.020   6.909
 7805SOL    HW124314   5.372   2.960   6.971
 7805SOL    HW224315   5.515   3.033   6.944
 7806SOL     OW24316   6.853   1.436   6.096
 7806SOL    HW124317   6.878   1.340   6.091
 7806SOL    HW224318   6.784   1.457   6.027
 7807SOL     OW24319   2.000   4.974   6.029
 7807SOL    HW124320   2.041   5.054   5.984
 7807SOL    HW224321   2.000   4.988   6.128
 7808SOL     OW24322   6.893   3.643   3.395
 7808SOL    HW124323   6.956   3.591   3.337
 7808SOL    HW224324   6.800   3.609   3.381
 7809SOL     OW24325   4.897   5.458   2.449
 7809SOL    HW124326   4.953   5.450   2.531
 7809SOL    HW224327   4.914   5.546   2.405
 7810SOL     OW24328   2.716   6.483   6.274
 7810SOL    HW124329   2.754   6.574   6.260
 7810SOL    HW224330   2.688   6.445   6.185
 7811SOL     OW24331   1.568   6.079   3.094
 7811SOL    HW124332   1.557   6.151   3.026
 7811SOL    HW224333   1.478   6.051   3.128
 7812SOL     OW24334   2.991   1.122   6.327
 7812SOL    HW124335   3.005   1.197   6.392
 7812SOL    HW224336   2.903   1.134   6.281
 7813SOL     OW24337   5.248   0.287   0.829
 7813SOL    HW124338   5.324   0.278   0.764
 7813SOL    HW224339   5.221   0.382   0.837
 7814SOL     OW24340   6.188   2.938   2.567
 7814SOL    HW124341   6.113   3.000   2.590
 7814SOL    HW224342   6.259   2.988   2.518
 7815SOL     OW24343   5.260   4.706   4.808
 7815SOL    HW124344   5.213   4.789   4.775
 7815SOL    HW224345   5.197   4.629   4.802
 7816SOL     OW24346   0.283   1.431   5.440
 7816SOL    HW124347   0.203   1.429   5.499
 7816SOL    HW224348   0.347   1.359   5.468
 7817SOL     OW24349   4.081   2.711   6.964
 7817SOL    HW124350   4.117   2.765   0.017
 7817SOL    HW224351   4.095   2.614   6.981
 7818SOL     OW24352   5.998   0.682   3.387
 7818SOL    HW124353   5.937   0.607   3.414
 7818SOL    HW224354   5.943   0.761   3.358
 7819SOL     OW24355   1.489   3.082   4.633
 7819SOL    HW124356   1.560   3.150   4.649
 7819SOL    HW224357   1.501   3.042   4.542
 7820SOL     OW24358   1.249   0.818   4.920
 7820SOL    HW124359   1.157   0.827   4.956
 7820SOL    HW224360   1.292   0.908   4.913
 7821SOL     OW24361   3.910   6.169   0.261
 7821SOL    HW124362   3.999   6.186   0.219
 7821SOL    HW224363   3.863   6.096   0.211
 7822SOL     OW24364   0.142   1.115   4.753
 7822SOL    HW124365   0.044   1.098   4.753
 7822SOL    HW224366   0.179   1.101   4.845
 7823SOL     OW24367   2.604   3.541   5.330
 7823SOL    HW124368   2.505   3.536   5.348
 7823SOL    HW224369   2.651   3.472   5.385
 7824SOL     OW24370   5.127   3.540   2.650
 7824SOL    HW124371   5.158   3.610   2.714
 7824SOL    HW224372   5.047   3.493   2.688
 7825SOL     OW24373   3.471   3.215   2.507
 7825SOL    HW124374   3.564   3.201   2.539
 7825SOL    HW224375   3.443   3.138   2.450
 7826SOL     OW24376   6.509   0.533   1.474
 7826SOL    HW124377   6.467   0.605   1.419
 7826SOL    HW224378   6.523   0.567   1.567
 7827SOL     OW24379   4.556   3.488   0.661
 7827SOL    HW124380   4.521   3.543   0.585
 7827SOL    HW224381   4.586   3.399   0.627
 7828SOL     OW24382   0.315   5.853   0.416
 7828SOL    HW124383   0.325   5.755   0.397
 7828SOL    HW224384   0.338   5.871   0.512
 7829SOL     OW24385   4.116   3.257   3.079
 7829SOL    HW124386   4.172   3.242   2.997
 7829SOL    HW224387   4.043   3.189   3.082
 7830SOL     OW24388   5.766   3.981   0.328
 7830SOL    HW124389   5.803   3.972   0.421
 7830SOL    HW224390   5.667   3.990   0.333
 7831SOL     OW24391   1.741   2.618   6.745
 7831SOL    HW124392   1.750   2.660   6.654
 7831SOL    HW224393   1.715   2.687   6.812
 7832SOL     OW24394   2.423   2.538   4.911
 7832SOL    HW124395   2.466   2.456   4.873
 7832SOL    HW224396   2.420   2.531   5.010
 7833SOL     OW24397   0.878   6.784   0.972
 7833SOL    HW124398   0.869   6.818   0.879
 7833SOL    HW224399   0.866   6.685   0.973
 7834SOL     OW24400   6.769   0.243   1.514
 7834SOL    HW124401   6.741   0.276   1.604
 7834SOL    HW224402   6.793   0.321   1.456
 7835SOL     OW24403   2.776   2.045   4.426
 7835SOL    HW124404   2.794   2.038   4.524
 7835SOL    HW224405   2.739   1.958   4.392
 7836SOL     OW24406   2.080   0.912   6.643
 7836SOL    HW124407   2.079   0.827   6.590
 7836SOL    HW224408   2.082   0.990   6.582
 7837SOL     OW24409   4.742   6.222   2.875
 7837SOL    HW124410   4.799   6.165   2.815
 7837SOL    HW224411   4.651   6.232   2.834
 7838SOL     OW24412   3.266   6.549   4.087
 7838SOL    HW124413   3.226   6.478   4.029
 7838SOL    HW224414   3.292   6.628   4.032
 7839SOL     OW24415   7.002   4.690   3.877
 7839SOL    HW124416   6.953   4.718   3.959
 7839SOL    HW224417   0.058   4.750   3.862
 7840SOL     OW24418   5.081   2.887   5.640
 7840SOL    HW124419   5.168   2.839   5.629
 7840SOL    HW224420   5.066   2.906   5.737
 7841SOL     OW24421   1.374   1.618   6.519
 7841SOL    HW124422   1.328   1.529   6.517
 7841SOL    HW224423   1.369   1.661   6.429
 7842SOL     OW24424   2.887   0.607   2.038
 7842SOL    HW124425   2.822   0.562   1.977
 7842SOL    HW224426   2.980   0.578   2.016
 7843SOL     OW24427   6.717   3.243   1.238
 7843SOL    HW124428   6.789   3.233   1.306
 7843SOL    HW224429   6.631   3.267   1.284
 7844SOL     OW24430   3.496   1.330   4.085
 7844SOL    HW124431   3.533   1.292   4.169
 7844SOL    HW224432   3.567   1.335   4.016
 7845SOL     OW24433   0.986   0.864   3.818
 7845SOL    HW124434   0.918   0.860   3.892
 7845SOL    HW224435   1.014   0.958   3.804
 7846SOL     OW24436   3.596   6.473   2.193
 7846SOL    HW124437   3.502   6.440   2.192
 7846SOL    HW224438   3.600   6.561   2.240
 7847SOL     OW24439   6.966   0.767   0.212
 7847SOL    HW124440   0.015   0.700   0.233
 7847SOL    HW224441   6.944   0.762   0.114
 7848SOL     OW24442   4.421   4.275   0.764
 7848SOL    HW124443   4.378   4.281   0.675
 7848SOL    HW224444   4.363   4.223   0.826
 7849SOL     OW24445   5.695   4.075   5.074
 7849SOL    HW124446   5.738   3.996   5.031
 7849SOL    HW224447   5.759   4.152   5.074
 7850SOL     OW24448   0.641   1.350   4.504
 7850SOL    HW124449   0.668   1.326   4.411
 7850SOL    HW224450   0.547   1.384   4.504
 7851SOL     OW24451   4.330   0.033   0.676
 7851SOL    HW124452   4.350   6.959   0.658
 7851SOL    HW224453   4.345   0.053   0.773
 7852SOL     OW24454   1.707   6.840   6.758
 7852SOL    HW124455   1.634   6.793   6.709
 7852SOL    HW224456   1.789   6.783   6.758
 7853SOL     OW24457   1.966   2.913   1.017
 7853SOL    HW124458   1.958   2.880   0.922
 7853SOL    HW224459   1.875   2.931   1.053
 7854SOL     OW24460   3.617   4.143   2.995
 7854SOL    HW124461   3.715   4.123   2.994
 7854SOL    HW224462   3.589   4.173   2.904
 7855SOL     OW24463   3.716   0.025   5.533
 7855SOL    HW124464   3.746   0.108   5.485
 7855SOL    HW224465   3.794   6.985   5.541
 7856SOL     OW24466   4.189   3.573   6.145
 7856SOL    HW124467   4.254   3.505   6.178
 7856SOL    HW224468   4.172   3.559   6.048
 7857SOL     OW24469   0.840   2.222   4.517
 7857SOL    HW124470   0.825   2.318   4.540
 7857SOL    HW224471   0.753   2.173   4.523
 7858SOL     OW24472   6.462   4.364   3.124
 7858SOL    HW124473   6.398   4.369   3.200
 7858SOL    HW224474   6.556   4.360   3.158
 7859SOL     OW24475   0.836   5.970   6.655
 7859SOL    HW124476   0.866   5.911   6.730
 7859SOL    HW224477   0.748   5.938   6.621
 7860SOL     OW24478   3.399   6.967   1.658
 7860SOL    HW124479   3.400   6.875   1.697
 7860SOL    HW224480   3.375   0.011   1.729
 7861SOL     OW24481   5.911   4.312   0.540
 7861SOL    HW124482   5.819   4.319   0.502
 7861SOL    HW224483   5.905   4.277   0.634
 7862SOL     OW24484   3.362   4.505   1.426
 7862SOL    HW124485   3.302   4.433   1.459
 7862SOL    HW224486   3.458   4.481   1.445
 7863SOL     OW24487   5.838   5.670   2.591
 7863SOL    HW124488   5.888   5.755   2.579
 7863SOL    HW224489   5.902   5.594   2.599
 7864SOL     OW24490   0.752   5.692   4.302
 7864SOL    HW124491   0.721   5.637   4.225
 7864SOL    HW224492   0.816   5.762   4.269
 7865SOL     OW24493   3.667   0.809   2.695
 7865SOL    HW124494   3.632   0.753   2.619
 7865SOL    HW224495   3.602   0.882   2.715
 7866SOL     OW24496   2.486   2.379   3.982
 7866SOL    HW124497   2.483   2.466   3.933
 7866SOL    HW224498   2.407   2.373   4.043
 7867SOL     OW24499   5.828   3.864   2.295
 7867SOL    HW124500   5.774   3.780   2.298
 7867SOL    HW224501   5.846   3.889   2.200
 7868SOL     OW24502   5.539   6.798   1.022
 7868SOL    HW124503   5.440   6.804   1.006
 7868SOL    HW224504   5.560   6.830   1.114
 7869SOL     OW24505   6.452   2.030   3.622
 7869SOL    HW124506   6.517   1.961   3.653
 7869SOL    HW224507   6.490   2.077   3.543
 7870SOL     OW24508   0.013   6.794   3.105
 7870SOL    HW124509   0.093   6.735   3.096
 7870SOL    HW224510   0.006   6.829   3.198
 7871SOL     OW24511   5.671   3.187   3.777
 7871SOL    HW124512   5.761   3.223   3.751
 7871SOL    HW224513   5.607   3.262   3.788
 7872SOL     OW24514   6.700   3.281   3.940
 7872SOL    HW124515   6.694   3.287   3.841
 7872SOL    HW224516   6.612   3.248   3.977
 7873SOL     OW24517   6.877   5.271   5.221
 7873SOL    HW124518   6.798   5.238   5.170
 7873SOL    HW224519   6.940   5.196   5.238
 7874SOL     OW24520   6.080   1.203   0.585
 7874SOL    HW124521   6.036   1.292   0.599
 7874SOL    HW224522   6.074   1.149   0.669
 7875SOL     OW24523   4.491   3.581   6.650
 7875SOL    HW124524   4.458   3.561   6.742
 7875SOL    HW224525   4.507   3.679   6.641
 7876SOL     OW24526   6.558   0.463   4.605
 7876SOL    HW124527   6.539   0.560   4.586
 7876SOL    HW224528   6.608   0.455   4.691
 7877SOL     OW24529   6.525   2.542   2.609
 7877SOL    HW124530   6.486   2.480   2.541
 7877SOL    HW224531   6.537   2.633   2.569
 7878SOL     OW24532   4.678   4.200   1.223
 7878SOL    HW124533   4.741   4.267   1.264
 7878SOL    HW224534   4.730   4.132   1.172
 7879SOL     OW24535   5.360   0.912   5.498
 7879SOL    HW124536   5.407   0.893   5.584
 7879SOL    HW224537   5.278   0.855   5.491
 7880SOL     OW24538   0.781   6.880   6.104
 7880SOL    HW124539   0.748   6.943   6.034
 7880SOL    HW224540   0.791   6.789   6.063
 7881SOL     OW24541   0.714   5.344   3.496
 7881SOL    HW124542   0.646   5.270   3.499
 7881SOL    HW224543   0.737   5.371   3.589
 7882SOL     OW24544   0.831   4.408   1.954
 7882SOL    HW124545   0.797   4.498   1.927
 7882SOL    HW224546   0.869   4.413   2.046
 7883SOL     OW24547   3.607   2.150   3.520
 7883SOL    HW124548   3.658   2.225   3.562
 7883SOL    HW224549   3.671   2.088   3.474
 7884SOL     OW24550   0.880   3.739   4.651
 7884SOL    HW124551   0.842   3.826   4.684
 7884SOL    HW224552   0.942   3.756   4.575
 7885SOL     OW24553   5.328   5.280   3.391
 7885SOL    HW124554   5.358   5.328   3.309
 7885SOL    HW224555   5.260   5.211   3.366
 7886SOL     OW24556   4.989   3.298   3.093
 7886SOL    HW124557   4.989   3.373   3.159
 7886SOL    HW224558   4.922   3.229   3.121
 7887SOL     OW24559   2.139   2.551   1.567
 7887SOL    HW124560   2.188   2.623   1.617
 7887SOL    HW224561   2.189   2.530   1.482
 7888SOL     OW24562   6.074   0.864   4.818
 7888SOL    HW124563   6.022   0.933   4.869
 7888SOL    HW224564   6.172   0.878   4.835
 7889SOL     OW24565   5.750   4.702   0.012
 7889SOL    HW124566   5.693   4.766   0.063
 7889SOL    HW224567   5.846   4.715   0.037
 7890SOL     OW24568   2.103   3.362   4.437
 7890SOL    HW124569   2.154   3.307   4.502
 7890SOL    HW224570   2.094   3.313   4.351
 7891SOL     OW24571   6.369   1.843   4.148
 7891SOL    HW124572   6.272   1.827   4.165
 7891SOL    HW224573   6.405   1.908   4.214
 7892SOL     OW24574   0.814   1.530   5.195
 7892SOL    HW124575   0.746   1.553   5.125
 7892SOL    HW224576   0.900   1.505   5.150
 7893SOL     OW24577   5.389   0.384   6.996
 7893SOL    HW124578   5.379   0.433   0.060
 7893SOL    HW224579   5.482   0.393   6.962
 7894SOL     OW24580   3.404   1.755   6.141
 7894SOL    HW124581   3.438   1.802   6.223
 7894SOL    HW224582   3.481   1.731   6.082
 7895SOL     OW24583   5.580   6.713   2.887
 7895SOL    HW124584   5.620   6.776   2.953
 7895SOL    HW224585   5.649   6.650   2.853
 7896SOL     OW24586   2.466   2.105   0.863
 7896SOL    HW124587   2.444   2.184   0.920
 7896SOL    HW224588   2.454   2.021   0.915
 7897SOL     OW24589   3.509   2.669   0.774
 7897SOL    HW124590   3.414   2.660   0.803
 7897SOL    HW224591   3.549   2.750   0.818
 7898SOL     OW24592   5.615   6.723   3.440
 7898SOL    HW124593   5.555   6.707   3.362
 7898SOL    HW224594   5.560   6.745   3.521
 7899SOL     OW24595   6.361   4.321   4.170
 7899SOL    HW124596   6.419   4.293   4.094
 7899SOL    HW224597   6.411   4.387   4.227
 7900SOL     OW24598   1.056   3.472   1.284
 7900SOL    HW124599   1.095   3.455   1.194
 7900SOL    HW224600   1.073   3.567   1.311
 7901SOL     OW24601   0.432   1.832   6.608
 7901SOL    HW124602   0.522   1.871   6.626
 7901SOL    HW224603   0.425   1.809   6.510
 7902SOL     OW24604   1.369   6.960   2.513
 7902SOL    HW124605   1.451   6.996   2.468
 7902SOL    HW224606   1.300   0.010   2.519
 7903SOL     OW24607   2.274   2.092   5.322
 7903SOL    HW124608   2.189   2.128   5.283
 7903SOL    HW224609   2.349   2.112   5.259
 7904SOL     OW24610   4.581   1.701   2.730
 7904SOL    HW124611   4.514   1.632   2.702
 7904SOL    HW224612   4.661   1.696   2.670
 7905SOL     OW24613   4.928   1.738   0.828
 7905SOL    HW124614   4.972   1.688   0.754
 7905SOL    HW224615   4.942   1.690   0.914
 7906SOL     OW24616   1.196   5.342   0.692
 7906SOL    HW124617   1.194   5.300   0.601
 7906SOL    HW224618   1.110   5.390   0.708
 7907SOL     OW24619   6.026   6.974   2.866
 7907SOL    HW124620   6.021   6.879   2.836
 7907SOL    HW224621   6.117   7.010   2.850
 7908SOL     OW24622   0.687   0.222   6.607
 7908SOL    HW124623   0.705   0.286   6.533
 7908SOL    HW224624   0.649   0.138   6.570
 7909SOL     OW24625   5.758   4.054   2.458
 7909SOL    HW124626   5.732   4.131   2.400
 7909SOL    HW224627   5.784   3.977   2.400
 7910SOL     OW24628   0.556   3.789   6.531
 7910SOL    HW124629   0.529   3.884   6.546
 7910SOL    HW224630   0.501   3.750   6.457
 7911SOL     OW24631   0.186   4.233   6.380
 7911SOL    HW124632   0.105   4.194   6.337
 7911SOL    HW224633   0.268   4.208   6.328
 7912SOL     OW24634   6.636   5.113   1.186
 7912SOL    HW124635   6.549   5.069   1.208
 7912SOL    HW224636   6.642   5.201   1.234
 7913SOL     OW24637   1.365   4.680   0.813
 7913SOL    HW124638   1.419   4.709   0.734
 7913SOL    HW224639   1.398   4.729   0.894
 7914SOL     OW24640   0.026   6.924   4.920
 7914SOL    HW124641   0.064   6.992   4.858
 7914SOL    HW224642   0.076   6.925   5.006
 7915SOL     OW24643   3.736   5.549   2.856
 7915SOL    HW124644   3.789   5.628   2.826
 7915SOL    HW224645   3.772   5.517   2.944
 7916SOL     OW24646   0.736   0.054   4.583
 7916SOL    HW124647   0.731   0.147   4.547
 7916SOL    HW224648   0.754   7.013   4.509
 7917SOL     OW24649   3.823   2.819   1.228
 7917SOL    HW124650   3.905   2.875   1.215
 7917SOL    HW224651   3.820   2.786   1.322
 7918SOL     OW24652   2.127   2.320   3.727
 7918SOL    HW124653   2.206   2.278   3.771
 7918SOL    HW224654   2.153   2.351   3.635
 7919SOL     OW24655   1.537   6.281   5.029
 7919SOL    HW124656   1.605   6.215   5.062
 7919SOL    HW224657   1.562   6.311   4.937
 7920SOL     OW24658   4.878   0.508   1.023
 7920SOL    HW124659   4.828   0.592   1.043
 7920SOL    HW224660   4.813   0.437   0.996
 7921SOL     OW24661   5.987   2.642   0.997
 7921SOL    HW124662   5.891   2.670   0.990
 7921SOL    HW224663   5.994   2.556   1.047
 7922SOL     OW24664   2.525   6.191   1.713
 7922SOL    HW124665   2.475   6.266   1.756
 7922SOL    HW224666   2.604   6.167   1.771
 7923SOL     OW24667   5.140   0.949   0.336
 7923SOL    HW124668   5.112   0.945   0.241
 7923SOL    HW224669   5.201   1.027   0.350
 7924SOL     OW24670   6.442   6.281   0.485
 7924SOL    HW124671   6.506   6.205   0.475
 7924SOL    HW224672   6.388   6.290   0.401
 7925SOL     OW24673   1.760   5.517   6.676
 7925SOL    HW124674   1.695   5.448   6.646
 7925SOL    HW224675   1.834   5.524   6.609
 7926SOL     OW24676   4.955   5.784   0.114
 7926SOL    HW124677   5.009   5.810   0.195
 7926SOL    HW224678   4.908   5.698   0.132
 7927SOL     OW24679   4.262   6.924   2.480
 7927SOL    HW124680   4.273   6.993   2.408
 7927SOL    HW224681   4.339   6.929   2.543
 7928SOL     OW24682   5.519   2.134   3.591
 7928SOL    HW124683   5.524   2.201   3.517
 7928SOL    HW224684   5.469   2.053   3.559
 7929SOL     OW24685   4.270   4.298   6.394
 7929SOL    HW124686   4.350   4.273   6.339
 7929SOL    HW224687   4.204   4.224   6.392
 7930SOL     OW24688   4.379   6.096   6.223
 7930SOL    HW124689   4.397   6.185   6.182
 7930SOL    HW224690   4.429   6.025   6.173
 7931SOL     OW24691   4.386   2.483   0.918
 7931SOL    HW124692   4.388   2.541   0.999
 7931SOL    HW224693   4.480   2.463   0.889
 7932SOL     OW24694   1.676   3.998   2.114
 7932SOL    HW124695   1.663   3.899   2.116
 7932SOL    HW224696   1.592   4.044   2.145
 7933SOL     OW24697   0.817   2.028   6.623
 7933SOL    HW124698   0.881   2.043   6.547
 7933SOL    HW224699   0.795   1.931   6.630
 7934SOL     OW24700   0.957   5.617   0.936
 7934SOL    HW124701   0.958   5.699   0.878
 7934SOL    HW224702   0.920   5.640   1.026
 7935SOL     OW24703   5.051   3.096   2.932
 7935SOL    HW124704   5.050   3.018   2.994
 7935SOL    HW224705   5.046   3.181   2.985
 7936SOL     OW24706   2.787   5.807   3.528
 7936SOL    HW124707   2.731   5.730   3.560
 7936SOL    HW224708   2.883   5.792   3.554
 7937SOL     OW24709   3.057   0.575   6.883
 7937SOL    HW124710   3.024   0.659   6.839
 7937SOL    HW224711   3.028   0.573   6.978
 7938SOL     OW24712   2.563   6.648   4.171
 7938SOL    HW124713   2.642   6.643   4.110
 7938SOL    HW224714   2.558   6.738   4.213
 7939SOL     OW24715   0.599   1.437   3.695
 7939SOL    HW124716   0.686   1.388   3.686
 7939SOL    HW224717   0.586   1.497   3.616
 7940SOL     OW24718   5.397   1.158   3.840
 7940SOL    HW124719   5.401   1.250   3.877
 7940SOL    HW224720   5.442   1.094   3.902
 7941SOL     OW24721   3.661   6.968   0.991
 7941SOL    HW124722   3.632   0.011   0.921
 7941SOL    HW224723   3.583   6.911   1.017
 7942SOL     OW24724   1.320   5.177   0.464
 7942SOL    HW124725   1.332   5.214   0.372
 7942SOL    HW224726   1.395   5.115   0.485
 7943SOL     OW24727   1.316   6.251   6.075
 7943SOL    HW124728   1.375   6.197   6.015
 7943SOL    HW224729   1.312   6.345   6.041
 7944SOL     OW24730   1.652   2.608   1.782
 7944SOL    HW124731   1.746   2.636   1.766
 7944SOL    HW224732   1.649   2.539   1.855
 7945SOL     OW24733   6.252   4.393   3.639
 7945SOL    HW124734   6.172   4.422   3.691
 7945SOL    HW224735   6.282   4.304   3.671
 7946SOL     OW24736   3.977   0.917   6.499
 7946SOL    HW124737   3.965   0.971   6.416
 7946SOL    HW224738   3.917   0.953   6.571
 7947SOL     OW24739   0.069   3.663   6.453
 7947SOL    HW124740   0.101   3.575   6.487
 7947SOL    HW224741   0.097   3.675   6.358
 7948SOL     OW24742   1.764   5.320   2.941
 7948SOL    HW124743   1.835   5.254   2.968
 7948SOL    HW224744   1.802   5.385   2.875
 7949SOL     OW24745   3.294   5.944   6.787
 7949SOL    HW124746   3.229   6.005   6.740
 7949SOL    HW224747   3.283   5.851   6.752
 7950SOL     OW24748   5.806   4.516   5.455
 7950SOL    HW124749   5.787   4.420   5.475
 7950SOL    HW224750   5.869   4.552   5.524
 7951SOL     OW24751   4.241   5.771   2.494
 7951SOL    HW124752   4.334   5.800   2.472
 7951SOL    HW224753   4.177   5.808   2.426
 7952SOL     OW24754   6.132   4.565   6.339
 7952SOL    HW124755   6.227   4.595   6.342
 7952SOL    HW224756   6.091   4.573   6.430
 7953SOL     OW24757   1.971   6.929   0.528
 7953SOL    HW124758   2.030   6.901   0.604
 7953SOL    HW224759   1.966   0.006   0.525
 7954SOL     OW24760   4.271   4.249   6.784
 7954SOL    HW124761   4.198   4.206   6.731
 7954SOL    HW224762   4.322   4.312   6.725
 7955SOL     OW24763   1.734   1.611   6.745
 7955SOL    HW124764   1.815   1.627   6.801
 7955SOL    HW224765   1.677   1.693   6.743
 7956SOL     OW24766   6.667   6.408   0.612
 7956SOL    HW124767   6.632   6.464   0.688
 7956SOL    HW224768   6.592   6.355   0.573
 7957SOL     OW24769   4.832   1.242   5.755
 7957SOL    HW124770   4.741   1.224   5.718
 7957SOL    HW224771   4.842   1.195   5.843
 7958SOL     OW24772   5.654   2.623   0.224
 7958SOL    HW124773   5.719   2.562   0.270
 7958SOL    HW224774   5.572   2.571   0.198
 7959SOL     OW24775   6.238   1.920   6.621
 7959SOL    HW124776   6.200   2.009   6.646
 7959SOL    HW224777   6.338   1.924   6.625
 7960SOL     OW24778   0.299   0.951   5.431
 7960SOL    HW124779   0.395   0.968   5.451
 7960SOL    HW224780   0.291   0.896   5.347
 7961SOL     OW24781   6.360   6.099   0.093
 7961SOL    HW124782   6.299   6.063   0.021
 7961SOL    HW224783   6.317   6.179   0.135
 7962SOL     OW24784   5.630   6.833   5.470
 7962SOL    HW124785   5.701   6.844   5.400
 7962SOL    HW224786   5.607   6.923   5.507
 7963SOL     OW24787   6.663   6.708   4.066
 7963SOL    HW124788   6.728   6.771   4.107
 7963SOL    HW224789   6.682   6.615   4.098
 7964SOL     OW24790   6.980   3.886   2.077
 7964SOL    HW124791   7.011   3.855   1.987
 7964SOL    HW224792   6.906   3.952   2.066
 7965SOL     OW24793   4.260   2.764   5.984
 7965SOL    HW124794   4.185   2.809   6.034
 7965SOL    HW224795   4.252   2.665   5.996
 7966SOL     OW24796   4.943   3.724   4.818
 7966SOL    HW124797   5.041   3.713   4.835
 7966SOL    HW224798   4.891   3.678   4.890
 7967SOL     OW24799   1.598   4.030   1.428
 7967SOL    HW124800   1.692   4.064   1.430
 7967SOL    HW224801   1.534   4.106   1.433
 7968SOL     OW24802   0.443   2.734   4.874
 7968SOL    HW124803   0.513   2.697   4.936
 7968SOL    HW224804   0.354   2.731   4.919
 7969SOL     OW24805   4.202   5.890   6.476
 7969SOL    HW124806   4.190   5.990   6.478
 7969SOL    HW224807   4.125   5.847   6.524
 7970SOL     OW24808   6.077   2.838   3.222
 7970SOL    HW124809   6.170   2.815   3.192
 7970SOL    HW224810   6.016   2.762   3.202
 7971SOL     OW24811   2.572   1.606   0.051
 7971SOL    HW124812   2.512   1.675   0.094
 7971SOL    HW224813   2.660   1.605   0.098
 7972SOL     OW24814   3.910   3.980   3.949
 7972SOL    HW124815   3.946   3.949   4.037
 7972SOL    HW224816   3.850   3.911   3.911
 7973SOL     OW24817   6.346   4.427   2.591
 7973SOL    HW124818   6.251   4.408   2.614
 7973SOL    HW224819   6.380   4.502   2.648
 7974SOL     OW24820   6.911   2.797   5.975
 7974SOL    HW124821   6.850   2.875   5.983
 7974SOL    HW224822   6.895   2.751   5.887
 7975SOL     OW24823   5.676   0.018   0.853
 7975SOL    HW124824   5.578   7.022   0.861
 7975SOL    HW224825   5.710   7.001   0.768
 7976SOL     OW24826   0.847   0.606   0.871
 7976SOL    HW124827   0.828   0.524   0.924
 7976SOL    HW224828   0.885   0.677   0.930
 7977SOL     OW24829   5.439   5.878   3.874
 7977SOL    HW124830   5.384   5.881   3.791
 7977SOL    HW224831   5.387   5.835   3.948
 7978SOL     OW24832   0.126   4.316   1.500
 7978SOL    HW124833   0.138   4.290   1.404
 7978SOL    HW224834   0.194   4.385   1.525
 7979SOL     OW24835   1.930   2.257   4.781
 7979SOL    HW124836   1.874   2.255   4.865
 7979SOL    HW224837   2.024   2.279   4.805
 7980SOL     OW24838   4.102   5.629   0.172
 7980SOL    HW124839   4.198   5.637   0.200
 7980SOL    HW224840   4.094   5.648   0.074
 7981SOL     OW24841   1.630   4.734   3.828
 7981SOL    HW124842   1.545   4.784   3.808
 7981SOL    HW224843   1.637   4.655   3.768
 7982SOL     OW24844   6.223   1.187   5.592
 7982SOL    HW124845   6.206   1.165   5.688
 7982SOL    HW224846   6.148   1.153   5.535
 7983SOL     OW24847   4.652   0.587   1.881
 7983SOL    HW124848   4.673   0.558   1.974
 7983SOL    HW224849   4.563   0.549   1.853
 7984SOL     OW24850   0.575   2.287   3.031
 7984SOL    HW124851   0.484   2.285   3.072
 7984SOL    HW224852   0.607   2.381   3.024
 7985SOL     OW24853   2.826   2.973   5.686
 7985SOL    HW124854   2.807   2.903   5.755
 7985SOL    HW224855   2.740   3.010   5.652
 7986SOL     OW24856   3.626   0.802   4.087
 7986SOL    HW124857   3.691   0.841   4.023
 7986SOL    HW224858   3.533   0.815   4.053
 7987SOL     OW24859   0.969   3.701   0.134
 7987SOL    HW124860   0.946   3.647   0.053
 7987SOL    HW224861   0.886   3.725   0.183
 7988SOL     OW24862   6.529   1.116   2.270
 7988SOL    HW124863   6.620   1.134   2.307
 7988SOL    HW224864   6.535   1.046   2.199
 7989SOL     OW24865   0.273   4.511   0.969
 7989SOL    HW124866   0.350   4.452   0.948
 7989SOL    HW224867   0.202   4.500   0.899
 7990SOL     OW24868   4.799   6.044   5.290
 7990SOL    HW124869   4.796   6.135   5.249
 7990SOL    HW224870   4.745   6.043   5.374
 7991SOL     OW24871   5.870   0.821   5.154
 7991SOL    HW124872   5.850   0.916   5.177
 7991SOL    HW224873   5.828   0.799   5.066
 7992SOL     OW24874   2.410   6.751   6.836
 7992SOL    HW124875   2.470   6.673   6.849
 7992SOL    HW224876   2.448   6.831   6.881
 7993SOL     OW24877   6.219   5.829   0.423
 7993SOL    HW124878   6.213   5.792   0.330
 7993SOL    HW224879   6.177   5.920   0.425
 7994SOL     OW24880   5.926   7.017   3.933
 7994SOL    HW124881   5.950   6.923   3.907
 7994SOL    HW224882   5.829   0.011   3.911
 7995SOL     OW24883   0.627   5.026   1.468
 7995SOL    HW124884   0.591   5.024   1.375
 7995SOL    HW224885   0.610   4.938   1.512
 7996SOL     OW24886   3.083   6.998   3.102
 7996SOL    HW124887   3.001   0.024   3.071
 7996SOL    HW224888   3.143   0.039   3.151
 7997SOL     OW24889   1.427   1.462   6.102
 7997SOL    HW124890   1.525   1.484   6.103
 7997SOL    HW224891   1.414   1.369   6.138
 7998SOL     OW24892   2.189   0.903   0.463
 7998SOL    HW124893   2.162   0.830   0.400
 7998SOL    HW224894   2.202   0.988   0.411
 7999SOL     OW24895   1.013   0.267   4.491
 7999SOL    HW124896   1.082   0.326   4.532
 7999SOL    HW224897   0.989   0.194   4.555
 8000SOL     OW24898   4.008   5.219   0.381
 8000SOL    HW124899   4.092   5.267   0.407
 8000SOL    HW224900   3.929   5.271   0.413
 8001SOL     OW24901   4.155   5.842   0.985
 8001SOL    HW124902   4.234   5.784   1.008
 8001SOL    HW224903   4.102   5.860   1.068
 8002SOL     OW24904   1.084   0.022   5.742
 8002SOL    HW124905   1.033   0.092   5.691
 8002SOL    HW224906   1.182   0.046   5.742
 8003SOL     OW24907   2.346   5.413   2.357
 8003SOL    HW124908   2.319   5.500   2.314
 8003SOL    HW224909   2.446   5.405   2.355
 8004SOL     OW24910   0.933   2.878   3.952
 8004SOL    HW124911   0.861   2.829   3.903
 8004SOL    HW224912   0.914   2.875   4.050
 8005SOL     OW24913   2.348   0.512   2.942
 8005SOL    HW124914   2.387   0.447   2.877
 8005SOL    HW224915   2.393   0.503   3.031
 8006SOL     OW24916   3.664   4.824   5.244
 8006SOL    HW124917   3.616   4.737   5.231
 8006SOL    HW224918   3.679   4.839   5.342
 8007SOL     OW24919   6.953   0.721   0.640
 8007SOL    HW124920   6.926   0.728   0.736
 8007SOL    HW224921   6.921   0.634   0.603
 8008SOL     OW24922   5.539   6.331   0.147
 8008SOL    HW124923   5.475   6.349   0.222
 8008SOL    HW224924   5.631   6.361   0.173
 8009SOL     OW24925   5.357   1.321   6.872
 8009SOL    HW124926   5.374   1.404   6.925
 8009SOL    HW224927   5.284   1.268   6.916
 8010SOL     OW24928   3.075   0.620   5.742
 8010SOL    HW124929   3.021   0.690   5.789
 8010SOL    HW224930   3.058   0.531   5.784
 8011SOL     OW24931   3.848   2.102   3.374
 8011SOL    HW124932   3.787   2.058   3.308
 8011SOL    HW224933   3.925   2.143   3.326
 8012SOL     OW24934   6.110   1.774   4.274
 8012SOL    HW124935   6.050   1.739   4.202
 8012SOL    HW224936   6.077   1.864   4.304
 8013SOL     OW24937   3.273   1.307   2.210
 8013SOL    HW124938   3.288   1.232   2.145
 8013SOL    HW224939   3.185   1.294   2.256
 8014SOL     OW24940   2.072   2.256   2.759
 8014SOL    HW124941   2.118   2.231   2.674
 8014SOL    HW224942   2.130   2.234   2.837
 8015SOL     OW24943   3.423   6.996   5.197
 8015SOL    HW124944   3.338   6.943   5.190
 8015SOL    HW224945   3.420   0.050   5.132
 8016SOL     OW24946   3.579   2.104   4.967
 8016SOL    HW124947   3.564   2.114   5.066
 8016SOL    HW224948   3.676   2.116   4.947
 8017SOL     OW24949   6.516   5.973   0.778
 8017SOL    HW124950   6.571   5.904   0.731
 8017SOL    HW224951   6.571   6.018   0.848
 8018SOL     OW24952   4.180   2.192   6.873
 8018SOL    HW124953   4.254   2.258   6.884
 8018SOL    HW224954   4.209   2.119   6.812
 8019SOL     OW24955   2.718   3.455   0.966
 8019SOL    HW124956   2.767   3.518   1.026
 8019SOL    HW224957   2.769   3.443   0.881
 8020SOL     OW24958   0.743   0.835   5.381
 8020SOL    HW124959   0.760   0.867   5.288
 8020SOL    HW224960   0.743   0.735   5.382
 8021SOL     OW24961   1.290   2.257   1.263
 8021SOL    HW124962   1.284   2.159   1.244
 8021SOL    HW224963   1.258   2.308   1.183
 8022SOL     OW24964   4.754   1.028   2.074
 8022SOL    HW124965   4.779   0.932   2.060
 8022SOL    HW224966   4.669   1.047   2.024
 8023SOL     OW24967   4.950   5.951   1.305
 8023SOL    HW124968   5.039   5.979   1.341
 8023SOL    HW224969   4.909   5.883   1.366
 8024SOL     OW24970   2.603   1.297   6.596
 8024SOL    HW124971   2.548   1.326   6.517
 8024SOL    HW224972   2.620   1.376   6.655
 8025SOL     OW24973   1.260   5.700   1.784
 8025SOL    HW124974   1.174   5.689   1.834
 8025SOL    HW224975   1.241   5.718   1.688
 8026SOL     OW24976   0.463   6.392   6.542
 8026SOL    HW124977   0.510   6.330   6.606
 8026SOL    HW224978   0.394   6.340   6.491
 8027SOL     OW24979   3.485   0.835   6.799
 8027SOL    HW124980   3.465   0.914   6.857
 8027SOL    HW224981   3.429   0.757   6.826
 8028SOL     OW24982   3.062   5.621   5.252
 8028SOL    HW124983   3.105   5.535   5.281
 8028SOL    HW224984   3.067   5.628   5.152
 8029SOL     OW24985   0.712   0.124   0.153
 8029SOL    HW124986   0.646   0.150   0.082
 8029SOL    HW224987   0.741   0.206   0.202
 8030SOL     OW24988   0.841   4.267   0.882
 8030SOL    HW124989   0.847   4.225   0.792
 8030SOL    HW224990   0.892   4.212   0.948
 8031SOL     OW24991   0.071   0.391   3.416
 8031SOL    HW124992   0.115   0.475   3.447
 8031SOL    HW224993   0.004   0.413   3.346
 8032SOL     OW24994   6.850   2.863   1.191
 8032SOL    HW124995   6.885   2.938   1.136
 8032SOL    HW224996   6.922   2.795   1.205
 8033SOL     OW24997   4.471   3.978   1.193
 8033SOL    HW124998   4.382   3.980   1.239
 8033SOL    HW224999   4.504   4.071   1.180
 8034SOL     OW25000   6.313   0.187   6.117
 8034SOL    HW125001   6.377   0.143   6.181
 8034SOL    HW225002   6.348   0.278   6.093
 8035SOL     OW25003   6.191   1.443   3.114
 8035SOL    HW125004   6.129   1.366   3.129
 8035SOL    HW225005   6.282   1.419   3.149
 8036SOL     OW25006   5.265   2.750   4.477
 8036SOL    HW125007   5.312   2.816   4.535
 8036SOL    HW225008   5.273   2.778   4.382
 8037SOL     OW25009   1.995   1.856   5.724
 8037SOL    HW125010   2.058   1.787   5.759
 8037SOL    HW225011   1.903   1.838   5.759
 8038SOL     OW25012   0.044   5.115   2.004
 8038SOL    HW125013   0.003   5.101   2.094
 8038SOL    HW225014   6.994   5.121   1.935
 8039SOL     OW25015   1.361   2.261   5.387
 8039SOL    HW125016   1.322   2.350   5.409
 8039SOL    HW225017   1.340   2.238   5.292
 8040SOL     OW25018   1.544   5.053   6.734
 8040SOL    HW125019   1.487   5.074   6.813
 8040SOL    HW225020   1.494   4.994   6.671
 8041SOL     OW25021   3.412   1.546   2.924
 8041SOL    HW125022   3.457   1.554   3.012
 8041SOL    HW225023   3.438   1.460   2.880
 8042SOL     OW25024   4.235   4.267   5.746
 8042SOL    HW125025   4.144   4.262   5.786
 8042SOL    HW225026   4.292   4.330   5.799
 8043SOL     OW25027   4.852   5.655   6.512
 8043SOL    HW125028   4.873   5.590   6.439
 8043SOL    HW225029   4.848   5.748   6.474
 8044SOL     OW25030   2.684   3.332   1.830
 8044SOL    HW125031   2.585   3.345   1.831
 8044SOL    HW225032   2.730   3.416   1.860
 8045SOL     OW25033   6.777   2.763   3.779
 8045SOL    HW125034   6.698   2.704   3.763
 8045SOL    HW225035   6.835   2.722   3.849
 8046SOL     OW25036   6.815   4.732   2.224
 8046SOL    HW125037   6.851   4.647   2.264
 8046SOL    HW225038   6.780   4.791   2.298
 8047SOL     OW25039   3.128   6.032   7.009
 8047SOL    HW125040   3.179   5.991   6.934
 8047SOL    HW225041   3.045   5.980   0.003
 8048SOL     OW25042   3.809   2.492   6.119
 8048SOL    HW125043   3.819   2.443   6.206
 8048SOL    HW225044   3.829   2.430   6.043
 8049SOL     OW25045   1.812   2.080   0.811
 8049SOL    HW125046   1.807   2.135   0.895
 8049SOL    HW225047   1.813   2.140   0.732
 8050SOL     OW25048   0.945   5.136   5.611
 8050SOL    HW125049   0.922   5.143   5.708
 8050SOL    HW225050   0.994   5.218   5.582
 8051SOL     OW25051   4.526   6.508   3.557
 8051SOL    HW125052   4.623   6.525   3.536
 8051SOL    HW225053   4.472   6.521   3.474
 8052SOL     OW25054   3.172   1.624   2.239
 8052SOL    HW125055   3.261   1.580   2.247
 8052SOL    HW225056   3.142   1.657   2.329
 8053SOL     OW25057   2.317   2.483   6.603
 8053SOL    HW125058   2.344   2.494   6.508
 8053SOL    HW225059   2.218   2.484   6.610
 8054SOL     OW25060   4.806   3.266   5.211
 8054SOL    HW125061   4.745   3.345   5.210
 8054SOL    HW225062   4.774   3.200   5.279
 8055SOL     OW25063   5.891   0.901   0.136
 8055SOL    HW125064   5.833   0.822   0.156
 8055SOL    HW225065   5.952   0.879   0.060
 8056SOL     OW25066   2.499   0.630   3.964
 8056SOL    HW125067   2.561   0.649   3.888
 8056SOL    HW225068   2.501   0.532   3.985
 8057SOL     OW25069   2.969   2.082   1.901
 8057SOL    HW125070   2.918   2.165   1.922
 8057SOL    HW225071   2.912   2.020   1.847
 8058SOL     OW25072   3.475   6.754   2.086
 8058SOL    HW125073   3.526   6.776   2.003
 8058SOL    HW225074   3.387   6.715   2.063
 8059SOL     OW25075   3.150   2.426   5.885
 8059SOL    HW125076   3.234   2.372   5.872
 8059SOL    HW225077   3.100   2.430   5.799
 8060SOL     OW25078   6.384   0.771   6.408
 8060SOL    HW125079   6.347   0.732   6.492
 8060SOL    HW225080   6.309   0.789   6.344
 8061SOL     OW25081   0.410   0.314   2.548
 8061SOL    HW125082   0.316   0.334   2.520
 8061SOL    HW225083   0.425   0.346   2.641
 8062SOL     OW25084   4.112   5.674   5.457
 8062SOL    HW125085   4.192   5.678   5.397
 8062SOL    HW225086   4.090   5.766   5.488
 8063SOL     OW25087   3.387   4.864   2.773
 8063SOL    HW125088   3.397   4.775   2.727
 8063SOL    HW225089   3.315   4.917   2.728
 8064SOL     OW25090   6.417   2.100   0.220
 8064SOL    HW125091   6.490   2.159   0.253
 8064SOL    HW225092   6.453   2.037   0.151
 8065SOL     OW25093   4.181   5.798   6.223
 8065SOL    HW125094   4.169   5.868   6.153
 8065SOL    HW225095   4.174   5.840   6.314
 8066SOL     OW25096   0.375   6.894   5.639
 8066SOL    HW125097   0.342   6.967   5.579
 8066SOL    HW225098   0.420   6.823   5.583
 8067SOL     OW25099   4.915   2.296   3.483
 8067SOL    HW125100   4.884   2.254   3.569
 8067SOL    HW225101   4.953   2.225   3.423
 8068SOL     OW25102   5.896   4.000   1.462
 8068SOL    HW125103   5.897   4.014   1.363
 8068SOL    HW225104   5.815   3.946   1.487
 8069SOL     OW25105   2.250   4.672   3.184
 8069SOL    HW125106   2.214   4.673   3.277
 8069SOL    HW225107   2.177   4.649   3.119
 8070SOL     OW25108   4.596   4.553   0.553
 8070SOL    HW125109   4.539   4.485   0.506
 8070SOL    HW225110   4.686   4.557   0.509
 8071SOL     OW25111   2.427   0.209   6.051
 8071SOL    HW125112   2.467   0.133   6.103
 8071SOL    HW225113   2.362   0.258   6.109
 8072SOL     OW25114   2.250   1.516   5.610
 8072SOL    HW125115   2.168   1.485   5.659
 8072SOL    HW225116   2.248   1.616   5.601
 8073SOL     OW25117   4.626   0.894   6.489
 8073SOL    HW125118   4.537   0.936   6.468
 8073SOL    HW225119   4.661   0.848   6.407
 8074SOL     OW25120   1.722   1.008   6.433
 8074SOL    HW125121   1.756   0.966   6.349
 8074SOL    HW225122   1.761   0.960   6.512
 8075SOL     OW25123   0.079   6.935   1.055
 8075SOL    HW125124   0.059   6.848   1.011
 8075SOL    HW225125   0.134   6.920   1.137
 8076SOL     OW25126   0.032   6.360   0.322
 8076SOL    HW125127   0.039   6.387   0.225
 8076SOL    HW225128   0.124   6.353   0.361
 8077SOL     OW25129   4.875   4.480   0.507
 8077SOL    HW125130   4.924   4.454   0.424
 8077SOL    HW225131   4.842   4.397   0.553
 8078SOL     OW25132   0.269   1.430   1.536
 8078SOL    HW125133   0.170   1.418   1.532
 8078SOL    HW225134   0.304   1.395   1.623
 8079SOL     OW25135   1.717   1.205   5.813
 8079SOL    HW125136   1.714   1.185   5.911
 8079SOL    HW225137   1.638   1.165   5.767
 8080SOL     OW25138   0.924   3.242   3.107
 8080SOL    HW125139   0.844   3.226   3.049
 8080SOL    HW225140   1.003   3.194   3.069
 8081SOL     OW25141   5.517   6.153   4.993
 8081SOL    HW125142   5.535   6.211   5.072
 8081SOL    HW225143   5.424   6.117   4.999
 8082SOL     OW25144   3.944   1.576   3.301
 8082SOL    HW125145   3.940   1.501   3.367
 8082SOL    HW225146   3.902   1.657   3.340
 8083SOL     OW25147   5.706   2.254   4.471
 8083SOL    HW125148   5.803   2.277   4.463
 8083SOL    HW225149   5.696   2.167   4.519
 8084SOL     OW25150   3.641   1.467   6.029
 8084SOL    HW125151   3.580   1.413   6.087
 8084SOL    HW225152   3.735   1.436   6.041
 8085SOL     OW25153   1.852   6.107   4.671
 8085SOL    HW125154   1.952   6.106   4.676
 8085SOL    HW225155   1.822   6.183   4.614
 8086SOL     OW25156   6.857   0.578   2.142
 8086SOL    HW125157   6.793   0.639   2.095
 8086SOL    HW225158   6.864   0.492   2.091
 8087SOL     OW25159   0.950   0.776   0.141
 8087SOL    HW125160   0.928   0.760   0.237
 8087SOL    HW225161   1.007   0.701   0.107
 8088SOL     OW25162   6.387   0.169   5.032
 8088SOL    HW125163   6.448   0.119   5.093
 8088SOL    HW225164   6.399   0.267   5.046
 8089SOL     OW25165   6.725   2.056   5.847
 8089SOL    HW125166   6.661   2.012   5.911
 8089SOL    HW225167   6.794   2.107   5.899
 8090SOL     OW25168   4.142   2.058   5.159
 8090SOL    HW125169   4.114   2.060   5.063
 8090SOL    HW225170   4.094   1.985   5.206
 8091SOL     OW25171   1.661   5.145   3.931
 8091SOL    HW125172   1.691   5.189   4.016
 8091SOL    HW225173   1.708   5.057   3.921
 8092SOL     OW25174   4.840   1.827   6.230
 8092SOL    HW125175   4.936   1.846   6.209
 8092SOL    HW225176   4.827   1.826   6.329
 8093SOL     OW25177   3.677   5.746   2.537
 8093SOL    HW125178   3.615   5.809   2.490
 8093SOL    HW225179   3.654   5.745   2.635
 8094SOL     OW25180   1.845   4.424   4.187
 8094SOL    HW125181   1.931   4.407   4.234
 8094SOL    HW225182   1.831   4.355   4.115
 8095SOL     OW25183   1.584   5.015   5.441
 8095SOL    HW125184   1.526   5.015   5.522
 8095SOL    HW225185   1.647   4.937   5.445
 8096SOL     OW25186   1.443   6.311   0.928
 8096SOL    HW125187   1.405   6.341   0.841
 8096SOL    HW225188   1.368   6.279   0.987
 8097SOL     OW25189   4.706   6.186   5.725
 8097SOL    HW125190   4.650   6.249   5.670
 8097SOL    HW225191   4.655   6.158   5.806
 8098SOL     OW25192   1.689   6.020   4.898
 8098SOL    HW125193   1.592   6.042   4.907
 8098SOL    HW225194   1.717   6.033   4.803
 8099SOL     OW25195   2.211   4.364   2.928
 8099SOL    HW125196   2.292   4.414   2.896
 8099SOL    HW225197   2.148   4.427   2.971
 8100SOL     OW25198   0.446   1.239   6.767
 8100SOL    HW125199   0.472   1.334   6.788
 8100SOL    HW225200   0.526   1.180   6.779
 8101SOL     OW25201   3.258   5.790   0.722
 8101SOL    HW125202   3.267   5.731   0.641
 8101SOL    HW225203   3.349   5.811   0.757
 8102SOL     OW25204   1.489   3.394   5.001
 8102SOL    HW125205   1.506   3.455   4.924
 8102SOL    HW225206   1.472   3.302   4.968
 8103SOL     OW25207   3.171   0.990   1.592
 8103SOL    HW125208   3.170   0.951   1.500
 8103SOL    HW225209   3.078   0.994   1.628
 8104SOL     OW25210   2.286   5.723   0.262
 8104SOL    HW125211   2.237   5.755   0.181
 8104SOL    HW225212   2.285   5.623   0.264
 8105SOL     OW25213   6.706   0.155   3.314
 8105SOL    HW125214   6.686   0.220   3.241
 8105SOL    HW225215   6.656   0.182   3.397
 8106SOL     OW25216   1.909   0.171   6.090
 8106SOL    HW125217   1.938   0.110   6.017
 8106SOL    HW225218   1.813   0.195   6.078
 8107SOL     OW25219   1.664   6.348   6.361
 8107SOL    HW125220   1.748   6.400   6.351
 8107SOL    HW225221   1.587   6.403   6.328
 8108SOL     OW25222   1.304   1.289   6.984
 8108SOL    HW125223   1.368   1.359   7.016
 8108SOL    HW225224   1.213   1.329   6.975
 8109SOL     OW25225   6.556   3.325   0.813
 8109SOL    HW125226   6.516   3.362   0.730
 8109SOL    HW225227   6.524   3.231   0.826
 8110SOL     OW25228   3.798   5.160   1.353
 8110SOL    HW125229   3.703   5.130   1.356
 8110SOL    HW225230   3.801   5.260   1.356
 8111SOL     OW25231   6.284   1.226   2.745
 8111SOL    HW125232   6.354   1.239   2.675
 8111SOL    HW225233   6.195   1.212   2.700
 8112SOL     OW25234   1.721   3.681   6.073
 8112SOL    HW125235   1.772   3.765   6.053
 8112SOL    HW225236   1.770   3.602   6.037
 8113SOL     OW25237   5.288   3.384   6.026
 8113SOL    HW125238   5.361   3.443   5.992
 8113SOL    HW225239   5.267   3.314   5.958
 8114SOL     OW25240   2.009   4.540   2.009
 8114SOL    HW125241   2.079   4.469   2.016
 8114SOL    HW225242   1.930   4.516   2.065
 8115SOL     OW25243   2.661   1.643   6.332
 8115SOL    HW125244   2.736   1.578   6.341
 8115SOL    HW225245   2.574   1.596   6.347
 8116SOL     OW25246   4.103   3.401   1.147
 8116SOL    HW125247   4.199   3.380   1.167
 8116SOL    HW225248   4.044   3.342   1.202
 8117SOL     OW25249   2.292   6.961   3.327
 8117SOL    HW125250   2.290   6.939   3.424
 8117SOL    HW225251   2.254   6.885   3.274
 8118SOL     OW25252   6.337   3.437   0.622
 8118SOL    HW125253   6.326   3.343   0.591
 8118SOL    HW225254   6.286   3.450   0.707
 8119SOL     OW25255   6.000   6.340   0.448
 8119SOL    HW125256   5.923   6.364   0.508
 8119SOL    HW225257   6.085   6.373   0.489
 8120SOL     OW25258   2.742   6.812   1.024
 8120SOL    HW125259   2.786   6.773   1.105
 8120SOL    HW225260   2.689   6.740   0.977
 8121SOL     OW25261   0.828   3.684   2.940
 8121SOL    HW125262   0.784   3.756   2.993
 8121SOL    HW225263   0.875   3.621   3.002
 8122SOL     OW25264   0.893   4.678   1.320
 8122SOL    HW125265   0.799   4.672   1.287
 8122SOL    HW225266   0.894   4.668   1.420
 8123SOL     OW25267   0.345   1.469   0.068
 8123SOL    HW125268   0.436   1.429   0.054
 8123SOL    HW225269   0.326   1.533   7.017
 8124SOL     OW25270   5.516   4.733   4.713
 8124SOL    HW125271   5.420   4.724   4.739
 8124SOL    HW225272   5.529   4.818   4.662
 8125SOL     OW25273   1.738   5.966   3.277
 8125SOL    HW125274   1.819   6.018   3.303
 8125SOL    HW225275   1.700   6.003   3.192
 8126SOL     OW25276   3.589   4.918   4.455
 8126SOL    HW125277   3.551   4.865   4.379
 8126SOL    HW225278   3.686   4.935   4.438
 8127SOL     OW25279   3.584   2.779   0.470
 8127SOL    HW125280   3.531   2.698   0.442
 8127SOL    HW225281   3.526   2.838   0.527
 8128SOL     OW25282   3.613   3.347   1.700
 8128SOL    HW125283   3.618   3.306   1.609
 8128SOL    HW225284   3.693   3.405   1.715
 8129SOL     OW25285   1.725   2.598   2.376
 8129SOL    HW125286   1.692   2.657   2.449
 8129SOL    HW225287   1.782   2.526   2.415
 8130SOL     OW25288   1.027   5.274   6.692
 8130SOL    HW125289   0.941   5.325   6.702
 8130SOL    HW225290   1.070   5.263   6.782
 8131SOL     OW25291   1.885   3.981   6.757
 8131SOL    HW125292   1.923   3.900   6.803
 8131SOL    HW225293   1.861   3.958   6.663
 8132SOL     OW25294   0.380   0.304   5.405
 8132SOL    HW125295   0.326   0.232   5.449
 8132SOL    HW225296   0.324   0.348   5.334
 8133SOL     OW25297   3.794   4.961   0.543
 8133SOL    HW125298   3.714   5.018   0.564
 8133SOL    HW225299   3.818   4.974   0.447
 8134SOL     OW25300   5.758   1.402   6.177
 8134SOL    HW125301   5.673   1.452   6.194
 8134SOL    HW225302   5.828   1.435   6.240
 8135SOL     OW25303   2.219   0.055   1.625
 8135SOL    HW125304   2.317   0.072   1.617
 8135SOL    HW225305   2.195   0.040   1.720
 8136SOL     OW25306   4.794   4.383   1.956
 8136SOL    HW125307   4.776   4.431   1.871
 8136SOL    HW225308   4.708   4.346   1.992
 8137SOL     OW25309   3.986   1.264   4.750
 8137SOL    HW125310   4.036   1.203   4.811
 8137SOL    HW225311   3.976   1.220   4.660
 8138SOL     OW25312   5.338   1.359   1.762
 8138SOL    HW125313   5.331   1.455   1.786
 8138SOL    HW225314   5.431   1.326   1.779
 8139SOL     OW25315   1.223   2.167   3.710
 8139SOL    HW125316   1.271   2.092   3.756
 8139SOL    HW225317   1.124   2.154   3.721
 8140SOL     OW25318   3.815   0.907   3.089
 8140SOL    HW125319   3.875   0.893   3.010
 8140SOL    HW225320   3.787   1.003   3.093
 8141SOL     OW25321   4.834   4.609   4.862
 8141SOL    HW125322   4.750   4.659   4.883
 8141SOL    HW225323   4.833   4.520   4.908
 8142SOL     OW25324   6.624   6.087   0.465
 8142SOL    HW125325   6.715   6.100   0.425
 8142SOL    HW225326   6.631   6.029   0.546
 8143SOL     OW25327   5.955   3.674   4.982
 8143SOL    HW125328   6.008   3.733   5.043
 8143SOL    HW225329   5.999   3.585   4.974
 8144SOL     OW25330   5.833   6.947   6.250
 8144SOL    HW125331   5.850   6.876   6.319
 8144SOL    HW225332   5.892   0.003   6.268
 8145SOL     OW25333   5.510   6.028   2.722
 8145SOL    HW125334   5.414   6.051   2.738
 8145SOL    HW225335   5.556   6.015   2.810
 8146SOL     OW25336   2.994   1.416   4.000
 8146SOL    HW125337   3.071   1.440   4.059
 8146SOL    HW225338   2.998   1.470   3.916
 8147SOL     OW25339   5.055   0.756   3.840
 8147SOL    HW125340   4.978   0.750   3.904
 8147SOL    HW225341   5.083   0.851   3.831
 8148SOL     OW25342   5.502   3.840   3.462
 8148SOL    HW125343   5.541   3.862   3.551
 8148SOL    HW225344   5.448   3.756   3.469
 8149SOL     OW25345   4.494   4.545   3.358
 8149SOL    HW125346   4.521   4.620   3.299
 8149SOL    HW225347   4.435   4.482   3.308
 8150SOL     OW25348   0.881   5.667   1.221
 8150SOL    HW125349   0.907   5.624   1.308
 8150SOL    HW225350   0.787   5.700   1.226
 8151SOL     OW25351   1.193   1.671   4.993
 8151SOL    HW125352   1.203   1.763   5.030
 8151SOL    HW225353   1.223   1.670   4.897
 8152SOL     OW25354   1.433   1.519   3.745
 8152SOL    HW125355   1.469   1.577   3.818
 8152SOL    HW225356   1.504   1.506   3.675
 8153SOL     OW25357   2.147   6.635   0.614
 8153SOL    HW125358   2.049   6.624   0.598
 8153SOL    HW225359   2.194   6.648   0.527
 8154SOL     OW25360   1.887   6.998   3.825
 8154SOL    HW125361   1.864   0.040   3.898
 8154SOL    HW225362   1.983   7.008   3.800
 8155SOL     OW25363   2.970   3.168   3.593
 8155SOL    HW125364   3.017   3.114   3.663
 8155SOL    HW225365   3.008   3.147   3.503
 8156SOL     OW25366   6.435   0.438   6.051
 8156SOL    HW125367   6.491   0.437   5.968
 8156SOL    HW225368   6.452   0.522   6.102
 8157SOL     OW25369   6.229   3.327   6.950
 8157SOL    HW125370   6.268   3.235   6.946
 8157SOL    HW225371   6.265   3.382   6.875
 8158SOL     OW25372   1.601   5.545   2.061
 8158SOL    HW125373   1.548   5.568   2.143
 8158SOL    HW225374   1.582   5.613   1.990
 8159SOL     OW25375   1.605   5.869   2.064
 8159SOL    HW125376   1.693   5.882   2.018
 8159SOL    HW225377   1.540   5.827   2.001
 8160SOL     OW25378   4.365   2.551   1.734
 8160SOL    HW125379   4.355   2.463   1.780
 8160SOL    HW225380   4.459   2.585   1.748
 8161SOL     OW25381   4.568   1.616   0.692
 8161SOL    HW125382   4.602   1.579   0.606
 8161SOL    HW225383   4.565   1.716   0.687
 8162SOL     OW25384   5.700   0.418   1.429
 8162SOL    HW125385   5.722   0.379   1.340
 8162SOL    HW225386   5.624   0.482   1.420
 8163SOL     OW25387   2.276   4.088   5.376
 8163SOL    HW125388   2.343   4.068   5.305
 8163SOL    HW225389   2.222   4.005   5.395
 8164SOL     OW25390   4.671   2.236   1.600
 8164SOL    HW125391   4.637   2.273   1.686
 8164SOL    HW225392   4.665   2.306   1.528
 8165SOL     OW25393   2.203   4.692   1.686
 8165SOL    HW125394   2.174   4.680   1.591
 8165SOL    HW225395   2.302   4.699   1.691
 8166SOL     OW25396   3.124   6.930   1.852
 8166SOL    HW125397   3.110   6.832   1.862
 8166SOL    HW225398   3.204   6.958   1.906
 8167SOL     OW25399   5.269   2.691   4.075
 8167SOL    HW125400   5.333   2.753   4.120
 8167SOL    HW225401   5.175   2.719   4.095
 8168SOL     OW25402   3.451   0.991   2.735
 8168SOL    HW125403   3.362   0.946   2.731
 8168SOL    HW225404   3.474   1.011   2.830
 8169SOL     OW25405   4.736   4.169   6.097
 8169SOL    HW125406   4.690   4.081   6.098
 8169SOL    HW225407   4.741   4.204   6.004
 8170SOL     OW25408   0.650   5.680   3.790
 8170SOL    HW125409   0.573   5.678   3.727
 8170SOL    HW225410   0.620   5.648   3.880
 8171SOL     OW25411   1.099   1.382   5.780
 8171SOL    HW125412   1.084   1.288   5.750
 8171SOL    HW225413   1.024   1.440   5.750
 8172SOL     OW25414   0.108   6.298   0.649
 8172SOL    HW125415   0.009   6.289   0.665
 8172SOL    HW225416   0.153   6.212   0.673
 8173SOL     OW25417   5.279   2.847   6.288
 8173SOL    HW125418   5.329   2.891   6.214
 8173SOL    HW225419   5.338   2.841   6.369
 8174SOL     OW25420   5.336   0.523   2.153
 8174SOL    HW125421   5.407   0.566   2.210
 8174SOL    HW225422   5.323   0.428   2.182
 8175SOL     OW25423   0.925   3.846   5.990
 8175SOL    HW125424   0.975   3.901   5.923
 8175SOL    HW225425   0.902   3.757   5.951
 8176SOL     OW25426   2.878   5.875   3.173
 8176SOL    HW125427   2.885   5.895   3.076
 8176SOL    HW225428   2.798   5.818   3.190
 8177SOL     OW25429   1.317   0.229   6.285
 8177SOL    HW125430   1.271   0.317   6.268
 8177SOL    HW225431   1.416   0.240   6.270
 8178SOL     OW25432   1.947   6.428   6.315
 8178SOL    HW125433   2.000   6.439   6.231
 8178SOL    HW225434   1.998   6.372   6.380
 8179SOL     OW25435   3.252   0.998   0.133
 8179SOL    HW125436   3.154   1.020   0.132
 8179SOL    HW225437   3.281   0.980   0.227
 8180SOL     OW25438   4.840   5.460   4.728
 8180SOL    HW125439   4.752   5.464   4.775
 8180SOL    HW225440   4.910   5.505   4.784
 8181SOL     OW25441   2.765   2.242   2.501
 8181SOL    HW125442   2.747   2.292   2.416
 8181SOL    HW225443   2.840   2.286   2.551
 8182SOL     OW25444   3.847   2.152   5.838
 8182SOL    HW125445   3.926   2.098   5.867
 8182SOL    HW225446   3.777   2.150   5.910
 8183SOL     OW25447   1.876   3.457   4.541
 8183SOL    HW125448   1.953   3.403   4.506
 8183SOL    HW225449   1.837   3.511   4.466
 8184SOL     OW25450   6.272   5.867   5.692
 8184SOL    HW125451   6.280   5.868   5.792
 8184SOL    HW225452   6.180   5.897   5.666
 8185SOL     OW25453   1.230   1.817   3.040
 8185SOL    HW125454   1.277   1.899   3.074
 8185SOL    HW225455   1.293   1.739   3.043
 8186SOL     OW25456   3.487   4.795   6.152
 8186SOL    HW125457   3.436   4.711   6.168
 8186SOL    HW225458   3.429   4.874   6.169
 8187SOL     OW25459   1.477   1.612   5.723
 8187SOL    HW125460   1.403   1.585   5.784
 8187SOL    HW225461   1.444   1.614   5.629
 8188SOL     OW25462   6.059   3.876   2.784
 8188SOL    HW125463   6.125   3.905   2.853
 8188SOL    HW225464   6.102   3.809   2.723
 8189SOL     OW25465   6.255   4.683   2.257
 8189SOL    HW125466   6.192   4.651   2.328
 8189SOL    HW225467   6.203   4.727   2.184
 8190SOL     OW25468   5.382   3.536   2.538
 8190SOL    HW125469   5.301   3.520   2.594
 8190SOL    HW225470   5.430   3.617   2.570
 8191SOL     OW25471   0.422   5.388   2.101
 8191SOL    HW125472   0.361   5.462   2.130
 8191SOL    HW225473   0.495   5.377   2.168
 8192SOL     OW25474   1.752   3.803   0.986
 8192SOL    HW125475   1.775   3.720   0.936
 8192SOL    HW225476   1.653   3.813   0.991
 8193SOL     OW25477   3.510   0.435   5.994
 8193SOL    HW125478   3.464   0.411   6.080
 8193SOL    HW225479   3.448   0.416   5.918
 8194SOL     OW25480   1.573   0.681   0.840
 8194SOL    HW125481   1.632   0.615   0.793
 8194SOL    HW225482   1.486   0.689   0.791
 8195SOL     OW25483   6.473   0.257   0.723
 8195SOL    HW125484   6.519   0.168   0.724
 8195SOL    HW225485   6.483   0.301   0.813
 8196SOL     OW25486   2.032   0.676   6.531
 8196SOL    HW125487   2.071   0.605   6.473
 8196SOL    HW225488   1.933   0.660   6.542
 8197SOL     OW25489   1.107   6.970   0.229
 8197SOL    HW125490   1.020   6.993   0.274
 8197SOL    HW225491   1.182   6.984   0.292
 8198SOL     OW25492   4.126   6.185   2.774
 8198SOL    HW125493   4.149   6.254   2.705
 8198SOL    HW225494   4.165   6.212   2.862
 8199SOL     OW25495   6.112   3.957   0.591
 8199SOL    HW125496   6.015   3.962   0.615
 8199SOL    HW225497   6.142   4.046   0.555
 8200SOL     OW25498   4.562   3.309   1.429
 8200SOL    HW125499   4.538   3.302   1.526
 8200SOL    HW225500   4.493   3.262   1.374
 8201SOL     OW25501   6.293   1.096   4.555
 8201SOL    HW125502   6.338   1.160   4.494
 8201SOL    HW225503   6.335   1.101   4.646
 8202SOL     OW25504   1.520   4.073   3.956
 8202SOL    HW125505   1.427   4.043   3.937
 8202SOL    HW225506   1.544   4.148   3.894
 8203SOL     OW25507   6.251   3.843   1.239
 8203SOL    HW125508   6.315   3.817   1.312
 8203SOL    HW225509   6.244   3.942   1.234
 8204SOL     OW25510   3.384   0.264   0.451
 8204SOL    HW125511   3.460   0.209   0.417
 8204SOL    HW225512   3.298   0.219   0.429
 8205SOL     OW25513   5.652   5.547   3.236
 8205SOL    HW125514   5.563   5.515   3.267
 8205SOL    HW225515   5.641   5.604   3.155
 8206SOL     OW25516   4.240   1.932   4.411
 8206SOL    HW125517   4.233   1.891   4.320
 8206SOL    HW225518   4.256   2.030   4.401
 8207SOL     OW25519   2.669   6.201   6.954
 8207SOL    HW125520   2.741   6.161   6.897
 8207SOL    HW225521   2.653   6.143   0.011
 8208SOL     OW25522   1.448   5.145   6.058
 8208SOL    HW125523   1.384   5.072   6.037
 8208SOL    HW225524   1.485   5.132   6.150
 8209SOL     OW25525   0.861   6.551   5.520
 8209SOL    HW125526   0.938   6.548   5.584
 8209SOL    HW225527   0.892   6.587   5.432
 8210SOL     OW25528   3.531   1.684   0.151
 8210SOL    HW125529   3.508   1.614   0.219
 8210SOL    HW225530   3.616   1.729   0.178
 8211SOL     OW25531   2.905   3.755   4.657
 8211SOL    HW125532   2.901   3.681   4.723
 8211SOL    HW225533   2.862   3.837   4.695
 8212SOL     OW25534   3.629   6.447   1.621
 8212SOL    HW125535   3.586   6.371   1.572
 8212SOL    HW225536   3.632   6.527   1.561
 8213SOL     OW25537   4.235   4.299   1.690
 8213SOL    HW125538   4.306   4.267   1.752
 8213SOL    HW225539   4.260   4.277   1.596
 8214SOL     OW25540   4.237   5.124   3.929
 8214SOL    HW125541   4.296   5.164   3.999
 8214SOL    HW225542   4.293   5.083   3.857
 8215SOL     OW25543   3.339   5.806   6.344
 8215SOL    HW125544   3.413   5.776   6.283
 8215SOL    HW225545   3.252   5.768   6.312
 8216SOL     OW25546   5.540   4.780   1.494
 8216SOL    HW125547   5.552   4.749   1.400
 8216SOL    HW225548   5.542   4.701   1.555
 8217SOL     OW25549   2.101   6.635   3.699
 8217SOL    HW125550   2.151   6.702   3.644
 8217SOL    HW225551   2.077   6.556   3.642
 8218SOL     OW25552   2.631   5.938   4.734
 8218SOL    HW125553   2.613   6.031   4.766
 8218SOL    HW225554   2.575   5.918   4.654
 8219SOL     OW25555   4.080   3.298   1.954
 8219SOL    HW125556   4.068   3.210   2.000
 8219SOL    HW225557   4.082   3.283   1.855
 8220SOL     OW25558   3.123   4.067   4.668
 8220SOL    HW125559   3.149   4.101   4.577
 8220SOL    HW225560   3.100   3.970   4.661
 8221SOL     OW25561   5.871   4.253   3.139
 8221SOL    HW125562   5.898   4.295   3.226
 8221SOL    HW225563   5.839   4.324   3.076
 8222SOL     OW25564   6.908   2.998   0.640
 8222SOL    HW125565   6.993   3.048   0.655
 8222SOL    HW225566   6.924   2.900   0.646
 8223SOL     OW25567   2.201   6.300   6.244
 8223SOL    HW125568   2.196   6.224   6.309
 8223SOL    HW225569   2.282   6.355   6.263
 8224SOL     OW25570   5.057   1.048   6.677
 8224SOL    HW125571   5.052   1.078   6.772
 8224SOL    HW225572   5.123   1.106   6.627
 8225SOL     OW25573   5.549   2.290   6.939
 8225SOL    HW125574   5.524   2.359   6.871
 8225SOL    HW225575   5.628   2.322   6.991
 8226SOL     OW25576   3.744   0.827   6.917
 8226SOL    HW125577   3.783   0.738   6.943
 8226SOL    HW225578   3.658   0.812   6.867
 8227SOL     OW25579   4.240   2.249   2.703
 8227SOL    HW125580   4.250   2.349   2.698
 8227SOL    HW225581   4.312   2.206   2.649
 8228SOL     OW25582   2.974   0.004   4.547
 8228SOL    HW125583   3.042   6.955   4.564
 8228SOL    HW225584   2.887   6.984   4.521
 8229SOL     OW25585   4.687   4.092   0.629
 8229SOL    HW125586   4.635   4.077   0.545
 8229SOL    HW225587   4.637   4.155   0.688
 8230SOL     OW25588   5.713   0.232   5.869
 8230SOL    HW125589   5.766   0.202   5.948
 8230SOL    HW225590   5.774   0.265   5.798
 8231SOL     OW25591   2.928   1.039   2.206
 8231SOL    HW125592   2.887   1.127   2.229
 8231SOL    HW225593   2.855   0.976   2.176
 8232SOL     OW25594   3.365   5.608   3.468
 8232SOL    HW125595   3.292   5.541   3.474
 8232SOL    HW225596   3.418   5.608   3.553
 8233SOL     OW25597   1.805   0.867   6.224
 8233SOL    HW125598   1.826   0.769   6.225
 8233SOL    HW225599   1.868   0.914   6.162
 8234SOL     OW25600   1.494   2.310   0.734
 8234SOL    HW125601   1.515   2.286   0.639
 8234SOL    HW225602   1.508   2.407   0.748
 8235SOL     OW25603   0.797   0.953   1.291
 8235SOL    HW125604   0.875   0.916   1.341
 8235SOL    HW225605   0.716   0.897   1.308
 8236SOL     OW25606   1.408   0.249   1.623
 8236SOL    HW125607   1.345   0.290   1.558
 8236SOL    HW225608   1.356   0.198   1.692
 8237SOL     OW25609   3.730   4.658   6.052
 8237SOL    HW125610   3.782   4.744   6.056
 8237SOL    HW225611   3.632   4.679   6.060
 8238SOL     OW25612   0.564   5.252   1.292
 8238SOL    HW125613   0.519   5.187   1.231
 8238SOL    HW225614   0.534   5.237   1.386
 8239SOL     OW25615   1.906   1.465   5.907
 8239SOL    HW125616   1.861   1.511   5.831
 8239SOL    HW225617   1.949   1.380   5.875
 8240SOL     OW25618   3.324   3.246   4.712
 8240SOL    HW125619   3.258   3.173   4.734
 8240SOL    HW225620   3.319   3.317   4.782
 8241SOL     OW25621   1.804   3.551   5.502
 8241SOL    HW125622   1.761   3.641   5.493
 8241SOL    HW225623   1.828   3.535   5.598
 8242SOL     OW25624   0.579   3.183   2.706
 8242SOL    HW125625   0.526   3.234   2.637
 8242SOL    HW225626   0.621   3.103   2.664
 8243SOL     OW25627   1.086   5.767   3.914
 8243SOL    HW125628   1.183   5.771   3.892
 8243SOL    HW225629   1.038   5.838   3.864
 8244SOL     OW25630   6.696   1.359   3.540
 8244SOL    HW125631   6.680   1.454   3.512
 8244SOL    HW225632   6.793   1.337   3.529
 8245SOL     OW25633   5.297   2.616   2.367
 8245SOL    HW125634   5.368   2.679   2.336
 8245SOL    HW225635   5.211   2.636   2.318
 8246SOL     OW25636   2.074   5.202   6.635
 8246SOL    HW125637   2.137   5.182   6.709
 8246SOL    HW225638   1.990   5.149   6.648
 8247SOL     OW25639   3.038   5.424   2.849
 8247SOL    HW125640   3.060   5.460   2.939
 8247SOL    HW225641   2.951   5.374   2.853
 8248SOL     OW25642   6.483   5.412   4.320
 8248SOL    HW125643   6.404   5.412   4.258
 8248SOL    HW225644   6.463   5.354   4.399
 8249SOL     OW25645   3.258   1.385   6.868
 8249SOL    HW125646   3.194   1.336   6.809
 8249SOL    HW225647   3.345   1.398   6.820
 8250SOL     OW25648   1.069   1.949   6.504
 8250SOL    HW125649   1.057   1.973   6.407
 8250SOL    HW225650   1.136   2.010   6.545
 8251SOL     OW25651   0.862   2.194   4.895
 8251SOL    HW125652   0.949   2.202   4.847
 8251SOL    HW225653   0.874   2.134   4.975
 8252SOL     OW25654   0.729   1.825   6.346
 8252SOL    HW125655   0.801   1.773   6.300
 8252SOL    HW225656   0.643   1.774   6.341
 8253SOL     OW25657   4.679   5.660   6.752
 8253SOL    HW125658   4.698   5.620   6.842
 8253SOL    HW225659   4.764   5.665   6.700
 8254SOL     OW25660   6.331   5.169   0.245
 8254SOL    HW125661   6.386   5.205   0.170
 8254SOL    HW225662   6.389   5.116   0.307
 8255SOL     OW25663   2.309   0.291   5.149
 8255SOL    HW125664   2.341   0.233   5.224
 8255SOL    HW225665   2.373   0.365   5.134
 8256SOL     OW25666   1.208   5.413   4.841
 8256SOL    HW125667   1.286   5.443   4.785
 8256SOL    HW225668   1.130   5.472   4.824
 8257SOL     OW25669   5.067   4.190   2.989
 8257SOL    HW125670   5.091   4.102   2.949
 8257SOL    HW225671   5.135   4.259   2.964
 8258SOL     OW25672   0.352   2.891   3.517
 8258SOL    HW125673   0.441   2.931   3.494
 8258SOL    HW225674   0.365   2.814   3.579
 8259SOL     OW25675   5.548   2.315   4.258
 8259SOL    HW125676   5.460   2.322   4.305
 8259SOL    HW225677   5.608   2.254   4.310
 8260SOL     OW25678   5.466   2.702   0.954
 8260SOL    HW125679   5.483   2.718   1.051
 8260SOL    HW225680   5.425   2.784   0.913
 8261SOL     OW25681   5.416   1.601   2.720
 8261SOL    HW125682   5.345   1.634   2.658
 8261SOL    HW225683   5.400   1.504   2.741
 8262SOL     OW25684   5.364   3.781   1.698
 8262SOL    HW125685   5.303   3.735   1.633
 8262SOL    HW225686   5.377   3.723   1.778
 8263SOL     OW25687   6.648   1.499   5.885
 8263SOL    HW125688   6.552   1.507   5.860
 8263SOL    HW225689   6.698   1.579   5.852
 8264SOL     OW25690   3.186   0.282   2.584
 8264SOL    HW125691   3.284   0.267   2.568
 8264SOL    HW225692   3.144   0.196   2.613
 8265SOL     OW25693   4.958   6.015   0.537
 8265SOL    HW125694   4.953   6.014   0.637
 8265SOL    HW225695   4.871   5.986   0.498
 8266SOL     OW25696   3.502   0.850   3.787
 8266SOL    HW125697   3.483   0.769   3.730
 8266SOL    HW225698   3.472   0.932   3.739
 8267SOL     OW25699   2.102   3.170   2.681
 8267SOL    HW125700   2.092   3.196   2.585
 8267SOL    HW225701   2.163   3.091   2.688
 8268SOL     OW25702   3.327   4.283   6.654
 8268SOL    HW125703   3.273   4.221   6.597
 8268SOL    HW225704   3.269   4.326   6.723
 8269SOL     OW25705   6.343   3.017   5.014
 8269SOL    HW125706   6.288   3.041   4.934
 8269SOL    HW225707   6.393   2.932   4.997
 8270SOL     OW25708   4.530   5.846   6.658
 8270SOL    HW125709   4.599   5.794   6.709
 8270SOL    HW225710   4.489   5.787   6.589
 8271SOL     OW25711   3.384   6.690   6.130
 8271SOL    HW125712   3.354   6.765   6.072
 8271SOL    HW225713   3.305   6.636   6.159
 8272SOL     OW25714   1.175   0.861   2.107
 8272SOL    HW125715   1.261   0.910   2.094
 8272SOL    HW225716   1.181   0.769   2.068
 8273SOL     OW25717   4.140   0.600   0.028
 8273SOL    HW125718   4.207   0.538   7.011
 8273SOL    HW225719   4.180   0.649   0.105
 8274SOL     OW25720   5.272   6.330   5.567
 8274SOL    HW125721   5.256   6.321   5.468
 8274SOL    HW225722   5.370   6.339   5.584
 8275SOL     OW25723   5.256   1.197   4.566
 8275SOL    HW125724   5.160   1.201   4.594
 8275SOL    HW225725   5.302   1.123   4.615
 8276SOL     OW25726   6.413   2.320   6.776
 8276SOL    HW125727   6.363   2.293   6.694
 8276SOL    HW225728   6.349   2.327   6.853
 8277SOL     OW25729   1.505   6.903   0.639
 8277SOL    HW125730   1.589   6.886   0.689
 8277SOL    HW225731   1.430   6.919   0.703
 8278SOL     OW25732   2.634   1.148   0.913
 8278SOL    HW125733   2.671   1.232   0.873
 8278SOL    HW225734   2.667   1.069   0.862
 8279SOL     OW25735   4.017   5.867   5.094
 8279SOL    HW125736   3.959   5.841   5.171
 8279SOL    HW225737   4.079   5.940   5.122
 8280SOL     OW25738   5.356   3.849   6.739
 8280SOL    HW125739   5.400   3.828   6.826
 8280SOL    HW225740   5.263   3.813   6.739
 8281SOL     OW25741   2.846   5.595   6.898
 8281SOL    HW125742   2.861   5.643   6.811
 8281SOL    HW225743   2.928   5.600   6.954
 8282SOL     OW25744   2.863   3.131   1.867
 8282SOL    HW125745   2.833   3.055   1.809
 8282SOL    HW225746   2.793   3.202   1.868
 8283SOL     OW25747   0.586   0.063   3.702
 8283SOL    HW125748   0.522   0.009   3.648
 8283SOL    HW225749   0.546   0.152   3.722
 8284SOL     OW25750   4.193   1.437   1.601
 8284SOL    HW125751   4.192   1.401   1.508
 8284SOL    HW225752   4.288   1.440   1.634
 8285SOL     OW25753   1.799   4.211   0.035
 8285SOL    HW125754   1.857   4.153   7.001
 8285SOL    HW225755   1.756   4.156   0.107
 8286SOL     OW25756   6.509   2.675   5.806
 8286SOL    HW125757   6.577   2.647   5.738
 8286SOL    HW225758   6.534   2.638   5.895
 8287SOL     OW25759   2.186   1.007   3.675
 8287SOL    HW125760   2.261   1.041   3.733
 8287SOL    HW225761   2.193   1.050   3.584
 8288SOL     OW25762   1.642   6.925   3.131
 8288SOL    HW125763   1.579   6.864   3.081
 8288SOL    HW225764   1.596   6.960   3.212
 8289SOL     OW25765   5.650   0.523   6.916
 8289SOL    HW125766   5.648   0.623   6.914
 8289SOL    HW225767   5.608   0.487   6.833
 8290SOL     OW25768   4.702   2.909   1.698
 8290SOL    HW125769   4.713   2.995   1.747
 8290SOL    HW225770   4.767   2.841   1.734
 8291SOL     OW25771   5.184   6.161   6.263
 8291SOL    HW125772   5.169   6.167   6.362
 8291SOL    HW225773   5.117   6.098   6.223
 8292SOL     OW25774   0.682   2.362   5.016
 8292SOL    HW125775   0.747   2.303   4.968
 8292SOL    HW225776   0.718   2.385   5.107
 8293SOL     OW25777   2.587   5.337   4.062
 8293SOL    HW125778   2.552   5.276   3.991
 8293SOL    HW225779   2.663   5.293   4.109
 8294SOL     OW25780   5.056   4.068   5.931
 8294SOL    HW125781   5.032   3.978   5.967
 8294SOL    HW225782   5.064   4.132   6.007
 8295SOL     OW25783   4.960   4.425   2.445
 8295SOL    HW125784   4.945   4.346   2.386
 8295SOL    HW225785   4.879   4.485   2.442
 8296SOL     OW25786   3.844   6.459   2.565
 8296SOL    HW125787   3.797   6.374   2.543
 8296SOL    HW225788   3.904   6.485   2.489
 8297SOL     OW25789   5.696   4.678   2.653
 8297SOL    HW125790   5.626   4.607   2.643
 8297SOL    HW225791   5.666   4.744   2.721
 8298SOL     OW25792   0.106   0.177   0.462
 8298SOL    HW125793   0.020   0.176   0.513
 8298SOL    HW225794   0.128   0.083   0.433
 8299SOL     OW25795   1.158   3.261   6.998
 8299SOL    HW125796   1.222   3.187   7.019
 8299SOL    HW225797   1.177   3.339   0.035
 8300SOL     OW25798   6.075   5.460   3.841
 8300SOL    HW125799   6.095   5.368   3.875
 8300SOL    HW225800   6.146   5.488   3.776
 8301SOL     OW25801   5.747   6.139   0.304
 8301SOL    HW125802   5.815   6.079   0.261
 8301SOL    HW225803   5.738   6.223   0.250
 8302SOL     OW25804   3.748   7.004   5.229
 8302SOL    HW125805   3.831   6.963   5.192
 8302SOL    HW225806   3.715   0.053   5.167
 8303SOL     OW25807   0.193   5.311   2.482
 8303SOL    HW125808   0.280   5.268   2.455
 8303SOL    HW225809   0.158   5.365   2.405
 8304SOL     OW25810   6.615   4.009   3.191
 8304SOL    HW125811   6.549   4.053   3.130
 8304SOL    HW225812   6.616   4.058   3.278
 8305SOL     OW25813   5.244   0.062   6.018
 8305SOL    HW125814   5.240   0.159   6.043
 8305SOL    HW225815   5.268   0.053   5.921
 8306SOL     OW25816   6.303   1.421   3.506
 8306SOL    HW125817   6.329   1.517   3.520
 8306SOL    HW225818   6.304   1.373   3.593
 8307SOL     OW25819   1.331   3.598   3.394
 8307SOL    HW125820   1.387   3.516   3.403
 8307SOL    HW225821   1.278   3.612   3.477
 8308SOL     OW25822   1.472   5.827   0.934
 8308SOL    HW125823   1.436   5.756   0.994
 8308SOL    HW225824   1.516   5.786   0.855
 8309SOL     OW25825   5.974   5.391   4.233
 8309SOL    HW125826   5.880   5.392   4.201
 8309SOL    HW225827   6.002   5.296   4.252
 8310SOL     OW25828   1.877   0.342   2.039
 8310SOL    HW125829   1.948   0.278   2.068
 8310SOL    HW225830   1.857   0.329   1.942
 8311SOL     OW25831   4.522   5.404   3.112
 8311SOL    HW125832   4.613   5.444   3.128
 8311SOL    HW225833   4.459   5.434   3.183
 8312SOL     OW25834   5.796   1.703   0.344
 8312SOL    HW125835   5.834   1.611   0.333
 8312SOL    HW225836   5.815   1.737   0.436
 8313SOL     OW25837   5.873   2.345   5.818
 8313SOL    HW125838   5.872   2.435   5.863
 8313SOL    HW225839   5.966   2.310   5.816
 8314SOL     OW25840   4.590   6.393   4.480
 8314SOL    HW125841   4.510   6.407   4.538
 8314SOL    HW225842   4.672   6.387   4.537
 8315SOL     OW25843   3.567   3.086   4.944
 8315SOL    HW125844   3.657   3.049   4.968
 8315SOL    HW225845   3.579   3.177   4.903
 8316SOL     OW25846   2.490   1.573   5.434
 8316SOL    HW125847   2.406   1.562   5.381
 8316SOL    HW225848   2.489   1.510   5.511
 8317SOL     OW25849   1.457   1.978   4.033
 8317SOL    HW125850   1.515   2.019   4.103
 8317SOL    HW225851   1.369   2.025   4.031
 8318SOL     OW25852   4.114   6.522   5.837
 8318SOL    HW125853   4.086   6.436   5.795
 8318SOL    HW225854   4.071   6.530   5.927
 8319SOL     OW25855   1.815   5.589   6.140
 8319SOL    HW125856   1.891   5.532   6.172
 8319SOL    HW225857   1.761   5.619   6.218
 8320SOL     OW25858   3.679   3.706   5.244
 8320SOL    HW125859   3.583   3.681   5.228
 8320SOL    HW225860   3.684   3.800   5.278
 8321SOL     OW25861   0.843   0.515   0.443
 8321SOL    HW125862   0.813   0.440   0.502
 8321SOL    HW225863   0.792   0.514   0.357
 8322SOL     OW25864   1.075   0.331   0.483
 8322SOL    HW125865   1.148   0.358   0.421
 8322SOL    HW225866   0.993   0.385   0.464
 8323SOL     OW25867   5.924   4.447   0.054
 8323SOL    HW125868   5.897   4.450   6.981
 8323SOL    HW225869   6.015   4.488   0.064
 8324SOL     OW25870   5.466   6.816   0.086
 8324SOL    HW125871   5.560   6.828   0.054
 8324SOL    HW225872   5.454   6.866   0.171
 8325SOL     OW25873   1.393   6.902   5.210
 8325SOL    HW125874   1.343   6.827   5.166
 8325SOL    HW225875   1.403   6.884   5.307
 8326SOL     OW25876   2.084   2.973   6.767
 8326SOL    HW125877   2.177   2.958   6.735
 8326SOL    HW225878   2.051   2.890   6.813
 8327SOL     OW25879   0.924   6.080   4.863
 8327SOL    HW125880   0.853   6.015   4.835
 8327SOL    HW225881   0.951   6.135   4.784
 8328SOL     OW25882   0.983   6.681   0.216
 8328SOL    HW125883   1.000   6.618   0.292
 8328SOL    HW225884   1.042   6.761   0.225
 8329SOL     OW25885   1.673   2.869   4.755
 8329SOL    HW125886   1.683   2.792   4.693
 8329SOL    HW225887   1.617   2.940   4.712
 8330SOL     OW25888   2.917   0.320   6.867
 8330SOL    HW125889   3.009   0.283   6.863
 8330SOL    HW225890   2.918   0.406   6.919
 8331SOL     OW25891   2.207   2.315   6.970
 8331SOL    HW125892   2.205   2.414   6.963
 8331SOL    HW225893   2.301   2.282   6.957
 8332SOL     OW25894   6.723   3.875   1.745
 8332SOL    HW125895   6.704   3.973   1.755
 8332SOL    HW225896   6.685   3.825   1.822
 8333SOL     OW25897   2.035   4.159   6.895
 8333SOL    HW125898   2.001   4.093   6.827
 8333SOL    HW225899   2.119   4.124   6.937
 8334SOL     OW25900   3.248   1.771   5.050
 8334SOL    HW125901   3.271   1.867   5.062
 8334SOL    HW225902   3.169   1.762   4.990
 8335SOL     OW25903   5.314   4.920   5.590
 8335SOL    HW125904   5.238   4.984   5.600
 8335SOL    HW225905   5.401   4.968   5.597
 8336SOL     OW25906   0.923   3.710   3.599
 8336SOL    HW125907   0.891   3.802   3.621
 8336SOL    HW225908   0.864   3.642   3.642
 8337SOL     OW25909   6.417   1.202   3.967
 8337SOL    HW125910   6.357   1.125   3.941
 8337SOL    HW225911   6.492   1.208   3.901
 8338SOL     OW25912   3.129   5.077   0.884
 8338SOL    HW125913   3.181   5.130   0.950
 8338SOL    HW225914   3.113   5.132   0.802
 8339SOL     OW25915   5.811   0.089   1.813
 8339SOL    HW125916   5.878   0.030   1.768
 8339SOL    HW225917   5.856   0.142   1.885
 8340SOL     OW25918   6.436   2.479   6.181
 8340SOL    HW125919   6.446   2.493   6.279
 8340SOL    HW225920   6.372   2.404   6.164
 8341SOL     OW25921   4.168   1.384   0.556
 8341SOL    HW125922   4.070   1.373   0.576
 8341SOL    HW225923   4.192   1.328   0.477
 8342SOL     OW25924   4.457   0.443   0.159
 8342SOL    HW125925   4.541   0.460   0.210
 8342SOL    HW225926   4.479   0.411   0.067
 8343SOL     OW25927   5.767   5.065   3.694
 8343SOL    HW125928   5.691   5.073   3.629
 8343SOL    HW225929   5.780   5.151   3.742
 8344SOL     OW25930   1.325   4.828   6.101
 8344SOL    HW125931   1.339   4.820   6.002
 8344SOL    HW225932   1.229   4.846   6.120
 8345SOL     OW25933   5.681   0.162   3.620
 8345SOL    HW125934   5.668   0.257   3.592
 8345SOL    HW225935   5.775   0.134   3.600
 8346SOL     OW25936   5.514   3.087   4.330
 8346SOL    HW125937   5.475   3.102   4.421
 8346SOL    HW225938   5.611   3.112   4.332
 8347SOL     OW25939   2.519   1.845   6.635
 8347SOL    HW125940   2.460   1.784   6.582
 8347SOL    HW225941   2.593   1.878   6.576
 8348SOL     OW25942   3.320   6.056   1.989
 8348SOL    HW125943   3.268   6.042   2.073
 8348SOL    HW225944   3.411   6.090   2.011
 8349SOL     OW25945   5.351   6.218   2.161
 8349SOL    HW125946   5.289   6.234   2.084
 8349SOL    HW225947   5.397   6.130   2.150
 8350SOL     OW25948   1.763   1.488   0.130
 8350SOL    HW125949   1.816   1.468   0.047
 8350SOL    HW225950   1.824   1.487   0.209
 8351SOL     OW25951   6.982   2.622   3.184
 8351SOL    HW125952   0.023   2.586   3.116
 8351SOL    HW225953   0.010   2.650   3.266
 8352SOL     OW25954   2.643   5.660   0.568
 8352SOL    HW125955   2.637   5.752   0.530
 8352SOL    HW225956   2.586   5.598   0.513
 8353SOL     OW25957   0.953   5.583   1.451
 8353SOL    HW125958   0.895   5.621   1.523
 8353SOL    HW225959   0.959   5.483   1.463
 8354SOL     OW25960   3.751   0.609   3.254
 8354SOL    HW125961   3.691   0.659   3.192
 8354SOL    HW225962   3.786   0.527   3.208
 8355SOL     OW25963   3.177   5.577   6.574
 8355SOL    HW125964   3.228   5.645   6.627
 8355SOL    HW225965   3.094   5.618   6.538
 8356SOL     OW25966   2.676   4.375   1.038
 8356SOL    HW125967   2.722   4.427   1.110
 8356SOL    HW225968   2.642   4.438   0.968
 8357SOL     OW25969   4.854   6.710   5.267
 8357SOL    HW125970   4.889   6.746   5.353
 8357SOL    HW225971   4.776   6.651   5.284
 8358SOL     OW25972   1.031   0.850   5.164
 8358SOL    HW125973   0.988   0.762   5.142
 8358SOL    HW225974   1.111   0.834   5.222
 8359SOL     OW25975   4.301   1.934   5.906
 8359SOL    HW125976   4.319   1.844   5.947
 8359SOL    HW225977   4.380   1.963   5.852
 8360SOL     OW25978   4.355   0.336   0.390
 8360SOL    HW125979   4.369   0.370   0.297
 8360SOL    HW225980   4.289   0.396   0.437
 8361SOL     OW25981   4.376   1.225   6.870
 8361SOL    HW125982   4.315   1.146   6.869
 8361SOL    HW225983   4.367   1.275   6.784
 8362SOL     OW25984   0.084   3.871   1.572
 8362SOL    HW125985   0.042   3.959   1.552
 8362SOL    HW225986   0.029   3.798   1.531
 8363SOL     OW25987   1.951   2.772   1.444
 8363SOL    HW125988   1.926   2.867   1.423
 8363SOL    HW225989   2.043   2.770   1.482
 8364SOL     OW25990   6.954   2.223   4.196
 8364SOL    HW125991   6.869   2.199   4.151
 8364SOL    HW225992   6.957   2.180   4.287
 8365SOL     OW25993   1.612   2.214   2.222
 8365SOL    HW125994   1.604   2.188   2.126
 8365SOL    HW225995   1.570   2.304   2.236
 8366SOL     OW25996   5.431   4.614   1.944
 8366SOL    HW125997   5.380   4.529   1.956
 8366SOL    HW225998   5.375   4.691   1.975
 8367SOL     OW25999   1.979   4.670   4.050
 8367SOL    HW126000   2.046   4.656   3.976
 8367SOL    HW226001   1.967   4.584   4.100
 8368SOL     OW26002   6.020   6.291   5.718
 8368SOL    HW126003   6.079   6.369   5.698
 8368SOL    HW226004   5.989   6.250   5.633
 8369SOL     OW26005   2.343   6.532   0.018
 8369SOL    HW126006   2.403   6.477   6.982
 8369SOL    HW226007   2.394   6.562   0.099
 8370SOL     OW26008   2.999   3.808   0.033
 8370SOL    HW126009   2.992   3.715   7.020
 8370SOL    HW226010   3.088   3.846   0.007
 8371SOL     OW26011   2.448   4.393   5.959
 8371SOL    HW126012   2.403   4.463   6.015
 8371SOL    HW226013   2.436   4.303   6.001
 8372SOL     OW26014   2.204   6.454   0.810
 8372SOL    HW126015   2.132   6.398   0.852
 8372SOL    HW226016   2.162   6.514   0.742
 8373SOL     OW26017   6.008   1.623   4.060
 8373SOL    HW126018   5.918   1.586   4.083
 8373SOL    HW226019   6.078   1.554   4.077
 8374SOL     OW26020   6.661   0.749   4.045
 8374SOL    HW126021   6.583   0.692   4.020
 8374SOL    HW226022   6.729   0.746   3.971
 8375SOL     OW26023   2.524   1.500   4.782
 8375SOL    HW126024   2.509   1.546   4.869
 8375SOL    HW226025   2.514   1.401   4.793
 8376SOL     OW26026   0.832   1.730   3.961
 8376SOL    HW126027   0.795   1.673   3.887
 8376SOL    HW226028   0.759   1.748   4.028
 8377SOL     OW26029   4.742   5.519   6.991
 8377SOL    HW126030   4.791   5.467   6.921
 8377SOL    HW226031   4.724   5.461   0.048
 8378SOL     OW26032   4.782   5.995   4.610
 8378SOL    HW126033   4.706   5.986   4.545
 8378SOL    HW226034   4.786   5.914   4.668
 8379SOL     OW26035   5.986   2.017   1.763
 8379SOL    HW126036   5.938   2.089   1.812
 8379SOL    HW226037   6.085   2.027   1.776
 8380SOL     OW26038   0.203   6.240   1.034
 8380SOL    HW126039   0.228   6.143   1.037
 8380SOL    HW226040   0.104   6.249   1.028
 8381SOL     OW26041   0.350   1.591   2.776
 8381SOL    HW126042   0.326   1.673   2.725
 8381SOL    HW226043   0.450   1.585   2.784
 8382SOL     OW26044   1.379   0.855   1.224
 8382SOL    HW126045   1.423   0.860   1.134
 8382SOL    HW226046   1.410   0.773   1.272
 8383SOL     OW26047   2.724   0.208   6.222
 8383SOL    HW126048   2.702   0.222   6.125
 8383SOL    HW226049   2.807   0.152   6.229
 8384SOL     OW26050   0.957   3.759   3.319
 8384SOL    HW126051   0.986   3.745   3.414
 8384SOL    HW226052   0.989   3.681   3.264
 8385SOL     OW26053   4.057   2.935   1.227
 8385SOL    HW126054   4.135   2.917   1.287
 8385SOL    HW226055   4.074   3.019   1.175
 8386SOL     OW26056   2.495   5.973   1.545
 8386SOL    HW126057   2.593   5.958   1.534
 8386SOL    HW226058   2.480   6.066   1.580
 8387SOL     OW26059   0.942   1.829   3.666
 8387SOL    HW126060   0.844   1.819   3.649
 8387SOL    HW226061   0.967   1.926   3.658
 8388SOL     OW26062   4.203   5.878   0.517
 8388SOL    HW126063   4.243   5.868   0.608
 8388SOL    HW226064   4.103   5.876   0.525
 8389SOL     OW26065   0.422   2.824   4.343
 8389SOL    HW126066   0.428   2.895   4.413
 8389SOL    HW226067   0.374   2.860   4.263
 8390SOL     OW26068   2.653   0.006   5.870
 8390SOL    HW126069   2.640   0.096   5.829
 8390SOL    HW226070   2.678   6.963   5.799
 8391SOL     OW26071   5.843   5.688   0.460
 8391SOL    HW126072   5.755   5.732   0.477
 8391SOL    HW226073   5.908   5.711   0.533
 8392SOL     OW26074   5.001   6.412   5.949
 8392SOL    HW126075   5.100   6.429   5.947
 8392SOL    HW226076   4.964   6.426   5.857
 8393SOL     OW26077   0.095   5.300   2.863
 8393SOL    HW126078   0.164   5.319   2.793
 8393SOL    HW226079   0.075   5.383   2.914
 8394SOL     OW26080   0.362   1.653   3.067
 8394SOL    HW126081   0.370   1.747   3.034
 8394SOL    HW226082   0.327   1.595   2.994
 8395SOL     OW26083   1.165   6.174   5.284
 8395SOL    HW126084   1.195   6.123   5.365
 8395SOL    HW226085   1.152   6.110   5.208
 8396SOL     OW26086   4.158   3.108   1.044
 8396SOL    HW126087   4.106   3.070   0.967
 8396SOL    HW226088   4.241   3.151   1.009
 8397SOL     OW26089   2.226   5.034   3.672
 8397SOL    HW126090   2.262   5.064   3.760
 8397SOL    HW226091   2.127   5.050   3.670
 8398SOL     OW26092   5.178   1.484   0.248
 8398SOL    HW126093   5.261   1.510   0.199
 8398SOL    HW226094   5.100   1.486   0.186
 8399SOL     OW26095   5.852   5.898   6.995
 8399SOL    HW126096   5.901   5.917   6.910
 8399SOL    HW226097   5.754   5.889   6.976
 8400SOL     OW26098   5.891   0.036   4.577
 8400SOL    HW126099   5.954   0.002   4.646
 8400SOL    HW226100   5.822   6.988   4.559
 8401SOL     OW26101   2.843   4.250   6.051
 8401SOL    HW126102   2.862   4.307   6.131
 8401SOL    HW226103   2.767   4.290   5.999
 8402SOL     OW26104   4.478   1.313   6.323
 8402SOL    HW126105   4.540   1.235   6.335
 8402SOL    HW226106   4.517   1.376   6.256
 8403SOL     OW26107   1.222   1.612   4.548
 8403SOL    HW126108   1.194   1.563   4.631
 8403SOL    HW226109   1.163   1.692   4.534
 8404SOL     OW26110   4.786   4.963   4.946
 8404SOL    HW126111   4.724   5.042   4.948
 8404SOL    HW226112   4.810   4.942   4.852
 8405SOL     OW26113   1.341   2.369   5.105
 8405SOL    HW126114   1.392   2.352   5.020
 8405SOL    HW226115   1.392   2.432   5.163
 8406SOL     OW26116   5.154   3.462   1.112
 8406SOL    HW126117   5.212   3.446   1.032
 8406SOL    HW226118   5.164   3.557   1.141
 8407SOL     OW26119   4.924   3.306   2.495
 8407SOL    HW126120   5.024   3.300   2.487
 8407SOL    HW226121   4.889   3.374   2.430
 8408SOL     OW26122   4.725   2.779   4.065
 8408SOL    HW126123   4.671   2.852   4.107
 8408SOL    HW226124   4.694   2.763   3.972
 8409SOL     OW26125   0.633   1.932   4.103
 8409SOL    HW126126   0.689   2.001   4.056
 8409SOL    HW226127   0.590   1.973   4.184
 8410SOL     OW26128   2.611   6.339   2.395
 8410SOL    HW126129   2.529   6.294   2.432
 8410SOL    HW226130   2.586   6.428   2.357
 8411SOL     OW26131   2.027   3.129   3.413
 8411SOL    HW126132   2.049   3.195   3.484
 8411SOL    HW226133   2.005   3.041   3.455
 8412SOL     OW26134   5.926   3.111   2.185
 8412SOL    HW126135   5.935   3.012   2.171
 8412SOL    HW226136   5.994   3.141   2.252
 8413SOL     OW26137   2.503   4.615   1.596
 8413SOL    HW126138   2.558   4.580   1.671
 8413SOL    HW226139   2.496   4.546   1.524
 8414SOL     OW26140   5.110   6.740   2.409
 8414SOL    HW126141   5.150   6.727   2.500
 8414SOL    HW226142   5.117   6.655   2.357
 8415SOL     OW26143   6.972   3.657   1.531
 8415SOL    HW126144   6.884   3.612   1.519
 8415SOL    HW226145   0.022   3.588   1.541
 8416SOL     OW26146   5.118   4.110   2.539
 8416SOL    HW126147   5.141   4.014   2.522
 8416SOL    HW226148   5.129   4.130   2.637
 8417SOL     OW26149   2.585   5.704   6.307
 8417SOL    HW126150   2.634   5.627   6.266
 8417SOL    HW226151   2.623   5.789   6.273
 8418SOL     OW26152   5.931   5.404   2.575
 8418SOL    HW126153   5.837   5.374   2.590
 8418SOL    HW226154   5.994   5.331   2.600
 8419SOL     OW26155   4.188   6.865   3.622
 8419SOL    HW126156   4.252   6.877   3.547
 8419SOL    HW226157   4.128   6.788   3.602
 8420SOL     OW26158   3.700   1.943   5.706
 8420SOL    HW126159   3.753   2.015   5.751
 8420SOL    HW226160   3.691   1.965   5.609
 8421SOL     OW26161   1.477   6.679   1.752
 8421SOL    HW126162   1.569   6.650   1.724
 8421SOL    HW226163   1.419   6.686   1.671
 8422SOL     OW26164   4.100   6.434   1.423
 8422SOL    HW126165   4.069   6.483   1.504
 8422SOL    HW226166   4.075   6.337   1.430
 8423SOL     OW26167   1.946   3.922   1.406
 8423SOL    HW126168   1.866   3.867   1.381
 8423SOL    HW226169   1.972   3.981   1.330
 8424SOL     OW26170   3.251   2.109   2.300
 8424SOL    HW126171   3.276   2.141   2.392
 8424SOL    HW226172   3.165   2.152   2.273
 8425SOL     OW26173   6.211   4.784   0.087
 8425SOL    HW126174   6.246   4.863   0.138
 8425SOL    HW226175   6.112   4.793   0.075
 8426SOL     OW26176   4.005   3.774   2.330
 8426SOL    HW126177   4.043   3.797   2.419
 8426SOL    HW226178   3.928   3.711   2.342
 8427SOL     OW26179   2.421   3.107   6.384
 8427SOL    HW126180   2.345   3.171   6.378
 8427SOL    HW226181   2.437   3.083   6.480
 8428SOL     OW26182   5.889   4.299   1.917
 8428SOL    HW126183   5.855   4.211   1.950
 8428SOL    HW226184   5.920   4.354   1.994
 8429SOL     OW26185   2.278   0.147   3.042
 8429SOL    HW126186   2.294   0.048   3.044
 8429SOL    HW226187   2.344   0.193   3.101
 8430SOL     OW26188   5.057   4.265   3.258
 8430SOL    HW126189   5.076   4.227   3.168
 8430SOL    HW226190   5.098   4.208   3.329
 8431SOL     OW26191   2.885   4.067   1.486
 8431SOL    HW126192   2.811   4.124   1.523
 8431SOL    HW226193   2.874   4.059   1.387
 8432SOL     OW26194   4.691   6.583   0.459
 8432SOL    HW126195   4.601   6.557   0.427
 8432SOL    HW226196   4.722   6.665   0.411
 8433SOL     OW26197   1.560   1.292   4.732
 8433SOL    HW126198   1.583   1.297   4.829
 8433SOL    HW226199   1.608   1.365   4.683
 8434SOL     OW26200   5.699   6.062   6.370
 8434SOL    HW126201   5.720   5.988   6.306
 8434SOL    HW226202   5.610   6.100   6.348
 8435SOL     OW26203   5.021   2.667   1.357
 8435SOL    HW126204   5.040   2.622   1.270
 8435SOL    HW226205   5.092   2.735   1.375
 8436SOL     OW26206   3.223   4.226   1.576
 8436SOL    HW126207   3.281   4.146   1.561
 8436SOL    HW226208   3.162   4.210   1.653
 8437SOL     OW26209   0.004   2.236   1.536
 8437SOL    HW126210   7.022   2.143   1.499
 8437SOL    HW226211   6.966   2.243   1.615
 8438SOL     OW26212   2.051   6.505   1.333
 8438SOL    HW126213   2.071   6.554   1.249
 8438SOL    HW226214   1.995   6.562   1.394
 8439SOL     OW26215   6.014   6.527   2.322
 8439SOL    HW126216   6.017   6.625   2.300
 8439SOL    HW226217   6.097   6.483   2.291
 8440SOL     OW26218   0.283   1.967   3.497
 8440SOL    HW126219   0.215   1.918   3.441
 8440SOL    HW226220   0.238   2.006   3.578
 8441SOL     OW26221   4.407   5.324   1.351
 8441SOL    HW126222   4.355   5.402   1.386
 8441SOL    HW226223   4.354   5.279   1.279
 8442SOL     OW26224   1.504   3.634   0.534
 8442SOL    HW126225   1.521   3.689   0.452
 8442SOL    HW226226   1.573   3.562   0.540
 8443SOL     OW26227   0.862   1.613   2.387
 8443SOL    HW126228   0.911   1.638   2.471
 8443SOL    HW226229   0.874   1.684   2.318
 8444SOL     OW26230   4.375   0.337   2.879
 8444SOL    HW126231   4.292   0.350   2.934
 8444SOL    HW226232   4.352   0.344   2.782
 8445SOL     OW26233   4.043   5.833   2.024
 8445SOL    HW126234   4.131   5.786   2.026
 8445SOL    HW226235   4.028   5.873   1.933
 8446SOL     OW26236   6.451   4.909   3.798
 8446SOL    HW126237   6.539   4.957   3.796
 8446SOL    HW226238   6.451   4.837   3.729
 8447SOL     OW26239   5.040   3.066   1.289
 8447SOL    HW126240   4.999   3.065   1.380
 8447SOL    HW226241   5.004   3.144   1.238
 8448SOL     OW26242   0.790   2.614   6.159
 8448SOL    HW126243   0.779   2.699   6.107
 8448SOL    HW226244   0.724   2.613   6.234
 8449SOL     OW26245   1.297   1.864   5.170
 8449SOL    HW126246   1.324   1.857   5.267
 8449SOL    HW226247   1.251   1.952   5.155
 8450SOL     OW26248   2.564   5.048   2.357
 8450SOL    HW126249   2.495   4.979   2.376
 8450SOL    HW226250   2.590   5.044   2.260
 8451SOL     OW26251   4.468   3.327   0.330
 8451SOL    HW126252   4.539   3.296   0.392
 8451SOL    HW226253   4.441   3.421   0.354
 8452SOL     OW26254   6.636   5.759   0.640
 8452SOL    HW126255   6.573   5.705   0.584
 8452SOL    HW226256   6.723   5.768   0.593
 8453SOL     OW26257   0.499   4.657   5.474
 8453SOL    HW126258   0.566   4.712   5.524
 8453SOL    HW226259   0.421   4.637   5.533
 8454SOL     OW26260   1.825   6.641   4.584
 8454SOL    HW126261   1.828   6.720   4.645
 8454SOL    HW226262   1.863   6.562   4.630
 8455SOL     OW26263   6.313   2.336   0.842
 8455SOL    HW126264   6.357   2.247   0.842
 8455SOL    HW226265   6.278   2.356   0.751
 8456SOL     OW26266   5.660   5.869   3.182
 8456SOL    HW126267   5.730   5.930   3.220
 8456SOL    HW226268   5.571   5.914   3.186
 8457SOL     OW26269   6.311   6.264   6.581
 8457SOL    HW126270   6.218   6.264   6.617
 8457SOL    HW226271   6.327   6.349   6.531
 8458SOL     OW26272   1.430   1.830   1.629
 8458SOL    HW126273   1.519   1.853   1.668
 8458SOL    HW226274   1.431   1.735   1.598
 8459SOL     OW26275   3.004   5.646   2.381
 8459SOL    HW126276   3.001   5.573   2.313
 8459SOL    HW226277   2.940   5.626   2.455
 8460SOL     OW26278   3.945   1.190   0.440
 8460SOL    HW126279   3.846   1.194   0.424
 8460SOL    HW226280   3.965   1.113   0.500
 8461SOL     OW26281   5.472   4.113   2.676
 8461SOL    HW126282   5.488   4.150   2.767
 8461SOL    HW226283   5.414   4.031   2.683
 8462SOL     OW26284   2.710   3.991   0.609
 8462SOL    HW126285   2.663   4.010   0.523
 8462SOL    HW226286   2.707   3.893   0.628
 8463SOL     OW26287   6.254   0.887   6.902
 8463SOL    HW126288   6.307   0.953   6.848
 8463SOL    HW226289   6.315   0.838   6.963
 8464SOL     OW26290   6.823   3.647   6.169
 8464SOL    HW126291   6.898   3.591   6.202
 8464SOL    HW226292   6.779   3.693   6.246
 8465SOL     OW26293   4.973   3.128   0.931
 8465SOL    HW126294   4.942   3.179   1.011
 8465SOL    HW226295   5.071   3.144   0.916
 8466SOL     OW26296   6.274   1.447   5.605
 8466SOL    HW126297   6.207   1.474   5.536
 8466SOL    HW226298   6.273   1.347   5.615
 8467SOL     OW26299   3.500   1.180   0.568
 8467SOL    HW126300   3.508   1.275   0.601
 8467SOL    HW226301   3.547   1.119   0.632
 8468SOL     OW26302   5.916   3.236   0.209
 8468SOL    HW126303   5.838   3.260   0.152
 8468SOL    HW226304   5.988   3.305   0.199
 8469SOL     OW26305   4.467   3.324   5.868
 8469SOL    HW126306   4.477   3.422   5.850
 8469SOL    HW226307   4.445   3.310   5.965
 8470SOL     OW26308   1.205   5.239   1.456
 8470SOL    HW126309   1.293   5.286   1.466
 8470SOL    HW226310   1.220   5.140   1.461
 8471SOL     OW26311   3.476   1.626   4.109
 8471SOL    HW126312   3.410   1.558   4.077
 8471SOL    HW226313   3.554   1.579   4.151
 8472SOL     OW26314   6.354   1.537   5.855
 8472SOL    HW126315   6.278   1.506   5.913
 8472SOL    HW226316   6.352   1.488   5.768
 8473SOL     OW26317   5.234   4.343   0.221
 8473SOL    HW126318   5.160   4.408   0.238
 8473SOL    HW226319   5.224   4.305   0.129
 8474SOL     OW26320   3.987   3.737   3.597
 8474SOL    HW126321   3.934   3.817   3.623
 8474SOL    HW226322   4.055   3.718   3.667
 8475SOL     OW26323   6.672   2.723   2.860
 8475SOL    HW126324   6.623   2.639   2.885
 8475SOL    HW226325   6.654   2.794   2.929
 8476SOL     OW26326   5.971   0.881   1.499
 8476SOL    HW126327   6.019   0.907   1.583
 8476SOL    HW226328   5.938   0.787   1.507
 8477SOL     OW26329   5.399   6.594   1.497
 8477SOL    HW126330   5.308   6.583   1.537
 8477SOL    HW226331   5.393   6.581   1.398
 8478SOL     OW26332   6.798   0.680   5.708
 8478SOL    HW126333   6.756   0.603   5.660
 8478SOL    HW226334   6.855   0.645   5.782
 8479SOL     OW26335   1.245   2.696   0.705
 8479SOL    HW126336   1.172   2.631   0.689
 8479SOL    HW226337   1.284   2.725   0.618
 8480SOL     OW26338   4.320   3.687   7.021
 8480SOL    HW126339   4.253   3.629   0.045
 8480SOL    HW226340   4.364   3.747   0.065
 8481SOL     OW26341   4.541   2.175   3.328
 8481SOL    HW126342   4.609   2.224   3.273
 8481SOL    HW226343   4.473   2.239   3.362
 8482SOL     OW26344   4.646   0.685   0.822
 8482SOL    HW126345   4.588   0.606   0.803
 8482SOL    HW226346   4.627   0.719   0.913
 8483SOL     OW26347   3.793   4.872   2.627
 8483SOL    HW126348   3.695   4.856   2.610
 8483SOL    HW226349   3.835   4.909   2.544
 8484SOL     OW26350   4.823   5.778   4.787
 8484SOL    HW126351   4.769   5.829   4.855
 8484SOL    HW226352   4.914   5.761   4.824
 8485SOL     OW26353   3.754   1.828   0.278
 8485SOL    HW126354   3.768   1.743   0.330
 8485SOL    HW226355   3.743   1.904   0.341
 8486SOL     OW26356   6.312   2.648   3.291
 8486SOL    HW126357   6.220   2.617   3.314
 8486SOL    HW226358   6.315   2.674   3.194
 8487SOL     OW26359   6.977   1.990   6.429
 8487SOL    HW126360   6.978   1.904   6.378
 8487SOL    HW226361   6.980   2.067   6.366
 8488SOL     OW26362   4.818   5.172   1.914
 8488SOL    HW126363   4.836   5.073   1.920
 8488SOL    HW226364   4.888   5.215   1.857
 8489SOL     OW26365   6.048   2.079   1.414
 8489SOL    HW126366   5.971   2.023   1.444
 8489SOL    HW226367   6.013   2.158   1.363
 8490SOL     OW26368   3.210   0.371   6.529
 8490SOL    HW126369   3.270   0.325   6.463
 8490SOL    HW226370   3.169   0.451   6.487
 8491SOL     OW26371   2.938   5.749   1.744
 8491SOL    HW126372   2.869   5.787   1.807
 8491SOL    HW226373   3.010   5.705   1.797
 8492SOL     OW26374   6.352   6.112   4.685
 8492SOL    HW126375   6.330   6.033   4.628
 8492SOL    HW226376   6.351   6.194   4.628
 8493SOL     OW26377   5.055   1.537   6.613
 8493SOL    HW126378   4.993   1.493   6.678
 8493SOL    HW226379   5.144   1.492   6.615
 8494SOL     OW26380   6.661   4.970   2.397
 8494SOL    HW126381   6.629   4.994   2.305
 8494SOL    HW226382   6.724   5.041   2.429
 8495SOL     OW26383   6.597   5.332   6.164
 8495SOL    HW126384   6.504   5.362   6.144
 8495SOL    HW226385   6.607   5.236   6.137
 8496SOL     OW26386   5.194   2.973   2.071
 8496SOL    HW126387   5.172   2.879   2.095
 8496SOL    HW226388   5.210   3.026   2.155
 8497SOL     OW26389   6.661   0.683   3.447
 8497SOL    HW126390   6.690   0.588   3.434
 8497SOL    HW226391   6.591   0.706   3.380
 8498SOL     OW26392   4.981   0.014   3.962
 8498SOL    HW126393   5.080   0.023   3.975
 8498SOL    HW226394   4.957   0.043   3.870
 8499SOL     OW26395   5.563   6.541   5.423
 8499SOL    HW126396   5.649   6.588   5.444
 8499SOL    HW226397   5.562   6.451   5.466
 8500SOL     OW26398   1.095   0.588   6.013
 8500SOL    HW126399   1.131   0.550   5.928
 8500SOL    HW226400   1.002   0.621   5.998
 8501SOL     OW26401   1.726   1.337   6.800
 8501SOL    HW126402   1.804   1.290   6.842
 8501SOL    HW226403   1.754   1.427   6.767
 8502SOL     OW26404   0.558   4.062   6.699
 8502SOL    HW126405   0.551   4.103   6.789
 8502SOL    HW226406   0.475   4.081   6.646
 8503SOL     OW26407   5.043   1.163   4.859
 8503SOL    HW126408   5.139   1.174   4.887
 8503SOL    HW226409   5.021   1.066   4.854
 8504SOL     OW26410   1.393   0.086   1.889
 8504SOL    HW126411   1.454   0.147   1.940
 8504SOL    HW226412   1.410   7.013   1.916
 8505SOL     OW26413   5.208   3.327   2.416
 8505SOL    HW126414   5.283   3.310   2.352
 8505SOL    HW226415   5.204   3.424   2.439
 8506SOL     OW26416   1.681   1.058   6.037
 8506SOL    HW126417   1.722   1.017   6.118
 8506SOL    HW226418   1.587   1.087   6.058
 8507SOL     OW26419   3.224   6.067   5.410
 8507SOL    HW126420   3.319   6.079   5.440
 8507SOL    HW226421   3.173   6.151   5.426
 8508SOL     OW26422   3.322   1.269   0.177
 8508SOL    HW126423   3.252   1.324   0.131
 8508SOL    HW226424   3.316   1.175   0.145
 8509SOL     OW26425   5.550   2.138   2.835
 8509SOL    HW126426   5.603   2.163   2.754
 8509SOL    HW226427   5.540   2.038   2.838
 8510SOL     OW26428   0.061   2.155   4.464
 8510SOL    HW126429   0.156   2.125   4.473
 8510SOL    HW226430   7.022   2.080   4.491
 8511SOL     OW26431   5.350   2.035   2.537
 8511SOL    HW126432   5.433   2.077   2.573
 8511SOL    HW226433   5.364   2.012   2.441
 8512SOL     OW26434   2.090   6.640   6.009
 8512SOL    HW126435   2.166   6.639   6.075
 8512SOL    HW226436   2.052   6.548   6.002
 8513SOL     OW26437   4.760   6.732   6.725
 8513SOL    HW126438   4.854   6.753   6.700
 8513SOL    HW226439   4.708   6.708   6.642
 8514SOL     OW26440   2.936   6.079   4.154
 8514SOL    HW126441   3.002   6.013   4.190
 8514SOL    HW226442   2.961   6.171   4.184
 8515SOL     OW26443   5.569   1.727   0.673
 8515SOL    HW126444   5.604   1.797   0.611
 8515SOL    HW226445   5.639   1.658   0.689
 8516SOL     OW26446   0.123   2.006   2.569
 8516SOL    HW126447   0.026   2.005   2.592
 8516SOL    HW226448   0.154   2.100   2.558
 8517SOL     OW26449   0.908   3.541   0.521
 8517SOL    HW126450   0.969   3.507   0.592
 8517SOL    HW226451   0.913   3.641   0.519
 8518SOL     OW26452   3.098   5.906   0.352
 8518SOL    HW126453   3.012   5.882   0.308
 8518SOL    HW226454   3.125   5.833   0.414
 8519SOL     OW26455   1.817   5.557   2.709
 8519SOL    HW126456   1.892   5.492   2.719
 8519SOL    HW226457   1.760   5.530   2.632
 8520SOL     OW26458   3.434   6.904   6.907
 8520SOL    HW126459   3.353   6.935   6.857
 8520SOL    HW226460   3.514   6.914   6.850
 8521SOL     OW26461   1.334   0.439   0.356
 8521SOL    HW126462   1.323   0.524   0.304
 8521SOL    HW226463   1.378   0.370   0.299
 8522SOL     OW26464   2.231   6.446   4.687
 8522SOL    HW126465   2.289   6.383   4.740
 8522SOL    HW226466   2.267   6.453   4.594
 8523SOL     OW26467   1.401   6.728   0.228
 8523SOL    HW126468   1.330   6.780   0.276
 8523SOL    HW226469   1.488   6.775   0.234
 8524SOL     OW26470   1.865   1.928   6.352
 8524SOL    HW126471   1.954   1.904   6.391
 8524SOL    HW226472   1.807   1.967   6.424
 8525SOL     OW26473   4.845   3.094   3.223
 8525SOL    HW126474   4.745   3.101   3.220
 8525SOL    HW226475   4.873   2.998   3.218
 8526SOL     OW26476   1.827   3.219   2.710
 8526SOL    HW126477   1.795   3.311   2.731
 8526SOL    HW226478   1.923   3.222   2.682
 8527SOL     OW26479   4.083   0.079   3.982
 8527SOL    HW126480   4.087   7.002   3.990
 8527SOL    HW226481   4.040   0.117   4.064
 8528SOL     OW26482   5.142   2.753   6.761
 8528SOL    HW126483   5.116   2.847   6.740
 8528SOL    HW226484   5.067   2.708   6.810
 8529SOL     OW26485   0.290   5.155   6.679
 8529SOL    HW126486   0.323   5.076   6.732
 8529SOL    HW226487   0.343   5.162   6.594
 8530SOL     OW26488   1.367   3.747   5.793
 8530SOL    HW126489   1.404   3.657   5.815
 8530SOL    HW226490   1.303   3.739   5.716
 8531SOL     OW26491   4.092   4.745   2.012
 8531SOL    HW126492   4.039   4.677   2.063
 8531SOL    HW226493   4.036   4.827   1.996
 8532SOL     OW26494   1.613   4.094   6.806
 8532SOL    HW126495   1.616   4.188   6.774
 8532SOL    HW226496   1.706   4.056   6.806
 8533SOL     OW26497   3.753   0.092   5.982
 8533SOL    HW126498   3.681   0.056   5.922
 8533SOL    HW226499   3.755   0.192   5.976
 8534SOL     OW26500   1.588   2.893   2.714
 8534SOL    HW126501   1.608   2.986   2.685
 8534SOL    HW226502   1.672   2.849   2.746
 8535SOL     OW26503   6.567   3.255   4.803
 8535SOL    HW126504   6.614   3.185   4.857
 8535SOL    HW226505   6.473   3.225   4.786
 8536SOL     OW26506   6.982   0.994   4.069
 8536SOL    HW126507   7.021   1.067   4.012
 8536SOL    HW226508   6.882   0.994   4.058
 8537SOL     OW26509   5.588   0.085   2.797
 8537SOL    HW126510   5.549   7.016   2.797
 8537SOL    HW226511   5.568   0.130   2.884
 8538SOL     OW26512   5.669   0.868   5.438
 8538SOL    HW126513   5.723   0.917   5.369
 8538SOL    HW226514   5.572   0.884   5.422
 8539SOL     OW26515   0.126   3.208   3.305
 8539SOL    HW126516   0.159   3.250   3.220
 8539SOL    HW226517   0.203   3.171   3.356
 8540SOL     OW26518   3.992   7.018   6.667
 8540SOL    HW126519   4.008   0.091   6.695
 8540SOL    HW226520   3.964   6.964   6.746
 8541SOL     OW26521   3.134   5.988   5.161
 8541SOL    HW126522   3.117   6.062   5.096
 8541SOL    HW226523   3.176   6.026   5.244
 8542SOL     OW26524   1.435   6.000   5.986
 8542SOL    HW126525   1.535   6.001   5.983
 8542SOL    HW226526   1.399   5.974   5.896
 8543SOL     OW26527   2.745   2.584   6.061
 8543SOL    HW126528   2.827   2.530   6.079
 8543SOL    HW226529   2.663   2.529   6.079
 8544SOL     OW26530   5.358   5.205   5.449
 8544SOL    HW126531   5.404   5.268   5.511
 8544SOL    HW226532   5.421   5.175   5.378
 8545SOL     OW26533   2.317   0.204   6.594
 8545SOL    HW126534   2.387   0.211   6.523
 8545SOL    HW226535   2.281   0.295   6.614
 8546SOL     OW26536   4.661   1.145   3.082
 8546SOL    HW126537   4.727   1.139   3.157
 8546SOL    HW226538   4.708   1.126   2.995
 8547SOL     OW26539   5.693   6.500   5.802
 8547SOL    HW126540   5.755   6.486   5.879
 8547SOL    HW226541   5.620   6.564   5.828
 8548SOL     OW26542   1.012   3.632   4.890
 8548SOL    HW126543   1.007   3.689   4.808
 8548SOL    HW226544   1.020   3.536   4.864
 8549SOL     OW26545   1.073   0.321   4.217
 8549SOL    HW126546   1.058   0.276   4.305
 8549SOL    HW226547   1.011   0.282   4.149
 8550SOL     OW26548   6.915   5.249   5.794
 8550SOL    HW126549   7.010   5.218   5.781
 8550SOL    HW226550   6.914   5.334   5.847
 8551SOL     OW26551   2.477   0.229   5.387
 8551SOL    HW126552   2.455   0.162   5.459
 8551SOL    HW226553   2.499   0.317   5.430
 8552SOL     OW26554   2.977   1.504   2.105
 8552SOL    HW126555   2.943   1.547   2.021
 8552SOL    HW226556   3.042   1.565   2.150
 8553SOL     OW26557   5.382   3.681   0.163
 8553SOL    HW126558   5.416   3.630   0.242
 8553SOL    HW226559   5.303   3.633   0.123
 8554SOL     OW26560   2.129   0.705   0.270
 8554SOL    HW126561   2.152   0.779   0.207
 8554SOL    HW226562   2.200   0.633   0.264
 8555SOL     OW26563   4.018   1.863   4.009
 8555SOL    HW126564   3.927   1.827   4.026
 8555SOL    HW226565   4.013   1.934   3.940
 8556SOL     OW26566   0.649   5.625   6.234
 8556SOL    HW126567   0.691   5.716   6.231
 8556SOL    HW226568   0.554   5.634   6.263
 8557SOL     OW26569   6.931   1.156   6.642
 8557SOL    HW126570   6.854   1.114   6.690
 8557SOL    HW226571   6.993   1.085   6.608
 8558SOL     OW26572   2.684   5.982   4.240
 8558SOL    HW126573   2.768   6.024   4.207
 8558SOL    HW226574   2.659   6.022   4.328
 8559SOL     OW26575   2.024   4.455   2.701
 8559SOL    HW126576   1.957   4.382   2.717
 8559SOL    HW226577   2.093   4.453   2.773
 8560SOL     OW26578   2.802   4.232   0.768
 8560SOL    HW126579   2.782   4.139   0.735
 8560SOL    HW226580   2.718   4.274   0.802
 8561SOL     OW26581   3.736   0.332   2.860
 8561SOL    HW126582   3.667   0.403   2.854
 8561SOL    HW226583   3.817   0.367   2.907
 8562SOL     OW26584   5.382   2.194   0.272
 8562SOL    HW126585   5.457   2.152   0.222
 8562SOL    HW226586   5.383   2.161   0.367
 8563SOL     OW26587   3.016   5.175   2.388
 8563SOL    HW126588   3.098   5.168   2.331
 8563SOL    HW226589   3.036   5.230   2.470
 8564SOL     OW26590   4.184   6.814   0.333
 8564SOL    HW126591   4.140   6.724   0.330
 8564SOL    HW226592   4.241   6.821   0.414
 8565SOL     OW26593   1.779   4.616   1.476
 8565SOL    HW126594   1.687   4.648   1.500
 8565SOL    HW226595   1.796   4.527   1.520
 8566SOL     OW26596   3.219   0.839   2.220
 8566SOL    HW126597   3.228   0.910   2.289
 8566SOL    HW226598   3.183   0.878   2.136
 8567SOL     OW26599   1.501   2.670   2.594
 8567SOL    HW126600   1.537   2.601   2.658
 8567SOL    HW226601   1.537   2.760   2.619
 8568SOL     OW26602   6.052   0.635   6.296
 8568SOL    HW126603   6.110   0.713   6.273
 8568SOL    HW226604   5.960   0.667   6.318
 8569SOL     OW26605   4.451   2.166   0.422
 8569SOL    HW126606   4.545   2.131   0.422
 8569SOL    HW226607   4.448   2.256   0.379
 8570SOL     OW26608   2.484   2.140   1.838
 8570SOL    HW126609   2.527   2.079   1.772
 8570SOL    HW226610   2.525   2.231   1.831
 8571SOL     OW26611   1.718   0.825   2.916
 8571SOL    HW126612   1.646   0.757   2.898
 8571SOL    HW226613   1.676   0.914   2.934
 8572SOL     OW26614   2.564   4.063   5.708
 8572SOL    HW126615   2.605   4.145   5.747
 8572SOL    HW226616   2.619   4.033   5.630
 8573SOL     OW26617   3.014   6.334   6.931
 8573SOL    HW126618   2.989   6.380   7.016
 8573SOL    HW226619   2.997   6.235   6.940
 8574SOL     OW26620   4.709   0.550   5.495
 8574SOL    HW126621   4.795   0.580   5.537
 8574SOL    HW226622   4.700   0.591   5.405
 8575SOL     OW26623   3.313   5.972   3.770
 8575SOL    HW126624   3.244   5.996   3.838
 8575SOL    HW226625   3.308   6.036   3.694
 8576SOL     OW26626   1.490   4.618   4.438
 8576SOL    HW126627   1.499   4.604   4.339
 8576SOL    HW226628   1.529   4.707   4.463
 8577SOL     OW26629   2.122   1.771   0.789
 8577SOL    HW126630   2.034   1.749   0.747
 8577SOL    HW226631   2.189   1.701   0.766
 8578SOL     OW26632   0.510   0.180   6.996
 8578SOL    HW126633   0.524   0.088   6.960
 8578SOL    HW226634   0.503   0.245   6.920
 8579SOL     OW26635   2.555   6.655   2.317
 8579SOL    HW126636   2.551   6.716   2.396
 8579SOL    HW226637   2.475   6.670   2.259
 8580SOL     OW26638   1.559   0.349   1.973
 8580SOL    HW126639   1.516   0.432   2.009
 8580SOL    HW226640   1.654   0.368   1.947
 8581SOL     OW26641   3.300   4.688   0.803
 8581SOL    HW126642   3.375   4.730   0.752
 8581SOL    HW226643   3.268   4.752   0.873
 8582SOL     OW26644   3.801   5.286   5.417
 8582SOL    HW126645   3.849   5.274   5.331
 8582SOL    HW226646   3.750   5.373   5.415
 8583SOL     OW26647   4.014   6.552   2.739
 8583SOL    HW126648   4.093   6.579   2.683
 8583SOL    HW226649   3.949   6.501   2.682
 8584SOL     OW26650   6.637   1.279   4.557
 8584SOL    HW126651   6.652   1.211   4.485
 8584SOL    HW226652   6.644   1.235   4.646
 8585SOL     OW26653   5.354   3.103   3.024
 8585SOL    HW126654   5.449   3.135   3.033
 8585SOL    HW226655   5.325   3.114   2.929
 8586SOL     OW26656   6.580   6.402   6.908
 8586SOL    HW126657   6.628   6.330   6.857
 8586SOL    HW226658   6.482   6.387   6.901
 8587SOL     OW26659   0.312   2.100   0.153
 8587SOL    HW126660   0.286   2.191   0.186
 8587SOL    HW226661   0.402   2.105   0.110
 8588SOL     OW26662   2.837   0.923   5.659
 8588SOL    HW126663   2.801   1.011   5.689
 8588SOL    HW226664   2.847   0.862   5.738
 8589SOL     OW26665   5.675   2.957   6.894
 8589SOL    HW126666   5.698   3.002   6.807
 8589SOL    HW226667   5.758   2.935   6.943
 8590SOL     OW26668   0.695   0.789   4.098
 8590SOL    HW126669   0.666   0.695   4.086
 8590SOL    HW226670   0.675   0.841   4.015
 8591SOL     OW26671   6.873   4.460   6.632
 8591SOL    HW126672   6.915   4.547   6.604
 8591SOL    HW226673   6.917   4.385   6.582
 8592SOL     OW26674   0.492   1.634   4.656
 8592SOL    HW126675   0.521   1.578   4.734
 8592SOL    HW226676   0.478   1.574   4.577
 8593SOL     OW26677   5.339   1.574   6.967
 8593SOL    HW126678   5.415   1.637   6.978
 8593SOL    HW226679   5.254   1.625   6.955
 8594SOL     OW26680   6.098   3.622   6.152
 8594SOL    HW126681   6.101   3.704   6.095
 8594SOL    HW226682   6.008   3.615   6.195
 8595SOL     OW26683   6.164   6.349   3.141
 8595SOL    HW126684   6.181   6.445   3.119
 8595SOL    HW226685   6.072   6.339   3.178
 8596SOL     OW26686   0.267   1.381   4.040
 8596SOL    HW126687   0.201   1.345   3.974
 8596SOL    HW226688   0.249   1.342   4.130
 8597SOL     OW26689   6.138   2.834   5.819
 8597SOL    HW126690   6.112   2.762   5.754
 8597SOL    HW226691   6.226   2.872   5.793
 8598SOL     OW26692   6.157   0.048   4.972
 8598SOL    HW126693   6.091   0.121   4.950
 8598SOL    HW226694   6.245   0.089   4.997
 8599SOL     OW26695   6.634   4.054   4.177
 8599SOL    HW126696   6.619   4.081   4.272
 8599SOL    HW226697   6.580   3.973   4.156
 8600SOL     OW26698   4.890   2.220   0.757
 8600SOL    HW126699   4.949   2.285   0.709
 8600SOL    HW226700   4.932   2.129   0.755
 8601SOL     OW26701   6.596   5.956   3.519
 8601SOL    HW126702   6.680   5.923   3.476
 8601SOL    HW226703   6.602   6.056   3.530
 8602SOL     OW26704   1.987   6.351   6.057
 8602SOL    HW126705   1.900   6.304   6.071
 8602SOL    HW226706   2.054   6.318   6.123
 8603SOL     OW26707   1.077   0.539   7.010
 8603SOL    HW126708   0.995   0.551   6.954
 8603SOL    HW226709   1.122   0.454   6.985
 8604SOL     OW26710   0.992   4.602   5.987
 8604SOL    HW126711   1.008   4.621   5.890
 8604SOL    HW226712   1.019   4.682   6.042
 8605SOL     OW26713   6.971   4.416   4.420
 8605SOL    HW126714   6.989   4.370   4.507
 8605SOL    HW226715   6.933   4.350   4.355
 8606SOL     OW26716   1.626   2.379   0.487
 8606SOL    HW126717   1.624   2.319   0.407
 8606SOL    HW226718   1.628   2.474   0.458
 8607SOL     OW26719   2.362   4.122   1.774
 8607SOL    HW126720   2.378   4.032   1.816
 8607SOL    HW226721   2.294   4.113   1.702
 8608SOL     OW26722   1.612   5.699   2.863
 8608SOL    HW126723   1.673   5.631   2.824
 8608SOL    HW226724   1.626   5.705   2.962
 8609SOL     OW26725   4.509   1.469   4.552
 8609SOL    HW126726   4.470   1.408   4.482
 8609SOL    HW226727   4.457   1.555   4.553
 8610SOL     OW26728   7.012   6.061   3.266
 8610SOL    HW126729   6.937   6.057   3.201
 8610SOL    HW226730   0.054   6.133   3.239
 8611SOL     OW26731   2.807   1.246   4.561
 8611SOL    HW126732   2.732   1.190   4.598
 8611SOL    HW226733   2.778   1.287   4.475
 8612SOL     OW26734   3.401   2.936   3.970
 8612SOL    HW126735   3.377   2.857   3.914
 8612SOL    HW226736   3.448   3.004   3.914
 8613SOL     OW26737   4.146   3.364   2.506
 8613SOL    HW126738   4.127   3.345   2.410
 8613SOL    HW226739   4.175   3.460   2.516
 8614SOL     OW26740   1.126   2.881   3.261
 8614SOL    HW126741   1.167   2.858   3.173
 8614SOL    HW226742   1.197   2.910   3.325
 8615SOL     OW26743   3.592   1.612   4.626
 8615SOL    HW126744   3.598   1.606   4.726
 8615SOL    HW226745   3.559   1.703   4.600
 8616SOL     OW26746   5.420   4.525   3.838
 8616SOL    HW126747   5.497   4.490   3.891
 8616SOL    HW226748   5.453   4.553   3.747
 8617SOL     OW26749   2.173   0.262   3.611
 8617SOL    HW126750   2.126   0.295   3.529
 8617SOL    HW226751   2.176   0.334   3.680
 8618SOL     OW26752   5.690   3.816   1.479
 8618SOL    HW126753   5.713   3.750   1.550
 8618SOL    HW226754   5.615   3.781   1.423
 8619SOL     OW26755   5.220   5.393   0.354
 8619SOL    HW126756   5.159   5.361   0.427
 8619SOL    HW226757   5.204   5.490   0.338
 8620SOL     OW26758   2.379   0.360   4.275
 8620SOL    HW126759   2.319   0.438   4.294
 8620SOL    HW226760   2.325   0.285   4.235
 8621SOL     OW26761   5.615   3.205   1.615
 8621SOL    HW126762   5.526   3.160   1.616
 8621SOL    HW226763   5.616   3.275   1.543
 8622SOL     OW26764   6.917   5.132   2.507
 8622SOL    HW126765   6.862   5.146   2.590
 8622SOL    HW226766   6.988   5.065   2.525
 8623SOL     OW26767   1.215   3.211   3.973
 8623SOL    HW126768   1.257   3.275   4.036
 8623SOL    HW226769   1.227   3.243   3.879
 8624SOL     OW26770   3.219   4.067   5.006
 8624SOL    HW126771   3.281   4.114   4.943
 8624SOL    HW226772   3.203   4.124   5.086
 8625SOL     OW26773   3.658   2.842   5.163
 8625SOL    HW126774   3.598   2.786   5.106
 8625SOL    HW226775   3.675   2.796   5.250
 8626SOL     OW26776   3.840   2.705   0.963
 8626SOL    HW126777   3.865   2.734   1.055
 8626SOL    HW226778   3.894   2.625   0.937
 8627SOL     OW26779   1.776   1.074   2.537
 8627SOL    HW126780   1.872   1.103   2.535
 8627SOL    HW226781   1.717   1.153   2.553
 8628SOL     OW26782   0.582   6.334   0.513
 8628SOL    HW126783   0.564   6.387   0.430
 8628SOL    HW226784   0.558   6.238   0.497
 8629SOL     OW26785   6.843   6.709   5.218
 8629SOL    HW126786   6.864   6.777   5.148
 8629SOL    HW226787   6.815   6.623   5.174
 8630SOL     OW26788   4.798   2.741   2.156
 8630SOL    HW126789   4.743   2.657   2.156
 8630SOL    HW226790   4.745   2.815   2.114
 8631SOL     OW26791   2.658   6.064   6.482
 8631SOL    HW126792   2.563   6.063   6.514
 8631SOL    HW226793   2.689   6.159   6.477
 8632SOL     OW26794   5.664   5.283   4.452
 8632SOL    HW126795   5.590   5.232   4.497
 8632SOL    HW226796   5.752   5.241   4.474
 8633SOL     OW26797   6.015   4.195   5.402
 8633SOL    HW126798   5.917   4.207   5.414
 8633SOL    HW226799   6.043   4.228   5.312
 8634SOL     OW26800   5.104   3.512   0.118
 8634SOL    HW126801   5.177   3.444   0.118
 8634SOL    HW226802   5.020   3.470   0.152
 8635SOL     OW26803   6.114   2.427   6.742
 8635SOL    HW126804   6.118   2.526   6.735
 8635SOL    HW226805   6.041   2.401   6.806
 8636SOL     OW26806   4.597   6.735   1.563
 8636SOL    HW126807   4.602   6.687   1.651
 8636SOL    HW226808   4.552   6.676   1.495
 8637SOL     OW26809   2.403   1.922   6.138
 8637SOL    HW126810   2.367   1.844   6.189
 8637SOL    HW226811   2.327   1.975   6.101
 8638SOL     OW26812   4.825   2.801   3.210
 8638SOL    HW126813   4.753   2.741   3.247
 8638SOL    HW226814   4.832   2.787   3.111
 8639SOL     OW26815   3.789   3.493   0.003
 8639SOL    HW126816   3.713   3.465   0.061
 8639SOL    HW226817   3.823   3.583   0.032
 8640SOL     OW26818   3.108   3.094   0.851
 8640SOL    HW126819   3.082   3.066   0.759
 8640SOL    HW226820   3.041   3.060   0.916
 8641SOL     OW26821   4.020   4.999   2.140
 8641SOL    HW126822   3.995   4.987   2.236
 8641SOL    HW226823   4.119   5.013   2.132
 8642SOL     OW26824   1.113   5.202   2.972
 8642SOL    HW126825   1.075   5.262   3.042
 8642SOL    HW226826   1.155   5.257   2.900
 8643SOL     OW26827   3.954   6.361   1.194
 8643SOL    HW126828   4.023   6.364   1.267
 8643SOL    HW226829   3.957   6.271   1.151
 8644SOL     OW26830   6.312   2.009   5.934
 8644SOL    HW126831   6.394   1.971   5.977
 8644SOL    HW226832   6.232   1.983   5.988
 8645SOL     OW26833   5.592   5.199   3.049
 8645SOL    HW126834   5.563   5.108   3.020
 8645SOL    HW226835   5.657   5.236   2.982
 8646SOL     OW26836   6.465   2.215   4.619
 8646SOL    HW126837   6.401   2.289   4.598
 8646SOL    HW226838   6.431   2.130   4.579
 8647SOL     OW26839   2.078   5.402   1.732
 8647SOL    HW126840   2.151   5.334   1.730
 8647SOL    HW226841   2.083   5.455   1.817
 8648SOL     OW26842   4.931   4.598   0.761
 8648SOL    HW126843   4.913   4.598   0.663
 8648SOL    HW226844   4.997   4.526   0.782
 8649SOL     OW26845   5.564   0.657   1.325
 8649SOL    HW126846   5.465   0.668   1.340
 8649SOL    HW226847   5.589   0.700   1.239
 8650SOL     OW26848   2.595   6.518   5.395
 8650SOL    HW126849   2.527   6.518   5.322
 8650SOL    HW226850   2.571   6.450   5.464
 8651SOL     OW26851   3.993   2.637   1.654
 8651SOL    HW126852   4.002   2.538   1.662
 8651SOL    HW226853   4.078   2.675   1.618
 8652SOL     OW26854   1.209   3.002   3.605
 8652SOL    HW126855   1.200   3.084   3.549
 8652SOL    HW226856   1.256   2.931   3.551
 8653SOL     OW26857   6.516   1.972   6.681
 8653SOL    HW126858   6.594   2.013   6.634
 8653SOL    HW226859   6.530   1.874   6.689
 8654SOL     OW26860   0.577   4.665   2.446
 8654SOL    HW126861   0.510   4.735   2.471
 8654SOL    HW226862   0.530   4.579   2.426
 8655SOL     OW26863   0.036   0.455   4.529
 8655SOL    HW126864   0.023   0.356   4.516
 8655SOL    HW226865   0.034   0.476   4.627
 8656SOL     OW26866   4.683   6.771   1.196
 8656SOL    HW126867   4.678   6.718   1.111
 8656SOL    HW226868   4.625   6.852   1.189
 8657SOL     OW26869   3.667   1.637   2.824
 8657SOL    HW126870   3.581   1.607   2.866
 8657SOL    HW226871   3.675   1.597   2.733
 8658SOL     OW26872   5.665   4.232   0.934
 8658SOL    HW126873   5.597   4.178   0.983
 8658SOL    HW226874   5.645   4.329   0.944
 8659SOL     OW26875   3.167   0.916   2.638
 8659SOL    HW126876   3.219   0.982   2.583
 8659SOL    HW226877   3.168   0.827   2.592
 8660SOL     OW26878   0.658   4.796   1.962
 8660SOL    HW126879   0.756   4.778   1.958
 8660SOL    HW226880   0.613   4.756   1.883
 8661SOL     OW26881   6.958   3.827   2.535
 8661SOL    HW126882   0.004   3.808   2.605
 8661SOL    HW226883   6.930   3.923   2.541
 8662SOL     OW26884   1.892   3.614   3.780
 8662SOL    HW126885   1.908   3.684   3.849
 8662SOL    HW226886   1.979   3.591   3.735
 8663SOL     OW26887   4.069   5.449   2.353
 8663SOL    HW126888   4.134   5.406   2.291
 8663SOL    HW226889   4.118   5.491   2.430
 8664SOL     OW26890   3.889   5.885   3.404
 8664SOL    HW126891   3.967   5.943   3.381
 8664SOL    HW226892   3.875   5.886   3.503
 8665SOL     OW26893   5.535   3.778   6.305
 8665SOL    HW126894   5.633   3.758   6.293
 8665SOL    HW226895   5.511   3.766   6.402
 8666SOL     OW26896   4.697   6.974   2.555
 8666SOL    HW126897   4.634   6.988   2.631
 8666SOL    HW226898   4.721   6.877   2.549
 8667SOL     OW26899   4.896   2.085   2.705
 8667SOL    HW126900   4.936   2.168   2.666
 8667SOL    HW226901   4.954   2.052   2.779
 8668SOL     OW26902   4.822   2.406   5.019
 8668SOL    HW126903   4.742   2.346   5.024
 8668SOL    HW226904   4.816   2.476   5.091
 8669SOL     OW26905   6.569   6.382   6.154
 8669SOL    HW126906   6.525   6.367   6.065
 8669SOL    HW226907   6.622   6.466   6.151
 8670SOL     OW26908   6.594   4.693   5.763
 8670SOL    HW126909   6.652   4.676   5.843
 8670SOL    HW226910   6.553   4.784   5.770
 8671SOL     OW26911   0.942   3.505   3.160
 8671SOL    HW126912   0.947   3.407   3.144
 8671SOL    HW226913   1.032   3.546   3.149
 8672SOL     OW26914   0.389   1.167   1.990
 8672SOL    HW126915   0.447   1.190   2.068
 8672SOL    HW226916   0.356   1.073   2.000
 8673SOL     OW26917   0.716   2.198   1.462
 8673SOL    HW126918   0.805   2.209   1.416
 8673SOL    HW226919   0.668   2.286   1.461
 8674SOL     OW26920   0.126   3.731   3.478
 8674SOL    HW126921   0.035   3.694   3.498
 8674SOL    HW226922   0.117   3.827   3.451
 8675SOL     OW26923   4.096   2.195   4.844
 8675SOL    HW126924   4.112   2.212   4.747
 8675SOL    HW226925   4.136   2.270   4.898
 8676SOL     OW26926   5.147   1.342   1.043
 8676SOL    HW126927   5.218   1.277   1.019
 8676SOL    HW226928   5.124   1.333   1.140
 8677SOL     OW26929   2.481   6.722   5.535
 8677SOL    HW126930   2.383   6.743   5.534
 8677SOL    HW226931   2.499   6.644   5.474
 8678SOL     OW26932   1.822   2.230   0.591
 8678SOL    HW126933   1.907   2.274   0.561
 8678SOL    HW226934   1.744   2.285   0.560
 8679SOL     OW26935   1.404   2.118   6.344
 8679SOL    HW126936   1.449   2.190   6.291
 8679SOL    HW226937   1.342   2.159   6.410
 8680SOL     OW26938   6.877   0.987   0.359
 8680SOL    HW126939   6.908   0.912   0.300
 8680SOL    HW226940   6.780   1.005   0.341
 8681SOL     OW26941   5.275   6.336   1.208
 8681SOL    HW126942   5.325   6.423   1.209
 8681SOL    HW226943   5.202   6.340   1.141
 8682SOL     OW26944   2.063   0.571   2.090
 8682SOL    HW126945   1.980   0.520   2.065
 8682SOL    HW226946   2.113   0.519   2.159
 8683SOL     OW26947   2.338   4.859   4.771
 8683SOL    HW126948   2.309   4.765   4.751
 8683SOL    HW226949   2.409   4.857   4.842
 8684SOL     OW26950   2.523   4.502   4.409
 8684SOL    HW126951   2.553   4.427   4.467
 8684SOL    HW226952   2.438   4.476   4.361
 8685SOL     OW26953   4.847   2.588   4.817
 8685SOL    HW126954   4.836   2.515   4.886
 8685SOL    HW226955   4.887   2.549   4.734
 8686SOL     OW26956   0.847   4.845   3.164
 8686SOL    HW126957   0.829   4.772   3.097
 8686SOL    HW226958   0.760   4.888   3.189
 8687SOL     OW26959   5.425   4.268   5.486
 8687SOL    HW126960   5.444   4.170   5.475
 8687SOL    HW226961   5.440   4.314   5.399
 8688SOL     OW26962   1.334   3.747   4.891
 8688SOL    HW126963   1.268   3.690   4.940
 8688SOL    HW226964   1.291   3.790   4.813
 8689SOL     OW26965   4.065   3.369   6.890
 8689SOL    HW126966   4.034   3.387   6.797
 8689SOL    HW226967   4.122   3.287   6.891
 8690SOL     OW26968   1.275   2.479   2.602
 8690SOL    HW126969   1.199   2.541   2.621
 8690SOL    HW226970   1.357   2.532   2.582
 8691SOL     OW26971   3.612   2.383   5.716
 8691SOL    HW126972   3.623   2.459   5.780
 8691SOL    HW226973   3.689   2.382   5.652
 8692SOL     OW26974   4.476   1.802   4.971
 8692SOL    HW126975   4.404   1.735   4.990
 8692SOL    HW226976   4.442   1.872   4.909
 8693SOL     OW26977   6.917   0.026   5.985
 8693SOL    HW126978   7.002   7.003   5.956
 8693SOL    HW226979   6.840   6.987   5.972
 8694SOL     OW26980   5.044   2.739   5.232
 8694SOL    HW126981   5.054   2.834   5.260
 8694SOL    HW226982   5.041   2.733   5.132
 8695SOL     OW26983   3.847   4.409   0.149
 8695SOL    HW126984   3.803   4.455   0.071
 8695SOL    HW226985   3.829   4.311   0.144
 8696SOL     OW26986   3.052   5.338   5.572
 8696SOL    HW126987   2.967   5.327   5.522
 8696SOL    HW226988   3.066   5.259   5.632
 8697SOL     OW26989   1.644   3.751   5.495
 8697SOL    HW126990   1.563   3.776   5.441
 8697SOL    HW226991   1.631   3.779   5.590
 8698SOL     OW26992   4.622   5.313   6.231
 8698SOL    HW126993   4.587   5.286   6.142
 8698SOL    HW226994   4.689   5.387   6.220
 8699SOL     OW26995   1.692   2.389   6.928
 8699SOL    HW126996   1.597   2.393   6.960
 8699SOL    HW226997   1.712   2.471   6.874
 8700SOL     OW26998   1.380   0.695   4.117
 8700SOL    HW126999   1.461   0.752   4.105
 8700SOL    HW227000   1.385   0.645   4.203
 8701SOL     OW27001   1.425   2.496   7.013
 8701SOL    HW127002   1.358   2.527   6.945
 8701SOL    HW227003   1.453   2.574   0.047
 8702SOL     OW27004   5.247   4.696   1.088
 8702SOL    HW127005   5.261   4.795   1.093
 8702SOL    HW227006   5.222   4.661   1.178
 8703SOL     OW27007   2.842   5.812   0.799
 8703SOL    HW127008   2.841   5.725   0.748
 8703SOL    HW227009   2.810   5.796   0.892
 8704SOL     OW27010   0.500   1.288   5.171
 8704SOL    HW127011   0.400   1.277   5.178
 8704SOL    HW227012   0.523   1.328   5.082
 8705SOL     OW27013   3.901   2.266   6.863
 8705SOL    HW127014   3.846   2.196   6.911
 8705SOL    HW227015   3.997   2.241   6.866
 8706SOL     OW27016   4.870   3.030   6.513
 8706SOL    HW127017   4.850   3.122   6.479
 8706SOL    HW227018   4.792   2.970   6.494
 8707SOL     OW27019   2.643   1.371   4.338
 8707SOL    HW127020   2.606   1.368   4.246
 8707SOL    HW227021   2.596   1.442   4.391
 8708SOL     OW27022   5.736   2.817   0.609
 8708SOL    HW127023   5.750   2.718   0.612
 8708SOL    HW227024   5.825   2.863   0.616
 8709SOL     OW27025   5.774   6.829   4.979
 8709SOL    HW127026   5.727   6.858   5.062
 8709SOL    HW227027   5.775   6.729   4.974
 8710SOL     OW27028   1.869   1.641   3.265
 8710SOL    HW127029   1.812   1.559   3.261
 8710SOL    HW227030   1.965   1.616   3.253
 8711SOL     OW27031   1.355   1.645   1.847
 8711SOL    HW127032   1.454   1.659   1.854
 8711SOL    HW227033   1.336   1.580   1.773
 8712SOL     OW27034   1.145   4.015   5.327
 8712SOL    HW127035   1.096   4.075   5.389
 8712SOL    HW227036   1.094   3.929   5.315
 8713SOL     OW27037   0.394   3.596   0.979
 8713SOL    HW127038   0.297   3.607   0.959
 8713SOL    HW227039   0.417   3.499   0.985
 8714SOL     OW27040   6.759   5.222   6.880
 8714SOL    HW127041   6.748   5.275   6.795
 8714SOL    HW227042   6.821   5.270   6.942
 8715SOL     OW27043   1.960   3.715   1.863
 8715SOL    HW127044   1.968   3.795   1.804
 8715SOL    HW227045   2.036   3.712   1.927
 8716SOL     OW27046   6.558   0.395   2.176
 8716SOL    HW127047   6.602   0.446   2.102
 8716SOL    HW227048   6.614   0.402   2.259
 8717SOL     OW27049   2.802   2.840   0.011
 8717SOL    HW127050   2.859   2.771   6.988
 8717SOL    HW227051   2.714   2.799   0.035
 8718SOL     OW27052   2.591   4.842   6.262
 8718SOL    HW127053   2.610   4.861   6.358
 8718SOL    HW227054   2.505   4.886   6.235
 8719SOL     OW27055   3.123   0.461   4.884
 8719SOL    HW127056   3.060   0.478   4.808
 8719SOL    HW227057   3.205   0.415   4.848
 8720SOL     OW27058   0.073   4.944   4.938
 8720SOL    HW127059   0.123   5.029   4.951
 8720SOL    HW227060   7.001   4.964   4.913
 8721SOL     OW27061   0.673   0.002   6.797
 8721SOL    HW127062   0.717   6.965   6.730
 8721SOL    HW227063   0.723   0.088   6.804
 8722SOL     OW27064   3.031   1.045   0.668
 8722SOL    HW127065   3.000   1.020   0.577
 8722SOL    HW227066   3.065   1.139   0.668
 8723SOL     OW27067   3.825   6.751   2.457
 8723SOL    HW127068   3.817   6.668   2.513
 8723SOL    HW227069   3.740   6.765   2.406
 8724SOL     OW27070   3.627   1.239   4.321
 8724SOL    HW127071   3.654   1.272   4.412
 8724SOL    HW227072   3.645   1.141   4.315
 8725SOL     OW27073   6.901   6.861   3.623
 8725SOL    HW127074   6.966   6.828   3.692
 8725SOL    HW227075   6.821   6.802   3.622
 8726SOL     OW27076   6.990   1.435   1.039
 8726SOL    HW127077   6.997   1.374   0.960
 8726SOL    HW227078   0.057   1.447   1.081
 8727SOL     OW27079   5.032   6.388   6.429
 8727SOL    HW127080   5.023   6.424   6.336
 8727SOL    HW227081   4.944   6.350   6.459
 8728SOL     OW27082   6.278   0.022   4.566
 8728SOL    HW127083   6.304   0.118   4.569
 8728SOL    HW227084   6.243   7.022   4.475
 8729SOL     OW27085   5.461   5.725   6.371
 8729SOL    HW127086   5.503   5.783   6.440
 8729SOL    HW227087   5.362   5.731   6.377
 8730SOL     OW27088   5.115   5.509   1.219
 8730SOL    HW127089   5.060   5.441   1.169
 8730SOL    HW227090   5.097   5.600   1.180
 8731SOL     OW27091   6.184   1.509   3.762
 8731SOL    HW127092   6.139   1.598   3.769
 8731SOL    HW227093   6.165   1.456   3.844
 8732SOL     OW27094   5.716   6.810   6.889
 8732SOL    HW127095   5.693   6.769   6.801
 8732SOL    HW227096   5.775   6.748   6.940
 8733SOL     OW27097   6.525   4.213   2.542
 8733SOL    HW127098   6.544   4.205   2.444
 8733SOL    HW227099   6.458   4.286   2.557
 8734SOL     OW27100   0.772   4.067   1.576
 8734SOL    HW127101   0.702   4.127   1.537
 8734SOL    HW227102   0.810   4.108   1.658
 8735SOL     OW27103   0.038   2.764   5.036
 8735SOL    HW127104   7.008   2.685   5.004
 8735SOL    HW227105   0.118   2.732   5.088
 8736SOL     OW27106   1.279   6.121   3.203
 8736SOL    HW127107   1.249   6.208   3.241
 8736SOL    HW227108   1.218   6.048   3.235
 8737SOL     OW27109   1.123   5.916   0.393
 8737SOL    HW127110   1.184   5.885   0.321
 8737SOL    HW227111   1.070   5.995   0.360
 8738SOL     OW27112   1.269   3.324   2.885
 8738SOL    HW127113   1.234   3.390   2.819
 8738SOL    HW227114   1.312   3.373   2.961
 8739SOL     OW27115   5.761   4.944   4.762
 8739SOL    HW127116   5.819   4.984   4.833
 8739SOL    HW227117   5.731   4.853   4.791
 8740SOL     OW27118   2.993   0.939   4.784
 8740SOL    HW127119   3.025   0.919   4.691
 8740SOL    HW227120   3.012   1.034   4.806
 8741SOL     OW27121   0.891   1.363   3.339
 8741SOL    HW127122   0.982   1.354   3.377
 8741SOL    HW227123   0.895   1.356   3.239
 8742SOL     OW27124   3.025   1.838   2.011
 8742SOL    HW127125   3.023   1.927   1.963
 8742SOL    HW227126   3.005   1.852   2.107
 8743SOL     OW27127   0.812   2.759   1.601
 8743SOL    HW127128   0.908   2.787   1.606
 8743SOL    HW227129   0.765   2.785   1.685
 8744SOL     OW27130   3.454   4.061   5.724
 8744SOL    HW127131   3.382   4.007   5.767
 8744SOL    HW227132   3.485   4.132   5.787
 8745SOL     OW27133   5.914   1.739   5.774
 8745SOL    HW127134   5.926   1.694   5.862
 8745SOL    HW227135   5.962   1.827   5.774
 8746SOL     OW27136   3.991   4.775   5.644
 8746SOL    HW127137   4.090   4.759   5.655
 8746SOL    HW227138   3.970   4.868   5.673
 8747SOL     OW27139   0.885   0.619   2.837
 8747SOL    HW127140   0.919   0.631   2.930
 8747SOL    HW227141   0.911   0.528   2.803
 8748SOL     OW27142   5.800   1.741   4.399
 8748SOL    HW127143   5.847   1.806   4.339
 8748SOL    HW227144   5.866   1.702   4.464
 8749SOL     OW27145   2.618   0.978   3.658
 8749SOL    HW127146   2.613   0.926   3.744
 8749SOL    HW227147   2.557   1.056   3.663
 8750SOL     OW27148   3.528   4.118   0.934
 8750SOL    HW127149   3.526   4.151   0.840
 8750SOL    HW227150   3.456   4.164   0.987
 8751SOL     OW27151   2.853   6.632   0.510
 8751SOL    HW127152   2.796   6.682   0.575
 8751SOL    HW227153   2.944   6.674   0.507
 8752SOL     OW27154   6.789   2.589   5.353
 8752SOL    HW127155   6.850   2.510   5.360
 8752SOL    HW227156   6.753   2.612   5.443
 8753SOL     OW27157   3.001   2.265   0.922
 8753SOL    HW127158   3.038   2.227   0.837
 8753SOL    HW227159   2.914   2.310   0.903
 8754SOL     OW27160   1.519   5.687   7.006
 8754SOL    HW127161   1.477   5.768   6.965
 8754SOL    HW227162   1.453   5.643   0.045
 8755SOL     OW27163   0.578   2.744   2.197
 8755SOL    HW127164   0.585   2.832   2.149
 8755SOL    HW227165   0.496   2.696   2.166
 8756SOL     OW27166   1.638   1.663   1.917
 8756SOL    HW127167   1.727   1.701   1.893
 8756SOL    HW227168   1.595   1.719   1.987
 8757SOL     OW27169   5.274   5.995   5.885
 8757SOL    HW127170   5.356   6.014   5.831
 8757SOL    HW227171   5.204   6.064   5.865
 8758SOL     OW27172   3.588   5.636   5.112
 8758SOL    HW127173   3.676   5.661   5.154
 8758SOL    HW227174   3.519   5.627   5.183
 8759SOL     OW27175   6.025   1.054   0.823
 8759SOL    HW127176   5.937   1.008   0.830
 8759SOL    HW227177   6.037   1.115   0.902
 8760SOL     OW27178   2.765   2.407   4.156
 8760SOL    HW127179   2.723   2.392   4.067
 8760SOL    HW227180   2.863   2.394   4.150
 8761SOL     OW27181   4.993   1.754   2.743
 8761SOL    HW127182   4.907   1.773   2.697
 8761SOL    HW227183   4.975   1.701   2.826
 8762SOL     OW27184   2.862   4.984   3.272
 8762SOL    HW127185   2.899   4.963   3.363
 8762SOL    HW227186   2.936   4.978   3.205
 8763SOL     OW27187   0.667   1.058   6.719
 8763SOL    HW127188   0.712   1.010   6.795
 8763SOL    HW227189   0.653   0.994   6.643
 8764SOL     OW27190   2.882   5.047   5.615
 8764SOL    HW127191   2.881   5.053   5.715
 8764SOL    HW227192   2.803   5.096   5.577
 8765SOL     OW27193   3.888   6.909   3.844
 8765SOL    HW127194   3.864   6.833   3.905
 8765SOL    HW227195   3.897   6.875   3.751
 8766SOL     OW27196   5.014   6.913   5.998
 8766SOL    HW127197   5.104   6.939   6.034
 8766SOL    HW227198   5.013   6.815   5.978
 8767SOL     OW27199   1.546   0.914   3.496
 8767SOL    HW127200   1.574   0.954   3.409
 8767SOL    HW227201   1.626   0.875   3.542
 8768SOL     OW27202   6.945   2.058   6.769
 8768SOL    HW127203   0.009   2.078   6.815
 8768SOL    HW227204   6.962   1.997   6.691
 8769SOL     OW27205   6.120   0.362   0.029
 8769SOL    HW127206   6.097   0.439   0.088
 8769SOL    HW227207   6.049   0.349   6.983
 8770SOL     OW27208   5.103   2.628   0.442
 8770SOL    HW127209   5.048   2.703   0.479
 8770SOL    HW227210   5.195   2.662   0.421
 8771SOL     OW27211   0.361   2.578   6.807
 8771SOL    HW127212   0.437   2.639   6.831
 8771SOL    HW227213   0.275   2.628   6.814
 8772SOL     OW27214   0.014   6.859   4.533
 8772SOL    HW127215   6.940   6.879   4.547
 8772SOL    HW227216   0.036   6.770   4.572
 8773SOL     OW27217   6.900   0.613   4.365
 8773SOL    HW127218   6.956   0.546   4.413
 8773SOL    HW227219   6.944   0.637   4.278
 8774SOL     OW27220   1.179   1.600   0.239
 8774SOL    HW127221   1.252   1.584   0.172
 8774SOL    HW227222   1.131   1.685   0.216
 8775SOL     OW27223   5.574   2.555   3.538
 8775SOL    HW127224   5.500   2.511   3.589
 8775SOL    HW227225   5.621   2.486   3.482
 8776SOL     OW27226   4.538   2.783   0.260
 8776SOL    HW127227   4.518   2.875   0.294
 8776SOL    HW227228   4.471   2.718   0.297
 8777SOL     OW27229   6.961   2.194   3.191
 8777SOL    HW127230   6.958   2.134   3.111
 8777SOL    HW227231   6.879   2.181   3.246
 8778SOL     OW27232   3.391   4.236   0.003
 8778SOL    HW127233   3.416   4.183   6.944
 8778SOL    HW227234   3.321   4.303   7.001
 8779SOL     OW27235   4.308   4.588   2.764
 8779SOL    HW127236   4.308   4.598   2.664
 8779SOL    HW227237   4.222   4.622   2.801
 8780SOL     OW27238   0.528   4.648   3.902
 8780SOL    HW127239   0.548   4.552   3.919
 8780SOL    HW227240   0.567   4.703   3.976
 8781SOL     OW27241   2.468   1.167   1.330
 8781SOL    HW127242   2.406   1.211   1.396
 8781SOL    HW227243   2.486   1.230   1.254
 8782SOL     OW27244   5.882   2.233   0.696
 8782SOL    HW127245   5.808   2.226   0.629
 8782SOL    HW227246   5.845   2.225   0.788
 8783SOL     OW27247   5.338   3.801   4.671
 8783SOL    HW127248   5.425   3.761   4.642
 8783SOL    HW227249   5.263   3.742   4.642
 8784SOL     OW27250   5.155   0.531   0.886
 8784SOL    HW127251   5.178   0.624   0.856
 8784SOL    HW227252   5.069   0.533   0.936
 8785SOL     OW27253   7.005   5.394   4.958
 8785SOL    HW127254   6.956   5.350   5.034
 8785SOL    HW227255   6.943   5.454   4.908
 8786SOL     OW27256   4.994   1.467   2.159
 8786SOL    HW127257   4.916   1.528   2.177
 8786SOL    HW227258   5.045   1.502   2.081
 8787SOL     OW27259   3.769   5.496   1.009
 8787SOL    HW127260   3.845   5.479   1.071
 8787SOL    HW227261   3.785   5.580   0.958
 8788SOL     OW27262   0.658   6.717   3.771
 8788SOL    HW127263   0.648   6.747   3.676
 8788SOL    HW227264   0.582   6.657   3.795
 8789SOL     OW27265   0.866   2.380   6.077
 8789SOL    HW127266   0.937   2.394   6.008
 8789SOL    HW227267   0.832   2.468   6.109
 8790SOL     OW27268   4.205   2.819   5.391
 8790SOL    HW127269   4.128   2.882   5.383
 8790SOL    HW227270   4.288   2.864   5.357
 8791SOL     OW27271   3.465   6.186   4.394
 8791SOL    HW127272   3.483   6.146   4.304
 8791SOL    HW227273   3.540   6.164   4.456
 8792SOL     OW27274   5.198   4.265   1.805
 8792SOL    HW127275   5.153   4.178   1.788
 8792SOL    HW227276   5.295   4.251   1.821
 8793SOL     OW27277   6.811   6.465   5.062
 8793SOL    HW127278   6.871   6.425   4.993
 8793SOL    HW227279   6.716   6.456   5.033
 8794SOL     OW27280   6.491   1.245   2.551
 8794SOL    HW127281   6.548   1.182   2.602
 8794SOL    HW227282   6.487   1.217   2.455
 8795SOL     OW27283   1.410   6.398   6.728
 8795SOL    HW127284   1.463   6.483   6.725
 8795SOL    HW227285   1.440   6.337   6.654
 8796SOL     OW27286   5.991   3.798   4.642
 8796SOL    HW127287   6.062   3.728   4.641
 8796SOL    HW227288   6.004   3.858   4.720
 8797SOL     OW27289   4.687   6.682   4.027
 8797SOL    HW127290   4.710   6.601   3.974
 8797SOL    HW227291   4.674   6.658   4.123
 8798SOL     OW27292   3.151   6.545   5.896
 8798SOL    HW127293   3.150   6.447   5.916
 8798SOL    HW227294   3.075   6.590   5.943
 8799SOL     OW27295   1.504   5.710   1.866
 8799SOL    HW127296   1.552   5.643   1.810
 8799SOL    HW227297   1.406   5.703   1.850
 8800SOL     OW27298   6.414   6.270   5.308
 8800SOL    HW127299   6.500   6.264   5.358
 8800SOL    HW227300   6.401   6.363   5.275
 8801SOL     OW27301   5.689   3.484   5.686
 8801SOL    HW127302   5.659   3.577   5.706
 8801SOL    HW227303   5.756   3.455   5.755
 8802SOL     OW27304   1.394   5.699   6.368
 8802SOL    HW127305   1.379   5.638   6.445
 8802SOL    HW227306   1.411   5.792   6.402
 8803SOL     OW27307   6.327   6.216   6.013
 8803SOL    HW127308   6.292   6.309   5.999
 8803SOL    HW227309   6.250   6.152   6.017
 8804SOL     OW27310   1.954   6.062   2.093
 8804SOL    HW127311   1.980   6.091   2.185
 8804SOL    HW227312   2.018   6.100   2.027
 8805SOL     OW27313   5.400   4.871   3.503
 8805SOL    HW127314   5.462   4.792   3.509
 8805SOL    HW227315   5.453   4.955   3.503
 8806SOL     OW27316   1.563   0.016   1.590
 8806SOL    HW127317   1.527   0.105   1.618
 8806SOL    HW227318   1.581   0.018   1.491
 8807SOL     OW27319   5.572   3.098   0.898
 8807SOL    HW127320   5.671   3.088   0.912
 8807SOL    HW227321   5.537   3.167   0.960
 8808SOL     OW27322   1.718   2.062   6.554
 8808SOL    HW127323   1.748   2.068   6.649
 8808SOL    HW227324   1.634   2.009   6.549
 8809SOL     OW27325   0.366   3.849   3.135
 8809SOL    HW127326   0.390   3.768   3.188
 8809SOL    HW227327   0.411   3.930   3.175
 8810SOL     OW27328   0.718   1.018   5.164
 8810SOL    HW127329   0.621   1.005   5.142
 8810SOL    HW227330   0.727   1.091   5.231
 8811SOL     OW27331   4.343   4.626   2.491
 8811SOL    HW127332   4.440   4.602   2.487
 8811SOL    HW227333   4.313   4.661   2.402
 8812SOL     OW27334   4.990   1.065   6.275
 8812SOL    HW127335   5.001   0.980   6.327
 8812SOL    HW227336   5.045   1.059   6.191
 8813SOL     OW27337   2.005   3.584   3.413
 8813SOL    HW127338   2.040   3.587   3.507
 8813SOL    HW227339   2.070   3.536   3.354
 8814SOL     OW27340   4.998   0.104   5.148
 8814SOL    HW127341   4.927   0.034   5.143
 8814SOL    HW227342   4.960   0.189   5.185
 8815SOL     OW27343   5.472   1.088   1.015
 8815SOL    HW127344   5.537   1.117   1.085
 8815SOL    HW227345   5.406   1.024   1.055
 8816SOL     OW27346   0.761   5.842   4.827
 8816SOL    HW127347   0.832   5.774   4.813
 8816SOL    HW227348   0.679   5.798   4.864
 8817SOL     OW27349   1.545   3.341   3.700
 8817SOL    HW127350   1.458   3.351   3.748
 8817SOL    HW227351   1.528   3.330   3.602
 8818SOL     OW27352   0.697   0.124   5.643
 8818SOL    HW127353   0.620   0.177   5.677
 8818SOL    HW227354   0.668   0.070   5.564
 8819SOL     OW27355   4.855   5.098   6.260
 8819SOL    HW127356   4.936   5.076   6.206
 8819SOL    HW227357   4.860   5.192   6.293
 8820SOL     OW27358   4.092   6.779   5.757
 8820SOL    HW127359   4.114   6.686   5.786
 8820SOL    HW227360   4.046   6.827   5.832
 8821SOL     OW27361   0.131   4.562   6.206
 8821SOL    HW127362   0.107   4.553   6.110
 8821SOL    HW227363   0.131   4.472   6.250
 8822SOL     OW27364   6.096   0.421   4.510
 8822SOL    HW127365   6.061   0.490   4.573
 8822SOL    HW227366   6.030   0.405   4.436
 8823SOL     OW27367   3.519   1.119   2.960
 8823SOL    HW127368   3.589   1.177   3.003
 8823SOL    HW227369   3.429   1.161   2.973
 8824SOL     OW27370   1.191   0.196   2.502
 8824SOL    HW127371   1.156   0.180   2.594
 8824SOL    HW227372   1.199   0.294   2.486
 8825SOL     OW27373   0.456   0.269   0.459
 8825SOL    HW127374   0.484   0.363   0.478
 8825SOL    HW227375   0.358   0.268   0.438
 8826SOL     OW27376   1.089   4.440   0.838
 8826SOL    HW127377   1.003   4.393   0.855
 8826SOL    HW227378   1.080   4.536   0.865
 8827SOL     OW27379   4.836   0.455   2.953
 8827SOL    HW127380   4.812   0.459   3.050
 8827SOL    HW227381   4.803   0.538   2.907
 8828SOL     OW27382   5.447   2.692   6.493
 8828SOL    HW127383   5.466   2.658   6.401
 8828SOL    HW227384   5.357   2.660   6.522
 8829SOL     OW27385   6.817   0.884   2.268
 8829SOL    HW127386   6.785   0.934   2.188
 8829SOL    HW227387   6.914   0.861   2.256
 8830SOL     OW27388   3.402   0.547   3.118
 8830SOL    HW127389   3.367   0.492   3.042
 8830SOL    HW227390   3.463   0.618   3.083
 8831SOL     OW27391   0.299   2.884   2.031
 8831SOL    HW127392   0.393   2.914   2.017
 8831SOL    HW227393   0.240   2.964   2.045
 8832SOL     OW27394   5.526   0.196   5.467
 8832SOL    HW127395   5.536   0.146   5.553
 8832SOL    HW227396   5.532   0.294   5.484
 8833SOL     OW27397   5.139   2.284   1.341
 8833SOL    HW127398   5.076   2.332   1.402
 8833SOL    HW227399   5.140   2.187   1.365
 8834SOL     OW27400   5.902   3.879   5.617
 8834SOL    HW127401   5.818   3.862   5.669
 8834SOL    HW227402   5.950   3.958   5.656
 8835SOL     OW27403   6.822   0.903   5.541
 8835SOL    HW127404   6.730   0.898   5.501
 8835SOL    HW227405   6.831   0.830   5.609
 8836SOL     OW27406   4.727   1.273   1.677
 8836SOL    HW127407   4.819   1.239   1.698
 8836SOL    HW227408   4.735   1.359   1.628
 8837SOL     OW27409   3.652   6.530   0.480
 8837SOL    HW127410   3.733   6.472   0.470
 8837SOL    HW227411   3.577   6.489   0.428
 8838SOL     OW27412   1.926   3.780   3.988
 8838SOL    HW127413   1.936   3.868   3.942
 8838SOL    HW227414   1.832   3.771   4.022
 8839SOL     OW27415   5.196   5.923   2.581
 8839SOL    HW127416   5.201   5.984   2.502
 8839SOL    HW227417   5.278   5.867   2.586
 8840SOL     OW27418   6.590   0.731   0.867
 8840SOL    HW127419   6.593   0.664   0.793
 8840SOL    HW227420   6.683   0.759   0.890
 8841SOL     OW27421   3.721   0.601   0.701
 8841SOL    HW127422   3.634   0.557   0.679
 8841SOL    HW227423   3.757   0.562   0.786
 8842SOL     OW27424   3.536   3.842   4.374
 8842SOL    HW127425   3.515   3.875   4.466
 8842SOL    HW227426   3.465   3.778   4.345
 8843SOL     OW27427   3.127   6.106   6.655
 8843SOL    HW127428   3.125   6.190   6.600
 8843SOL    HW227429   3.036   6.065   6.657
 8844SOL     OW27430   3.488   2.409   6.089
 8844SOL    HW127431   3.531   2.465   6.019
 8844SOL    HW227432   3.550   2.398   6.166
 8845SOL     OW27433   0.311   3.637   2.092
 8845SOL    HW127434   0.295   3.613   2.188
 8845SOL    HW227435   0.235   3.603   2.037
 8846SOL     OW27436   5.757   4.023   4.708
 8846SOL    HW127437   5.679   4.077   4.739
 8846SOL    HW227438   5.781   4.049   4.614
 8847SOL     OW27439   1.577   2.235   3.485
 8847SOL    HW127440   1.604   2.266   3.394
 8847SOL    HW227441   1.614   2.296   3.555
 8848SOL     OW27442   5.329   1.126   0.419
 8848SOL    HW127443   5.300   1.187   0.493
 8848SOL    HW227444   5.377   1.179   0.349
 8849SOL     OW27445   3.242   4.913   4.215
 8849SOL    HW127446   3.293   4.997   4.195
 8849SOL    HW227447   3.217   4.911   4.311
 8850SOL     OW27448   3.341   1.359   1.462
 8850SOL    HW127449   3.430   1.315   1.450
 8850SOL    HW227450   3.347   1.428   1.534
 8851SOL     OW27451   6.507   4.847   2.202
 8851SOL    HW127452   6.510   4.765   2.144
 8851SOL    HW227453   6.528   4.928   2.147
 8852SOL     OW27454   4.339   2.449   4.679
 8852SOL    HW127455   4.390   2.488   4.602
 8852SOL    HW227456   4.273   2.383   4.645
 8853SOL     OW27457   4.283   1.793   5.485
 8853SOL    HW127458   4.268   1.891   5.501
 8853SOL    HW227459   4.354   1.759   5.548
 8854SOL     OW27460   1.358   1.608   0.039
 8854SOL    HW127461   1.426   1.539   0.012
 8854SOL    HW227462   1.404   1.682   0.088
 8855SOL     OW27463   6.491   4.936   0.128
 8855SOL    HW127464   6.568   4.969   0.073
 8855SOL    HW227465   6.469   4.842   0.102
 8856SOL     OW27466   5.489   1.068   4.968
 8856SOL    HW127467   5.583   1.096   4.950
 8856SOL    HW227468   5.471   1.076   5.066
 8857SOL     OW27469   0.123   2.422   4.437
 8857SOL    HW127470   0.137   2.455   4.343
 8857SOL    HW227471   0.086   2.329   4.434
 8858SOL     OW27472   6.749   3.938   5.877
 8858SOL    HW127473   6.775   3.970   5.786
 8858SOL    HW227474   6.674   3.994   5.912
 8859SOL     OW27475   2.773   5.003   5.253
 8859SOL    HW127476   2.682   5.008   5.212
 8859SOL    HW227477   2.838   4.968   5.186
 8860SOL     OW27478   1.939   2.398   1.948
 8860SOL    HW127479   1.843   2.396   1.921
 8860SOL    HW227480   1.985   2.317   1.913
 8861SOL     OW27481   2.842   2.757   0.853
 8861SOL    HW127482   2.863   2.722   0.944
 8861SOL    HW227483   2.743   2.751   0.838
 8862SOL     OW27484   6.446   1.984   4.374
 8862SOL    HW127485   6.546   1.994   4.381
 8862SOL    HW227486   6.413   1.927   4.449
 8863SOL     OW27487   1.111   5.662   4.831
 8863SOL    HW127488   1.100   5.686   4.928
 8863SOL    HW227489   1.199   5.696   4.798
 8864SOL     OW27490   1.620   3.307   5.708
 8864SOL    HW127491   1.606   3.277   5.614
 8864SOL    HW227492   1.715   3.338   5.720
 8865SOL     OW27493   2.308   2.239   5.822
 8865SOL    HW127494   2.280   2.299   5.897
 8865SOL    HW227495   2.262   2.267   5.738
 8866SOL     OW27496   4.009   6.384   5.403
 8866SOL    HW127497   3.955   6.447   5.346
 8866SOL    HW227498   4.081   6.343   5.348
 8867SOL     OW27499   6.202   1.948   3.587
 8867SOL    HW127500   6.131   1.997   3.636
 8867SOL    HW227501   6.291   1.988   3.609
 8868SOL     OW27502   4.477   3.587   1.437
 8868SOL    HW127503   4.506   3.632   1.522
 8868SOL    HW227504   4.519   3.497   1.430
 8869SOL     OW27505   4.943   2.842   3.489
 8869SOL    HW127506   4.891   2.826   3.405
 8869SOL    HW227507   4.881   2.840   3.568
 8870SOL     OW27508   3.787   1.239   1.174
 8870SOL    HW127509   3.715   1.170   1.162
 8870SOL    HW227510   3.862   1.221   1.111
 8871SOL     OW27511   1.447   2.272   4.585
 8871SOL    HW127512   1.450   2.172   4.577
 8871SOL    HW227513   1.539   2.308   4.575
 8872SOL     OW27514   1.718   3.292   3.334
 8872SOL    HW127515   1.804   3.330   3.367
 8872SOL    HW227516   1.736   3.212   3.276
 8873SOL     OW27517   6.905   6.344   4.833
 8873SOL    HW127518   6.837   6.346   4.760
 8873SOL    HW227519   6.991   6.308   4.798
 8874SOL     OW27520   1.618   1.563   0.422
 8874SOL    HW127521   1.671   1.603   0.497
 8874SOL    HW227522   1.530   1.610   0.415
 8875SOL     OW27523   1.867   1.343   3.799
 8875SOL    HW127524   1.905   1.252   3.786
 8875SOL    HW227525   1.773   1.336   3.833
 8876SOL     OW27526   2.136   0.481   4.173
 8876SOL    HW127527   2.072   0.404   4.185
 8876SOL    HW227528   2.104   0.539   4.098
 8877SOL     OW27529   3.333   6.322   4.596
 8877SOL    HW127530   3.367   6.263   4.522
 8877SOL    HW227531   3.292   6.404   4.556
 8878SOL     OW27532   5.798   4.450   6.312
 8878SOL    HW127533   5.814   4.484   6.219
 8878SOL    HW227534   5.779   4.352   6.308
 8879SOL     OW27535   4.208   5.744   4.929
 8879SOL    HW127536   4.298   5.780   4.904
 8879SOL    HW227537   4.167   5.803   4.998
 8880SOL     OW27538   0.362   5.526   5.530
 8880SOL    HW127539   0.335   5.556   5.439
 8880SOL    HW227540   0.362   5.426   5.534
 8881SOL     OW27541   6.772   0.823   1.788
 8881SOL    HW127542   6.734   0.875   1.711
 8881SOL    HW227543   6.866   0.795   1.766
 8882SOL     OW27544   6.112   1.923   6.371
 8882SOL    HW127545   6.190   1.880   6.325
 8882SOL    HW227546   6.132   1.930   6.469
 8883SOL     OW27547   6.683   1.333   5.475
 8883SOL    HW127548   6.621   1.284   5.536
 8883SOL    HW227549   6.756   1.271   5.446
 8884SOL     OW27550   6.543   0.882   5.509
 8884SOL    HW127551   6.514   0.820   5.582
 8884SOL    HW227552   6.484   0.871   5.430
 8885SOL     OW27553   5.051   3.431   1.719
 8885SOL    HW127554   5.005   3.346   1.692
 8885SOL    HW227555   5.146   3.427   1.690
 8886SOL     OW27556   3.168   6.362   6.526
 8886SOL    HW127557   3.170   6.362   6.426
 8886SOL    HW227558   3.253   6.401   6.561
 8887SOL     OW27559   1.729   0.549   1.181
 8887SOL    HW127560   1.743   0.648   1.182
 8887SOL    HW227561   1.817   0.503   1.191
 8888SOL     OW27562   3.644   1.120   3.352
 8888SOL    HW127563   3.738   1.086   3.351
 8888SOL    HW227564   3.638   1.199   3.412
 8889SOL     OW27565   3.855   6.789   4.802
 8889SOL    HW127566   3.756   6.779   4.807
 8889SOL    HW227567   3.883   6.799   4.706
 8890SOL     OW27568   1.237   4.679   4.557
 8890SOL    HW127569   1.324   4.677   4.506
 8890SOL    HW227570   1.244   4.747   4.630
 8891SOL     OW27571   2.679   1.910   0.000
 8891SOL    HW127572   2.591   1.871   0.028
 8891SOL    HW227573   2.734   1.929   0.081
 8892SOL     OW27574   1.270   6.711   2.378
 8892SOL    HW127575   1.256   6.800   2.421
 8892SOL    HW227576   1.290   6.723   2.281
 8893SOL     OW27577   0.835   1.455   1.683
 8893SOL    HW127578   0.910   1.391   1.700
 8893SOL    HW227579   0.788   1.474   1.770
 8894SOL     OW27580   3.715   3.593   6.614
 8894SOL    HW127581   3.689   3.566   6.706
 8894SOL    HW227582   3.677   3.683   6.593
 8895SOL     OW27583   0.684   0.542   2.172
 8895SOL    HW127584   0.764   0.589   2.209
 8895SOL    HW227585   0.630   0.504   2.247
 8896SOL     OW27586   2.072   4.131   5.142
 8896SOL    HW127587   2.161   4.088   5.153
 8896SOL    HW227588   2.074   4.193   5.064
 8897SOL     OW27589   1.361   2.296   1.611
 8897SOL    HW127590   1.283   2.291   1.674
 8897SOL    HW227591   1.445   2.273   1.661
 8898SOL     OW27592   6.477   2.810   4.895
 8898SOL    HW127593   6.403   2.766   4.846
 8898SOL    HW227594   6.555   2.748   4.902
 8899SOL     OW27595   2.604   4.240   0.391
 8899SOL    HW127596   2.593   4.141   0.389
 8899SOL    HW227597   2.536   4.280   0.452
 8900SOL     OW27598   5.710   1.942   3.185
 8900SOL    HW127599   5.771   1.974   3.257
 8900SOL    HW227600   5.763   1.898   3.112
 8901SOL     OW27601   2.187   6.481   2.441
 8901SOL    HW127602   2.110   6.434   2.484
 8901SOL    HW227603   2.170   6.488   2.343
 8902SOL     OW27604   2.016   5.002   6.296
 8902SOL    HW127605   1.934   5.009   6.352
 8902SOL    HW227606   2.065   5.090   6.298
 8903SOL     OW27607   0.818   2.018   3.873
 8903SOL    HW127608   0.880   2.059   3.941
 8903SOL    HW227609   0.831   1.919   3.871
 8904SOL     OW27610   0.955   5.252   3.346
 8904SOL    HW127611   0.860   5.262   3.315
 8904SOL    HW227612   0.958   5.256   3.446
 8905SOL     OW27613   2.612   4.169   5.310
 8905SOL    HW127614   2.574   4.103   5.246
 8905SOL    HW227615   2.649   4.121   5.389
 8906SOL     OW27616   1.264   4.856   4.751
 8906SOL    HW127617   1.195   4.883   4.819
 8906SOL    HW227618   1.336   4.802   4.796
 8907SOL     OW27619   3.884   2.832   5.759
 8907SOL    HW127620   3.844   2.834   5.668
 8907SOL    HW227621   3.979   2.863   5.754
 8908SOL     OW27622   0.176   2.744   1.527
 8908SOL    HW127623   0.124   2.814   1.477
 8908SOL    HW227624   0.122   2.711   1.604
 8909SOL     OW27625   2.878   6.356   5.889
 8909SOL    HW127626   2.797   6.333   5.835
 8909SOL    HW227627   2.942   6.278   5.888
 8910SOL     OW27628   3.595   3.879   6.641
 8910SOL    HW127629   3.533   3.951   6.671
 8910SOL    HW227630   3.689   3.912   6.645
 8911SOL     OW27631   3.668   2.096   4.014
 8911SOL    HW127632   3.657   2.122   4.110
 8911SOL    HW227633   3.578   2.078   3.974
 8912SOL     OW27634   5.290   2.509   6.282
 8912SOL    HW127635   5.302   2.549   6.373
 8912SOL    HW227636   5.221   2.561   6.231
 8913SOL     OW27637   4.794   3.544   0.750
 8913SOL    HW127638   4.696   3.539   0.730
 8913SOL    HW227639   4.829   3.633   0.722
 8914SOL     OW27640   4.548   2.166   3.628
 8914SOL    HW127641   4.544   2.245   3.688
 8914SOL    HW227642   4.492   2.182   3.547
 8915SOL     OW27643   1.222   4.499   1.464
 8915SOL    HW127644   1.252   4.435   1.534
 8915SOL    HW227645   1.196   4.586   1.508
 8916SOL     OW27646   0.098   3.820   1.835
 8916SOL    HW127647   0.078   3.822   1.737
 8916SOL    HW227648   0.185   3.866   1.851
 8917SOL     OW27649   6.162   5.432   5.928
 8917SOL    HW127650   6.114   5.507   5.881
 8917SOL    HW227651   6.098   5.357   5.944
 8918SOL     OW27652   4.625   4.728   6.365
 8918SOL    HW127653   4.634   4.629   6.356
 8918SOL    HW227654   4.708   4.772   6.330
 8919SOL     OW27655   2.191   3.824   1.508
 8919SOL    HW127656   2.101   3.857   1.481
 8919SOL    HW227657   2.260   3.891   1.480
 8920SOL     OW27658   6.338   5.528   5.722
 8920SOL    HW127659   6.268   5.566   5.662
 8920SOL    HW227660   6.295   5.494   5.806
 8921SOL     OW27661   1.708   6.376   3.603
 8921SOL    HW127662   1.617   6.402   3.637
 8921SOL    HW227663   1.739   6.294   3.651
 8922SOL     OW27664   6.540   4.242   0.587
 8922SOL    HW127665   6.569   4.337   0.573
 8922SOL    HW227666   6.588   4.183   0.523
 8923SOL     OW27667   1.722   4.325   5.169
 8923SOL    HW127668   1.775   4.271   5.234
 8923SOL    HW227669   1.655   4.380   5.219
 8924SOL     OW27670   2.671   5.833   5.497
 8924SOL    HW127671   2.705   5.915   5.544
 8924SOL    HW227672   2.682   5.845   5.398
 8925SOL     OW27673   5.873   6.458   1.426
 8925SOL    HW127674   5.900   6.543   1.470
 8925SOL    HW227675   5.953   6.398   1.417
 8926SOL     OW27676   5.854   1.426   0.268
 8926SOL    HW127677   5.902   1.367   0.333
 8926SOL    HW227678   5.890   1.410   0.176
 8927SOL     OW27679   2.646   1.801   4.796
 8927SOL    HW127680   2.666   1.704   4.781
 8927SOL    HW227681   2.630   1.817   4.893
 8928SOL     OW27682   0.617   6.439   5.259
 8928SOL    HW127683   0.547   6.510   5.253
 8928SOL    HW227684   0.592   6.375   5.333
 8929SOL     OW27685   5.592   3.814   4.580
 8929SOL    HW127686   5.664   3.802   4.649
 8929SOL    HW227687   5.560   3.908   4.582
 8930SOL     OW27688   1.121   4.623   5.000
 8930SOL    HW127689   1.137   4.553   5.069
 8930SOL    HW227690   1.167   4.708   5.027
 8931SOL     OW27691   5.402   1.254   1.429
 8931SOL    HW127692   5.432   1.347   1.448
 8931SOL    HW227693   5.303   1.248   1.441
 8932SOL     OW27694   6.741   1.014   6.788
 8932SOL    HW127695   6.667   0.964   6.743
 8932SOL    HW227696   6.721   1.025   6.885
 8933SOL     OW27697   2.018   0.173   5.824
 8933SOL    HW127698   2.115   0.158   5.844
 8933SOL    HW227699   1.993   0.119   5.744
 8934SOL     OW27700   4.729   6.695   3.054
 8934SOL    HW127701   4.765   6.623   2.994
 8934SOL    HW227702   4.739   6.784   3.010
 8935SOL     OW27703   5.488   2.686   3.287
 8935SOL    HW127704   5.400   2.657   3.326
 8935SOL    HW227705   5.562   2.637   3.334
 8936SOL     OW27706   2.034   4.551   3.047
 8936SOL    HW127707   1.956   4.613   3.037
 8936SOL    HW227708   2.009   4.476   3.108
 8937SOL     OW27709   4.759   0.042   5.918
 8937SOL    HW127710   4.781   6.971   5.889
 8937SOL    HW227711   4.660   0.053   5.924
 8938SOL     OW27712   5.619   6.531   1.980
 8938SOL    HW127713   5.528   6.544   1.941
 8938SOL    HW227714   5.660   6.620   1.999
 8939SOL     OW27715   6.935   2.637   3.954
 8939SOL    HW127716   6.932   2.603   4.048
 8939SOL    HW227717   7.002   2.584   3.902
 8940SOL     OW27718   6.461   3.064   1.135
 8940SOL    HW127719   6.552   3.067   1.094
 8940SOL    HW227720   6.444   2.974   1.174
 8941SOL     OW27721   4.616   2.631   1.910
 8941SOL    HW127722   4.608   2.584   1.997
 8941SOL    HW227723   4.605   2.729   1.923
 8942SOL     OW27724   5.507   4.040   4.459
 8942SOL    HW127725   5.455   4.123   4.473
 8942SOL    HW227726   5.572   4.054   4.384
 8943SOL     OW27727   4.689   3.377   1.070
 8943SOL    HW127728   4.591   3.388   1.088
 8943SOL    HW227729   4.724   3.460   1.027
 8944SOL     OW27730   4.921   5.192   5.098
 8944SOL    HW127731   4.907   5.107   5.048
 8944SOL    HW227732   4.956   5.172   5.190
 8945SOL     OW27733   5.448   4.226   3.355
 8945SOL    HW127734   5.517   4.160   3.326
 8945SOL    HW227735   5.362   4.178   3.371
 8946SOL     OW27736   5.056   1.425   5.458
 8946SOL    HW127737   5.012   1.340   5.430
 8946SOL    HW227738   5.016   1.502   5.407
 8947SOL     OW27739   2.098   4.856   6.783
 8947SOL    HW127740   2.160   4.787   6.820
 8947SOL    HW227741   2.139   4.946   6.793
 8948SOL     OW27742   4.671   1.433   2.847
 8948SOL    HW127743   4.673   1.533   2.846
 8948SOL    HW227744   4.589   1.401   2.799
 8949SOL     OW27745   4.017   6.107   1.032
 8949SOL    HW127746   4.105   6.089   1.076
 8949SOL    HW227747   4.028   6.102   0.933
 8950SOL     OW27748   4.095   3.686   1.219
 8950SOL    HW127749   4.078   3.593   1.186
 8950SOL    HW227750   4.021   3.714   1.280
 8951SOL     OW27751   1.419   0.041   4.640
 8951SOL    HW127752   1.453   6.970   4.629
 8951SOL    HW227753   1.449   0.077   4.728
 8952SOL     OW27754   1.371   4.842   3.811
 8952SOL    HW127755   1.337   4.934   3.793
 8952SOL    HW227756   1.296   4.785   3.844
 8953SOL     OW27757   1.176   4.979   1.071
 8953SOL    HW127758   1.118   4.908   1.113
 8953SOL    HW227759   1.159   4.982   0.973
 8954SOL     OW27760   2.676   4.302   5.835
 8954SOL    HW127761   2.716   4.371   5.775
 8954SOL    HW227762   2.598   4.340   5.883
 8955SOL     OW27763   5.101   2.476   4.937
 8955SOL    HW127764   5.096   2.533   4.856
 8955SOL    HW227765   5.015   2.428   4.951
 8956SOL     OW27766   0.640   6.422   0.199
 8956SOL    HW127767   0.565   6.399   0.137
 8956SOL    HW227768   0.638   6.520   0.219
 8957SOL     OW27769   0.342   6.129   2.643
 8957SOL    HW127770   0.411   6.148   2.572
 8957SOL    HW227771   0.273   6.202   2.642
 8958SOL     OW27772   1.398   3.575   5.208
 8958SOL    HW127773   1.391   3.524   5.122
 8958SOL    HW227774   1.442   3.518   5.277
 8959SOL     OW27775   5.658   2.360   3.370
 8959SOL    HW127776   5.724   2.306   3.423
 8959SOL    HW227777   5.666   2.337   3.274
 8960SOL     OW27778   5.170   4.702   2.565
 8960SOL    HW127779   5.130   4.747   2.645
 8960SOL    HW227780   5.098   4.653   2.516
 8961SOL     OW27781   2.502   1.624   5.014
 8961SOL    HW127782   2.554   1.583   5.089
 8961SOL    HW227783   2.484   1.720   5.033
 8962SOL     OW27784   6.931   5.836   1.842
 8962SOL    HW127785   6.945   5.767   1.914
 8962SOL    HW227786   6.833   5.855   1.834
 8963SOL     OW27787   4.380   6.358   6.051
 8963SOL    HW127788   4.318   6.416   6.104
 8963SOL    HW227789   4.387   6.394   5.957
 8964SOL     OW27790   2.155   2.602   4.482
 8964SOL    HW127791   2.211   2.679   4.514
 8964SOL    HW227792   2.202   2.516   4.503
 8965SOL     OW27793   3.687   5.890   6.844
 8965SOL    HW127794   3.626   5.953   6.795
 8965SOL    HW227795   3.638   5.846   6.918
 8966SOL     OW27796   4.885   6.187   4.806
 8966SOL    HW127797   4.938   6.151   4.883
 8966SOL    HW227798   4.837   6.111   4.761
 8967SOL     OW27799   3.137   6.901   3.580
 8967SOL    HW127800   3.064   6.969   3.583
 8967SOL    HW227801   3.218   6.941   3.536
 8968SOL     OW27802   3.279   4.863   2.386
 8968SOL    HW127803   3.309   4.877   2.292
 8968SOL    HW227804   3.179   4.853   2.388
 8969SOL     OW27805   0.811   0.634   2.476
 8969SOL    HW127806   0.843   0.549   2.436
 8969SOL    HW227807   0.727   0.617   2.529
 8970SOL     OW27808   2.016   0.699   3.652
 8970SOL    HW127809   2.078   0.771   3.622
 8970SOL    HW227810   1.927   0.738   3.675
 8971SOL     OW27811   2.782   4.414   0.524
 8971SOL    HW127812   2.814   4.328   0.565
 8971SOL    HW227813   2.719   4.394   0.449
 8972SOL     OW27814   5.587   4.066   6.761
 8972SOL    HW127815   5.653   3.999   6.727
 8972SOL    HW227816   5.508   4.019   6.798
 8973SOL     OW27817   1.678   2.425   3.665
 8973SOL    HW127818   1.776   2.408   3.656
 8973SOL    HW227819   1.651   2.413   3.760
 8974SOL     OW27820   2.408   4.602   4.659
 8974SOL    HW127821   2.351   4.520   4.667
 8974SOL    HW227822   2.440   4.610   4.564
 8975SOL     OW27823   0.167   4.905   5.511
 8975SOL    HW127824   0.107   4.851   5.571
 8975SOL    HW227825   0.236   4.846   5.471
 8976SOL     OW27826   5.567   0.592   2.286
 8976SOL    HW127827   5.626   0.516   2.312
 8976SOL    HW227828   5.623   0.671   2.261
 8977SOL     OW27829   6.374   4.479   6.618
 8977SOL    HW127830   6.447   4.412   6.631
 8977SOL    HW227831   6.389   4.528   6.532
 8978SOL     OW27832   6.150   5.714   6.889
 8978SOL    HW127833   6.079   5.677   6.950
 8978SOL    HW227834   6.138   5.813   6.880
 8979SOL     OW27835   1.272   4.905   4.362
 8979SOL    HW127836   1.177   4.881   4.342
 8979SOL    HW227837   1.275   4.974   4.435
 8980SOL     OW27838   3.010   0.558   0.132
 8980SOL    HW127839   3.052   0.486   0.187
 8980SOL    HW227840   3.038   0.647   0.168
 8981SOL     OW27841   4.500   3.576   6.368
 8981SOL    HW127842   4.481   3.596   6.464
 8981SOL    HW227843   4.428   3.516   6.332
 8982SOL     OW27844   0.290   2.089   1.953
 8982SOL    HW127845   0.252   2.109   2.043
 8982SOL    HW227846   0.368   2.149   1.935
 8983SOL     OW27847   1.798   6.582   1.979
 8983SOL    HW127848   1.728   6.511   1.982
 8983SOL    HW227849   1.759   6.668   2.011
 8984SOL     OW27850   6.712   0.806   4.305
 8984SOL    HW127851   6.703   0.794   4.206
 8984SOL    HW227852   6.782   0.744   4.340
 8985SOL     OW27853   4.673   1.861   1.899
 8985SOL    HW127854   4.592   1.866   1.959
 8985SOL    HW227855   4.750   1.907   1.944
 8986SOL     OW27856   7.008   4.709   0.371
 8986SOL    HW127857   0.073   4.757   0.362
 8986SOL    HW227858   0.002   4.618   0.408
 8987SOL     OW27859   2.209   6.384   1.745
 8987SOL    HW127860   2.253   6.472   1.728
 8987SOL    HW227861   2.169   6.351   1.659
 8988SOL     OW27862   2.706   0.045   1.084
 8988SOL    HW127863   2.709   6.968   1.069
 8988SOL    HW227864   2.675   0.064   1.177
 8989SOL     OW27865   4.932   1.385   2.558
 8989SOL    HW127866   4.996   1.447   2.604
 8989SOL    HW227867   4.938   1.294   2.597
 8990SOL     OW27868   3.240   0.654   2.461
 8990SOL    HW127869   3.230   0.691   2.368
 8990SOL    HW227870   3.150   0.629   2.497
 8991SOL     OW27871   1.310   2.148   0.851
 8991SOL    HW127872   1.322   2.177   0.945
 8991SOL    HW227873   1.358   2.211   0.790
 8992SOL     OW27874   6.805   4.071   6.486
 8992SOL    HW127875   6.797   3.991   6.544
 8992SOL    HW227876   6.713   4.106   6.466
 8993SOL     OW27877   5.183   3.727   4.931
 8993SOL    HW127878   5.283   3.729   4.932
 8993SOL    HW227879   5.150   3.717   5.025
 8994SOL     OW27880   1.191   5.754   2.622
 8994SOL    HW127881   1.140   5.680   2.578
 8994SOL    HW227882   1.288   5.729   2.627
 8995SOL     OW27883   2.134   3.721   4.967
 8995SOL    HW127884   2.110   3.755   4.876
 8995SOL    HW227885   2.166   3.627   4.959
 8996SOL     OW27886   1.295   3.777   1.814
 8996SOL    HW127887   1.209   3.756   1.769
 8996SOL    HW227888   1.363   3.807   1.746
 8997SOL     OW27889   4.376   2.065   5.363
 8997SOL    HW127890   4.456   2.007   5.355
 8997SOL    HW227891   4.298   2.022   5.318
 8998SOL     OW27892   1.312   1.245   6.265
 8998SOL    HW127893   1.272   1.158   6.291
 8998SOL    HW227894   1.290   1.314   6.334
 8999SOL     OW27895   4.996   1.551   4.886
 8999SOL    HW127896   4.964   1.460   4.912
 8999SOL    HW227897   4.920   1.605   4.851
 9000SOL     OW27898   2.567   4.543   0.241
 9000SOL    HW127899   2.639   4.545   0.172
 9000SOL    HW227900   2.594   4.600   0.319
 9001SOL     OW27901   2.228   4.756   3.614
 9001SOL    HW127902   2.139   4.734   3.654
 9001SOL    HW227903   2.252   4.850   3.636
 9002SOL     OW27904   5.487   4.401   5.204
 9002SOL    HW127905   5.409   4.367   5.151
 9002SOL    HW227906   5.550   4.450   5.144
 9003SOL     OW27907   6.308   3.175   6.678
 9003SOL    HW127908   6.307   3.137   6.770
 9003SOL    HW227909   6.269   3.267   6.680
 9004SOL     OW27910   4.419   5.865   0.780
 9004SOL    HW127911   4.417   5.777   0.828
 9004SOL    HW227912   4.488   5.862   0.708
 9005SOL     OW27913   4.522   2.155   2.676
 9005SOL    HW127914   4.547   2.078   2.617
 9005SOL    HW227915   4.559   2.141   2.768
 9006SOL     OW27916   2.498   6.412   0.922
 9006SOL    HW127917   2.412   6.458   0.899
 9006SOL    HW227918   2.519   6.426   1.018
 9007SOL     OW27919   2.239   6.732   4.457
 9007SOL    HW127920   2.280   6.729   4.548
 9007SOL    HW227921   2.193   6.645   4.438
 9008SOL     OW27922   6.785   4.564   2.602
 9008SOL    HW127923   6.847   4.600   2.671
 9008SOL    HW227924   6.725   4.495   2.643
 9009SOL     OW27925   4.046   6.126   0.719
 9009SOL    HW127926   4.143   6.121   0.745
 9009SOL    HW227927   4.016   6.221   0.724
 9010SOL     OW27928   0.436   5.628   4.949
 9010SOL    HW127929   0.466   5.582   4.866
 9010SOL    HW227930   0.338   5.611   4.964
 9011SOL     OW27931   4.269   2.319   1.869
 9011SOL    HW127932   4.226   2.336   1.957
 9011SOL    HW227933   4.342   2.252   1.879
 9012SOL     OW27934   5.628   5.304   1.953
 9012SOL    HW127935   5.695   5.378   1.940
 9012SOL    HW227936   5.553   5.337   2.010
 9013SOL     OW27937   4.497   5.895   2.453
 9013SOL    HW127938   4.487   5.954   2.533
 9013SOL    HW227939   4.561   5.821   2.473
 9014SOL     OW27940   2.530   0.682   0.877
 9014SOL    HW127941   2.593   0.711   0.949
 9014SOL    HW227942   2.520   0.755   0.809
 9015SOL     OW27943   6.719   1.253   4.808
 9015SOL    HW127944   6.750   1.326   4.869
 9015SOL    HW227945   6.789   1.182   4.802
 9016SOL     OW27946   6.907   5.511   6.460
 9016SOL    HW127947   6.912   5.517   6.360
 9016SOL    HW227948   6.979   5.567   6.500
 9017SOL     OW27949   0.209   4.459   3.639
 9017SOL    HW127950   0.272   4.412   3.577
 9017SOL    HW227951   0.116   4.449   3.606
 9018SOL     OW27952   3.611   1.518   6.385
 9018SOL    HW127953   3.557   1.598   6.409
 9018SOL    HW227954   3.701   1.548   6.351
 9019SOL     OW27955   1.557   5.453   0.607
 9019SOL    HW127956   1.626   5.382   0.613
 9019SOL    HW227957   1.490   5.441   0.680
 9020SOL     OW27958   0.636   5.018   3.242
 9020SOL    HW127959   0.624   5.014   3.143
 9020SOL    HW227960   0.565   4.963   3.286
 9021SOL     OW27961   6.416   6.035   5.196
 9021SOL    HW127962   6.421   6.131   5.224
 9021SOL    HW227963   6.394   5.979   5.276
 9022SOL     OW27964   3.526   1.135   6.687
 9022SOL    HW127965   3.559   1.136   6.593
 9022SOL    HW227966   3.476   1.050   6.704
 9023SOL     OW27967   3.027   3.203   3.090
 9023SOL    HW127968   3.004   3.281   3.149
 9023SOL    HW227969   2.986   3.217   3.000
 9024SOL     OW27970   1.166   0.499   6.679
 9024SOL    HW127971   1.087   0.466   6.627
 9024SOL    HW227972   1.161   0.464   6.772
 9025SOL     OW27973   0.583   3.858   0.572
 9025SOL    HW127974   0.502   3.850   0.629
 9025SOL    HW227975   0.660   3.812   0.616
 9026SOL     OW27976   3.085   3.059   5.722
 9026SOL    HW127977   3.126   3.089   5.636
 9026SOL    HW227978   2.986   3.054   5.712
 9027SOL     OW27979   2.260   2.550   2.872
 9027SOL    HW127980   2.272   2.629   2.933
 9027SOL    HW227981   2.238   2.469   2.927
 9028SOL     OW27982   2.481   5.123   5.118
 9028SOL    HW127983   2.417   5.105   5.192
 9028SOL    HW227984   2.538   5.042   5.103
 9029SOL     OW27985   4.871   5.300   2.814
 9029SOL    HW127986   4.947   5.302   2.748
 9029SOL    HW227987   4.820   5.214   2.803
 9030SOL     OW27988   3.335   1.861   1.783
 9030SOL    HW127989   3.339   1.782   1.845
 9030SOL    HW227990   3.291   1.938   1.830
 9031SOL     OW27991   1.602   1.495   1.484
 9031SOL    HW127992   1.503   1.493   1.467
 9031SOL    HW227993   1.621   1.452   1.572
 9032SOL     OW27994   1.051   2.549   2.900
 9032SOL    HW127995   1.033   2.533   2.802
 9032SOL    HW227996   1.149   2.562   2.914
 9033SOL     OW27997   1.303   3.700   2.379
 9033SOL    HW127998   1.257   3.765   2.319
 9033SOL    HW227999   1.249   3.616   2.384
 9034SOL     OW28000   0.910   0.358   5.722
 9034SOL    HW128001   0.874   0.277   5.675
 9034SOL    HW228002   0.838   0.428   5.727
 9035SOL     OW28003   6.998   0.098   4.235
 9035SOL    HW128004   6.975   0.134   4.325
 9035SOL    HW228005   6.971   0.164   4.165
 9036SOL     OW28006   1.281   1.097   4.999
 9036SOL    HW128007   1.212   1.083   5.070
 9036SOL    HW228008   1.371   1.106   5.041
 9037SOL     OW28009   2.956   3.761   5.572
 9037SOL    HW128010   3.035   3.812   5.606
 9037SOL    HW228011   2.943   3.679   5.627
 9038SOL     OW28012   5.156   6.585   5.599
 9038SOL    HW128013   5.201   6.497   5.586
 9038SOL    HW228014   5.225   6.656   5.613
 9039SOL     OW28015   2.377   4.700   6.550
 9039SOL    HW128016   2.301   4.762   6.529
 9039SOL    HW228017   2.462   4.752   6.556
 9040SOL     OW28018   2.563   1.638   1.960
 9040SOL    HW128019   2.492   1.706   1.941
 9040SOL    HW228020   2.545   1.595   2.048
 9041SOL     OW28021   1.910   2.867   0.002
 9041SOL    HW128022   1.918   2.825   6.934
 9041SOL    HW228023   2.001   2.894   0.034
 9042SOL     OW28024   2.010   5.631   2.971
 9042SOL    HW128025   1.921   5.660   2.936
 9042SOL    HW228026   2.020   5.661   3.066
 9043SOL     OW28027   6.705   2.295   0.761
 9043SOL    HW128028   6.617   2.249   0.773
 9043SOL    HW228029   6.710   2.375   0.821
 9044SOL     OW28030   6.303   4.672   0.838
 9044SOL    HW128031   6.219   4.699   0.886
 9044SOL    HW228032   6.377   4.736   0.863
 9045SOL     OW28033   3.097   5.721   3.960
 9045SOL    HW128034   3.028   5.743   4.029
 9045SOL    HW228035   3.063   5.648   3.902
 9046SOL     OW28036   3.662   4.472   5.878
 9046SOL    HW128037   3.666   4.514   5.787
 9046SOL    HW228038   3.701   4.535   5.945
 9047SOL     OW28039   1.554   4.750   5.137
 9047SOL    HW128040   1.488   4.823   5.117
 9047SOL    HW228041   1.621   4.744   5.062
 9048SOL     OW28042   1.571   1.930   5.435
 9048SOL    HW128043   1.653   1.893   5.479
 9048SOL    HW228044   1.561   2.026   5.459
 9049SOL     OW28045   5.433   6.094   6.312
 9049SOL    HW128046   5.435   6.148   6.397
 9049SOL    HW228047   5.338   6.087   6.280
 9050SOL     OW28048   0.063   5.690   5.311
 9050SOL    HW128049   0.083   5.787   5.295
 9050SOL    HW228050   0.147   5.636   5.301
 9051SOL     OW28051   5.574   6.753   6.392
 9051SOL    HW128052   5.640   6.717   6.326
 9051SOL    HW228053   5.548   6.846   6.365
 9052SOL     OW28054   2.204   5.066   4.902
 9052SOL    HW128055   2.242   5.006   4.831
 9052SOL    HW228056   2.220   5.025   4.992
 9053SOL     OW28057   2.852   1.751   3.835
 9053SOL    HW128058   2.841   1.678   3.903
 9053SOL    HW228059   2.776   1.746   3.769
 9054SOL     OW28060   3.465   0.313   0.896
 9054SOL    HW128061   3.511   0.240   0.845
 9054SOL    HW228062   3.398   0.273   0.958
 9055SOL     OW28063   0.815   1.432   4.879
 9055SOL    HW128064   0.819   1.342   4.920
 9055SOL    HW228065   0.855   1.429   4.787
 9056SOL     OW28066   5.213   1.774   2.578
 9056SOL    HW128067   5.134   1.756   2.637
 9056SOL    HW228068   5.247   1.867   2.596
 9057SOL     OW28069   4.631   6.538   0.083
 9057SOL    HW128070   4.595   6.540   7.013
 9057SOL    HW228071   4.681   6.453   0.098
 9058SOL     OW28072   2.502   2.211   4.371
 9058SOL    HW128073   2.491   2.139   4.302
 9058SOL    HW228074   2.543   2.291   4.327
 9059SOL     OW28075   6.682   0.516   2.400
 9059SOL    HW128076   6.729   0.539   2.485
 9059SOL    HW228077   6.716   0.574   2.326
 9060SOL     OW28078   0.829   5.716   1.675
 9060SOL    HW128079   0.900   5.786   1.664
 9060SOL    HW228080   0.744   5.760   1.705
 9061SOL     OW28081   5.744   4.266   2.638
 9061SOL    HW128082   5.832   4.301   2.669
 9061SOL    HW228083   5.758   4.180   2.589
 9062SOL     OW28084   0.829   6.062   2.980
 9062SOL    HW128085   0.925   6.089   2.995
 9062SOL    HW228086   0.789   6.032   3.067
 9063SOL     OW28087   4.422   2.117   1.618
 9063SOL    HW128088   4.349   2.174   1.579
 9063SOL    HW228089   4.510   2.163   1.607
 9064SOL     OW28090   0.658   5.867   3.129
 9064SOL    HW128091   0.626   5.781   3.168
 9064SOL    HW228092   0.580   5.929   3.116
 9065SOL     OW28093   3.079   4.062   6.018
 9065SOL    HW128094   3.054   4.119   5.940
 9065SOL    HW228095   3.088   4.119   6.100
 9066SOL     OW28096   4.754   5.168   4.355
 9066SOL    HW128097   4.763   5.070   4.375
 9066SOL    HW228098   4.764   5.220   4.440
 9067SOL     OW28099   0.922   6.241   4.615
 9067SOL    HW128100   0.838   6.188   4.600
 9067SOL    HW228101   0.922   6.321   4.555
 9068SOL     OW28102   4.525   7.004   6.077
 9068SOL    HW128103   4.622   7.011   6.103
 9068SOL    HW228104   4.483   6.927   6.124
 9069SOL     OW28105   5.082   2.765   1.007
 9069SOL    HW128106   5.132   2.840   1.052
 9069SOL    HW228107   5.094   2.681   1.060
 9070SOL     OW28108   2.409   1.337   5.746
 9070SOL    HW128109   2.503   1.334   5.713
 9070SOL    HW228110   2.354   1.391   5.683
 9071SOL     OW28111   5.476   2.255   6.581
 9071SOL    HW128112   5.399   2.219   6.632
 9071SOL    HW228113   5.488   2.202   6.497
 9072SOL     OW28114   5.197   0.548   2.744
 9072SOL    HW128115   5.144   0.554   2.828
 9072SOL    HW228116   5.233   0.456   2.733
 9073SOL     OW28117   4.607   2.203   4.982
 9073SOL    HW128118   4.520   2.235   4.944
 9073SOL    HW228119   4.600   2.200   5.082
 9074SOL     OW28120   1.747   0.914   2.188
 9074SOL    HW128121   1.740   0.954   2.097
 9074SOL    HW228122   1.705   0.823   2.188
 9075SOL     OW28123   6.043   6.080   0.363
 9075SOL    HW128124   6.004   6.157   0.414
 9075SOL    HW228125   5.973   6.008   0.353
 9076SOL     OW28126   6.755   6.832   2.355
 9076SOL    HW128127   6.828   6.773   2.321
 9076SOL    HW228128   6.671   6.815   2.304
 9077SOL     OW28129   6.744   1.547   6.578
 9077SOL    HW128130   6.821   1.553   6.514
 9077SOL    HW228131   6.708   1.454   6.577
 9078SOL     OW28132   5.217   6.657   0.142
 9078SOL    HW128133   5.300   6.713   0.137
 9078SOL    HW228134   5.219   6.603   0.226
 9079SOL     OW28135   1.379   1.710   6.790
 9079SOL    HW128136   1.434   1.655   6.852
 9079SOL    HW228137   1.399   1.684   6.695
 9080SOL     OW28138   6.529   3.487   2.011
 9080SOL    HW128139   6.507   3.432   2.091
 9080SOL    HW228140   6.584   3.566   2.039
 9081SOL     OW28141   4.894   0.930   0.504
 9081SOL    HW128142   4.988   0.941   0.471
 9081SOL    HW228143   4.865   1.015   0.548
 9082SOL     OW28144   3.537   5.777   5.736
 9082SOL    HW128145   3.595   5.817   5.665
 9082SOL    HW228146   3.590   5.767   5.820
 9083SOL     OW28147   3.929   5.824   6.723
 9083SOL    HW128148   3.978   5.911   6.732
 9083SOL    HW228149   3.833   5.838   6.745
 9084SOL     OW28150   6.731   2.913   5.622
 9084SOL    HW128151   6.766   2.960   5.541
 9084SOL    HW228152   6.667   2.973   5.670
 9085SOL     OW28153   2.488   4.925   0.244
 9085SOL    HW128154   2.523   5.018   0.248
 9085SOL    HW228155   2.474   4.891   0.337
 9086SOL     OW28156   0.156   4.472   1.208
 9086SOL    HW128157   0.179   4.505   1.117
 9086SOL    HW228158   0.059   4.447   1.211
 9087SOL     OW28159   5.840   0.754   1.161
 9087SOL    HW128160   5.763   0.762   1.097
 9087SOL    HW228161   5.924   0.734   1.110
 9088SOL     OW28162   6.494   6.552   0.776
 9088SOL    HW128163   6.512   6.472   0.834
 9088SOL    HW228164   6.433   6.615   0.825
 9089SOL     OW28165   5.319   5.410   3.627
 9089SOL    HW128166   5.391   5.387   3.693
 9089SOL    HW228167   5.335   5.359   3.543
 9090SOL     OW28168   5.102   6.137   5.702
 9090SOL    HW128169   5.033   6.172   5.765
 9090SOL    HW228170   5.155   6.214   5.666
 9091SOL     OW28171   2.140   1.698   1.836
 9091SOL    HW128172   2.225   1.750   1.847
 9091SOL    HW228173   2.147   1.611   1.886
 9092SOL     OW28174   2.097   1.216   5.584
 9092SOL    HW128175   2.108   1.118   5.566
 9092SOL    HW228176   2.174   1.266   5.545
 9093SOL     OW28177   1.876   3.929   0.744
 9093SOL    HW128178   1.788   3.958   0.708
 9093SOL    HW228179   1.865   3.898   0.839
 9094SOL     OW28180   6.945   4.169   1.890
 9094SOL    HW128181   6.898   4.235   1.833
 9094SOL    HW228182   0.018   4.198   1.903
 9095SOL     OW28183   3.331   2.847   0.061
 9095SOL    HW128184   3.264   2.921   0.070
 9095SOL    HW228185   3.350   2.831   6.987
 9096SOL     OW28186   5.129   2.887   3.088
 9096SOL    HW128187   5.226   2.910   3.086
 9096SOL    HW228188   5.113   2.805   3.033
 9097SOL     OW28189   0.795   4.611   6.370
 9097SOL    HW128190   0.727   4.640   6.302
 9097SOL    HW228191   0.765   4.638   6.461
 9098SOL     OW28192   4.026   3.709   3.292
 9098SOL    HW128193   4.080   3.626   3.275
 9098SOL    HW228194   3.996   3.709   3.387
 9099SOL     OW28195   2.032   3.152   0.903
 9099SOL    HW128196   2.022   3.142   0.804
 9099SOL    HW228197   2.004   3.068   0.948
 9100SOL     OW28198   0.664   3.251   1.151
 9100SOL    HW128199   0.741   3.315   1.145
 9100SOL    HW228200   0.628   3.251   1.245
 9101SOL     OW28201   2.240   2.533   0.509
 9101SOL    HW128202   2.293   2.450   0.494
 9101SOL    HW228203   2.197   2.530   0.599
 9102SOL     OW28204   3.684   5.306   2.744
 9102SOL    HW128205   3.586   5.288   2.738
 9102SOL    HW228206   3.699   5.395   2.786
 9103SOL     OW28207   0.213   3.883   6.854
 9103SOL    HW128208   0.159   3.894   6.771
 9103SOL    HW228209   0.265   3.966   6.871
 9104SOL     OW28210   4.244   6.723   1.572
 9104SOL    HW128211   4.275   6.803   1.622
 9104SOL    HW228212   4.156   6.692   1.608
 9105SOL     OW28213   2.191   1.742   5.913
 9105SOL    HW128214   2.129   1.691   5.973
 9105SOL    HW228215   2.198   1.836   5.945
 9106SOL     OW28216   6.933   5.198   1.136
 9106SOL    HW128217   6.833   5.196   1.145
 9106SOL    HW228218   6.974   5.164   1.221
 9107SOL     OW28219   4.678   0.465   1.285
 9107SOL    HW128220   4.727   0.385   1.318
 9107SOL    HW228221   4.691   0.542   1.348
 9108SOL     OW28222   4.397   5.598   5.791
 9108SOL    HW128223   4.351   5.549   5.865
 9108SOL    HW228224   4.495   5.602   5.811
 9109SOL     OW28225   3.166   2.172   3.826
 9109SOL    HW128226   3.124   2.219   3.748
 9109SOL    HW228227   3.125   2.082   3.837
 9110SOL     OW28228   1.549   3.869   3.684
 9110SOL    HW128229   1.553   3.775   3.651
 9110SOL    HW228230   1.458   3.889   3.720
 9111SOL     OW28231   3.757   4.268   1.677
 9111SOL    HW128232   3.672   4.272   1.730
 9111SOL    HW228233   3.820   4.204   1.721
 9112SOL     OW28234   6.920   5.138   2.228
 9112SOL    HW128235   6.871   5.225   2.228
 9112SOL    HW228236   6.937   5.110   2.322
 9113SOL     OW28237   3.875   6.558   0.087
 9113SOL    HW128238   3.839   6.631   0.146
 9113SOL    HW228239   3.860   6.582   7.014
 9114SOL     OW28240   2.574   4.526   1.883
 9114SOL    HW128241   2.653   4.568   1.928
 9114SOL    HW228242   2.496   4.526   1.947
 9115SOL     OW28243   1.741   4.750   4.869
 9115SOL    HW128244   1.800   4.751   4.950
 9115SOL    HW228245   1.797   4.748   4.786
 9116SOL     OW28246   0.754   1.297   6.169
 9116SOL    HW128247   0.770   1.326   6.263
 9116SOL    HW228248   0.658   1.274   6.157
 9117SOL     OW28249   6.758   2.642   6.864
 9117SOL    HW128250   6.663   2.623   6.836
 9117SOL    HW228251   6.818   2.631   6.785
 9118SOL     OW28252   6.336   6.230   1.925
 9118SOL    HW128253   6.410   6.270   1.871
 9118SOL    HW228254   6.283   6.167   1.868
 9119SOL     OW28255   6.530   0.699   1.725
 9119SOL    HW128256   6.605   0.748   1.767
 9119SOL    HW228257   6.495   0.630   1.789
 9120SOL     OW28258   5.361   1.285   6.258
 9120SOL    HW128259   5.348   1.362   6.196
 9120SOL    HW228260   5.428   1.310   6.328
 9121SOL     OW28261   1.001   1.119   6.461
 9121SOL    HW128262   0.978   1.213   6.438
 9121SOL    HW228263   0.984   1.103   6.559
 9122SOL     OW28264   1.447   2.852   2.094
 9122SOL    HW128265   1.473   2.940   2.055
 9122SOL    HW228266   1.370   2.865   2.156
 9123SOL     OW28267   2.430   5.328   6.936
 9123SOL    HW128268   2.530   5.325   6.946
 9123SOL    HW228269   2.406   5.385   6.858
 9124SOL     OW28270   6.607   5.619   5.279
 9124SOL    HW128271   6.668   5.623   5.359
 9124SOL    HW228272   6.653   5.571   5.205
 9125SOL     OW28273   4.702   4.894   3.818
 9125SOL    HW128274   4.769   4.821   3.826
 9125SOL    HW228275   4.707   4.953   3.898
 9126SOL     OW28276   5.907   0.621   1.448
 9126SOL    HW128277   5.835   0.553   1.461
 9126SOL    HW228278   5.898   0.661   1.356
 9127SOL     OW28279   5.142   0.556   0.188
 9127SOL    HW128280   5.106   0.593   0.274
 9127SOL    HW228281   5.241   0.545   0.194
 9128SOL     OW28282   4.351   2.008   4.805
 9128SOL    HW128283   4.356   2.099   4.846
 9128SOL    HW228284   4.256   1.986   4.783
 9129SOL     OW28285   2.326   1.689   6.489
 9129SOL    HW128286   2.286   1.608   6.532
 9129SOL    HW228287   2.323   1.680   6.390
 9130SOL     OW28288   6.100   4.400   0.857
 9130SOL    HW128289   6.188   4.366   0.826
 9130SOL    HW228290   6.092   4.497   0.837
 9131SOL     OW28291   1.069   4.275   4.624
 9131SOL    HW128292   1.153   4.222   4.643
 9131SOL    HW228293   1.075   4.364   4.669
 9132SOL     OW28294   6.913   3.083   4.527
 9132SOL    HW128295   6.982   3.020   4.564
 9132SOL    HW228296   6.824   3.064   4.568
 9133SOL     OW28297   2.357   4.029   1.395
 9133SOL    HW128298   2.424   4.088   1.441
 9133SOL    HW228299   2.404   3.953   1.351
 9134SOL     OW28300   2.977   5.889   6.441
 9134SOL    HW128301   3.009   5.812   6.387
 9134SOL    HW228302   3.003   5.974   6.397
 9135SOL     OW28303   6.710   5.955   4.453
 9135SOL    HW128304   6.767   5.886   4.408
 9135SOL    HW228305   6.642   5.990   4.388
 9136SOL     OW28306   4.569   5.249   5.677
 9136SOL    HW128307   4.527   5.161   5.657
 9136SOL    HW228308   4.590   5.255   5.775
 9137SOL     OW28309   4.359   1.003   1.508
 9137SOL    HW128310   4.337   0.935   1.578
 9137SOL    HW228311   4.365   0.958   1.418
 9138SOL     OW28312   4.559   5.109   6.396
 9138SOL    HW128313   4.580   5.201   6.362
 9138SOL    HW228314   4.602   5.041   6.336
 9139SOL     OW28315   3.188   1.340   5.305
 9139SOL    HW128316   3.258   1.269   5.311
 9139SOL    HW228317   3.201   1.393   5.221
 9140SOL     OW28318   0.219   2.538   3.058
 9140SOL    HW128319   0.211   2.439   3.054
 9140SOL    HW228320   0.270   2.564   3.140
 9141SOL     OW28321   5.334   0.036   5.767
 9141SOL    HW128322   5.272   7.016   5.701
 9141SOL    HW228323   5.428   0.011   5.746
 9142SOL     OW28324   0.110   3.032   6.128
 9142SOL    HW128325   0.042   2.998   6.194
 9142SOL    HW228326   0.182   2.964   6.119
 9143SOL     OW28327   4.804   3.843   0.704
 9143SOL    HW128328   4.847   3.831   0.794
 9143SOL    HW228329   4.758   3.932   0.701
 9144SOL     OW28330   2.355   5.472   5.639
 9144SOL    HW128331   2.391   5.557   5.600
 9144SOL    HW228332   2.281   5.493   5.703
 9145SOL     OW28333   6.920   4.739   6.536
 9145SOL    HW128334   7.017   4.737   6.562
 9145SOL    HW228335   6.912   4.736   6.437
 9146SOL     OW28336   5.874   2.558   1.390
 9146SOL    HW128337   5.817   2.628   1.347
 9146SOL    HW228338   5.916   2.501   1.320
 9147SOL     OW28339   4.187   5.548   4.728
 9147SOL    HW128340   4.194   5.626   4.790
 9147SOL    HW228341   4.277   5.529   4.688
 9148SOL     OW28342   4.908   5.354   3.383
 9148SOL    HW128343   4.985   5.341   3.320
 9148SOL    HW228344   4.935   5.415   3.457
 9149SOL     OW28345   5.115   3.108   4.495
 9149SOL    HW128346   5.083   3.029   4.548
 9149SOL    HW228347   5.149   3.178   4.558
 9150SOL     OW28348   4.938   0.225   3.447
 9150SOL    HW128349   5.009   0.171   3.401
 9150SOL    HW228350   4.857   0.230   3.388
 9151SOL     OW28351   1.831   4.116   1.890
 9151SOL    HW128352   1.765   4.191   1.896
 9151SOL    HW228353   1.808   4.046   1.957
 9152SOL     OW28354   2.019   6.143   3.809
 9152SOL    HW128355   2.025   6.243   3.811
 9152SOL    HW228356   2.097   6.105   3.761
 9153SOL     OW28357   2.018   3.062   6.185
 9153SOL    HW128358   1.972   3.034   6.269
 9153SOL    HW228359   2.095   3.001   6.166
 9154SOL     OW28360   2.398   6.036   6.580
 9154SOL    HW128361   2.400   6.085   6.667
 9154SOL    HW228362   2.407   5.938   6.597
 9155SOL     OW28363   1.646   3.842   6.932
 9155SOL    HW128364   1.652   3.777   6.856
 9155SOL    HW228365   1.620   3.932   6.898
 9156SOL     OW28366   4.550   2.385   1.137
 9156SOL    HW128367   4.630   2.442   1.159
 9156SOL    HW228368   4.535   2.319   1.210
 9157SOL     OW28369   5.497   3.784   5.514
 9157SOL    HW128370   5.544   3.771   5.602
 9157SOL    HW228371   5.410   3.735   5.515
 9158SOL     OW28372   0.895   3.295   4.631
 9158SOL    HW128373   0.819   3.256   4.683
 9158SOL    HW228374   0.946   3.221   4.587
 9159SOL     OW28375   6.363   5.692   2.333
 9159SOL    HW128376   6.325   5.622   2.272
 9159SOL    HW228377   6.389   5.650   2.420
 9160SOL     OW28378   0.963   0.317   6.584
 9160SOL    HW128379   0.897   0.318   6.660
 9160SOL    HW228380   0.997   0.224   6.571
 9161SOL     OW28381   4.901   3.937   4.669
 9161SOL    HW128382   4.908   3.855   4.726
 9161SOL    HW228383   4.856   4.010   4.721
 9162SOL     OW28384   4.627   2.618   2.399
 9162SOL    HW128385   4.674   2.687   2.454
 9162SOL    HW228386   4.571   2.560   2.458
 9163SOL     OW28387   3.015   2.212   3.595
 9163SOL    HW128388   2.919   2.241   3.596
 9163SOL    HW228389   3.053   2.228   3.504
 9164SOL     OW28390   2.866   0.596   6.391
 9164SOL    HW128391   2.963   0.621   6.396
 9164SOL    HW228392   2.854   0.527   6.319
 9165SOL     OW28393   5.598   0.792   6.768
 9165SOL    HW128394   5.564   0.872   6.818
 9165SOL    HW228395   5.674   0.818   6.710
 9166SOL     OW28396   3.309   5.175   1.077
 9166SOL    HW128397   3.400   5.204   1.048
 9166SOL    HW228398   3.280   5.230   1.155
 9167SOL     OW28399   1.686   3.931   5.696
 9167SOL    HW128400   1.669   4.016   5.646
 9167SOL    HW228401   1.665   3.945   5.793
 9168SOL     OW28402   2.618   0.385   5.935
 9168SOL    HW128403   2.528   0.355   5.967
 9168SOL    HW228404   2.623   0.375   5.836
 9169SOL     OW28405   0.787   1.085   3.941
 9169SOL    HW128406   0.732   1.037   3.872
 9169SOL    HW228407   0.810   1.177   3.908
 9170SOL     OW28408   0.130   5.706   0.101
 9170SOL    HW128409   0.102   5.767   0.176
 9170SOL    HW228410   0.078   5.728   0.019
 9171SOL     OW28411   2.663   5.756   7.009
 9171SOL    HW128412   2.569   5.722   7.001
 9171SOL    HW228413   2.725   5.693   6.964
 9172SOL     OW28414   3.210   1.683   3.933
 9172SOL    HW128415   3.308   1.701   3.940
 9172SOL    HW228416   3.176   1.651   4.021
 9173SOL     OW28417   6.995   5.301   4.427
 9173SOL    HW128418   0.027   5.308   4.510
 9173SOL    HW228419   6.905   5.265   4.451
 9174SOL     OW28420   0.134   4.537   6.958
 9174SOL    HW128421   0.169   4.492   0.017
 9174SOL    HW228422   0.072   4.475   6.909
 9175SOL     OW28423   2.238   5.723   5.797
 9175SOL    HW128424   2.186   5.677   5.869
 9175SOL    HW228425   2.176   5.777   5.740
 9176SOL     OW28426   2.132   0.602   5.679
 9176SOL    HW128427   2.129   0.521   5.622
 9176SOL    HW228428   2.195   0.587   5.756
 9177SOL     OW28429   1.095   4.623   3.774
 9177SOL    HW128430   1.056   4.600   3.863
 9177SOL    HW228431   1.037   4.690   3.728
 9178SOL     OW28432   2.072   5.140   0.744
 9178SOL    HW128433   2.038   5.084   0.819
 9178SOL    HW228434   2.069   5.088   0.659
 9179SOL     OW28435   3.297   5.086   3.860
 9179SOL    HW128436   3.300   5.121   3.954
 9179SOL    HW228437   3.391   5.076   3.826
 9180SOL     OW28438   6.066   2.607   3.748
 9180SOL    HW128439   6.124   2.608   3.829
 9180SOL    HW228440   6.062   2.514   3.711
 9181SOL     OW28441   4.340   2.315   2.163
 9181SOL    HW128442   4.271   2.255   2.204
 9181SOL    HW228443   4.373   2.379   2.231
 9182SOL     OW28444   1.197   6.498   2.073
 9182SOL    HW128445   1.251   6.492   1.990
 9182SOL    HW228446   1.169   6.593   2.089
 9183SOL     OW28447   5.152   6.448   0.966
 9183SOL    HW128448   5.067   6.486   1.002
 9183SOL    HW228449   5.174   6.492   0.879
 9184SOL     OW28450   4.921   6.743   0.774
 9184SOL    HW128451   4.845   6.678   0.768
 9184SOL    HW228452   4.923   6.783   0.866
 9185SOL     OW28453   3.719   0.576   5.113
 9185SOL    HW128454   3.784   0.651   5.100
 9185SOL    HW228455   3.657   0.598   5.188
 9186SOL     OW28456   5.847   0.927   5.601
 9186SOL    HW128457   5.932   0.886   5.568
 9186SOL    HW228458   5.769   0.883   5.555
 9187SOL     OW28459   2.361   5.955   2.008
 9187SOL    HW128460   2.364   5.885   1.936
 9187SOL    HW228461   2.289   6.021   1.987
 9188SOL     OW28462   2.735   6.474   1.078
 9188SOL    HW128463   2.804   6.456   1.149
 9188SOL    HW228464   2.748   6.410   1.003
 9189SOL     OW28465   5.168   5.726   3.158
 9189SOL    HW128466   5.144   5.691   3.249
 9189SOL    HW228467   5.132   5.819   3.149
 9190SOL     OW28468   1.910   5.348   0.799
 9190SOL    HW128469   1.956   5.402   0.870
 9190SOL    HW228470   1.975   5.283   0.760
 9191SOL     OW28471   6.531   0.448   5.785
 9191SOL    HW128472   6.622   0.412   5.763
 9191SOL    HW228473   6.530   0.547   5.770
 9192SOL     OW28474   0.204   4.207   4.381
 9192SOL    HW128475   0.208   4.107   4.380
 9192SOL    HW228476   0.111   4.237   4.360
 9193SOL     OW28477   3.214   3.186   6.791
 9193SOL    HW128478   3.157   3.207   6.712
 9193SOL    HW228479   3.246   3.091   6.785
 9194SOL     OW28480   3.125   0.857   3.595
 9194SOL    HW128481   3.079   0.831   3.680
 9194SOL    HW228482   3.065   0.917   3.542
 9195SOL     OW28483   1.863   2.207   4.076
 9195SOL    HW128484   1.940   2.194   4.139
 9195SOL    HW228485   1.896   2.199   3.982
 9196SOL     OW28486   4.536   1.661   5.330
 9196SOL    HW128487   4.553   1.745   5.278
 9196SOL    HW228488   4.501   1.590   5.269
 9197SOL     OW28489   2.418   3.618   1.648
 9197SOL    HW128490   2.419   3.546   1.718
 9197SOL    HW228491   2.492   3.682   1.666
 9198SOL     OW28492   6.472   5.331   5.524
 9198SOL    HW128493   6.421   5.380   5.594
 9198SOL    HW228494   6.547   5.280   5.567
 9199SOL     OW28495   0.028   4.341   5.180
 9199SOL    HW128496   0.086   4.308   5.106
 9199SOL    HW228497   0.084   4.387   5.249
 9200SOL     OW28498   3.147   0.435   0.877
 9200SOL    HW128499   3.136   0.437   0.778
 9200SOL    HW228500   3.150   0.529   0.913
 9201SOL     OW28501   1.186   3.980   0.504
 9201SOL    HW128502   1.209   3.897   0.454
 9201SOL    HW228503   1.268   4.018   0.546
 9202SOL     OW28504   1.407   6.971   3.320
 9202SOL    HW128505   1.365   6.882   3.304
 9202SOL    HW228506   1.435   6.978   3.416
 9203SOL     OW28507   6.704   5.586   0.862
 9203SOL    HW128508   6.650   5.633   0.932
 9203SOL    HW228509   6.695   5.634   0.775
 9204SOL     OW28510   5.168   0.968   6.054
 9204SOL    HW128511   5.183   1.043   5.989
 9204SOL    HW228512   5.240   0.970   6.124
 9205SOL     OW28513   7.000   3.650   3.023
 9205SOL    HW128514   6.997   3.584   3.099
 9205SOL    HW228515   6.921   3.637   2.965
 9206SOL     OW28516   3.935   5.871   0.650
 9206SOL    HW128517   3.962   5.958   0.690
 9206SOL    HW228518   3.846   5.881   0.605
 9207SOL     OW28519   4.781   5.667   0.540
 9207SOL    HW128520   4.837   5.681   0.622
 9207SOL    HW228521   4.708   5.602   0.561
 9208SOL     OW28522   0.550   4.021   4.387
 9208SOL    HW128523   0.562   3.934   4.340
 9208SOL    HW228524   0.498   4.007   4.471
 9209SOL     OW28525   2.474   1.377   6.382
 9209SOL    HW128526   2.488   1.278   6.373
 9209SOL    HW228527   2.388   1.402   6.337
 9210SOL     OW28528   6.640   1.503   3.212
 9210SOL    HW128529   6.557   1.448   3.225
 9210SOL    HW228530   6.682   1.480   3.124
 9211SOL     OW28531   0.149   1.684   3.694
 9211SOL    HW128532   0.192   1.732   3.770
 9211SOL    HW228533   0.190   1.593   3.684
 9212SOL     OW28534   3.158   4.931   4.956
 9212SOL    HW128535   3.229   4.860   4.962
 9212SOL    HW228536   3.188   5.004   4.895
 9213SOL     OW28537   5.852   3.860   5.992
 9213SOL    HW128538   5.944   3.894   5.972
 9213SOL    HW228539   5.794   3.937   6.020
 9214SOL     OW28540   0.502   5.705   0.885
 9214SOL    HW128541   0.464   5.658   0.966
 9214SOL    HW228542   0.564   5.777   0.915
 9215SOL     OW28543   0.949   1.050   0.491
 9215SOL    HW128544   1.014   1.092   0.427
 9215SOL    HW228545   0.972   1.078   0.584
 9216SOL     OW28546   2.350   6.971   2.726
 9216SOL    HW128547   2.431   6.938   2.776
 9216SOL    HW228548   2.293   6.893   2.700
 9217SOL     OW28549   0.943   1.686   6.253
 9217SOL    HW128550   0.930   1.650   6.161
 9217SOL    HW228551   1.039   1.674   6.281
 9218SOL     OW28552   3.105   0.163   0.814
 9218SOL    HW128553   3.005   0.160   0.815
 9218SOL    HW228554   3.135   0.256   0.833
 9219SOL     OW28555   0.725   2.617   0.971
 9219SOL    HW128556   0.672   2.537   0.999
 9219SOL    HW228557   0.674   2.700   0.994
 9220SOL     OW28558   3.598   6.671   1.454
 9220SOL    HW128559   3.615   6.683   1.356
 9220SOL    HW228560   3.505   6.700   1.475
 9221SOL     OW28561   2.725   6.259   3.594
 9221SOL    HW128562   2.780   6.330   3.549
 9221SOL    HW228563   2.774   6.172   3.591
 9222SOL     OW28564   2.846   1.746   6.680
 9222SOL    HW128565   2.807   1.807   6.610
 9222SOL    HW228566   2.938   1.718   6.652
 9223SOL     OW28567   2.725   2.903   5.347
 9223SOL    HW128568   2.673   2.910   5.432
 9223SOL    HW228569   2.675   2.951   5.274
 9224SOL     OW28570   1.652   5.421   4.395
 9224SOL    HW128571   1.690   5.499   4.444
 9224SOL    HW228572   1.724   5.375   4.344
 9225SOL     OW28573   3.109   5.683   7.017
 9225SOL    HW128574   3.104   5.608   0.061
 9225SOL    HW228575   3.039   5.751   0.015
 9226SOL     OW28576   4.984   6.469   1.327
 9226SOL    HW128577   4.931   6.405   1.382
 9226SOL    HW228578   5.044   6.523   1.386
 9227SOL     OW28579   1.479   5.300   2.695
 9227SOL    HW128580   1.573   5.296   2.660
 9227SOL    HW228581   1.463   5.222   2.756
 9228SOL     OW28582   1.351   0.853   6.888
 9228SOL    HW128583   1.428   0.791   6.871
 9228SOL    HW228584   1.376   0.919   6.959
 9229SOL     OW28585   0.908   5.872   4.139
 9229SOL    HW128586   0.970   5.889   4.215
 9229SOL    HW228587   0.944   5.797   4.082
 9230SOL     OW28588   5.577   0.733   3.864
 9230SOL    HW128589   5.596   0.638   3.885
 9230SOL    HW228590   5.489   0.740   3.816
 9231SOL     OW28591   1.292   2.443   4.429
 9231SOL    HW128592   1.283   2.406   4.337
 9231SOL    HW228593   1.337   2.376   4.488
 9232SOL     OW28594   3.593   5.138   0.616
 9232SOL    HW128595   3.566   5.217   0.671
 9232SOL    HW228596   3.513   5.084   0.592
 9233SOL     OW28597   5.549   4.737   0.996
 9233SOL    HW128598   5.619   4.808   0.996
 9233SOL    HW228599   5.459   4.779   0.997
 9234SOL     OW28600   2.529   5.827   3.249
 9234SOL    HW128601   2.593   5.761   3.209
 9234SOL    HW228602   2.458   5.778   3.298
 9235SOL     OW28603   0.621   2.021   2.973
 9235SOL    HW128604   0.538   1.999   2.922
 9235SOL    HW228605   0.619   2.116   3.002
 9236SOL     OW28606   2.991   3.353   5.107
 9236SOL    HW128607   2.907   3.356   5.161
 9236SOL    HW228608   3.065   3.398   5.157
 9237SOL     OW28609   1.771   3.980   3.823
 9237SOL    HW128610   1.717   3.929   3.756
 9237SOL    HW228611   1.709   4.025   3.888
 9238SOL     OW28612   4.512   3.113   6.341
 9238SOL    HW128613   4.424   3.104   6.387
 9238SOL    HW228614   4.501   3.091   6.244
 9239SOL     OW28615   0.944   4.117   1.084
 9239SOL    HW128616   1.021   4.093   1.143
 9239SOL    HW228617   0.863   4.065   1.112
 9240SOL     OW28618   4.629   1.020   1.729
 9240SOL    HW128619   4.690   1.092   1.696
 9240SOL    HW228620   4.598   1.042   1.821
 9241SOL     OW28621   0.239   5.354   6.907
 9241SOL    HW128622   0.256   5.267   6.861
 9241SOL    HW228623   0.245   5.341   7.006
 9242SOL     OW28624   6.213   5.763   2.023
 9242SOL    HW128625   6.257   5.786   1.936
 9242SOL    HW228626   6.227   5.838   2.088
 9243SOL     OW28627   6.337   5.806   4.838
 9243SOL    HW128628   6.375   5.833   4.750
 9243SOL    HW228629   6.412   5.790   4.903
 9244SOL     OW28630   3.696   4.946   6.637
 9244SOL    HW128631   3.722   4.852   6.615
 9244SOL    HW228632   3.621   4.974   6.578
 9245SOL     OW28633   0.718   6.028   1.468
 9245SOL    HW128634   0.663   6.070   1.396
 9245SOL    HW228635   0.663   6.019   1.551
 9246SOL     OW28636   6.311   5.533   3.752
 9246SOL    HW128637   6.332   5.611   3.694
 9246SOL    HW228638   6.359   5.542   3.840
 9247SOL     OW28639   1.252   6.639   2.733
 9247SOL    HW128640   1.289   6.567   2.675
 9247SOL    HW228641   1.316   6.715   2.738
 9248SOL     OW28642   2.746   2.248   6.155
 9248SOL    HW128643   2.742   2.299   6.241
 9248SOL    HW228644   2.808   2.171   6.165
 9249SOL     OW28645   4.887   0.379   4.017
 9249SOL    HW128646   4.805   0.400   4.070
 9249SOL    HW228647   4.885   0.428   3.930
 9250SOL     OW28648   4.967   3.752   4.101
 9250SOL    HW128649   5.045   3.767   4.039
 9250SOL    HW228650   4.896   3.820   4.083
 9251SOL     OW28651   3.461   1.858   2.752
 9251SOL    HW128652   3.545   1.805   2.763
 9251SOL    HW228653   3.422   1.841   2.662
 9252SOL     OW28654   0.120   0.242   4.871
 9252SOL    HW128655   0.138   0.175   4.799
 9252SOL    HW228656   0.194   0.309   4.874
 9253SOL     OW28657   1.931   0.058   5.593
 9253SOL    HW128658   1.879   0.135   5.557
 9253SOL    HW228659   1.917   7.000   5.536
 9254SOL     OW28660   5.798   3.668   1.708
 9254SOL    HW128661   5.888   3.682   1.667
 9254SOL    HW228662   5.789   3.572   1.735
 9255SOL     OW28663   5.320   3.728   0.857
 9255SOL    HW128664   5.388   3.781   0.908
 9255SOL    HW228665   5.345   3.631   0.861
 9256SOL     OW28666   4.123   4.579   1.785
 9256SOL    HW128667   4.180   4.497   1.778
 9256SOL    HW228668   4.147   4.629   1.868
 9257SOL     OW28669   0.854   4.209   1.781
 9257SOL    HW128670   0.953   4.201   1.789
 9257SOL    HW228671   0.824   4.294   1.825
 9258SOL     OW28672   4.058   3.220   3.493
 9258SOL    HW128673   4.006   3.159   3.434
 9258SOL    HW228674   4.111   3.167   3.559
 9259SOL     OW28675   1.132   2.374   1.485
 9259SOL    HW128676   1.081   2.404   1.565
 9259SOL    HW228677   1.222   2.341   1.514
 9260SOL     OW28678   5.134   3.484   6.219
 9260SOL    HW128679   5.108   3.411   6.282
 9260SOL    HW228680   5.195   3.447   6.149
 9261SOL     OW28681   4.321   0.315   6.658
 9261SOL    HW128682   4.407   0.265   6.667
 9261SOL    HW228683   4.336   0.399   6.605
 9262SOL     OW28684   5.213   1.189   5.544
 9262SOL    HW128685   5.142   1.250   5.508
 9262SOL    HW228686   5.205   1.100   5.500
 9263SOL     OW28687   5.049   3.846   1.395
 9263SOL    HW128688   5.065   3.868   1.492
 9263SOL    HW228689   5.041   3.931   1.343
 9264SOL     OW28690   6.092   4.114   6.998
 9264SOL    HW128691   6.043   4.152   0.054
 9264SOL    HW228692   6.063   4.162   6.914
 9265SOL     OW28693   2.984   1.096   0.146
 9265SOL    HW128694   2.898   1.048   0.126
 9265SOL    HW228695   2.965   1.173   0.207
 9266SOL     OW28696   2.371   6.520   2.651
 9266SOL    HW128697   2.408   6.436   2.691
 9266SOL    HW228698   2.303   6.497   2.582
 9267SOL     OW28699   0.839   4.459   4.654
 9267SOL    HW128700   0.817   4.473   4.751
 9267SOL    HW228701   0.932   4.490   4.636
 9268SOL     OW28702   0.493   6.548   2.558
 9268SOL    HW128703   0.541   6.499   2.484
 9268SOL    HW228704   0.395   6.538   2.546
 9269SOL     OW28705   3.324   2.083   6.599
 9269SOL    HW128706   3.231   2.069   6.567
 9269SOL    HW228707   3.339   2.027   6.681
 9270SOL     OW28708   6.840   6.763   6.324
 9270SOL    HW128709   6.939   6.756   6.336
 9270SOL    HW228710   6.808   6.686   6.269
 9271SOL     OW28711   2.076   5.539   0.928
 9271SOL    HW128712   2.163   5.490   0.943
 9271SOL    HW228713   2.095   5.635   0.906
 9272SOL     OW28714   2.326   4.550   6.250
 9272SOL    HW128715   2.278   4.596   6.175
 9272SOL    HW228716   2.423   4.541   6.227
 9273SOL     OW28717   4.413   5.311   4.410
 9273SOL    HW128718   4.456   5.254   4.340
 9273SOL    HW228719   4.313   5.301   4.404
 9274SOL     OW28720   5.777   2.214   6.505
 9274SOL    HW128721   5.695   2.175   6.463
 9274SOL    HW228722   5.776   2.193   6.603
 9275SOL     OW28723   1.565   0.508   5.731
 9275SOL    HW128724   1.481   0.458   5.710
 9275SOL    HW228725   1.628   0.502   5.655
 9276SOL     OW28726   3.726   6.116   4.815
 9276SOL    HW128727   3.705   6.050   4.888
 9276SOL    HW228728   3.737   6.207   4.856
 9277SOL     OW28729   3.821   3.206   7.011
 9277SOL    HW128730   3.818   3.306   7.017
 9277SOL    HW228731   3.916   3.177   6.997
 9278SOL     OW28732   1.305   2.089   3.452
 9278SOL    HW128733   1.353   2.173   3.477
 9278SOL    HW228734   1.267   2.046   3.534
 9279SOL     OW28735   3.106   0.355   2.260
 9279SOL    HW128736   3.197   0.325   2.289
 9279SOL    HW228737   3.059   0.397   2.337
 9280SOL     OW28738   2.064   6.836   4.052
 9280SOL    HW128739   2.073   6.933   4.030
 9280SOL    HW228740   2.141   6.786   4.013
 9281SOL     OW28741   1.936   2.427   0.403
 9281SOL    HW128742   1.940   2.368   0.323
 9281SOL    HW228743   2.027   2.462   0.424
 9282SOL     OW28744   4.540   1.538   5.056
 9282SOL    HW128745   4.597   1.620   5.053
 9282SOL    HW228746   4.444   1.564   5.050
 9283SOL     OW28747   5.805   2.519   2.259
 9283SOL    HW128748   5.835   2.597   2.315
 9283SOL    HW228749   5.745   2.552   2.186
 9284SOL     OW28750   3.264   3.550   1.220
 9284SOL    HW128751   3.199   3.481   1.252
 9284SOL    HW228752   3.325   3.577   1.295
 9285SOL     OW28753   0.014   2.548   6.644
 9285SOL    HW128754   0.092   2.518   6.589
 9285SOL    HW228755   6.953   2.535   6.592
 9286SOL     OW28756   5.536   6.978   5.136
 9286SOL    HW128757   5.468   0.027   5.147
 9286SOL    HW228758   5.491   6.889   5.130
 9287SOL     OW28759   2.873   6.241   0.879
 9287SOL    HW128760   2.925   6.321   0.850
 9287SOL    HW228761   2.841   6.191   0.798
 9288SOL     OW28762   4.713   2.090   5.882
 9288SOL    HW128763   4.793   2.149   5.896
 9288SOL    HW228764   4.669   2.114   5.795
 9289SOL     OW28765   4.930   2.347   2.164
 9289SOL    HW128766   4.934   2.396   2.251
 9289SOL    HW228767   4.835   2.322   2.144
 9290SOL     OW28768   4.810   1.521   4.640
 9290SOL    HW128769   4.712   1.510   4.622
 9290SOL    HW228770   4.836   1.465   4.719
 9291SOL     OW28771   1.351   0.494   4.870
 9291SOL    HW128772   1.285   0.441   4.924
 9291SOL    HW228773   1.326   0.590   4.871
 9292SOL     OW28774   0.211   3.311   6.113
 9292SOL    HW128775   0.164   3.377   6.055
 9292SOL    HW228776   0.147   3.237   6.136
 9293SOL     OW28777   5.368   4.572   0.297
 9293SOL    HW128778   5.352   4.491   0.241
 9293SOL    HW228779   5.384   4.543   0.392
 9294SOL     OW28780   5.470   6.319   6.909
 9294SOL    HW128781   5.387   6.372   6.891
 9294SOL    HW228782   5.488   6.318   7.007
 9295SOL     OW28783   4.662   1.438   3.161
 9295SOL    HW128784   4.631   1.528   3.193
 9295SOL    HW228785   4.677   1.441   3.062
 9296SOL     OW28786   5.921   6.298   5.959
 9296SOL    HW128787   5.921   6.394   5.985
 9296SOL    HW228788   5.970   6.287   5.873
 9297SOL     OW28789   0.482   0.910   1.218
 9297SOL    HW128790   0.510   0.815   1.234
 9297SOL    HW228791   0.418   0.913   1.142
 9298SOL     OW28792   1.796   6.142   5.258
 9298SOL    HW128793   1.846   6.199   5.323
 9298SOL    HW228794   1.857   6.111   5.186
 9299SOL     OW28795   1.508   3.780   4.316
 9299SOL    HW128796   1.603   3.805   4.334
 9299SOL    HW228797   1.483   3.702   4.373
 9300SOL     OW28798   5.554   4.445   4.706
 9300SOL    HW128799   5.523   4.538   4.725
 9300SOL    HW228800   5.622   4.446   4.633
 9301SOL     OW28801   5.227   4.331   2.363
 9301SOL    HW128802   5.172   4.415   2.358
 9301SOL    HW228803   5.168   4.254   2.389
 9302SOL     OW28804   2.234   2.157   2.958
 9302SOL    HW128805   2.294   2.079   2.939
 9302SOL    HW228806   2.280   2.221   3.019
 9303SOL     OW28807   3.675   6.286   6.745
 9303SOL    HW128808   3.659   6.297   6.843
 9303SOL    HW228809   3.630   6.203   6.712
 9304SOL     OW28810   3.141   3.382   0.851
 9304SOL    HW128811   3.116   3.285   0.838
 9304SOL    HW228812   3.180   3.417   0.767
 9305SOL     OW28813   6.099   2.705   2.018
 9305SOL    HW128814   6.049   2.619   2.028
 9305SOL    HW228815   6.114   2.723   1.920
 9306SOL     OW28816   6.700   4.624   4.225
 9306SOL    HW128817   6.708   4.541   4.169
 9306SOL    HW228818   6.787   4.642   4.271
 9307SOL     OW28819   1.666   1.855   0.776
 9307SOL    HW128820   1.570   1.882   0.772
 9307SOL    HW228821   1.723   1.937   0.777
 9308SOL     OW28822   0.640   3.429   0.775
 9308SOL    HW128823   0.558   3.405   0.827
 9308SOL    HW228824   0.645   3.375   0.692
 9309SOL     OW28825   4.523   4.005   5.818
 9309SOL    HW128826   4.614   4.029   5.784
 9309SOL    HW228827   4.469   3.966   5.743
 9310SOL     OW28828   4.433   5.736   6.392
 9310SOL    HW128829   4.401   5.642   6.393
 9310SOL    HW228830   4.358   5.798   6.370
 9311SOL     OW28831   5.590   3.954   0.791
 9311SOL    HW128832   5.520   4.024   0.781
 9311SOL    HW228833   5.572   3.880   0.726
 9312SOL     OW28834   1.102   4.132   6.591
 9312SOL    HW128835   1.085   4.222   6.632
 9312SOL    HW228836   1.027   4.070   6.615
 9313SOL     OW28837   6.912   6.824   2.597
 9313SOL    HW128838   6.845   6.807   2.525
 9313SOL    HW228839   6.879   6.783   2.682
 9314SOL     OW28840   4.782   5.321   6.755
 9314SOL    HW128841   4.692   5.279   6.758
 9314SOL    HW228842   4.850   5.257   6.790
 9315SOL     OW28843   6.778   0.397   5.542
 9315SOL    HW128844   6.794   0.322   5.605
 9315SOL    HW228845   6.861   0.451   5.530
 9316SOL     OW28846   3.861   5.892   3.675
 9316SOL    HW128847   3.763   5.893   3.656
 9316SOL    HW228848   3.894   5.986   3.687
 9317SOL     OW28849   6.368   5.281   3.674
 9317SOL    HW128850   6.352   5.370   3.717
 9317SOL    HW228851   6.293   5.219   3.696
 9318SOL     OW28852   0.451   0.581   6.716
 9318SOL    HW128853   0.503   0.612   6.637
 9318SOL    HW228854   0.354   0.578   6.693
 9319SOL     OW28855   0.592   3.140   6.267
 9319SOL    HW128856   0.524   3.111   6.200
 9319SOL    HW228857   0.563   3.226   6.309
 9320SOL     OW28858   4.474   2.314   5.897
 9320SOL    HW128859   4.476   2.237   5.834
 9320SOL    HW228860   4.530   2.293   5.977
 9321SOL     OW28861   6.238   6.163   2.806
 9321SOL    HW128862   6.252   6.142   2.903
 9321SOL    HW228863   6.229   6.077   2.755
 9322SOL     OW28864   0.656   6.183   5.693
 9322SOL    HW128865   0.642   6.086   5.712
 9322SOL    HW228866   0.671   6.233   5.779
 9323SOL     OW28867   1.117   1.536   6.865
 9323SOL    HW128868   1.193   1.577   6.915
 9323SOL    HW228869   1.130   1.548   6.767
 9324SOL     OW28870   1.397   5.525   0.382
 9324SOL    HW128871   1.469   5.496   0.445
 9324SOL    HW228872   1.319   5.559   0.433
 9325SOL     OW28873   5.877   2.042   1.056
 9325SOL    HW128874   5.812   2.007   0.989
 9325SOL    HW228875   5.836   2.039   1.147
 9326SOL     OW28876   1.890   6.901   1.345
 9326SOL    HW128877   1.830   6.843   1.401
 9326SOL    HW228878   1.983   6.898   1.381
 9327SOL     OW28879   4.235   0.783   2.791
 9327SOL    HW128880   4.175   0.843   2.739
 9327SOL    HW228881   4.295   0.733   2.728
 9328SOL     OW28882   3.460   1.435   0.964
 9328SOL    HW128883   3.473   1.516   1.022
 9328SOL    HW228884   3.492   1.455   0.871
 9329SOL     OW28885   0.577   3.524   2.509
 9329SOL    HW128886   0.588   3.524   2.609
 9329SOL    HW228887   0.642   3.587   2.468
 9330SOL     OW28888   6.140   0.783   0.750
 9330SOL    HW128889   6.059   0.842   0.748
 9330SOL    HW228890   6.221   0.838   0.729
 9331SOL     OW28891   0.562   0.923   6.985
 9331SOL    HW128892   0.573   0.831   6.948
 9331SOL    HW228893   0.466   0.951   6.977
 9332SOL     OW28894   3.189   3.117   4.448
 9332SOL    HW128895   3.115   3.183   4.433
 9332SOL    HW228896   3.178   3.076   4.539
 9333SOL     OW28897   6.493   4.529   1.224
 9333SOL    HW128898   6.527   4.443   1.261
 9333SOL    HW228899   6.428   4.570   1.288
 9334SOL     OW28900   2.712   0.307   4.632
 9334SOL    HW128901   2.768   0.229   4.605
 9334SOL    HW228902   2.729   0.383   4.570
 9335SOL     OW28903   1.877   0.593   0.107
 9335SOL    HW128904   1.856   0.539   0.026
 9335SOL    HW228905   1.934   0.540   0.169
 9336SOL     OW28906   3.102   6.824   6.014
 9336SOL    HW128907   3.037   6.894   5.985
 9336SOL    HW228908   3.060   6.769   6.087
 9337SOL     OW28909   4.936   0.484   2.080
 9337SOL    HW128910   5.012   0.475   2.144
 9337SOL    HW228911   4.871   0.409   2.094
 9338SOL     OW28912   3.656   7.019   2.823
 9338SOL    HW128913   3.674   7.014   2.921
 9338SOL    HW228914   3.737   0.029   2.775
 9339SOL     OW28915   4.352   6.511   1.703
 9339SOL    HW128916   4.434   6.532   1.757
 9339SOL    HW228917   4.313   6.595   1.666
 9340SOL     OW28918   6.033   3.683   0.134
 9340SOL    HW128919   5.980   3.647   0.057
 9340SOL    HW228920   6.122   3.715   0.101
 9341SOL     OW28921   0.709   5.511   6.495
 9341SOL    HW128922   0.678   5.418   6.514
 9341SOL    HW228923   0.678   5.539   6.405
 9342SOL     OW28924   1.720   6.609   6.157
 9342SOL    HW128925   1.672   6.613   6.069
 9342SOL    HW228926   1.796   6.674   6.155
 9343SOL     OW28927   6.554   5.390   5.030
 9343SOL    HW128928   6.483   5.434   4.974
 9343SOL    HW228929   6.603   5.323   4.974
 9344SOL     OW28930   5.132   6.622   1.589
 9344SOL    HW128931   5.075   6.541   1.607
 9344SOL    HW228932   5.088   6.703   1.629
 9345SOL     OW28933   0.201   3.348   0.786
 9345SOL    HW128934   0.237   3.398   0.707
 9345SOL    HW228935   0.177   3.412   0.858
 9346SOL     OW28936   6.099   0.029   0.901
 9346SOL    HW128937   6.082   0.122   0.869
 9346SOL    HW228938   6.181   0.029   0.959
 9347SOL     OW28939   1.738   6.542   1.694
 9347SOL    HW128940   1.762   6.533   1.791
 9347SOL    HW228941   1.768   6.461   1.644
 9348SOL     OW28942   3.432   4.754   0.269
 9348SOL    HW128943   3.451   4.658   0.287
 9348SOL    HW228944   3.483   4.783   0.187
 9349SOL     OW28945   1.536   6.600   2.620
 9349SOL    HW128946   1.508   6.694   2.639
 9349SOL    HW228947   1.470   6.558   2.557
 9350SOL     OW28948   0.567   2.534   5.932
 9350SOL    HW128949   0.575   2.616   5.987
 9350SOL    HW228950   0.616   2.459   5.976
 9351SOL     OW28951   3.736   2.395   6.682
 9351SOL    HW128952   3.807   2.360   6.743
 9351SOL    HW228953   3.773   2.467   6.624
 9352SOL     OW28954   2.328   4.436   6.519
 9352SOL    HW128955   2.309   4.415   6.423
 9352SOL    HW228956   2.349   4.533   6.529
 9353SOL     OW28957   6.625   0.025   1.409
 9353SOL    HW128958   6.698   0.004   1.344
 9353SOL    HW228959   6.653   0.101   1.468
 9354SOL     OW28960   6.805   2.557   6.505
 9354SOL    HW128961   6.836   2.542   6.411
 9354SOL    HW228962   6.719   2.509   6.520
 9355SOL     OW28963   0.402   1.708   5.086
 9355SOL    HW128964   0.483   1.657   5.059
 9355SOL    HW228965   0.408   1.802   5.051
 9356SOL     OW28966   4.669   6.583   2.316
 9356SOL    HW128967   4.575   6.599   2.286
 9356SOL    HW228968   4.732   6.621   2.249
 9357SOL     OW28969   0.534   1.830   0.014
 9357SOL    HW128970   0.447   1.790   0.040
 9357SOL    HW228971   0.607   1.763   0.025
 9358SOL     OW28972   1.042   3.669   2.664
 9358SOL    HW128973   0.982   3.598   2.626
 9358SOL    HW228974   0.994   3.756   2.664
 9359SOL     OW28975   1.633   0.268   6.030
 9359SOL    HW128976   1.635   0.191   5.967
 9359SOL    HW228977   1.558   0.330   6.005
 9360SOL     OW28978   0.828   0.834   6.668
 9360SOL    HW128979   0.888   0.850   6.747
 9360SOL    HW228980   0.882   0.840   6.584
 9361SOL     OW28981   2.242   5.873   4.281
 9361SOL    HW128982   2.263   5.883   4.183
 9361SOL    HW228983   2.321   5.833   4.327
 9362SOL     OW28984   1.710   0.338   2.558
 9362SOL    HW128985   1.775   0.377   2.493
 9362SOL    HW228986   1.712   0.238   2.552
 9363SOL     OW28987   3.109   5.270   2.630
 9363SOL    HW128988   3.075   5.327   2.705
 9363SOL    HW228989   3.186   5.316   2.586
 9364SOL     OW28990   1.061   1.961   1.442
 9364SOL    HW128991   1.116   1.946   1.524
 9364SOL    HW228992   1.069   2.056   1.413
 9365SOL     OW28993   3.222   2.119   4.418
 9365SOL    HW128994   3.176   2.162   4.496
 9365SOL    HW228995   3.154   2.095   4.348
 9366SOL     OW28996   3.739   5.592   0.265
 9366SOL    HW128997   3.813   5.643   0.309
 9366SOL    HW228998   3.773   5.547   0.183
 9367SOL     OW28999   6.333   0.856   1.534
 9367SOL    HW129000   6.410   0.797   1.556
 9367SOL    HW229001   6.365   0.950   1.523
 9368SOL     OW29002   3.513   0.608   2.532
 9368SOL    HW129003   3.556   0.542   2.470
 9368SOL    HW229004   3.416   0.616   2.509
 9369SOL     OW29005   2.375   5.507   6.741
 9369SOL    HW129006   2.426   5.430   6.704
 9369SOL    HW229007   2.306   5.537   6.675
 9370SOL     OW29008   4.387   1.539   4.118
 9370SOL    HW129009   4.467   1.498   4.074
 9370SOL    HW229010   4.403   1.637   4.130
 9371SOL     OW29011   4.567   5.666   1.422
 9371SOL    HW129012   4.616   5.607   1.486
 9371SOL    HW229013   4.502   5.724   1.472
 9372SOL     OW29014   4.747   6.348   1.458
 9372SOL    HW129015   4.761   6.265   1.404
 9372SOL    HW229016   4.690   6.412   1.407
 9373SOL     OW29017   6.635   1.907   0.141
 9373SOL    HW129018   6.673   1.872   0.226
 9373SOL    HW229019   6.674   1.997   0.121
 9374SOL     OW29020   0.421   5.286   5.968
 9374SOL    HW129021   0.493   5.351   5.942
 9374SOL    HW229022   0.342   5.337   6.003
 9375SOL     OW29023   0.250   0.772   0.033
 9375SOL    HW129024   0.157   0.808   0.036
 9375SOL    HW229025   0.313   0.844   0.004
 9376SOL     OW29026   2.329   3.851   1.840
 9376SOL    HW129027   2.270   3.811   1.769
 9376SOL    HW229028   2.272   3.888   1.913
 9377SOL     OW29029   1.974   0.442   3.512
 9377SOL    HW129030   1.931   0.382   3.580
 9377SOL    HW229031   2.001   0.527   3.556
 9378SOL     OW29032   2.898   0.684   4.122
 9378SOL    HW129033   2.959   0.763   4.120
 9378SOL    HW229034   2.873   0.659   4.028
 9379SOL     OW29035   4.202   6.157   4.925
 9379SOL    HW129036   4.130   6.150   4.856
 9379SOL    HW229037   4.259   6.236   4.904
 9380SOL     OW29038   5.111   5.860   0.377
 9380SOL    HW129039   5.069   5.929   0.436
 9380SOL    HW229040   5.202   5.890   0.349
 9381SOL     OW29041   5.523   1.444   4.764
 9381SOL    HW129042   5.547   1.374   4.697
 9381SOL    HW229043   5.590   1.444   4.838
 9382SOL     OW29044   3.022   6.215   5.010
 9382SOL    HW129045   2.965   6.202   4.929
 9382SOL    HW229046   3.083   6.294   4.995
 9383SOL     OW29047   5.871   4.455   2.967
 9383SOL    HW129048   5.876   4.461   2.868
 9383SOL    HW229049   5.814   4.529   3.003
 9384SOL     OW29050   3.144   0.461   2.026
 9384SOL    HW129051   3.223   0.519   2.004
 9384SOL    HW229052   3.148   0.435   2.122
 9385SOL     OW29053   4.476   1.555   3.370
 9385SOL    HW129054   4.415   1.557   3.450
 9385SOL    HW229055   4.423   1.570   3.287
 9386SOL     OW29056   4.516   6.454   6.525
 9386SOL    HW129057   4.457   6.384   6.566
 9386SOL    HW229058   4.600   6.411   6.493
 9387SOL     OW29059   2.687   2.006   0.680
 9387SOL    HW129060   2.633   2.069   0.735
 9387SOL    HW229061   2.776   1.991   0.723
 9388SOL     OW29062   2.353   6.294   4.903
 9388SOL    HW129063   2.366   6.270   4.999
 9388SOL    HW229064   2.434   6.341   4.869
 9389SOL     OW29065   2.678   4.855   1.640
 9389SOL    HW129066   2.774   4.828   1.636
 9389SOL    HW229067   2.623   4.794   1.582
 9390SOL     OW29068   4.810   5.234   4.606
 9390SOL    HW129069   4.823   5.333   4.603
 9390SOL    HW229070   4.717   5.214   4.636
 9391SOL     OW29071   1.426   5.424   4.239
 9391SOL    HW129072   1.406   5.348   4.176
 9391SOL    HW229073   1.506   5.401   4.294
 9392SOL     OW29074   5.412   4.096   3.023
 9392SOL    HW129075   5.365   4.184   3.032
 9392SOL    HW229076   5.510   4.112   3.014
 9393SOL     OW29077   2.572   6.816   6.457
 9393SOL    HW129078   2.597   6.897   6.511
 9393SOL    HW229079   2.651   6.784   6.406
 9394SOL     OW29080   3.425   0.320   0.024
 9394SOL    HW129081   3.404   0.246   0.089
 9394SOL    HW229082   3.359   0.316   6.971
 9395SOL     OW29083   1.874   1.657   0.530
 9395SOL    HW129084   1.884   1.583   0.596
 9395SOL    HW229085   1.841   1.739   0.576
 9396SOL     OW29086   0.629   6.615   6.670
 9396SOL    HW129087   0.728   6.628   6.679
 9396SOL    HW229088   0.610   6.550   6.596
 9397SOL     OW29089   3.442   0.599   5.238
 9397SOL    HW129090   3.422   0.696   5.225
 9397SOL    HW229091   3.373   0.544   5.190
 9398SOL     OW29092   0.821   1.839   0.272
 9398SOL    HW129093   0.734   1.880   0.299
 9398SOL    HW229094   0.896   1.899   0.301
 9399SOL     OW29095   1.705   2.370   4.590
 9399SOL    HW129096   1.754   2.361   4.503
 9399SOL    HW229097   1.770   2.374   4.665
 9400SOL     OW29098   5.469   0.893   0.499
 9400SOL    HW129099   5.421   0.808   0.475
 9400SOL    HW229100   5.412   0.971   0.477
 9401SOL     OW29101   0.118   2.474   3.848
 9401SOL    HW129102   0.210   2.511   3.857
 9401SOL    HW229103   0.119   2.377   3.872
 9402SOL     OW29104   1.961   6.603   4.134
 9402SOL    HW129105   1.992   6.596   4.228
 9402SOL    HW229106   2.001   6.685   4.092
 9403SOL     OW29107   6.069   2.392   2.264
 9403SOL    HW129108   5.981   2.440   2.256
 9403SOL    HW229109   6.143   2.459   2.256
 9404SOL     OW29110   2.108   2.717   1.133
 9404SOL    HW129111   2.046   2.791   1.109
 9404SOL    HW229112   2.055   2.640   1.169
 9405SOL     OW29113   0.102   5.565   5.673
 9405SOL    HW129114   0.197   5.555   5.642
 9405SOL    HW229115   0.040   5.535   5.600
 9406SOL     OW29116   0.723   2.663   0.149
 9406SOL    HW129117   0.724   2.682   0.247
 9406SOL    HW229118   0.671   2.734   0.102
 9407SOL     OW29119   1.243   5.655   5.714
 9407SOL    HW129120   1.167   5.590   5.723
 9407SOL    HW229121   1.302   5.649   5.795
 9408SOL     OW29122   0.683   3.565   4.634
 9408SOL    HW129123   0.756   3.634   4.636
 9408SOL    HW229124   0.680   3.523   4.543
 9409SOL     OW29125   6.664   4.925   3.165
 9409SOL    HW129126   6.589   4.891   3.108
 9409SOL    HW229127   6.628   4.953   3.254
 9410SOL     OW29128   3.534   0.946   0.792
 9410SOL    HW129129   3.538   0.883   0.714
 9410SOL    HW229130   3.439   0.957   0.821
 9411SOL     OW29131   2.918   3.668   3.291
 9411SOL    HW129132   2.953   3.759   3.270
 9411SOL    HW229133   2.913   3.657   3.391
 9412SOL     OW29134   5.912   6.081   0.791
 9412SOL    HW129135   6.011   6.086   0.778
 9412SOL    HW229136   5.871   6.170   0.775
 9413SOL     OW29137   5.068   3.974   2.798
 9413SOL    HW129138   5.129   3.903   2.762
 9413SOL    HW229139   4.974   3.940   2.798
 9414SOL     OW29140   1.590   1.989   3.046
 9414SOL    HW129141   1.509   2.010   3.100
 9414SOL    HW229142   1.625   1.899   3.072
 9415SOL     OW29143   4.225   1.101   2.040
 9415SOL    HW129144   4.174   1.134   2.119
 9415SOL    HW229145   4.184   1.138   1.956
 9416SOL     OW29146   5.873   5.471   5.635
 9416SOL    HW129147   5.958   5.506   5.595
 9416SOL    HW229148   5.836   5.538   5.700
 9417SOL     OW29149   3.632   5.269   2.351
 9417SOL    HW129150   3.546   5.269   2.402
 9417SOL    HW229151   3.704   5.231   2.409
 9418SOL     OW29152   3.890   1.800   4.919
 9418SOL    HW129153   3.910   1.793   4.822
 9418SOL    HW229154   3.869   1.709   4.956
 9419SOL     OW29155   1.774   3.160   6.359
 9419SOL    HW129156   1.828   3.207   6.289
 9419SOL    HW229157   1.706   3.102   6.314
 9420SOL     OW29158   6.482   4.390   5.907
 9420SOL    HW129159   6.443   4.354   5.822
 9420SOL    HW229160   6.407   4.409   5.971
 9421SOL     OW29161   4.157   6.017   6.060
 9421SOL    HW129162   4.087   6.072   6.015
 9421SOL    HW229163   4.221   6.077   6.108
 9422SOL     OW29164   2.165   5.899   5.518
 9422SOL    HW129165   2.136   5.950   5.436
 9422SOL    HW229166   2.228   5.954   5.572
 9423SOL     OW29167   5.002   4.780   2.798
 9423SOL    HW129168   5.062   4.708   2.833
 9423SOL    HW229169   4.919   4.784   2.854
 9424SOL     OW29170   5.958   6.725   4.051
 9424SOL    HW129171   5.884   6.682   4.103
 9424SOL    HW229172   6.017   6.654   4.013
 9425SOL     OW29173   6.633   4.686   1.564
 9425SOL    HW129174   6.619   4.761   1.628
 9425SOL    HW229175   6.641   4.723   1.471
 9426SOL     OW29176   0.134   2.076   6.069
 9426SOL    HW129177   0.170   2.035   6.153
 9426SOL    HW229178   0.209   2.119   6.018
 9427SOL     OW29179   4.619   4.330   2.554
 9427SOL    HW129180   4.597   4.347   2.458
 9427SOL    HW229181   4.692   4.262   2.560
 9428SOL     OW29182   0.324   6.174   5.906
 9428SOL    HW129183   0.390   6.244   5.882
 9428SOL    HW229184   0.338   6.093   5.848
 9429SOL     OW29185   2.767   2.307   4.433
 9429SOL    HW129186   2.749   2.343   4.341
 9429SOL    HW229187   2.763   2.208   4.432
 9430SOL     OW29188   1.769   1.823   5.012
 9430SOL    HW129189   1.715   1.747   5.048
 9430SOL    HW229190   1.784   1.811   4.914
 9431SOL     OW29191   1.019   4.556   5.353
 9431SOL    HW129192   0.923   4.552   5.326
 9431SOL    HW229193   1.068   4.477   5.316
 9432SOL     OW29194   0.044   1.302   3.096
 9432SOL    HW129195   0.003   1.295   3.187
 9432SOL    HW229196   7.002   1.267   3.028
 9433SOL     OW29197   4.572   5.653   1.879
 9433SOL    HW129198   4.580   5.553   1.877
 9433SOL    HW229199   4.662   5.693   1.900
 9434SOL     OW29200   4.477   5.597   4.033
 9434SOL    HW129201   4.400   5.651   4.001
 9434SOL    HW229202   4.562   5.646   4.016
 9435SOL     OW29203   0.606   3.576   1.652
 9435SOL    HW129204   0.586   3.555   1.747
 9435SOL    HW229205   0.637   3.670   1.644
 9436SOL     OW29206   2.100   0.780   2.720
 9436SOL    HW129207   2.021   0.745   2.669
 9436SOL    HW229208   2.100   0.880   2.717
 9437SOL     OW29209   5.274   6.488   4.755
 9437SOL    HW129210   5.174   6.483   4.763
 9437SOL    HW229211   5.300   6.578   4.722
 9438SOL     OW29212   4.404   6.603   2.217
 9438SOL    HW129213   4.370   6.528   2.160
 9438SOL    HW229214   4.359   6.688   2.191
 9439SOL     OW29215   1.587   3.453   0.958
 9439SOL    HW129216   1.620   3.375   1.011
 9439SOL    HW229217   1.661   3.519   0.947
 9440SOL     OW29218   2.371   5.309   3.718
 9440SOL    HW129219   2.426   5.247   3.774
 9440SOL    HW229220   2.309   5.257   3.660
 9441SOL     OW29221   0.397   6.533   4.376
 9441SOL    HW129222   0.438   6.504   4.463
 9441SOL    HW229223   0.394   6.633   4.372
 9442SOL     OW29224   5.502   3.193   0.546
 9442SOL    HW129225   5.417   3.216   0.594
 9442SOL    HW229226   5.518   3.094   0.553
 9443SOL     OW29227   2.282   4.161   2.555
 9443SOL    HW129228   2.240   4.150   2.645
 9443SOL    HW229229   2.356   4.228   2.561
 9444SOL     OW29230   1.113   4.323   6.022
 9444SOL    HW129231   1.078   4.312   5.929
 9444SOL    HW229232   1.083   4.412   6.058
 9445SOL     OW29233   0.684   1.658   4.447
 9445SOL    HW129234   0.617   1.694   4.382
 9445SOL    HW229235   0.740   1.588   4.402
 9446SOL     OW29236   6.619   3.871   3.571
 9446SOL    HW129237   6.551   3.803   3.545
 9446SOL    HW229238   6.676   3.893   3.493
 9447SOL     OW29239   4.741   4.156   1.779
 9447SOL    HW129240   4.658   4.200   1.814
 9447SOL    HW229241   4.820   4.191   1.829
 9448SOL     OW29242   6.111   1.087   5.823
 9448SOL    HW129243   6.127   1.065   5.919
 9448SOL    HW229244   6.014   1.077   5.802
 9449SOL     OW29245   5.582   0.178   1.977
 9449SOL    HW129246   5.554   0.152   2.069
 9449SOL    HW229247   5.630   0.102   1.934
 9450SOL     OW29248   1.356   6.189   2.696
 9450SOL    HW129249   1.282   6.203   2.630
 9450SOL    HW229250   1.393   6.097   2.687
 9451SOL     OW29251   3.601   4.685   6.820
 9451SOL    HW129252   3.564   4.720   6.906
 9451SOL    HW229253   3.532   4.627   6.775
 9452SOL     OW29254   5.799   4.433   6.820
 9452SOL    HW129255   5.708   4.457   6.852
 9452SOL    HW229256   5.818   4.483   6.735
 9453SOL     OW29257   5.015   5.224   1.754
 9453SOL    HW129258   5.091   5.224   1.819
 9453SOL    HW229259   5.051   5.227   1.661
 9454SOL     OW29260   6.257   4.481   0.411
 9454SOL    HW129261   6.167   4.491   0.369
 9454SOL    HW229262   6.272   4.555   0.478
 9455SOL     OW29263   3.538   1.272   1.785
 9455SOL    HW129264   3.633   1.243   1.796
 9455SOL    HW229265   3.485   1.201   1.739
 9456SOL     OW29266   6.968   3.086   2.765
 9456SOL    HW129267   6.959   3.004   2.708
 9456SOL    HW229268   6.881   3.104   2.812
 9457SOL     OW29269   6.437   6.536   5.207
 9457SOL    HW129270   6.368   6.606   5.224
 9457SOL    HW229271   6.447   6.522   5.109
 9458SOL     OW29272   6.638   4.141   6.968
 9458SOL    HW129273   6.551   4.147   7.016
 9458SOL    HW229274   6.622   4.138   6.869
 9459SOL     OW29275   4.799   4.531   5.696
 9459SOL    HW129276   4.864   4.550   5.623
 9459SOL    HW229277   4.723   4.477   5.660
 9460SOL     OW29278   1.107   2.912   2.802
 9460SOL    HW129279   1.013   2.882   2.821
 9460SOL    HW229280   1.117   2.931   2.705
 9461SOL     OW29281   1.522   1.799   2.164
 9461SOL    HW129282   1.430   1.824   2.194
 9461SOL    HW229283   1.578   1.882   2.158
 9462SOL     OW29284   0.208   1.229   4.270
 9462SOL    HW129285   0.112   1.221   4.243
 9462SOL    HW229286   0.258   1.146   4.244
 9463SOL     OW29287   5.820   4.270   1.457
 9463SOL    HW129288   5.815   4.326   1.539
 9463SOL    HW229289   5.856   4.180   1.480
 9464SOL     OW29290   1.072   1.293   1.759
 9464SOL    HW129291   1.044   1.198   1.773
 9464SOL    HW229292   1.053   1.346   1.841
 9465SOL     OW29293   6.649   4.766   1.315
 9465SOL    HW129294   6.744   4.764   1.285
 9465SOL    HW229295   6.593   4.713   1.251
 9466SOL     OW29296   4.011   4.471   5.562
 9466SOL    HW129297   3.993   4.535   5.637
 9466SOL    HW229298   3.951   4.391   5.571
 9467SOL     OW29299   2.036   3.737   0.650
 9467SOL    HW129300   1.992   3.823   0.675
 9467SOL    HW229301   2.091   3.704   0.727
 9468SOL     OW29302   6.148   1.778   0.451
 9468SOL    HW129303   6.063   1.780   0.504
 9468SOL    HW229304   6.220   1.827   0.501
 9469SOL     OW29305   0.019   6.469   0.908
 9469SOL    HW129306   0.005   6.556   0.860
 9469SOL    HW229307   0.095   6.419   0.865
 9470SOL     OW29308   3.439   3.414   0.433
 9470SOL    HW129309   3.449   3.494   0.374
 9470SOL    HW229310   3.459   3.331   0.380
 9471SOL     OW29311   6.297   2.654   4.765
 9471SOL    HW129312   6.240   2.727   4.727
 9471SOL    HW229313   6.244   2.599   4.829
 9472SOL     OW29314   1.820   3.307   6.084
 9472SOL    HW129315   1.843   3.265   5.996
 9472SOL    HW229316   1.728   3.346   6.080
 9473SOL     OW29317   2.522   3.798   1.413
 9473SOL    HW129318   2.476   3.711   1.429
 9473SOL    HW229319   2.563   3.831   1.498
 9474SOL     OW29320   6.123   3.777   0.998
 9474SOL    HW129321   6.156   3.809   1.087
 9474SOL    HW229322   6.031   3.813   0.983
 9475SOL     OW29323   5.199   4.446   6.333
 9475SOL    HW129324   5.254   4.525   6.305
 9475SOL    HW229325   5.109   4.478   6.364
 9476SOL     OW29326   4.010   3.922   0.266
 9476SOL    HW129327   4.061   3.992   0.215
 9476SOL    HW229328   3.918   3.956   0.286
 9477SOL     OW29329   1.730   4.064   0.303
 9477SOL    HW129330   1.826   4.088   0.288
 9477SOL    HW229331   1.694   4.119   0.378
 9478SOL     OW29332   5.340   3.779   6.137
 9478SOL    HW129333   5.425   3.787   6.189
 9478SOL    HW229334   5.278   3.718   6.186
 9479SOL     OW29335   3.865   0.228   2.091
 9479SOL    HW129336   3.950   0.218   2.038
 9479SOL    HW229337   3.793   0.174   2.049
 9480SOL     OW29338   6.343   1.081   0.571
 9480SOL    HW129339   6.268   1.145   0.591
 9480SOL    HW229340   6.375   1.040   0.657
 9481SOL     OW29341   4.276   6.638   3.339
 9481SOL    HW129342   4.270   6.659   3.242
 9481SOL    HW229343   4.232   6.550   3.357
 9482SOL     OW29344   6.312   6.363   6.854
 9482SOL    HW129345   6.231   6.419   6.836
 9482SOL    HW229346   6.350   6.331   6.767
 9483SOL     OW29347   6.699   0.067   0.420
 9483SOL    HW129348   6.686   7.006   0.473
 9483SOL    HW229349   6.613   0.116   0.413
 9484SOL     OW29350   3.996   6.148   4.723
 9484SOL    HW129351   3.899   6.168   4.709
 9484SOL    HW229352   4.016   6.057   4.686
 9485SOL     OW29353   0.316   1.031   6.956
 9485SOL    HW129354   0.301   1.084   0.017
 9485SOL    HW229355   0.352   1.090   6.885
 9486SOL     OW29356   5.577   5.904   6.959
 9486SOL    HW129357   5.493   5.922   7.011
 9486SOL    HW229358   5.557   5.840   6.885
 9487SOL     OW29359   3.460   3.265   3.080
 9487SOL    HW129360   3.375   3.316   3.091
 9487SOL    HW229361   3.513   3.304   3.004
 9488SOL     OW29362   1.511   0.635   1.346
 9488SOL    HW129363   1.603   0.610   1.313
 9488SOL    HW229364   1.508   0.624   1.445
 9489SOL     OW29365   5.808   2.853   0.229
 9489SOL    HW129366   5.773   2.915   0.299
 9489SOL    HW229367   5.754   2.768   0.231
 9490SOL     OW29368   5.337   3.400   4.493
 9490SOL    HW129369   5.290   3.364   4.574
 9490SOL    HW229370   5.421   3.446   4.521
 9491SOL     OW29371   5.118   6.536   2.927
 9491SOL    HW129372   5.021   6.553   2.905
 9491SOL    HW229373   5.175   6.583   2.860
 9492SOL     OW29374   5.228   2.879   3.532
 9492SOL    HW129375   5.132   2.852   3.523
 9492SOL    HW229376   5.264   2.846   3.619
 9493SOL     OW29377   4.253   6.082   1.216
 9493SOL    HW129378   4.301   6.001   1.184
 9493SOL    HW229379   4.231   6.073   1.313
 9494SOL     OW29380   5.802   2.249   1.712
 9494SOL    HW129381   5.757   2.251   1.801
 9494SOL    HW229382   5.864   2.327   1.705
 9495SOL     OW29383   0.281   2.352   1.549
 9495SOL    HW129384   0.187   2.324   1.529
 9495SOL    HW229385   0.345   2.285   1.510
 9496SOL     OW29386   5.736   2.100   1.504
 9496SOL    HW129387   5.756   2.144   1.592
 9496SOL    HW229388   5.651   2.048   1.512
 9497SOL     OW29389   4.594   4.379   4.445
 9497SOL    HW129390   4.559   4.465   4.483
 9497SOL    HW229391   4.563   4.369   4.351
 9498SOL     OW29392   0.367   5.599   4.131
 9498SOL    HW129393   0.456   5.558   4.111
 9498SOL    HW229394   0.299   5.563   4.068
 9499SOL     OW29395   6.102   5.768   5.359
 9499SOL    HW129396   6.179   5.708   5.339
 9499SOL    HW229397   6.112   5.853   5.307
 9500SOL     OW29398   3.747   1.717   0.881
 9500SOL    HW129399   3.666   1.733   0.937
 9500SOL    HW229400   3.815   1.666   0.934
 9501SOL     OW29401   1.728   3.297   5.089
 9501SOL    HW129402   1.786   3.342   5.157
 9501SOL    HW229403   1.641   3.346   5.082
 9502SOL     OW29404   5.015   4.693   4.198
 9502SOL    HW129405   4.919   4.664   4.200
 9502SOL    HW229406   5.071   4.624   4.243
 9503SOL     OW29407   6.394   1.464   0.181
 9503SOL    HW129408   6.374   1.510   0.268
 9503SOL    HW229409   6.440   1.528   0.120
 9504SOL     OW29410   6.233   5.524   2.156
 9504SOL    HW129411   6.246   5.607   2.102
 9504SOL    HW229412   6.137   5.516   2.182
 9505SOL     OW29413   3.862   4.925   5.957
 9505SOL    HW129414   3.901   4.903   6.046
 9505SOL    HW229415   3.932   4.915   5.886
 9506SOL     OW29416   2.643   0.777   1.393
 9506SOL    HW129417   2.568   0.732   1.345
 9506SOL    HW229418   2.712   0.710   1.419
 9507SOL     OW29419   5.207   0.283   2.288
 9507SOL    HW129420   5.206   0.197   2.339
 9507SOL    HW229421   5.204   0.360   2.352
 9508SOL     OW29422   4.393   1.886   2.642
 9508SOL    HW129423   4.479   1.841   2.665
 9508SOL    HW229424   4.374   1.875   2.545
 9509SOL     OW29425   5.230   0.577   3.439
 9509SOL    HW129426   5.244   0.560   3.342
 9509SOL    HW229427   5.296   0.645   3.471
 9510SOL     OW29428   1.167   2.792   3.824
 9510SOL    HW129429   1.082   2.817   3.870
 9510SOL    HW229430   1.188   2.860   3.753
 9511SOL     OW29431   0.316   1.701   0.903
 9511SOL    HW129432   0.396   1.672   0.851
 9511SOL    HW229433   0.339   1.706   1.000
 9512SOL     OW29434   6.481   2.035   1.273
 9512SOL    HW129435   6.555   2.101   1.290
 9512SOL    HW229436   6.502   1.984   1.189
 9513SOL     OW29437   4.586   4.302   5.518
 9513SOL    HW129438   4.547   4.292   5.426
 9513SOL    HW229439   4.659   4.235   5.530
 9514SOL     OW29440   3.451   2.851   6.849
 9514SOL    HW129441   3.523   2.921   6.849
 9514SOL    HW229442   3.493   2.760   6.857
 9515SOL     OW29443   0.946   5.742   3.142
 9515SOL    HW129444   0.857   5.787   3.150
 9515SOL    HW229445   0.966   5.725   3.045
 9516SOL     OW29446   0.218   4.416   0.197
 9516SOL    HW129447   0.224   4.329   0.147
 9516SOL    HW229448   0.296   4.423   0.259
 9517SOL     OW29449   0.619   5.700   1.289
 9517SOL    HW129450   0.599   5.613   1.244
 9517SOL    HW229451   0.575   5.701   1.379
 9518SOL     OW29452   1.026   1.183   0.737
 9518SOL    HW129453   1.096   1.213   0.802
 9518SOL    HW229454   0.944   1.156   0.788
 9519SOL     OW29455   1.206   3.270   5.150
 9519SOL    HW129456   1.203   3.314   5.060
 9519SOL    HW229457   1.300   3.239   5.169
 9520SOL     OW29458   4.357   6.921   1.766
 9520SOL    HW129459   4.404   6.871   1.839
 9520SOL    HW229460   4.388   7.016   1.766
 9521SOL     OW29461   4.969   5.220   3.701
 9521SOL    HW129462   4.912   5.151   3.656
 9521SOL    HW229463   5.034   5.175   3.763
 9522SOL     OW29464   3.680   6.312   0.930
 9522SOL    HW129465   3.736   6.276   1.005
 9522SOL    HW229466   3.724   6.392   0.891
 9523SOL     OW29467   3.036   5.648   5.897
 9523SOL    HW129468   3.055   5.734   5.850
 9523SOL    HW229469   3.089   5.574   5.855
 9524SOL     OW29470   4.679   2.501   0.651
 9524SOL    HW129471   4.689   2.437   0.726
 9524SOL    HW229472   4.586   2.497   0.615
 9525SOL     OW29473   3.566   7.022   5.778
 9525SOL    HW129474   3.496   0.071   5.777
 9525SOL    HW229475   3.625   0.009   5.699
 9526SOL     OW29476   5.081   5.715   2.101
 9526SOL    HW129477   5.087   5.717   2.001
 9526SOL    HW229478   5.144   5.782   2.139
 9527SOL     OW29479   6.153   2.015   1.115
 9527SOL    HW129480   6.067   2.039   1.070
 9527SOL    HW229481   6.142   2.023   1.214
 9528SOL     OW29482   6.346   0.616   1.891
 9528SOL    HW129483   6.368   0.656   1.980
 9528SOL    HW229484   6.257   0.648   1.860
 9529SOL     OW29485   0.832   3.327   4.977
 9529SOL    HW129486   0.747   3.339   4.925
 9529SOL    HW229487   0.910   3.329   4.914
 9530SOL     OW29488   1.823   2.369   4.333
 9530SOL    HW129489   1.808   2.274   4.306
 9530SOL    HW229490   1.777   2.430   4.270
 9531SOL     OW29491   2.736   6.316   3.211
 9531SOL    HW129492   2.719   6.217   3.216
 9531SOL    HW229493   2.667   6.364   3.264
 9532SOL     OW29494   2.931   0.917   1.172
 9532SOL    HW129495   2.897   0.833   1.131
 9532SOL    HW229496   2.854   0.970   1.208
 9533SOL     OW29497   1.614   0.158   4.815
 9533SOL    HW129498   1.599   0.064   4.845
 9533SOL    HW229499   1.618   0.219   4.894
 9534SOL     OW29500   4.509   1.819   4.188
 9534SOL    HW129501   4.419   1.861   4.185
 9534SOL    HW229502   4.545   1.823   4.281
 9535SOL     OW29503   2.561   2.260   5.507
 9535SOL    HW129504   2.569   2.326   5.581
 9535SOL    HW229505   2.469   2.221   5.505
 9536SOL     OW29506   3.183   0.250   6.911
 9536SOL    HW129507   3.191   0.295   6.822
 9536SOL    HW229508   3.239   0.167   6.911
 9537SOL     OW29509   2.810   6.803   0.740
 9537SOL    HW129510   2.726   6.764   0.779
 9537SOL    HW229511   2.882   6.802   0.809
 9538SOL     OW29512   5.564   3.367   4.112
 9538SOL    HW129513   5.623   3.448   4.112
 9538SOL    HW229514   5.602   3.299   4.176
 9539SOL     OW29515   0.256   4.775   1.048
 9539SOL    HW129516   0.248   4.679   1.021
 9539SOL    HW229517   0.344   4.811   1.017
 9540SOL     OW29518   5.660   3.193   5.279
 9540SOL    HW129519   5.641   3.102   5.316
 9540SOL    HW229520   5.667   3.258   5.355
 9541SOL     OW29521   0.306   1.659   3.336
 9541SOL    HW129522   0.317   1.670   3.237
 9541SOL    HW229523   0.238   1.725   3.369
 9542SOL     OW29524   4.832   3.936   4.391
 9542SOL    HW129525   4.841   3.942   4.490
 9542SOL    HW229526   4.916   3.899   4.352
 9543SOL     OW29527   5.321   2.023   1.695
 9543SOL    HW129528   5.347   1.986   1.606
 9543SOL    HW229529   5.224   2.048   1.694
 9544SOL     OW29530   3.530   1.702   1.969
 9544SOL    HW129531   3.560   1.797   1.980
 9544SOL    HW229532   3.431   1.698   1.978
 9545SOL     OW29533   0.381   6.810   4.399
 9545SOL    HW129534   0.308   6.867   4.360
 9545SOL    HW229535   0.470   6.852   4.379
 9546SOL     OW29536   2.582   4.283   1.737
 9546SOL    HW129537   2.577   4.376   1.774
 9546SOL    HW229538   2.497   4.234   1.757
 9547SOL     OW29539   6.439   5.462   3.090
 9547SOL    HW129540   6.456   5.530   3.019
 9547SOL    HW229541   6.373   5.498   3.155
 9548SOL     OW29542   4.514   6.311   2.762
 9548SOL    HW129543   4.445   6.354   2.821
 9548SOL    HW229544   4.536   6.373   2.687
 9549SOL     OW29545   2.799   5.382   0.240
 9549SOL    HW129546   2.753   5.457   0.193
 9549SOL    HW229547   2.773   5.295   0.198
 9550SOL     OW29548   1.411   1.855   0.220
 9550SOL    HW129549   1.436   1.915   0.144
 9550SOL    HW229550   1.475   1.870   0.296
 9551SOL     OW29551   1.971   6.105   5.672
 9551SOL    HW129552   2.020   6.051   5.741
 9551SOL    HW229553   1.967   6.200   5.701
 9552SOL     OW29554   0.360   5.388   3.413
 9552SOL    HW129555   0.403   5.446   3.483
 9552SOL    HW229556   0.391   5.294   3.425
 9553SOL     OW29557   5.161   4.469   5.383
 9553SOL    HW129558   5.209   4.506   5.462
 9553SOL    HW229559   5.227   4.431   5.318
 9554SOL     OW29560   2.060   1.307   1.613
 9554SOL    HW129561   2.011   1.389   1.644
 9554SOL    HW229562   2.115   1.330   1.533
 9555SOL     OW29563   6.871   2.490   6.244
 9555SOL    HW129564   6.966   2.520   6.245
 9555SOL    HW229565   6.828   2.519   6.158
 9556SOL     OW29566   7.008   2.052   1.186
 9556SOL    HW129567   7.003   2.051   1.086
 9556SOL    HW229568   0.073   2.090   1.215
 9557SOL     OW29569   5.550   2.669   1.535
 9557SOL    HW129570   5.469   2.704   1.582
 9557SOL    HW229571   5.571   2.577   1.567
 9558SOL     OW29572   5.540   4.601   1.698
 9558SOL    HW129573   5.510   4.615   1.792
 9558SOL    HW229574   5.586   4.513   1.690
 9559SOL     OW29575   6.274   2.752   2.789
 9559SOL    HW129576   6.219   2.671   2.766
 9559SOL    HW229577   6.254   2.825   2.724
 9560SOL     OW29578   3.977   1.513   4.690
 9560SOL    HW129579   4.051   1.560   4.738
 9560SOL    HW229580   3.980   1.415   4.710
 9561SOL     OW29581   3.439   6.731   0.144
 9561SOL    HW129582   3.411   6.641   0.176
 9561SOL    HW229583   3.466   6.726   0.048
 9562SOL     OW29584   5.920   5.288   3.497
 9562SOL    HW129585   5.862   5.254   3.423
 9562SOL    HW229586   5.880   5.371   3.535
 9563SOL     OW29587   0.281   5.910   6.959
 9563SOL    HW129588   0.371   5.899   7.001
 9563SOL    HW229589   0.225   5.970   7.017
 9564SOL     OW29590   1.818   0.337   6.455
 9564SOL    HW129591   1.901   0.284   6.438
 9564SOL    HW229592   1.741   0.296   6.405
 9565SOL     OW29593   3.728   5.814   3.982
 9565SOL    HW129594   3.805   5.877   3.971
 9565SOL    HW229595   3.760   5.728   4.020
 9566SOL     OW29596   3.055   4.818   5.615
 9566SOL    HW129597   2.982   4.886   5.606
 9566SOL    HW229598   3.033   4.738   5.560
 9567SOL     OW29599   6.329   5.622   5.307
 9567SOL    HW129600   6.425   5.597   5.296
 9567SOL    HW229601   6.272   5.560   5.253
 9568SOL     OW29602   5.272   4.010   6.227
 9568SOL    HW129603   5.355   4.043   6.271
 9568SOL    HW229604   5.293   3.930   6.172
 9569SOL     OW29605   5.087   6.619   1.999
 9569SOL    HW129606   5.101   6.700   2.056
 9569SOL    HW229607   5.172   6.595   1.953
 9570SOL     OW29608   0.838   0.557   6.826
 9570SOL    HW129609   0.758   0.606   6.862
 9570SOL    HW229610   0.879   0.611   6.752
 9571SOL     OW29611   2.549   2.738   7.018
 9571SOL    HW129612   2.509   2.755   6.929
 9571SOL    HW229613   2.531   2.816   0.056
 9572SOL     OW29614   0.522   4.147   0.762
 9572SOL    HW129615   0.617   4.117   0.753
 9572SOL    HW229616   0.465   4.068   0.785
 9573SOL     OW29617   6.034   1.758   2.186
 9573SOL    HW129618   5.961   1.715   2.133
 9573SOL    HW229619   6.106   1.789   2.124
 9574SOL     OW29620   2.322   2.164   3.850
 9574SOL    HW129621   2.343   2.206   3.939
 9574SOL    HW229622   2.313   2.065   3.861
 9575SOL     OW29623   4.543   0.976   2.296
 9575SOL    HW129624   4.634   0.937   2.302
 9575SOL    HW229625   4.500   0.949   2.209
 9576SOL     OW29626   3.984   2.202   5.469
 9576SOL    HW129627   4.066   2.173   5.519
 9576SOL    HW229628   3.918   2.127   5.466
 9577SOL     OW29629   0.501   6.436   3.156
 9577SOL    HW129630   0.462   6.361   3.103
 9577SOL    HW229631   0.545   6.501   3.094
 9578SOL     OW29632   6.351   3.931   2.001
 9578SOL    HW129633   6.343   4.014   2.055
 9578SOL    HW229634   6.348   3.954   1.903
 9579SOL     OW29635   1.844   6.223   2.946
 9579SOL    HW129636   1.805   6.314   2.932
 9579SOL    HW229637   1.821   6.190   3.037
 9580SOL     OW29638   4.320   3.615   5.531
 9580SOL    HW129639   4.361   3.609   5.440
 9580SOL    HW229640   4.334   3.707   5.568
 9581SOL     OW29641   1.688   5.473   5.927
 9581SOL    HW129642   1.612   5.535   5.909
 9581SOL    HW229643   1.736   5.503   6.010
 9582SOL     OW29644   4.203   4.846   3.674
 9582SOL    HW129645   4.162   4.792   3.600
 9582SOL    HW229646   4.267   4.912   3.635
 9583SOL     OW29647   2.223   4.707   1.967
 9583SOL    HW129648   2.162   4.631   1.991
 9583SOL    HW229649   2.237   4.709   1.868
 9584SOL     OW29650   6.046   5.083   6.793
 9584SOL    HW129651   5.974   5.038   6.844
 9584SOL    HW229652   6.007   5.153   6.733
 9585SOL     OW29653   0.464   0.141   3.016
 9585SOL    HW129654   0.430   0.109   2.927
 9585SOL    HW229655   0.387   0.175   3.070
 9586SOL     OW29656   5.299   2.927   2.438
 9586SOL    HW129657   5.255   2.838   2.448
 9586SOL    HW229658   5.236   2.991   2.393
 9587SOL     OW29659   4.931   6.539   2.631
 9587SOL    HW129660   4.953   6.451   2.589
 9587SOL    HW229661   5.016   6.586   2.656
 9588SOL     OW29662   0.015   0.154   3.570
 9588SOL    HW129663   0.026   0.239   3.519
 9588SOL    HW229664   6.941   0.128   3.572
 9589SOL     OW29665   2.677   1.520   5.215
 9589SOL    HW129666   2.771   1.552   5.227
 9589SOL    HW229667   2.624   1.539   5.297
 9590SOL     OW29668   0.476   4.722   4.209
 9590SOL    HW129669   0.456   4.626   4.229
 9590SOL    HW229670   0.505   4.769   4.293
 9591SOL     OW29671   1.523   4.788   3.126
 9591SOL    HW129672   1.478   4.701   3.144
 9591SOL    HW229673   1.531   4.802   3.028
 9592SOL     OW29674   4.573   6.029   1.616
 9592SOL    HW129675   4.596   6.003   1.523
 9592SOL    HW229676   4.527   6.118   1.616
 9593SOL     OW29677   1.720   2.935   3.766
 9593SOL    HW129678   1.667   2.850   3.765
 9593SOL    HW229679   1.726   2.970   3.860
 9594SOL     OW29680   5.947   6.905   1.661
 9594SOL    HW129681   5.958   6.806   1.651
 9594SOL    HW229682   5.960   6.950   1.573
 9595SOL     OW29683   1.107   4.505   4.754
 9595SOL    HW129684   1.109   4.550   4.844
 9595SOL    HW229685   1.122   4.574   4.682
 9596SOL     OW29686   5.111   5.275   2.673
 9596SOL    HW129687   5.143   5.191   2.717
 9596SOL    HW229688   5.124   5.268   2.574
 9597SOL     OW29689   1.749   4.499   0.885
 9597SOL    HW129690   1.699   4.565   0.940
 9597SOL    HW229691   1.840   4.534   0.865
 9598SOL     OW29692   1.507   6.005   5.708
 9598SOL    HW129693   1.454   6.088   5.691
 9598SOL    HW229694   1.601   6.019   5.675
 9599SOL     OW29695   4.403   1.347   4.320
 9599SOL    HW129696   4.372   1.422   4.261
 9599SOL    HW229697   4.342   1.269   4.310
 9600SOL     OW29698   1.910   5.701   0.193
 9600SOL    HW129699   1.944   5.628   0.134
 9600SOL    HW229700   1.972   5.780   0.188
 9601SOL     OW29701   0.679   6.888   6.387
 9601SOL    HW129702   0.689   6.878   6.288
 9601SOL    HW229703   0.583   6.878   6.412
 9602SOL     OW29704   0.818   5.425   0.196
 9602SOL    HW129705   0.786   5.375   0.277
 9602SOL    HW229706   0.849   5.516   0.224
 9603SOL     OW29707   1.036   4.966   3.307
 9603SOL    HW129708   1.013   5.063   3.306
 9603SOL    HW229709   0.967   4.914   3.258
 9604SOL     OW29710   6.845   0.241   0.549
 9604SOL    HW129711   6.796   0.174   0.495
 9604SOL    HW229712   6.832   0.221   0.646
 9605SOL     OW29713   2.571   5.482   0.118
 9605SOL    HW129714   2.515   5.414   0.071
 9605SOL    HW229715   2.541   5.574   0.092
 9606SOL     OW29716   6.282   0.580   5.523
 9606SOL    HW129717   6.292   0.526   5.439
 9606SOL    HW229718   6.372   0.597   5.562
 9607SOL     OW29719   6.892   2.084   2.680
 9607SOL    HW129720   6.830   2.145   2.631
 9607SOL    HW229721   6.848   1.995   2.693
 9608SOL     OW29722   6.491   0.082   2.383
 9608SOL    HW129723   6.438   7.020   2.372
 9608SOL    HW229724   6.518   0.116   2.293
 9609SOL     OW29725   1.660   2.337   3.916
 9609SOL    HW129726   1.679   2.313   4.011
 9609SOL    HW229727   1.738   2.311   3.859
 9610SOL     OW29728   3.881   1.355   6.095
 9610SOL    HW129729   3.845   1.266   6.070
 9610SOL    HW229730   3.962   1.375   6.039
 9611SOL     OW29731   6.292   5.312   1.000
 9611SOL    HW129732   6.328   5.387   1.057
 9611SOL    HW229733   6.222   5.348   0.939
 9612SOL     OW29734   4.892   3.394   2.831
 9612SOL    HW129735   4.847   3.329   2.769
 9612SOL    HW229736   4.921   3.347   2.913
 9613SOL     OW29737   6.153   6.635   5.276
 9613SOL    HW129738   6.169   6.683   5.363
 9613SOL    HW229739   6.161   6.700   5.201
 9614SOL     OW29740   3.259   2.911   2.042
 9614SOL    HW129741   3.298   2.967   1.969
 9614SOL    HW229742   3.178   2.957   2.080
 9615SOL     OW29743   0.544   6.074   3.823
 9615SOL    HW129744   0.600   6.111   3.897
 9615SOL    HW229745   0.603   6.025   3.758
 9616SOL     OW29746   1.814   3.158   1.687
 9616SOL    HW129747   1.735   3.099   1.705
 9616SOL    HW229748   1.850   3.192   1.774
 9617SOL     OW29749   0.100   2.819   2.574
 9617SOL    HW129750   0.100   2.838   2.476
 9617SOL    HW229751   0.152   2.735   2.592
 9618SOL     OW29752   4.562   4.151   0.337
 9618SOL    HW129753   4.537   4.241   0.372
 9618SOL    HW229754   4.484   4.089   0.347
 9619SOL     OW29755   1.347   6.864   1.195
 9619SOL    HW129756   1.306   6.883   1.285
 9619SOL    HW229757   1.275   6.842   1.130
 9620SOL     OW29758   3.716   2.107   6.995
 9620SOL    HW129759   3.680   2.152   0.054
 9620SOL    HW229760   3.645   2.102   6.925
 9621SOL     OW29761   0.773   1.503   1.947
 9621SOL    HW129762   0.748   1.573   2.014
 9621SOL    HW229763   0.858   1.459   1.975
 9622SOL     OW29764   0.354   5.951   6.146
 9622SOL    HW129765   0.302   6.036   6.140
 9622SOL    HW229766   0.424   5.960   6.217
 9623SOL     OW29767   3.910   6.297   5.625
 9623SOL    HW129768   3.871   6.367   5.684
 9623SOL    HW229769   3.951   6.340   5.544
 9624SOL     OW29770   4.413   5.377   4.669
 9624SOL    HW129771   4.490   5.323   4.701
 9624SOL    HW229772   4.405   5.369   4.570
 9625SOL     OW29773   5.085   4.093   6.393
 9625SOL    HW129774   5.125   4.120   6.480
 9625SOL    HW229775   5.157   4.088   6.323
 9626SOL     OW29776   2.561   2.385   0.041
 9626SOL    HW129777   2.534   2.427   6.977
 9626SOL    HW229778   2.565   2.455   0.112
 9627SOL     OW29779   0.318   5.142   0.277
 9627SOL    HW129780   0.342   5.237   0.256
 9627SOL    HW229781   0.395   5.098   0.324
 9628SOL     OW29782   6.475   2.027   6.336
 9628SOL    HW129783   6.477   1.930   6.362
 9628SOL    HW229784   6.423   2.078   6.405
 9629SOL     OW29785   0.300   5.964   3.847
 9629SOL    HW129786   0.260   5.962   3.938
 9629SOL    HW229787   0.399   5.972   3.854
 9630SOL     OW29788   5.885   1.189   5.676
 9630SOL    HW129789   5.887   1.107   5.618
 9630SOL    HW229790   5.804   1.243   5.654
 9631SOL     OW29791   4.151   6.299   0.516
 9631SOL    HW129792   4.093   6.219   0.531
 9631SOL    HW229793   4.161   6.315   0.417
 9632SOL     OW29794   2.664   5.033   2.747
 9632SOL    HW129795   2.734   4.969   2.715
 9632SOL    HW229796   2.645   5.016   2.843
 9633SOL     OW29797   3.374   3.453   3.463
 9633SOL    HW129798   3.467   3.442   3.429
 9633SOL    HW229799   3.333   3.534   3.421
 9634SOL     OW29800   5.248   4.783   3.309
 9634SOL    HW129801   5.295   4.824   3.387
 9634SOL    HW229802   5.174   4.725   3.342
 9635SOL     OW29803   0.805   5.459   3.742
 9635SOL    HW129804   0.755   5.545   3.752
 9635SOL    HW229805   0.900   5.473   3.768
 9636SOL     OW29806   5.326   4.225   3.843
 9636SOL    HW129807   5.309   4.294   3.913
 9636SOL    HW229808   5.290   4.136   3.874
 9637SOL     OW29809   1.434   3.648   0.115
 9637SOL    HW129810   1.466   3.697   0.196
 9637SOL    HW229811   1.397   3.713   0.049
 9638SOL     OW29812   6.404   5.722   6.187
 9638SOL    HW129813   6.371   5.628   6.177
 9638SOL    HW229814   6.378   5.758   6.276
 9639SOL     OW29815   4.538   1.828   1.499
 9639SOL    HW129816   4.477   1.843   1.422
 9639SOL    HW229817   4.490   1.848   1.585
 9640SOL     OW29818   4.302   0.402   3.574
 9640SOL    HW129819   4.301   0.358   3.485
 9640SOL    HW229820   4.208   0.411   3.608
 9641SOL     OW29821   6.669   3.098   3.556
 9641SOL    HW129822   6.696   3.010   3.517
 9641SOL    HW229823   6.656   3.088   3.655
 9642SOL     OW29824   0.758   1.089   4.719
 9642SOL    HW129825   0.781   1.071   4.623
 9642SOL    HW229826   0.766   1.004   4.771
 9643SOL     OW29827   4.810   5.301   4.123
 9643SOL    HW129828   4.857   5.387   4.143
 9643SOL    HW229829   4.775   5.262   4.208
 9644SOL     OW29830   0.577   5.485   4.022
 9644SOL    HW129831   0.562   5.391   3.993
 9644SOL    HW229832   0.673   5.498   4.045
 9645SOL     OW29833   0.982   5.160   6.386
 9645SOL    HW129834   1.034   5.221   6.325
 9645SOL    HW229835   1.045   5.095   6.428
 9646SOL     OW29836   4.240   5.508   6.688
 9646SOL    HW129837   4.171   5.458   6.740
 9646SOL    HW229838   4.320   5.524   6.746
 9647SOL     OW29839   6.016   6.708   2.832
 9647SOL    HW129840   5.953   6.635   2.858
 9647SOL    HW229841   6.086   6.671   2.771
 9648SOL     OW29842   3.813   2.100   1.093
 9648SOL    HW129843   3.913   2.100   1.083
 9648SOL    HW229844   3.780   2.195   1.090
 9649SOL     OW29845   0.472   5.508   0.676
 9649SOL    HW129846   0.556   5.517   0.622
 9649SOL    HW229847   0.470   5.577   0.747
 9650SOL     OW29848   0.337   4.896   4.054
 9650SOL    HW129849   0.313   4.852   3.968
 9650SOL    HW229850   0.397   4.836   4.107
 9651SOL     OW29851   4.149   1.802   0.040
 9651SOL    HW129852   4.054   1.833   0.042
 9651SOL    HW229853   4.210   1.881   0.050
 9652SOL     OW29854   0.760   4.104   0.230
 9652SOL    HW129855   0.845   4.061   0.258
 9652SOL    HW229856   0.779   4.192   0.186
 9653SOL     OW29857   4.819   4.301   5.875
 9653SOL    HW129858   4.862   4.243   5.805
 9653SOL    HW229859   4.828   4.396   5.848
 9654SOL     OW29860   3.480   3.574   3.145
 9654SOL    HW129861   3.445   3.628   3.221
 9654SOL    HW229862   3.409   3.513   3.112
 9655SOL     OW29863   4.212   1.846   0.905
 9655SOL    HW129864   4.294   1.896   0.933
 9655SOL    HW229865   4.183   1.877   0.814
 9656SOL     OW29866   5.710   4.205   6.326
 9656SOL    HW129867   5.759   4.188   6.412
 9656SOL    HW229868   5.613   4.219   6.345
 9657SOL     OW29869   5.694   4.064   4.255
 9657SOL    HW129870   5.643   4.066   4.169
 9657SOL    HW229871   5.790   4.043   4.237
 9658SOL     OW29872   4.675   1.575   1.832
 9658SOL    HW129873   4.683   1.664   1.878
 9658SOL    HW229874   4.750   1.516   1.861
 9659SOL     OW29875   2.437   2.736   6.757
 9659SOL    HW129876   2.400   2.669   6.692
 9659SOL    HW229877   2.460   2.820   6.708
 9660SOL     OW29878   1.829   6.334   1.554
 9660SOL    HW129879   1.826   6.243   1.597
 9660SOL    HW229880   1.825   6.323   1.455
 9661SOL     OW29881   4.059   4.095   1.472
 9661SOL    HW129882   4.121   4.162   1.431
 9661SOL    HW229883   4.030   4.127   1.562
 9662SOL     OW29884   5.700   6.511   6.229
 9662SOL    HW129885   5.618   6.454   6.231
 9662SOL    HW229886   5.766   6.477   6.295
 9663SOL     OW29887   1.029   5.321   2.172
 9663SOL    HW129888   0.991   5.357   2.087
 9663SOL    HW229889   1.002   5.226   2.184
 9664SOL     OW29890   3.888   4.956   1.918
 9664SOL    HW129891   3.808   5.008   1.888
 9664SOL    HW229892   3.919   4.989   2.007
 9665SOL     OW29893   0.078   5.378   6.039
 9665SOL    HW129894   0.002   5.398   6.101
 9665SOL    HW229895   0.142   5.456   6.039
 9666SOL     OW29896   5.583   4.173   7.012
 9666SOL    HW129897   5.486   4.166   0.016
 9666SOL    HW229898   5.594   4.141   6.918
 9667SOL     OW29899   5.769   6.115   6.784
 9667SOL    HW129900   5.835   6.040   6.779
 9667SOL    HW229901   5.677   6.080   6.769
 9668SOL     OW29902   1.222   1.064   5.844
 9668SOL    HW129903   1.205   1.002   5.920
 9668SOL    HW229904   1.135   1.088   5.801
 9669SOL     OW29905   3.106   0.446   0.611
 9669SOL    HW129906   3.022   0.419   0.565
 9669SOL    HW229907   3.161   0.502   0.550
 9670SOL     OW29908   0.417   0.314   0.187
 9670SOL    HW129909   0.459   0.263   0.113
 9670SOL    HW229910   0.455   0.284   0.275
 9671SOL     OW29911   0.736   5.221   6.532
 9671SOL    HW129912   0.759   5.155   6.603
 9671SOL    HW229913   0.809   5.224   6.464
 9672SOL     OW29914   1.017   3.821   4.446
 9672SOL    HW129915   1.099   3.832   4.389
 9672SOL    HW229916   0.943   3.876   4.409
 9673SOL     OW29917   1.852   3.430   0.208
 9673SOL    HW129918   1.797   3.470   0.281
 9673SOL    HW229919   1.796   3.420   0.126
 9674SOL     OW29920   2.117   6.296   4.222
 9674SOL    HW129921   2.136   6.370   4.159
 9674SOL    HW229922   2.022   6.266   4.212
 9675SOL     OW29923   6.197   3.659   5.876
 9675SOL    HW129924   6.288   3.622   5.854
 9675SOL    HW229925   6.203   3.759   5.880
 9676SOL     OW29926   0.928   2.927   6.464
 9676SOL    HW129927   0.969   2.943   6.374
 9676SOL    HW229928   0.939   3.010   6.520
 9677SOL     OW29929   6.779   5.477   2.161
 9677SOL    HW129930   6.819   5.448   2.248
 9677SOL    HW229931   6.721   5.557   2.176
 9678SOL     OW29932   3.142   3.595   5.235
 9678SOL    HW129933   3.059   3.646   5.213
 9678SOL    HW229934   3.151   3.589   5.335
 9679SOL     OW29935   1.805   1.211   4.528
 9679SOL    HW129936   1.752   1.293   4.549
 9679SOL    HW229937   1.818   1.204   4.429
 9680SOL     OW29938   4.564   6.611   1.840
 9680SOL    HW129939   4.538   6.683   1.903
 9680SOL    HW229940   4.663   6.595   1.847
 9681SOL     OW29941   0.959   2.226   2.068
 9681SOL    HW129942   0.993   2.166   2.141
 9681SOL    HW229943   0.975   2.321   2.093
 9682SOL     OW29944   5.244   6.449   6.179
 9682SOL    HW129945   5.231   6.366   6.234
 9682SOL    HW229946   5.300   6.427   6.099
 9683SOL     OW29947   3.321   6.326   3.050
 9683SOL    HW129948   3.381   6.334   2.971
 9683SOL    HW229949   3.322   6.232   3.083
 9684SOL     OW29950   6.965   3.687   5.281
 9684SOL    HW129951   6.979   3.682   5.182
 9684SOL    HW229952   6.869   3.673   5.303
 9685SOL     OW29953   3.216   4.271   1.294
 9685SOL    HW129954   3.192   4.261   1.391
 9685SOL    HW229955   3.293   4.211   1.272
 9686SOL     OW29956   6.028   1.097   5.408
 9686SOL    HW129957   6.054   1.114   5.313
 9686SOL    HW229958   6.047   1.001   5.432
 9687SOL     OW29959   5.320   0.928   3.095
 9687SOL    HW129960   5.413   0.891   3.101
 9687SOL    HW229961   5.307   0.996   3.166
 9688SOL     OW29962   0.975   5.315   1.555
 9688SOL    HW129963   0.978   5.319   1.654
 9688SOL    HW229964   1.056   5.268   1.521
 9689SOL     OW29965   2.374   6.154   0.992
 9689SOL    HW129966   2.333   6.101   0.918
 9689SOL    HW229967   2.473   6.154   0.981
 9690SOL     OW29968   6.776   4.314   4.890
 9690SOL    HW129969   6.845   4.243   4.875
 9690SOL    HW229970   6.810   4.381   4.955
 9691SOL     OW29971   2.851   3.593   1.885
 9691SOL    HW129972   2.843   3.627   1.978
 9691SOL    HW229973   2.944   3.561   1.869
 9692SOL     OW29974   5.123   4.415   0.807
 9692SOL    HW129975   5.215   4.434   0.844
 9692SOL    HW229976   5.129   4.342   0.739
 9693SOL     OW29977   4.472   2.930   5.299
 9693SOL    HW129978   4.550   2.935   5.237
 9693SOL    HW229979   4.485   2.853   5.362
 9694SOL     OW29980   2.923   0.114   1.875
 9694SOL    HW129981   2.973   0.028   1.879
 9694SOL    HW229982   2.923   0.156   1.966
 9695SOL     OW29983   1.041   2.561   3.711
 9695SOL    HW129984   1.056   2.659   3.721
 9695SOL    HW229985   1.117   2.520   3.661
 9696SOL     OW29986   5.362   2.499   3.908
 9696SOL    HW129987   5.337   2.499   3.812
 9696SOL    HW229988   5.318   2.577   3.954
 9697SOL     OW29989   0.353   6.960   0.514
 9697SOL    HW129990   0.364   7.008   0.427
 9697SOL    HW229991   0.360   6.862   0.499
 9698SOL     OW29992   6.845   3.318   2.027
 9698SOL    HW129993   6.931   3.268   2.025
 9698SOL    HW229994   6.827   3.350   2.120
 9699SOL     OW29995   1.930   5.736   1.509
 9699SOL    HW129996   2.028   5.729   1.529
 9699SOL    HW229997   1.917   5.792   1.427
 9700SOL     OW29998   5.402   6.765   5.615
 9700SOL    HW129999   5.359   6.793   5.529
 9700SOL    HW230000   5.489   6.813   5.626
 9701SOL     OW30001   4.689   4.534   6.818
 9701SOL    HW130002   4.601   4.572   6.849
 9701SOL    HW230003   4.728   4.593   6.747
 9702SOL     OW30004   3.775   4.002   2.241
 9702SOL    HW130005   3.874   4.013   2.252
 9702SOL    HW230006   3.736   3.965   2.326
 9703SOL     OW30007   5.613   4.402   3.995
 9703SOL    HW130008   5.711   4.411   3.978
 9703SOL    HW230009   5.595   4.315   4.041
 9704SOL     OW30010   1.445   4.538   3.174
 9704SOL    HW130011   1.350   4.568   3.187
 9704SOL    HW230012   1.471   4.479   3.251
 9705SOL     OW30013   0.447   2.614   5.321
 9705SOL    HW130014   0.444   2.517   5.345
 9705SOL    HW230015   0.540   2.648   5.329
 9706SOL     OW30016   0.626   1.540   2.814
 9706SOL    HW130017   0.692   1.466   2.797
 9706SOL    HW230018   0.666   1.606   2.878
 9707SOL     OW30019   0.609   4.825   2.234
 9707SOL    HW130020   0.611   4.759   2.308
 9707SOL    HW230021   0.640   4.782   2.149
 9708SOL     OW30022   2.906   0.270   2.107
 9708SOL    HW130023   2.987   0.316   2.143
 9708SOL    HW230024   2.824   0.321   2.133
 9709SOL     OW30025   5.743   2.250   1.271
 9709SOL    HW130026   5.741   2.199   1.357
 9709SOL    HW230027   5.650   2.277   1.246
 9710SOL     OW30028   6.255   5.499   4.167
 9710SOL    HW130029   6.279   5.586   4.210
 9710SOL    HW230030   6.175   5.460   4.214
 9711SOL     OW30031   3.478   0.820   0.149
 9711SOL    HW130032   3.479   0.720   0.148
 9711SOL    HW230033   3.388   0.853   0.120
 9712SOL     OW30034   5.613   1.284   6.698
 9712SOL    HW130035   5.522   1.261   6.732
 9712SOL    HW230036   5.652   1.357   6.754
 9713SOL     OW30037   2.280   6.796   2.224
 9713SOL    HW130038   2.327   6.860   2.285
 9713SOL    HW230039   2.200   6.757   2.271
 9714SOL     OW30040   2.237   4.394   4.693
 9714SOL    HW130041   2.265   4.324   4.759
 9714SOL    HW230042   2.155   4.365   4.645
 9715SOL     OW30043   6.563   4.072   6.701
 9715SOL    HW130044   6.575   3.983   6.746
 9715SOL    HW230045   6.466   4.087   6.682
 9716SOL     OW30046   2.275   5.293   0.461
 9716SOL    HW130047   2.296   5.216   0.521
 9716SOL    HW230048   2.232   5.366   0.514
 9717SOL     OW30049   3.843   1.917   5.228
 9717SOL    HW130050   3.858   1.932   5.131
 9717SOL    HW230051   3.840   1.818   5.246
 9718SOL     OW30052   4.449   2.105   5.706
 9718SOL    HW130053   4.518   2.109   5.633
 9718SOL    HW230054   4.364   2.145   5.673
 9719SOL     OW30055   5.179   6.723   6.198
 9719SOL    HW130056   5.230   6.641   6.222
 9719SOL    HW230057   5.090   6.721   6.244
 9720SOL     OW30058   1.940   3.219   3.144
 9720SOL    HW130059   2.001   3.286   3.101
 9720SOL    HW230060   1.981   3.187   3.229
 9721SOL     OW30061   1.059   1.718   0.937
 9721SOL    HW130062   1.103   1.716   1.027
 9721SOL    HW230063   1.005   1.802   0.928
 9722SOL     OW30064   3.880   2.223   5.147
 9722SOL    HW130065   3.800   2.211   5.206
 9722SOL    HW230066   3.864   2.176   5.060
 9723SOL     OW30067   6.556   0.412   5.113
 9723SOL    HW130068   6.537   0.493   5.169
 9723SOL    HW230069   6.575   0.334   5.173
 9724SOL     OW30070   1.691   4.828   0.323
 9724SOL    HW130071   1.776   4.833   0.271
 9724SOL    HW230072   1.688   4.742   0.374
 9725SOL     OW30073   4.224   4.765   4.530
 9725SOL    HW130074   4.162   4.776   4.607
 9725SOL    HW230075   4.218   4.844   4.470
 9726SOL     OW30076   0.186   0.629   3.525
 9726SOL    HW130077   0.284   0.612   3.537
 9726SOL    HW230078   0.173   0.697   3.452
 9727SOL     OW30079   6.464   2.082   1.679
 9727SOL    HW130080   6.371   2.049   1.662
 9727SOL    HW230081   6.461   2.160   1.742
 9728SOL     OW30082   4.829   1.950   4.456
 9728SOL    HW130083   4.908   1.904   4.417
 9728SOL    HW230084   4.857   2.039   4.492
 9729SOL     OW30085   0.242   4.800   3.158
 9729SOL    HW130086   0.262   4.777   3.062
 9729SOL    HW230087   0.231   4.899   3.167
 9730SOL     OW30088   1.137   4.507   3.114
 9730SOL    HW130089   1.088   4.573   3.171
 9730SOL    HW230090   1.178   4.554   3.036
 9731SOL     OW30091   5.601   3.149   2.000
 9731SOL    HW130092   5.662   3.228   2.005
 9731SOL    HW230093   5.653   3.065   2.019
 9732SOL     OW30094   1.438   3.918   2.784
 9732SOL    HW130095   1.467   3.864   2.705
 9732SOL    HW230096   1.338   3.918   2.790
 9733SOL     OW30097   5.920   4.478   2.140
 9733SOL    HW130098   5.938   4.496   2.236
 9733SOL    HW230099   5.847   4.539   2.108
 9734SOL     OW30100   5.561   5.241   6.336
 9734SOL    HW130101   5.505   5.237   6.254
 9734SOL    HW230102   5.507   5.210   6.415
 9735SOL     OW30103   0.570   2.431   1.119
 9735SOL    HW130104   0.511   2.449   1.198
 9735SOL    HW230105   0.652   2.382   1.150
 9736SOL     OW30106   4.921   2.210   4.543
 9736SOL    HW130107   4.834   2.246   4.576
 9736SOL    HW230108   4.977   2.180   4.620
 9737SOL     OW30109   6.331   3.472   3.333
 9737SOL    HW130110   6.415   3.525   3.326
 9737SOL    HW230111   6.326   3.429   3.423
 9738SOL     OW30112   2.276   6.754   1.944
 9738SOL    HW130113   2.200   6.692   1.924
 9738SOL    HW230114   2.292   6.757   2.042
 9739SOL     OW30115   5.864   6.937   0.162
 9739SOL    HW130116   5.809   7.020   0.164
 9739SOL    HW230117   5.947   6.953   0.108
 9740SOL     OW30118   6.558   1.531   2.591
 9740SOL    HW130119   6.525   1.472   2.664
 9740SOL    HW230120   6.505   1.513   2.508
 9741SOL     OW30121   2.428   1.875   4.339
 9741SOL    HW130122   2.428   1.912   4.432
 9741SOL    HW230123   2.481   1.937   4.280
 9742SOL     OW30124   3.767   2.194   6.475
 9742SOL    HW130125   3.771   2.240   6.564
 9742SOL    HW230126   3.673   2.192   6.442
 9743SOL     OW30127   5.316   3.906   4.010
 9743SOL    HW130128   5.308   3.886   4.108
 9743SOL    HW230129   5.237   3.869   3.962
 9744SOL     OW30130   1.786   1.830   2.590
 9744SOL    HW130131   1.705   1.889   2.586
 9744SOL    HW230132   1.806   1.808   2.686
 9745SOL     OW30133   0.192   0.594   6.246
 9745SOL    HW130134   0.123   0.596   6.319
 9745SOL    HW230135   0.279   0.563   6.284
 9746SOL     OW30136   4.226   5.183   5.957
 9746SOL    HW130137   4.156   5.245   5.923
 9746SOL    HW230138   4.223   5.097   5.905
 9747SOL     OW30139   2.517   1.266   2.780
 9747SOL    HW130140   2.529   1.364   2.768
 9747SOL    HW230141   2.597   1.217   2.746
 9748SOL     OW30142   1.147   1.247   3.455
 9748SOL    HW130143   1.206   1.325   3.478
 9748SOL    HW230144   1.157   1.226   3.357
 9749SOL     OW30145   6.923   0.487   1.815
 9749SOL    HW130146   6.948   0.583   1.802
 9749SOL    HW230147   7.004   0.434   1.840
 9750SOL     OW30148   5.777   3.139   4.350
 9750SOL    HW130149   5.818   3.230   4.362
 9750SOL    HW230150   5.849   3.070   4.345
 9751SOL     OW30151   3.825   6.805   1.552
 9751SOL    HW130152   3.739   6.761   1.526
 9751SOL    HW230153   3.873   6.836   1.470
 9752SOL     OW30154   3.098   2.840   0.371
 9752SOL    HW130155   3.035   2.888   0.310
 9752SOL    HW230156   3.128   2.755   0.329
 9753SOL     OW30157   6.665   6.275   5.488
 9753SOL    HW130158   6.747   6.220   5.506
 9753SOL    HW230159   6.632   6.315   5.573
 9754SOL     OW30160   3.107   1.055   2.006
 9754SOL    HW130161   3.090   1.148   1.972
 9754SOL    HW230162   3.043   1.035   2.080
 9755SOL     OW30163   2.546   3.503   0.301
 9755SOL    HW130164   2.624   3.540   0.352
 9755SOL    HW230165   2.471   3.568   0.303
 9756SOL     OW30166   5.846   0.344   5.642
 9756SOL    HW130167   5.916   0.324   5.574
 9756SOL    HW230168   5.796   0.427   5.616
 9757SOL     OW30169   5.544   4.068   4.035
 9757SOL    HW130170   5.489   4.145   4.068
 9757SOL    HW230171   5.484   4.003   3.987
 9758SOL     OW30172   2.000   0.815   2.241
 9758SOL    HW130173   1.912   0.858   2.219
 9758SOL    HW230174   2.029   0.758   2.164
 9759SOL     OW30175   0.004   1.584   1.647
 9759SOL    HW130176   0.032   1.671   1.607
 9759SOL    HW230177   0.075   1.553   1.711
 9760SOL     OW30178   5.041   0.637   6.954
 9760SOL    HW130179   5.093   0.643   0.017
 9760SOL    HW230180   5.068   0.555   6.904
 9761SOL     OW30181   1.511   2.423   1.330
 9761SOL    HW130182   1.428   2.368   1.328
 9761SOL    HW230183   1.586   2.369   1.369
 9762SOL     OW30184   2.585   1.255   5.138
 9762SOL    HW130185   2.560   1.171   5.185
 9762SOL    HW230186   2.593   1.329   5.205
 9763SOL     OW30187   6.449   1.841   1.469
 9763SOL    HW130188   6.372   1.850   1.533
 9763SOL    HW230189   6.449   1.919   1.406
 9764SOL     OW30190   0.130   2.016   2.942
 9764SOL    HW130191   0.042   1.978   2.971
 9764SOL    HW230192   0.117   2.110   2.911
 9765SOL     OW30193   6.706   0.330   1.888
 9765SOL    HW130194   6.620   0.339   1.837
 9765SOL    HW230195   6.767   0.405   1.863
 9766SOL     OW30196   1.853   2.221   3.755
 9766SOL    HW130197   1.851   2.137   3.700
 9766SOL    HW230198   1.947   2.256   3.757
 9767SOL     OW30199   2.260   1.495   5.291
 9767SOL    HW130200   2.255   1.478   5.193
 9767SOL    HW230201   2.301   1.416   5.336
 9768SOL     OW30202   5.808   3.312   0.779
 9768SOL    HW130203   5.844   3.225   0.812
 9768SOL    HW230204   5.708   3.307   0.773
 9769SOL     OW30205   3.531   1.764   5.726
 9769SOL    HW130206   3.475   1.730   5.650
 9769SOL    HW230207   3.581   1.846   5.697
 9770SOL     OW30208   2.317   2.841   5.979
 9770SOL    HW130209   2.318   2.842   6.079
 9770SOL    HW230210   2.333   2.747   5.946
 9771SOL     OW30211   3.366   0.019   1.952
 9771SOL    HW130212   3.333   0.003   2.045
 9771SOL    HW230213   3.466   0.019   1.951
 9772SOL     OW30214   1.144   0.697   1.177
 9772SOL    HW130215   1.089   0.718   1.096
 9772SOL    HW230216   1.210   0.770   1.192
 9773SOL     OW30217   5.742   5.173   2.278
 9773SOL    HW130218   5.728   5.272   2.272
 9773SOL    HW230219   5.769   5.137   2.189
 9774SOL     OW30220   1.303   4.394   5.407
 9774SOL    HW130221   1.313   4.296   5.391
 9774SOL    HW230222   1.362   4.444   5.344
 9775SOL     OW30223   2.468   1.584   3.199
 9775SOL    HW130224   2.541   1.633   3.151
 9775SOL    HW230225   2.494   1.489   3.212
 9776SOL     OW30226   2.452   4.850   0.584
 9776SOL    HW130227   2.451   4.752   0.562
 9776SOL    HW230228   2.543   4.875   0.616
 9777SOL     OW30229   4.188   0.742   5.400
 9777SOL    HW130230   4.100   0.696   5.389
 9777SOL    HW230231   4.229   0.715   5.487
 9778SOL     OW30232   0.394   4.348   3.468
 9778SOL    HW130233   0.377   4.320   3.374
 9778SOL    HW230234   0.492   4.354   3.484
 9779SOL     OW30235   2.518   0.822   3.311
 9779SOL    HW130236   2.577   0.902   3.318
 9779SOL    HW230237   2.442   0.829   3.375
 9780SOL     OW30238   0.954   2.497   2.103
 9780SOL    HW130239   1.001   2.493   2.191
 9780SOL    HW230240   1.002   2.559   2.042
 9781SOL     OW30241   1.552   2.076   2.797
 9781SOL    HW130242   1.571   2.030   2.884
 9781SOL    HW230243   1.537   2.008   2.726
 9782SOL     OW30244   0.092   2.074   0.932
 9782SOL    HW130245   0.037   2.141   0.882
 9782SOL    HW230246   0.188   2.103   0.931
 9783SOL     OW30247   4.196   1.144   3.048
 9783SOL    HW130248   4.185   1.096   2.961
 9783SOL    HW230249   4.264   1.216   3.038
 9784SOL     OW30250   1.667   1.295   6.400
 9784SOL    HW130251   1.626   1.205   6.416
 9784SOL    HW230252   1.645   1.326   6.308
 9785SOL     OW30253   0.256   3.942   4.421
 9785SOL    HW130254   0.277   3.955   4.324
 9785SOL    HW230255   0.309   3.866   4.458
 9786SOL     OW30256   2.361   4.128   6.795
 9786SOL    HW130257   2.302   4.202   6.828
 9786SOL    HW230258   2.335   4.103   6.702
 9787SOL     OW30259   3.188   3.915   3.031
 9787SOL    HW130260   3.275   3.940   3.072
 9787SOL    HW230261   3.199   3.832   2.976
 9788SOL     OW30262   4.057   6.949   2.081
 9788SOL    HW130263   3.968   6.913   2.111
 9788SOL    HW230264   4.043   0.013   2.033
 9789SOL     OW30265   3.867   1.886   0.015
 9789SOL    HW130266   3.806   1.965   0.003
 9789SOL    HW230267   3.828   1.824   0.082
 9790SOL     OW30268   5.791   5.470   4.603
 9790SOL    HW130269   5.756   5.403   4.538
 9790SOL    HW230270   5.815   5.554   4.555
 9791SOL     OW30271   0.945   0.166   1.361
 9791SOL    HW130272   0.853   0.171   1.321
 9791SOL    HW230273   1.013   0.181   1.290
 9792SOL     OW30274   4.096   5.009   0.768
 9792SOL    HW130275   4.192   4.980   0.778
 9792SOL    HW230276   4.083   5.046   0.676
 9793SOL     OW30277   6.057   0.982   3.619
 9793SOL    HW130278   6.116   0.934   3.684
 9793SOL    HW230279   6.085   1.078   3.613
 9794SOL     OW30280   4.425   4.584   4.554
 9794SOL    HW130281   4.340   4.635   4.541
 9794SOL    HW230282   4.426   4.544   4.646
 9795SOL     OW30283   1.466   3.361   3.426
 9795SOL    HW130284   1.557   3.337   3.393
 9795SOL    HW230285   1.400   3.292   3.397
 9796SOL     OW30286   3.736   4.150   4.114
 9796SOL    HW130287   3.756   4.133   4.210
 9796SOL    HW230288   3.817   4.130   4.059
 9797SOL     OW30289   2.590   5.186   0.329
 9797SOL    HW130290   2.551   5.179   0.421
 9797SOL    HW230291   2.662   5.256   0.328
 9798SOL     OW30292   6.842   3.920   6.705
 9798SOL    HW130293   6.854   3.974   6.788
 9798SOL    HW230294   6.836   3.823   6.729
 9799SOL     OW30295   2.572   0.287   6.445
 9799SOL    HW130296   2.614   0.271   6.356
 9799SOL    HW230297   2.643   0.293   6.515
 9800SOL     OW30298   6.622   3.270   4.474
 9800SOL    HW130299   6.583   3.243   4.561
 9800SOL    HW230300   6.641   3.369   4.475
 9801SOL     OW30301   6.274   6.305   0.257
 9801SOL    HW130302   6.187   6.280   0.298
 9801SOL    HW230303   6.262   6.382   0.194
 9802SOL     OW30304   3.811   4.161   0.095
 9802SOL    HW130305   3.762   4.114   0.023
 9802SOL    HW230306   3.902   4.120   0.106
 9803SOL     OW30307   0.954   3.668   6.603
 9803SOL    HW130308   0.861   3.642   6.629
 9803SOL    HW230309   0.950   3.725   6.521
 9804SOL     OW30310   0.691   5.665   2.913
 9804SOL    HW130311   0.639   5.581   2.900
 9804SOL    HW230312   0.650   5.720   2.985
 9805SOL     OW30313   0.760   6.087   4.033
 9805SOL    HW130314   0.772   6.159   4.101
 9805SOL    HW230315   0.810   6.005   4.062
 9806SOL     OW30316   3.899   1.496   0.197
 9806SOL    HW130317   3.840   1.537   0.127
 9806SOL    HW230318   3.979   1.554   0.211
 9807SOL     OW30319   3.695   3.069   2.571
 9807SOL    HW130320   3.649   2.980   2.579
 9807SOL    HW230321   3.745   3.073   2.485
 9808SOL     OW30322   4.238   5.500   2.579
 9808SOL    HW130323   4.228   5.594   2.548
 9808SOL    HW230324   4.265   5.499   2.675
 9809SOL     OW30325   6.839   3.657   0.717
 9809SOL    HW130326   6.838   3.668   0.618
 9809SOL    HW230327   6.833   3.560   0.740
 9810SOL     OW30328   3.133   1.986   6.950
 9810SOL    HW130329   3.221   2.031   6.969
 9810SOL    HW230330   3.145   1.887   6.954
 9811SOL     OW30331   5.688   3.650   4.334
 9811SOL    HW130332   5.648   3.730   4.381
 9811SOL    HW230333   5.663   3.653   4.237
 9812SOL     OW30334   3.663   6.249   5.431
 9812SOL    HW130335   3.690   6.224   5.338
 9812SOL    HW230336   3.741   6.236   5.493
 9813SOL     OW30337   5.358   0.855   1.672
 9813SOL    HW130338   5.457   0.841   1.672
 9813SOL    HW230339   5.312   0.767   1.657
 9814SOL     OW30340   5.643   1.279   0.081
 9814SOL    HW130341   5.611   1.304   0.172
 9814SOL    HW230342   5.743   1.281   0.078
 9815SOL     OW30343   4.582   2.540   4.558
 9815SOL    HW130344   4.608   2.565   4.465
 9815SOL    HW230345   4.597   2.618   4.619
 9816SOL     OW30346   2.287   0.216   0.550
 9816SOL    HW130347   2.201   0.251   0.586
 9816SOL    HW230348   2.362   0.277   0.577
 9817SOL     OW30349   6.350   6.874   2.631
 9817SOL    HW130350   6.386   6.815   2.559
 9817SOL    HW230351   6.339   6.821   2.715
 9818SOL     OW30352   5.918   3.023   4.611
 9818SOL    HW130353   5.828   3.029   4.568
 9818SOL    HW230354   5.967   3.109   4.598
 9819SOL     OW30355   4.029   0.542   2.460
 9819SOL    HW130356   3.937   0.565   2.427
 9819SOL    HW230357   4.088   0.623   2.454
 9820SOL     OW30358   4.665   2.988   5.742
 9820SOL    HW130359   4.589   3.050   5.720
 9820SOL    HW230360   4.628   2.900   5.771
 9821SOL     OW30361   6.371   4.966   0.626
 9821SOL    HW130362   6.415   4.975   0.537
 9821SOL    HW230363   6.431   4.915   0.688
 9822SOL     OW30364   0.615   0.086   2.032
 9822SOL    HW130365   0.713   0.088   2.056
 9822SOL    HW230366   0.561   0.095   2.115
 9823SOL     OW30367   3.742   0.865   1.522
 9823SOL    HW130368   3.760   0.946   1.466
 9823SOL    HW230369   3.664   0.814   1.485
 9824SOL     OW30370   1.229   3.755   6.024
 9824SOL    HW130371   1.284   3.771   5.942
 9824SOL    HW230372   1.138   3.795   6.011
 9825SOL     OW30373   4.027   4.918   5.037
 9825SOL    HW130374   4.072   4.996   5.080
 9825SOL    HW230375   3.932   4.941   5.017
 9826SOL     OW30376   4.938   0.574   5.646
 9826SOL    HW130377   4.889   0.633   5.710
 9826SOL    HW230378   4.995   0.509   5.697
 9827SOL     OW30379   1.603   4.168   4.487
 9827SOL    HW130380   1.624   4.104   4.414
 9827SOL    HW230381   1.652   4.143   4.570
 9828SOL     OW30382   3.304   2.939   6.591
 9828SOL    HW130383   3.216   2.891   6.584
 9828SOL    HW230384   3.354   2.903   6.669
 9829SOL     OW30385   2.958   4.430   0.101
 9829SOL    HW130386   2.884   4.443   0.036
 9829SOL    HW230387   2.962   4.507   0.163
 9830SOL     OW30388   5.826   0.627   0.636
 9830SOL    HW130389   5.820   0.626   0.736
 9830SOL    HW230390   5.796   0.716   0.602
 9831SOL     OW30391   6.588   6.611   1.257
 9831SOL    HW130392   6.526   6.535   1.274
 9831SOL    HW230393   6.557   6.691   1.310
 9832SOL     OW30394   4.641   5.015   1.119
 9832SOL    HW130395   4.662   5.107   1.086
 9832SOL    HW230396   4.543   4.998   1.112
 9833SOL     OW30397   3.258   3.731   4.860
 9833SOL    HW130398   3.161   3.716   4.841
 9833SOL    HW230399   3.268   3.812   4.919
 9834SOL     OW30400   0.677   3.161   4.340
 9834SOL    HW130401   0.723   3.250   4.339
 9834SOL    HW230402   0.670   3.126   4.246
 9835SOL     OW30403   4.942   2.069   4.083
 9835SOL    HW130404   4.914   1.990   4.138
 9835SOL    HW230405   4.994   2.038   4.004
 9836SOL     OW30406   5.040   5.131   2.952
 9836SOL    HW130407   4.987   5.208   2.916
 9836SOL    HW230408   4.987   5.082   3.021
 9837SOL     OW30409   2.273   6.121   4.369
 9837SOL    HW130410   2.251   6.025   4.354
 9837SOL    HW230411   2.230   6.177   4.298
 9838SOL     OW30412   0.781   5.845   6.262
 9838SOL    HW130413   0.809   5.885   6.175
 9838SOL    HW230414   0.861   5.812   6.311
 9839SOL     OW30415   0.164   1.943   2.270
 9839SOL    HW130416   0.149   1.930   2.368
 9839SOL    HW230417   0.126   2.030   2.242
 9840SOL     OW30418   6.404   0.720   1.286
 9840SOL    HW130419   6.344   0.786   1.331
 9840SOL    HW230420   6.371   0.700   1.194
 9841SOL     OW30421   1.822   3.671   4.344
 9841SOL    HW130422   1.872   3.756   4.358
 9841SOL    HW230423   1.824   3.647   4.247
 9842SOL     OW30424   3.431   2.977   2.320
 9842SOL    HW130425   3.333   2.994   2.319
 9842SOL    HW230426   3.456   2.918   2.243
 9843SOL     OW30427   6.469   2.480   2.154
 9843SOL    HW130428   6.418   2.403   2.117
 9843SOL    HW230429   6.413   2.530   2.220
 9844SOL     OW30430   5.152   0.100   2.469
 9844SOL    HW130431   5.059   0.136   2.465
 9844SOL    HW230432   5.164   0.050   2.555
 9845SOL     OW30433   1.445   1.958   3.722
 9845SOL    HW130434   1.513   1.975   3.651
 9845SOL    HW230435   1.491   1.928   3.805
 9846SOL     OW30436   2.936   3.731   2.967
 9846SOL    HW130437   2.889   3.693   3.047
 9846SOL    HW230438   2.987   3.812   2.995
 9847SOL     OW30439   1.912   3.815   5.813
 9847SOL    HW130440   1.840   3.849   5.751
 9847SOL    HW230441   1.968   3.748   5.764
 9848SOL     OW30442   5.198   3.194   6.743
 9848SOL    HW130443   5.289   3.229   6.767
 9848SOL    HW230444   5.156   3.153   6.823
 9849SOL     OW30445   0.159   6.900   6.354
 9849SOL    HW130446   0.236   6.911   6.416
 9849SOL    HW230447   0.127   6.990   6.323
 9850SOL     OW30448   4.053   5.875   2.344
 9850SOL    HW130449   4.004   5.864   2.258
 9850SOL    HW230450   3.996   5.928   2.408
 9851SOL     OW30451   5.536   1.736   5.196
 9851SOL    HW130452   5.439   1.714   5.199
 9851SOL    HW230453   5.588   1.665   5.244
 9852SOL     OW30454   5.100   1.496   3.783
 9852SOL    HW130455   5.198   1.505   3.802
 9852SOL    HW230456   5.067   1.579   3.739
 9853SOL     OW30457   6.531   3.867   2.423
 9853SOL    HW130458   6.556   3.864   2.520
 9853SOL    HW230459   6.579   3.794   2.375
 9854SOL     OW30460   4.987   5.595   3.864
 9854SOL    HW130461   5.077   5.629   3.891
 9854SOL    HW230462   4.990   5.563   3.770
 9855SOL     OW30463   1.108   3.752   1.594
 9855SOL    HW130464   1.021   3.788   1.559
 9855SOL    HW230465   1.174   3.746   1.519
 9856SOL     OW30466   3.615   2.871   0.921
 9856SOL    HW130467   3.700   2.820   0.930
 9856SOL    HW230468   3.568   2.874   1.009
 9857SOL     OW30469   5.276   3.554   3.176
 9857SOL    HW130470   5.310   3.505   3.096
 9857SOL    HW230471   5.294   3.501   3.258
 9858SOL     OW30472   5.168   0.992   1.823
 9858SOL    HW130473   5.221   0.934   1.762
 9858SOL    HW230474   5.111   0.935   1.882
 9859SOL     OW30475   6.267   0.418   2.201
 9859SOL    HW130476   6.258   0.429   2.300
 9859SOL    HW230477   6.364   0.426   2.175
 9860SOL     OW30478   0.578   1.193   2.240
 9860SOL    HW130479   0.546   1.169   2.332
 9860SOL    HW230480   0.677   1.204   2.241
 9861SOL     OW30481   4.112   6.343   4.525
 9861SOL    HW130482   4.055   6.311   4.602
 9861SOL    HW230483   4.053   6.375   4.451
 9862SOL     OW30484   1.325   2.629   1.108
 9862SOL    HW130485   1.304   2.698   1.039
 9862SOL    HW230486   1.407   2.656   1.159
 9863SOL     OW30487   3.566   6.737   2.342
 9863SOL    HW130488   3.492   6.687   2.386
 9863SOL    HW230489   3.538   6.762   2.249
 9864SOL     OW30490   5.161   6.100   2.380
 9864SOL    HW130491   5.084   6.066   2.325
 9864SOL    HW230492   5.221   6.156   2.323
 9865SOL     OW30493   0.355   0.678   4.088
 9865SOL    HW130494   0.387   0.682   4.183
 9865SOL    HW230495   0.316   0.588   4.070
 9866SOL     OW30496   4.799   3.960   4.009
 9866SOL    HW130497   4.790   3.985   3.913
 9866SOL    HW230498   4.758   4.032   4.066
 9867SOL     OW30499   4.528   1.222   0.062
 9867SOL    HW130500   4.460   1.255   7.019
 9867SOL    HW230501   4.524   1.122   0.067
 9868SOL     OW30502   0.122   4.466   0.473
 9868SOL    HW130503   0.027   4.436   0.481
 9868SOL    HW230504   0.145   4.476   0.376
 9869SOL     OW30505   1.704   4.369   3.283
 9869SOL    HW130506   1.764   4.309   3.230
 9869SOL    HW230507   1.748   4.458   3.297
 9870SOL     OW30508   5.319   4.941   2.461
 9870SOL    HW130509   5.334   4.842   2.452
 9870SOL    HW230510   5.222   4.962   2.448
 9871SOL     OW30511   2.379   0.776   5.194
 9871SOL    HW130512   2.433   0.762   5.276
 9871SOL    HW230513   2.434   0.753   5.113
 9872SOL     OW30514   2.671   4.820   3.446
 9872SOL    HW130515   2.769   4.838   3.447
 9872SOL    HW230516   2.641   4.802   3.352
 9873SOL     OW30517   1.018   2.461   0.285
 9873SOL    HW130518   0.974   2.414   0.210
 9873SOL    HW230519   1.025   2.400   0.364
 9874SOL     OW30520   0.678   3.180   3.763
 9874SOL    HW130521   0.778   3.176   3.757
 9874SOL    HW230522   0.642   3.088   3.778
 9875SOL     OW30523   0.468   0.771   2.949
 9875SOL    HW130524   0.375   0.806   2.945
 9875SOL    HW230525   0.533   0.845   2.934
 9876SOL     OW30526   6.697   6.532   2.624
 9876SOL    HW130527   6.654   6.612   2.584
 9876SOL    HW230528   6.745   6.480   2.553
 9877SOL     OW30529   3.225   6.705   2.691
 9877SOL    HW130530   3.241   6.714   2.790
 9877SOL    HW230531   3.127   6.697   2.674
 9878SOL     OW30532   1.109   6.032   5.701
 9878SOL    HW130533   1.168   5.979   5.639
 9878SOL    HW230534   1.034   6.072   5.648
 9879SOL     OW30535   4.348   5.712   5.294
 9879SOL    HW130536   4.414   5.692   5.366
 9879SOL    HW230537   4.389   5.776   5.229
 9880SOL     OW30538   1.343   2.016   5.845
 9880SOL    HW130539   1.331   2.093   5.781
 9880SOL    HW230540   1.376   2.051   5.932
 9881SOL     OW30541   0.652   2.236   6.032
 9881SOL    HW130542   0.740   2.279   6.051
 9881SOL    HW230543   0.642   2.155   6.090
 9882SOL     OW30544   1.415   2.391   3.818
 9882SOL    HW130545   1.369   2.305   3.797
 9882SOL    HW230546   1.495   2.374   3.876
 9883SOL     OW30547   1.627   0.677   2.186
 9883SOL    HW130548   1.591   0.635   2.270
 9883SOL    HW230549   1.555   0.681   2.117
 9884SOL     OW30550   4.198   0.649   4.238
 9884SOL    HW130551   4.241   0.710   4.305
 9884SOL    HW230552   4.117   0.606   4.278
 9885SOL     OW30553   5.836   5.079   4.535
 9885SOL    HW130554   5.824   5.020   4.614
 9885SOL    HW230555   5.875   5.025   4.460
 9886SOL     OW30556   1.014   4.576   2.718
 9886SOL    HW130557   1.078   4.587   2.794
 9886SOL    HW230558   0.933   4.526   2.749
 9887SOL     OW30559   3.606   1.113   0.295
 9887SOL    HW130560   3.652   1.025   0.288
 9887SOL    HW230561   3.552   1.115   0.379
 9888SOL     OW30562   6.910   4.395   0.565
 9888SOL    HW130563   6.867   4.307   0.546
 9888SOL    HW230564   6.871   4.433   0.649
 9889SOL     OW30565   6.278   4.697   0.549
 9889SOL    HW130566   6.309   4.665   0.639
 9889SOL    HW230567   6.288   4.796   0.542
 9890SOL     OW30568   1.687   2.733   1.520
 9890SOL    HW130569   1.783   2.754   1.503
 9890SOL    HW230570   1.678   2.682   1.606
 9891SOL     OW30571   5.656   2.494   0.759
 9891SOL    HW130572   5.698   2.417   0.806
 9891SOL    HW230573   5.558   2.494   0.775
 9892SOL     OW30574   6.892   4.929   0.252
 9892SOL    HW130575   6.932   4.837   0.255
 9892SOL    HW230576   6.821   4.932   0.181
 9893SOL     OW30577   2.312   1.553   0.740
 9893SOL    HW130578   2.299   1.588   0.647
 9893SOL    HW230579   2.296   1.454   0.740
 9894SOL     OW30580   0.868   1.966   0.570
 9894SOL    HW130581   0.962   1.938   0.588
 9894SOL    HW230582   0.815   1.962   0.655
 9895SOL     OW30583   5.626   2.951   5.398
 9895SOL    HW130584   5.531   2.927   5.377
 9895SOL    HW230585   5.666   2.883   5.459
 9896SOL     OW30586   6.832   0.537   0.462
 9896SOL    HW130587   6.908   0.540   0.397
 9896SOL    HW230588   6.819   0.443   0.493
 9897SOL     OW30589   5.397   5.387   3.153
 9897SOL    HW130590   5.393   5.464   3.089
 9897SOL    HW230591   5.457   5.316   3.116
 9898SOL     OW30592   3.262   5.748   5.662
 9898SOL    HW130593   3.359   5.764   5.682
 9898SOL    HW230594   3.235   5.802   5.582
 9899SOL     OW30595   6.876   5.481   0.420
 9899SOL    HW130596   6.840   5.476   0.327
 9899SOL    HW230597   6.823   5.421   0.480
 9900SOL     OW30598   1.988   4.386   3.664
 9900SOL    HW130599   2.068   4.428   3.621
 9900SOL    HW230600   1.925   4.355   3.594
 9901SOL     OW30601   2.758   2.163   5.329
 9901SOL    HW130602   2.709   2.180   5.415
 9901SOL    HW230603   2.809   2.244   5.302
 9902SOL     OW30604   1.786   4.761   6.889
 9902SOL    HW130605   1.842   4.756   6.806
 9902SOL    HW230606   1.801   4.849   6.934
 9903SOL     OW30607   4.956   1.006   3.050
 9903SOL    HW130608   4.945   1.104   3.030
 9903SOL    HW230609   4.893   0.980   3.123
 9904SOL     OW30610   6.822   3.344   6.797
 9904SOL    HW130611   6.743   3.283   6.789
 9904SOL    HW230612   6.797   3.424   6.851
 9905SOL     OW30613   4.323   1.663   0.499
 9905SOL    HW130614   4.375   1.620   0.572
 9905SOL    HW230615   4.386   1.698   0.429
 9906SOL     OW30616   3.914   3.044   3.052
 9906SOL    HW130617   3.915   3.006   2.960
 9906SOL    HW230618   3.824   3.028   3.094
 9907SOL     OW30619   0.297   0.643   1.789
 9907SOL    HW130620   0.334   0.648   1.882
 9907SOL    HW230621   0.277   0.548   1.766
 9908SOL     OW30622   4.998   2.736   2.723
 9908SOL    HW130623   5.062   2.664   2.746
 9908SOL    HW230624   5.047   2.823   2.713
 9909SOL     OW30625   2.037   6.551   4.383
 9909SOL    HW130626   2.076   6.463   4.354
 9909SOL    HW230627   1.961   6.534   4.446
 9910SOL     OW30628   0.720   4.624   2.734
 9910SOL    HW130629   0.746   4.528   2.737
 9910SOL    HW230630   0.723   4.657   2.640
 9911SOL     OW30631   3.861   6.579   2.205
 9911SOL    HW130632   3.928   6.597   2.277
 9911SOL    HW230633   3.781   6.533   2.243
 9912SOL     OW30634   4.848   1.879   0.616
 9912SOL    HW130635   4.865   1.840   0.706
 9912SOL    HW230636   4.842   1.805   0.549
 9913SOL     OW30637   5.983   2.897   0.553
 9913SOL    HW130638   6.013   2.952   0.476
 9913SOL    HW230639   6.042   2.913   0.632
 9914SOL     OW30640   0.943   2.554   4.822
 9914SOL    HW130641   0.853   2.544   4.778
 9914SOL    HW230642   0.940   2.629   4.887
 9915SOL     OW30643   5.365   1.339   2.986
 9915SOL    HW130644   5.413   1.306   2.905
 9915SOL    HW230645   5.280   1.287   2.998
 9916SOL     OW30646   2.204   2.936   2.174
 9916SOL    HW130647   2.134   2.866   2.169
 9916SOL    HW230648   2.295   2.894   2.170
 9917SOL     OW30649   6.799   4.196   5.687
 9917SOL    HW130650   6.895   4.223   5.687
 9917SOL    HW230651   6.742   4.276   5.668
 9918SOL     OW30652   3.895   1.677   2.677
 9918SOL    HW130653   3.994   1.693   2.681
 9918SOL    HW230654   3.862   1.655   2.769
 9919SOL     OW30655   6.197   6.456   1.679
 9919SOL    HW130656   6.194   6.390   1.604
 9919SOL    HW230657   6.152   6.418   1.760
 9920SOL     OW30658   4.166   1.719   2.776
 9920SOL    HW130659   4.240   1.765   2.726
 9920SOL    HW230660   4.142   1.774   2.857
 9921SOL     OW30661   3.953   5.513   5.997
 9921SOL    HW130662   3.915   5.421   5.982
 9921SOL    HW230663   3.954   5.532   6.096
 9922SOL     OW30664   0.783   5.561   0.499
 9922SOL    HW130665   0.712   5.595   0.437
 9922SOL    HW230666   0.848   5.635   0.518
 9923SOL     OW30667   4.985   5.376   0.158
 9923SOL    HW130668   5.067   5.320   0.173
 9923SOL    HW230669   4.972   5.390   0.059
 9924SOL     OW30670   0.314   3.302   5.015
 9924SOL    HW130671   0.324   3.387   5.067
 9924SOL    HW230672   0.233   3.252   5.047
 9925SOL     OW30673   4.988   2.703   4.459
 9925SOL    HW130674   4.961   2.743   4.547
 9925SOL    HW230675   5.088   2.706   4.451
 9926SOL     OW30676   1.984   4.442   6.867
 9926SOL    HW130677   2.026   4.500   6.937
 9926SOL    HW230678   2.000   4.346   6.891
 9927SOL     OW30679   5.827   0.070   2.685
 9927SOL    HW130680   5.731   0.061   2.712
 9927SOL    HW230681   5.884   0.015   2.745
 9928SOL     OW30682   4.938   4.978   1.358
 9928SOL    HW130683   4.924   4.946   1.264
 9928SOL    HW230684   4.969   4.901   1.414
 9929SOL     OW30685   2.683   5.349   4.794
 9929SOL    HW130686   2.681   5.249   4.801
 9929SOL    HW230687   2.618   5.387   4.860
 9930SOL     OW30688   6.935   0.187   4.513
 9930SOL    HW130689   6.940   0.112   4.579
 9930SOL    HW230690   6.840   0.198   4.482
 9931SOL     OW30691   1.238   4.168   5.028
 9931SOL    HW130692   1.296   4.240   4.990
 9931SOL    HW230693   1.295   4.097   5.069
 9932SOL     OW30694   1.035   6.360   6.382
 9932SOL    HW130695   1.020   6.407   6.469
 9932SOL    HW230696   1.074   6.269   6.400
 9933SOL     OW30697   1.219   5.349   1.776
 9933SOL    HW130698   1.289   5.349   1.847
 9933SOL    HW230699   1.129   5.355   1.819
 9934SOL     OW30700   6.238   2.170   5.390
 9934SOL    HW130701   6.152   2.212   5.418
 9934SOL    HW230702   6.223   2.073   5.368
 9935SOL     OW30703   2.774   1.094   6.586
 9935SOL    HW130704   2.787   1.053   6.496
 9935SOL    HW230705   2.698   1.158   6.583
 9936SOL     OW30706   0.548   4.824   4.460
 9936SOL    HW130707   0.620   4.890   4.481
 9936SOL    HW230708   0.461   4.854   4.498
 9937SOL     OW30709   6.886   2.174   6.043
 9937SOL    HW130710   6.842   2.198   6.130
 9937SOL    HW230711   6.976   2.136   6.061
 9938SOL     OW30712   6.922   6.135   2.935
 9938SOL    HW130713   6.849   6.109   2.998
 9938SOL    HW230714   7.002   6.076   2.949
 9939SOL     OW30715   3.084   2.850   1.527
 9939SOL    HW130716   3.124   2.828   1.438
 9939SOL    HW230717   3.141   2.810   1.599
 9940SOL     OW30718   6.792   1.213   0.825
 9940SOL    HW130719   6.725   1.212   0.751
 9940SOL    HW230720   6.851   1.133   0.817
 9941SOL     OW30721   2.964   4.371   5.589
 9941SOL    HW130722   3.008   4.461   5.583
 9941SOL    HW230723   2.971   4.324   5.502
 9942SOL     OW30724   2.672   5.581   2.856
 9942SOL    HW130725   2.616   5.519   2.800
 9942SOL    HW230726   2.690   5.538   2.945
 9943SOL     OW30727   0.541   5.986   6.346
 9943SOL    HW130728   0.631   5.950   6.368
 9943SOL    HW230729   0.515   6.056   6.413
 9944SOL     OW30730   1.242   3.909   6.604
 9944SOL    HW130731   1.179   3.984   6.584
 9944SOL    HW230732   1.219   3.831   6.545
 9945SOL     OW30733   6.711   5.246   0.532
 9945SOL    HW130734   6.729   5.278   0.625
 9945SOL    HW230735   6.713   5.146   0.530
 9946SOL     OW30736   4.884   0.702   5.029
 9946SOL    HW130737   4.826   0.688   5.109
 9946SOL    HW230738   4.926   0.616   5.002
 9947SOL     OW30739   6.465   4.819   5.150
 9947SOL    HW130740   6.376   4.864   5.152
 9947SOL    HW230741   6.537   4.884   5.176
 9948SOL     OW30742   4.616   4.334   4.751
 9948SOL    HW130743   4.565   4.289   4.678
 9948SOL    HW230744   4.709   4.356   4.719
 9949SOL     OW30745   5.517   4.960   2.857
 9949SOL    HW130746   5.616   4.951   2.869
 9949SOL    HW230747   5.475   4.869   2.854
 9950SOL     OW30748   4.366   6.224   5.334
 9950SOL    HW130749   4.312   6.142   5.312
 9950SOL    HW230750   4.462   6.199   5.344
 9951SOL     OW30751   5.501   2.695   3.033
 9951SOL    HW130752   5.419   2.655   2.992
 9951SOL    HW230753   5.485   2.711   3.131
 9952SOL     OW30754   6.835   4.142   0.792
 9952SOL    HW130755   6.838   4.147   0.692
 9952SOL    HW230756   6.740   4.145   0.822
 9953SOL     OW30757   6.041   1.743   3.477
 9953SOL    HW130758   6.104   1.808   3.520
 9953SOL    HW230759   6.055   1.744   3.378
 9954SOL     OW30760   5.828   6.890   5.302
 9954SOL    HW130761   5.804   6.986   5.294
 9954SOL    HW230762   5.869   6.858   5.217
 9955SOL     OW30763   6.910   4.101   4.522
 9955SOL    HW130764   6.810   4.097   4.519
 9955SOL    HW230765   6.938   4.159   4.599
 9956SOL     OW30766   2.132   6.112   1.886
 9956SOL    HW130767   2.117   6.042   1.816
 9956SOL    HW230768   2.156   6.199   1.842
 9957SOL     OW30769   6.343   4.742   3.581
 9957SOL    HW130770   6.416   4.680   3.553
 9957SOL    HW230771   6.297   4.779   3.500
 9958SOL     OW30772   2.824   3.895   0.935
 9958SOL    HW130773   2.850   3.830   1.006
 9958SOL    HW230774   2.725   3.910   0.937
 9959SOL     OW30775   3.976   3.522   6.623
 9959SOL    HW130776   3.886   3.563   6.635
 9959SOL    HW230777   3.981   3.477   6.534
 9960SOL     OW30778   6.873   1.421   2.275
 9960SOL    HW130779   6.892   1.495   2.340
 9960SOL    HW230780   6.790   1.442   2.224
 9961SOL     OW30781   1.825   5.638   4.196
 9961SOL    HW130782   1.877   5.576   4.253
 9961SOL    HW230783   1.877   5.659   4.113
 9962SOL     OW30784   4.655   6.376   4.890
 9962SOL    HW130785   4.726   6.324   4.843
 9962SOL    HW230786   4.693   6.461   4.925
 9963SOL     OW30787   3.230   1.355   1.143
 9963SOL    HW130788   3.311   1.371   1.086
 9963SOL    HW230789   3.234   1.415   1.223
 9964SOL     OW30790   4.496   6.103   4.986
 9964SOL    HW130791   4.455   6.063   4.904
 9964SOL    HW230792   4.497   6.202   4.978
 9965SOL     OW30793   4.282   0.194   0.016
 9965SOL    HW130794   4.315   0.137   6.963
 9965SOL    HW230795   4.238   0.136   0.085
 9966SOL     OW30796   0.775   6.274   2.098
 9966SOL    HW130797   0.841   6.320   2.157
 9966SOL    HW230798   0.774   6.176   2.119
 9967SOL     OW30799   1.626   5.541   1.695
 9967SOL    HW130800   1.703   5.521   1.635
 9967SOL    HW230801   1.541   5.524   1.646
 9968SOL     OW30802   4.013   3.853   2.620
 9968SOL    HW130803   3.950   3.901   2.681
 9968SOL    HW230804   4.092   3.911   2.601
 9969SOL     OW30805   1.597   3.763   2.175
 9969SOL    HW130806   1.511   3.746   2.126
 9969SOL    HW230807   1.666   3.697   2.143
 9970SOL     OW30808   6.171   4.299   1.614
 9970SOL    HW130809   6.138   4.381   1.660
 9970SOL    HW230810   6.123   4.219   1.649
 9971SOL     OW30811   2.164   4.294   0.454
 9971SOL    HW130812   2.103   4.252   0.521
 9971SOL    HW230813   2.111   4.351   0.391
 9972SOL     OW30814   6.972   4.541   2.403
 9972SOL    HW130815   0.035   4.584   2.430
 9972SOL    HW230816   6.909   4.541   2.481
 9973SOL     OW30817   6.090   1.087   4.344
 9973SOL    HW130818   6.108   1.007   4.287
 9973SOL    HW230819   6.150   1.083   4.425
 9974SOL     OW30820   1.750   0.925   3.769
 9974SOL    HW130821   1.754   0.826   3.778
 9974SOL    HW230822   1.689   0.962   3.840
 9975SOL     OW30823   0.361   2.766   0.155
 9975SOL    HW130824   0.319   2.814   0.232
 9975SOL    HW230825   0.343   2.668   0.163
 9976SOL     OW30826   1.664   6.716   4.966
 9976SOL    HW130827   1.669   6.667   4.879
 9976SOL    HW230828   1.632   6.654   5.037
 9977SOL     OW30829   6.215   4.200   4.847
 9977SOL    HW130830   6.307   4.170   4.872
 9977SOL    HW230831   6.209   4.299   4.856
 9978SOL     OW30832   6.846   1.836   3.861
 9978SOL    HW130833   6.863   1.782   3.778
 9978SOL    HW230834   6.924   1.828   3.923
 9979SOL     OW30835   6.455   3.574   4.760
 9979SOL    HW130836   6.463   3.532   4.669
 9979SOL    HW230837   6.539   3.556   4.812
 9980SOL     OW30838   3.635   0.603   6.385
 9980SOL    HW130839   3.623   0.680   6.448
 9980SOL    HW230840   3.728   0.605   6.348
 9981SOL     OW30841   3.156   1.913   4.186
 9981SOL    HW130842   3.102   1.851   4.242
 9981SOL    HW230843   3.101   1.991   4.159
 9982SOL     OW30844   0.196   6.016   4.099
 9982SOL    HW130845   0.158   6.102   4.065
 9982SOL    HW230846   0.141   5.983   4.175
 9983SOL     OW30847   6.990   1.640   1.961
 9983SOL    HW130848   0.030   1.682   1.895
 9983SOL    HW230849   0.020   1.604   2.038
 9984SOL     OW30850   2.993   2.103   6.752
 9984SOL    HW130851   2.903   2.062   6.760
 9984SOL    HW230852   3.052   2.071   6.826
 9985SOL     OW30853   1.316   1.102   2.109
 9985SOL    HW130854   1.359   1.179   2.156
 9985SOL    HW230855   1.365   1.083   2.024
 9986SOL     OW30856   5.453   3.725   4.965
 9986SOL    HW130857   5.445   3.625   4.971
 9986SOL    HW230858   5.483   3.751   4.874
 9987SOL     OW30859   6.453   3.592   5.808
 9987SOL    HW130860   6.535   3.608   5.863
 9987SOL    HW230861   6.463   3.637   5.719
 9988SOL     OW30862   6.674   0.190   5.216
 9988SOL    HW130863   6.757   0.208   5.163
 9988SOL    HW230864   6.644   0.096   5.200
 9989SOL     OW30865   0.472   3.070   5.323
 9989SOL    HW130866   0.478   3.021   5.236
 9989SOL    HW230867   0.547   3.135   5.330
 9990SOL     OW30868   0.802   4.987   2.778
 9990SOL    HW130869   0.874   4.985   2.848
 9990SOL    HW230870   0.836   4.945   2.694
 9991SOL     OW30871   3.554   1.977   3.723
 9991SOL    HW130872   3.578   2.046   3.656
 9991SOL    HW230873   3.513   2.020   3.803
 9992SOL     OW30874   6.616   5.882   6.096
 9992SOL    HW130875   6.571   5.952   6.041
 9992SOL    HW230876   6.547   5.820   6.134
 9993SOL     OW30877   1.030   1.935   1.979
 9993SOL    HW130878   1.067   1.913   1.889
 9993SOL    HW230879   1.022   2.035   1.988
 9994SOL     OW30880   6.068   4.638   3.273
 9994SOL    HW130881   6.127   4.711   3.308
 9994SOL    HW230882   6.100   4.610   3.182
 9995SOL     OW30883   5.330   0.671   4.705
 9995SOL    HW130884   5.236   0.657   4.733
 9995SOL    HW230885   5.392   0.632   4.774
 9996SOL     OW30886   3.057   4.024   0.357
 9996SOL    HW130887   3.034   4.086   0.282
 9996SOL    HW230888   3.103   4.074   0.429
 9997SOL     OW30889   2.726   0.094   5.532
 9997SOL    HW130890   2.712   0.102   5.433
 9997SOL    HW230891   2.741   7.021   5.556
 9998SOL     OW30892   5.729   5.922   5.418
 9998SOL    HW130893   5.689   5.871   5.495
 9998SOL    HW230894   5.772   5.858   5.355
 9999SOL     OW30895   6.715   2.147   4.937
 9999SOL    HW130896   6.758   2.202   5.008
 9999SOL    HW230897   6.743   2.182   4.847
10000SOL     OW30898   0.247   2.817   6.376
10000SOL    HW130899   0.269   2.859   6.288
10000SOL    HW230900   0.157   2.851   6.407
10001SOL     OW30901   4.420   0.765   3.022
10001SOL    HW130902   4.370   0.783   2.938
10001SOL    HW230903   4.354   0.751   3.097
10002SOL     OW30904   0.710   0.896   2.066
10002SOL    HW130905   0.771   0.842   2.008
10002SOL    HW230906   0.697   0.987   2.027
10003SOL     OW30907   4.219   2.275   3.705
10003SOL    HW130908   4.215   2.289   3.804
10003SOL    HW230909   4.129   2.244   3.673
10004SOL     OW30910   6.925   1.312   2.756
10004SOL    HW130911   7.008   1.285   2.707
10004SOL    HW230912   6.902   1.242   2.824
10005SOL     OW30913   4.981   6.680   4.101
10005SOL    HW130914   5.021   6.673   4.010
10005SOL    HW230915   4.882   6.697   4.093
10006SOL     OW30916   3.754   6.935   4.125
10006SOL    HW130917   3.787   7.020   4.085
10006SOL    HW230918   3.673   6.904   4.075
10007SOL     OW30919   6.609   3.438   3.637
10007SOL    HW130920   6.658   3.506   3.692
10007SOL    HW230921   6.654   3.429   3.548
10008SOL     OW30922   2.779   0.149   3.732
10008SOL    HW130923   2.710   0.106   3.674
10008SOL    HW230924   2.737   0.220   3.789
10009SOL     OW30925   1.292   4.520   1.979
10009SOL    HW130926   1.287   4.434   2.030
10009SOL    HW230927   1.307   4.596   2.042
10010SOL     OW30928   0.889   1.085   6.051
10010SOL    HW130929   0.848   1.162   6.099
10010SOL    HW230930   0.966   1.050   6.104
10011SOL     OW30931   0.142   6.518   5.152
10011SOL    HW130932   0.170   6.531   5.056
10011SOL    HW230933   0.139   6.421   5.173
10012SOL     OW30934   5.779   1.296   3.755
10012SOL    HW130935   5.784   1.379   3.810
10012SOL    HW230936   5.725   1.314   3.673
10013SOL     OW30937   0.492   0.735   2.547
10013SOL    HW130938   0.449   0.811   2.595
10013SOL    HW230939   0.560   0.693   2.606
10014SOL     OW30940   0.691   4.374   6.237
10014SOL    HW130941   0.718   4.278   6.242
10014SOL    HW230942   0.763   4.432   6.275
10015SOL     OW30943   1.940   4.406   0.308
10015SOL    HW130944   1.914   4.312   0.327
10015SOL    HW230945   1.893   4.438   0.226
10016SOL     OW30946   2.382   0.516   5.762
10016SOL    HW130947   2.406   0.419   5.763
10016SOL    HW230948   2.364   0.545   5.668
10017SOL     OW30949   1.482   2.275   4.880
10017SOL    HW130950   1.491   2.311   4.787
10017SOL    HW230951   1.566   2.292   4.931
10018SOL     OW30952   4.734   0.213   6.425
10018SOL    HW130953   4.732   0.128   6.479
10018SOL    HW230954   4.768   0.193   6.333
10019SOL     OW30955   0.846   1.354   2.784
10019SOL    HW130956   0.894   1.269   2.807
10019SOL    HW230957   0.850   1.368   2.685
10020SOL     OW30958   0.580   2.858   1.248
10020SOL    HW130959   0.541   2.913   1.322
10020SOL    HW230960   0.667   2.818   1.278
10021SOL     OW30961   0.046   4.007   0.645
10021SOL    HW130962   6.974   4.026   0.668
10021SOL    HW230963   0.050   3.940   0.571
10022SOL     OW30964   1.814   1.677   6.275
10022SOL    HW130965   1.824   1.626   6.360
10022SOL    HW230966   1.817   1.775   6.294
10023SOL     OW30967   0.159   3.751   0.726
10023SOL    HW130968   0.099   3.785   0.653
10023SOL    HW230969   0.102   3.719   0.802
10024SOL     OW30970   1.769   4.891   3.993
10024SOL    HW130971   1.833   4.824   4.032
10024SOL    HW230972   1.723   4.851   3.914
10025SOL     OW30973   1.464   1.433   0.678
10025SOL    HW130974   1.385   1.480   0.638
10025SOL    HW230975   1.467   1.339   0.646
10026SOL     OW30976   6.763   0.418   3.490
10026SOL    HW130977   6.715   0.335   3.463
10026SOL    HW230978   6.737   0.442   3.583
10027SOL     OW30979   4.717   2.192   5.227
10027SOL    HW130980   4.785   2.134   5.271
10027SOL    HW230981   4.676   2.253   5.295
10028SOL     OW30982   1.721   0.481   0.712
10028SOL    HW130983   1.805   0.507   0.760
10028SOL    HW230984   1.734   0.491   0.614
10029SOL     OW30985   5.387   1.882   3.545
10029SOL    HW130986   5.394   1.850   3.450
10029SOL    HW230987   5.355   1.807   3.603
10030SOL     OW30988   1.646   0.495   3.150
10030SOL    HW130989   1.692   0.413   3.115
10030SOL    HW230990   1.710   0.546   3.207
10031SOL     OW30991   6.304   4.472   5.012
10031SOL    HW130992   6.382   4.436   5.064
10031SOL    HW230993   6.334   4.496   4.920
10032SOL     OW30994   2.861   1.566   4.882
10032SOL    HW130995   2.911   1.652   4.876
10032SOL    HW230996   2.837   1.534   4.790
10033SOL     OW30997   5.531   2.742   4.692
10033SOL    HW130998   5.492   2.660   4.735
10033SOL    HW230999   5.545   2.725   4.595
10034SOL     OW31000   5.485   0.477   5.677
10034SOL    HW131001   5.474   0.433   5.767
10034SOL    HW231002   5.395   0.496   5.638
10035SOL     OW31003   0.286   6.277   2.031
10035SOL    HW131004   0.382   6.299   2.043
10035SOL    HW231005   0.276   6.182   2.001
10036SOL     OW31006   0.072   0.945   0.556
10036SOL    HW131007   0.010   0.866   0.561
10036SOL    HW231008   0.071   0.983   0.464
10037SOL     OW31009   0.730   6.948   0.786
10037SOL    HW131010   0.709   6.998   0.702
10037SOL    HW231011   0.712   7.006   0.865
10038SOL     OW31012   6.303   0.383   1.540
10038SOL    HW131013   6.389   0.382   1.489
10038SOL    HW231014   6.263   0.475   1.537
10039SOL     OW31015   3.349   0.658   3.619
10039SOL    HW131016   3.286   0.734   3.602
10039SOL    HW231017   3.398   0.635   3.535
10040SOL     OW31018   1.244   2.815   1.438
10040SOL    HW131019   1.334   2.773   1.424
10040SOL    HW231020   1.173   2.753   1.405
10041SOL     OW31021   2.500   5.977   0.007
10041SOL    HW131022   2.566   5.903   0.022
10041SOL    HW231023   2.411   5.938   7.006
10042SOL     OW31024   5.622   3.651   2.946
10042SOL    HW131025   5.556   3.711   2.902
10042SOL    HW231026   5.669   3.595   2.877
10043SOL     OW31027   0.507   1.897   4.603
10043SOL    HW131028   0.517   1.800   4.627
10043SOL    HW231029   0.569   1.952   4.659
10044SOL     OW31030   3.208   1.279   6.028
10044SOL    HW131031   3.260   1.292   5.944
10044SOL    HW231032   3.249   1.333   6.101
10045SOL     OW31033   3.004   1.185   1.017
10045SOL    HW131034   3.008   1.086   1.033
10045SOL    HW231035   3.088   1.227   1.051
10046SOL     OW31036   1.268   5.781   0.660
10046SOL    HW131037   1.339   5.719   0.693
10046SOL    HW231038   1.277   5.792   0.561
10047SOL     OW31039   1.068   3.113   1.028
10047SOL    HW131040   1.107   3.067   0.948
10047SOL    HW231041   0.973   3.084   1.040
10048SOL     OW31042   6.287   5.395   3.394
10048SOL    HW131043   6.222   5.329   3.356
10048SOL    HW231044   6.285   5.390   3.494
10049SOL     OW31045   6.806   0.700   5.316
10049SOL    HW131046   6.905   0.691   5.322
10049SOL    HW231047   6.782   0.795   5.296
10050SOL     OW31048   0.178   3.143   6.874
10050SOL    HW131049   0.093   3.095   6.897
10050SOL    HW231050   0.156   3.232   6.833
10051SOL     OW31051   2.457   2.638   3.941
10051SOL    HW131052   2.393   2.686   3.880
10051SOL    HW231053   2.431   2.656   4.036
10052SOL     OW31054   1.279   6.725   3.330
10052SOL    HW131055   1.366   6.696   3.371
10052SOL    HW231056   1.206   6.663   3.361
10053SOL     OW31057   5.578   5.473   4.286
10053SOL    HW131058   5.661   5.422   4.307
10053SOL    HW231059   5.515   5.469   4.363
10054SOL     OW31060   6.911   3.685   4.985
10054SOL    HW131061   6.994   3.634   4.962
10054SOL    HW231062   6.832   3.639   4.945
10055SOL     OW31063   1.519   2.263   6.614
10055SOL    HW131064   1.561   2.302   6.696
10055SOL    HW231065   1.591   2.234   6.551
10056SOL     OW31066   5.851   2.223   3.542
10056SOL    HW131067   5.907   2.288   3.593
10056SOL    HW231068   5.795   2.170   3.606
10057SOL     OW31069   5.625   5.223   4.975
10057SOL    HW131070   5.642   5.238   5.072
10057SOL    HW231071   5.653   5.304   4.923
10058SOL     OW31072   0.095   3.487   4.969
10058SOL    HW131073   0.085   3.416   4.899
10058SOL    HW231074   0.189   3.488   5.002
10059SOL     OW31075   5.840   0.342   6.983
10059SOL    HW131076   5.804   0.285   0.034
10059SOL    HW231077   5.785   0.425   6.975
10060SOL     OW31078   2.628   1.438   1.398
10060SOL    HW131079   2.639   1.503   1.322
10060SOL    HW231080   2.599   1.350   1.361
10061SOL     OW31081   3.970   6.804   2.839
10061SOL    HW131082   3.888   6.760   2.875
10061SOL    HW231083   4.021   6.739   2.782
10062SOL     OW31084   0.735   6.777   5.108
10062SOL    HW131085   0.760   6.687   5.145
10062SOL    HW231086   0.636   6.787   5.110
10063SOL     OW31087   2.399   2.499   5.176
10063SOL    HW131088   2.375   2.595   5.188
10063SOL    HW231089   2.494   2.484   5.201
10064SOL     OW31090   2.858   0.056   0.696
10064SOL    HW131091   2.838   6.981   0.707
10064SOL    HW231092   2.892   0.073   0.604
10065SOL     OW31093   0.628   2.067   1.820
10065SOL    HW131094   0.559   2.138   1.835
10065SOL    HW231095   0.592   1.999   1.756
10066SOL     OW31096   6.119   4.360   4.381
10066SOL    HW131097   6.121   4.283   4.445
10066SOL    HW231098   6.211   4.376   4.345
10067SOL     OW31099   6.899   2.975   5.100
10067SOL    HW131100   6.965   2.902   5.087
10067SOL    HW231101   6.833   2.949   5.171
10068SOL     OW31102   1.873   3.680   2.873
10068SOL    HW131103   1.848   3.654   2.967
10068SOL    HW231104   1.843   3.609   2.810
10069SOL     OW31105   2.821   4.710   0.196
10069SOL    HW131106   2.802   4.745   0.287
10069SOL    HW231107   2.756   4.750   0.131
10070SOL     OW31108   4.194   6.558   6.458
10070SOL    HW131109   4.268   6.497   6.486
10070SOL    HW231110   4.229   6.651   6.446
10071SOL     OW31111   5.913   0.621   4.919
10071SOL    HW131112   5.999   0.625   4.972
10071SOL    HW231113   5.911   0.696   4.853
10072SOL     OW31114   6.458   3.251   1.335
10072SOL    HW131115   6.437   3.223   1.429
10072SOL    HW231116   6.454   3.171   1.275
10073SOL     OW31117   5.897   4.523   5.209
10073SOL    HW131118   5.856   4.515   5.300
10073SOL    HW231119   5.830   4.561   5.145
10074SOL     OW31120   1.869   5.184   0.432
10074SOL    HW131121   1.864   5.262   0.494
10074SOL    HW231122   1.961   5.179   0.392
10075SOL     OW31123   1.482   3.379   2.048
10075SOL    HW131124   1.533   3.377   1.962
10075SOL    HW231125   1.384   3.392   2.028
10076SOL     OW31126   5.418   5.139   4.536
10076SOL    HW131127   5.336   5.084   4.524
10076SOL    HW231128   5.456   5.123   4.627
10077SOL     OW31129   5.174   4.065   6.672
10077SOL    HW131130   5.135   4.064   6.764
10077SOL    HW231131   5.238   3.988   6.663
10078SOL     OW31132   6.525   5.136   4.839
10078SOL    HW131133   6.524   5.037   4.855
10078SOL    HW231134   6.431   5.167   4.822
10079SOL     OW31135   5.297   3.360   4.147
10079SOL    HW131136   5.394   3.347   4.129
10079SOL    HW231137   5.282   3.450   4.186
10080SOL     OW31138   5.330   1.503   6.082
10080SOL    HW131139   5.388   1.491   6.002
10080SOL    HW231140   5.235   1.517   6.053
10081SOL     OW31141   1.256   4.644   0.460
10081SOL    HW131142   1.330   4.693   0.506
10081SOL    HW231143   1.257   4.548   0.489
10082SOL     OW31144   1.494   4.648   1.521
10082SOL    HW131145   1.465   4.714   1.591
10082SOL    HW231146   1.427   4.574   1.517
10083SOL     OW31147   3.140   5.887   2.454
10083SOL    HW131148   3.115   5.795   2.422
10083SOL    HW231149   3.058   5.935   2.485
10084SOL     OW31150   0.843   1.715   4.665
10084SOL    HW131151   0.759   1.722   4.611
10084SOL    HW231152   0.870   1.620   4.673
10085SOL     OW31153   5.256   6.868   0.915
10085SOL    HW131154   5.205   6.782   0.922
10085SOL    HW231155   5.234   6.926   0.994
10086SOL     OW31156   4.637   6.961   3.356
10086SOL    HW131157   4.614   0.027   3.397
10086SOL    HW231158   4.724   6.929   3.392
10087SOL     OW31159   1.107   5.740   5.097
10087SOL    HW131160   1.134   5.835   5.085
10087SOL    HW231161   1.120   5.713   5.193
10088SOL     OW31162   6.761   3.019   2.176
10088SOL    HW131163   6.743   3.109   2.216
10088SOL    HW231164   6.675   2.980   2.143
10089SOL     OW31165   3.559   0.662   1.439
10089SOL    HW131166   3.513   0.611   1.366
10089SOL    HW231167   3.611   0.599   1.496
10090SOL     OW31168   2.292   6.527   3.403
10090SOL    HW131169   2.221   6.470   3.445
10090SOL    HW231170   2.259   6.561   3.315
10091SOL     OW31171   5.897   5.018   5.000
10091SOL    HW131172   5.812   4.968   5.014
10091SOL    HW231173   5.891   5.108   5.041
10092SOL     OW31174   1.069   2.366   4.007
10092SOL    HW131175   1.131   2.381   4.083
10092SOL    HW231176   1.068   2.447   3.948
10093SOL     OW31177   4.415   4.200   5.977
10093SOL    HW131178   4.422   4.110   5.933
10093SOL    HW231179   4.337   4.200   6.040
10094SOL     OW31180   3.742   2.372   1.100
10094SOL    HW131181   3.657   2.424   1.088
10094SOL    HW231182   3.797   2.415   1.172
10095SOL     OW31183   4.557   3.192   5.411
10095SOL    HW131184   4.484   3.181   5.479
10095SOL    HW231185   4.550   3.120   5.342
10096SOL     OW31186   0.110   3.434   1.838
10096SOL    HW131187   0.093   3.528   1.866
10096SOL    HW231188   0.079   3.372   1.910
10097SOL     OW31189   0.332   1.573   0.619
10097SOL    HW131190   0.309   1.670   0.620
10097SOL    HW231191   0.285   1.528   0.544
10098SOL     OW31192   3.281   5.185   4.122
10098SOL    HW131193   3.349   5.242   4.167
10098SOL    HW231194   3.200   5.240   4.101
10099SOL     OW31195   0.167   4.988   2.831
10099SOL    HW131196   0.113   5.015   2.910
10099SOL    HW231197   0.234   5.059   2.810
10100SOL     OW31198   5.320   4.602   4.097
10100SOL    HW131199   5.325   4.577   4.000
10100SOL    HW231200   5.310   4.701   4.105
10101SOL     OW31201   6.781   3.224   0.571
10101SOL    HW131202   6.819   3.136   0.602
10101SOL    HW231203   6.791   3.292   0.644
10102SOL     OW31204   6.730   5.207   3.491
10102SOL    HW131205   6.691   5.270   3.424
10102SOL    HW231206   6.811   5.249   3.532
10103SOL     OW31207   0.554   6.229   6.916
10103SOL    HW131208   0.637   6.274   6.883
10103SOL    HW231209   0.578   6.143   6.960
10104SOL     OW31210   2.684   0.597   4.264
10104SOL    HW131211   2.744   0.634   4.193
10104SOL    HW231212   2.592   0.636   4.253
10105SOL     OW31213   2.923   1.371   4.288
10105SOL    HW131214   2.967   1.413   4.209
10105SOL    HW231215   2.824   1.367   4.273
10106SOL     OW31216   5.322   4.401   1.322
10106SOL    HW131217   5.379   4.483   1.318
10106SOL    HW231218   5.340   4.351   1.407
10107SOL     OW31219   5.336   5.430   0.061
10107SOL    HW131220   5.339   5.444   0.160
10107SOL    HW231221   5.241   5.422   0.031
10108SOL     OW31222   2.296   2.660   5.623
10108SOL    HW131223   2.217   2.714   5.650
10108SOL    HW231224   2.272   2.563   5.624
10109SOL     OW31225   0.936   2.210   1.307
10109SOL    HW131226   1.013   2.252   1.355
10109SOL    HW231227   0.951   2.218   1.208
10110SOL     OW31228   5.776   5.558   2.823
10110SOL    HW131229   5.718   5.617   2.878
10110SOL    HW231230   5.785   5.595   2.731
10111SOL     OW31231   0.106   2.816   2.285
10111SOL    HW131232   0.203   2.836   2.271
10111SOL    HW231233   0.096   2.720   2.311
10112SOL     OW31234   6.322   3.040   3.508
10112SOL    HW131235   6.236   3.084   3.481
10112SOL    HW231236   6.302   2.963   3.569
10113SOL     OW31237   5.916   0.579   6.771
10113SOL    HW131238   5.991   0.549   6.712
10113SOL    HW231239   5.830   0.538   6.739
10114SOL     OW31240   5.933   2.833   2.175
10114SOL    HW131241   6.000   2.798   2.109
10114SOL    HW231242   5.960   2.807   2.267
10115SOL     OW31243   3.379   2.286   5.839
10115SOL    HW131244   3.406   2.316   5.930
10115SOL    HW231245   3.452   2.307   5.774
10116SOL     OW31246   0.261   0.180   5.851
10116SOL    HW131247   0.189   0.247   5.870
10116SOL    HW231248   0.293   0.141   5.937
10117SOL     OW31249   6.812   3.938   2.997
10117SOL    HW131250   6.845   3.856   3.045
10117SOL    HW231251   6.745   3.985   3.054
10118SOL     OW31252   3.736   4.847   3.071
10118SOL    HW131253   3.663   4.791   3.032
10118SOL    HW231254   3.740   4.834   3.170
10119SOL     OW31255   6.057   6.228   6.656
10119SOL    HW131256   5.995   6.166   6.607
10119SOL    HW231257   6.006   6.277   6.727
10120SOL     OW31258   2.399   2.297   3.113
10120SOL    HW131259   2.492   2.332   3.113
10120SOL    HW231260   2.386   2.237   3.192
10121SOL     OW31261   0.289   5.179   1.071
10121SOL    HW131262   0.304   5.128   0.986
10121SOL    HW231263   0.211   5.241   1.059
10122SOL     OW31264   2.027   0.092   3.250
10122SOL    HW131265   2.102   0.113   3.311
10122SOL    HW231266   2.051   0.119   3.157
10123SOL     OW31267   0.195   5.853   6.379
10123SOL    HW131268   0.199   5.874   6.477
10123SOL    HW231269   0.199   5.939   6.328
10124SOL     OW31270   2.511   5.411   2.709
10124SOL    HW131271   2.557   5.374   2.628
10124SOL    HW231272   2.415   5.386   2.707
10125SOL     OW31273   0.924   0.752   4.617
10125SOL    HW131274   0.876   0.667   4.598
10125SOL    HW231275   0.929   0.808   4.534
10126SOL     OW31276   6.643   6.340   5.783
10126SOL    HW131277   6.686   6.417   5.829
10126SOL    HW231278   6.694   6.256   5.802
10127SOL     OW31279   2.255   6.694   6.243
10127SOL    HW131280   2.306   6.624   6.292
10127SOL    HW231281   2.299   6.783   6.257
10128SOL     OW31282   2.181   2.911   0.081
10128SOL    HW131283   2.197   3.002   0.043
10128SOL    HW231284   2.264   2.856   0.073
10129SOL     OW31285   6.051   1.914   4.742
10129SOL    HW131286   6.112   1.937   4.817
10129SOL    HW231287   6.027   1.817   4.746
10130SOL     OW31288   0.486   1.830   3.892
10130SOL    HW131289   0.555   1.830   3.820
10130SOL    HW231290   0.522   1.881   3.971
10131SOL     OW31291   2.062   6.313   4.957
10131SOL    HW131292   2.156   6.288   4.979
10131SOL    HW231293   2.000   6.240   4.986
10132SOL     OW31294   5.451   6.740   2.152
10132SOL    HW131295   5.419   6.821   2.200
10132SOL    HW231296   5.429   6.658   2.204
10133SOL     OW31297   5.691   6.075   0.586
10133SOL    HW131298   5.772   6.058   0.643
10133SOL    HW231299   5.720   6.096   0.492
10134SOL     OW31300   0.005   6.905   3.354
10134SOL    HW131301   0.096   6.926   3.389
10134SOL    HW231302   6.964   6.899   3.431
10135SOL     OW31303   5.916   6.948   3.108
10135SOL    HW131304   5.849   7.022   3.105
10135SOL    HW231305   5.963   6.943   3.020
10136SOL     OW31306   4.816   1.110   3.312
10136SOL    HW131307   4.727   1.154   3.326
10136SOL    HW231308   4.888   1.179   3.307
10137SOL     OW31309   6.713   5.079   4.553
10137SOL    HW131310   6.759   4.990   4.549
10137SOL    HW231311   6.747   5.130   4.632
10138SOL     OW31312   6.769   2.771   2.294
10138SOL    HW131313   6.732   2.745   2.205
10138SOL    HW231314   6.830   2.849   2.283
10139SOL     OW31315   2.837   2.904   6.741
10139SOL    HW131316   2.810   2.808   6.741
10139SOL    HW231317   2.801   2.949   6.660
10140SOL     OW31318   0.987   5.726   5.386
10140SOL    HW131319   0.892   5.743   5.414
10140SOL    HW231320   1.015   5.634   5.415
10141SOL     OW31321   2.167   2.821   4.142
10141SOL    HW131322   2.107   2.742   4.150
10141SOL    HW231323   2.254   2.803   4.189
10142SOL     OW31324   4.392   6.027   3.123
10142SOL    HW131325   4.391   5.957   3.051
10142SOL    HW231326   4.479   6.022   3.172
10143SOL     OW31327   5.701   2.721   5.847
10143SOL    HW131328   5.725   2.792   5.913
10143SOL    HW231329   5.764   2.644   5.857
10144SOL     OW31330   3.290   0.025   0.685
10144SOL    HW131331   3.253   0.046   0.595
10144SOL    HW231332   3.242   0.080   0.754
10145SOL     OW31333   6.555   6.894   6.302
10145SOL    HW131334   6.645   6.861   6.274
10145SOL    HW231335   6.553   6.994   6.296
10146SOL     OW31336   1.649   2.908   5.374
10146SOL    HW131337   1.598   2.825   5.352
10146SOL    HW231338   1.693   2.943   5.291
10147SOL     OW31339   3.954   5.900   5.534
10147SOL    HW131340   3.952   5.956   5.452
10147SOL    HW231341   4.019   5.939   5.599
10148SOL     OW31342   0.744   4.396   0.059
10148SOL    HW131343   0.793   4.415   0.145
10148SOL    HW231344   0.710   4.481   0.020
10149SOL     OW31345   3.890   3.753   1.518
10149SOL    HW131346   3.889   3.852   1.534
10149SOL    HW231347   3.984   3.722   1.509
10150SOL     OW31348   4.802   4.044   1.076
10150SOL    HW131349   4.766   3.956   1.047
10150SOL    HW231350   4.811   4.105   0.996
10151SOL     OW31351   6.714   1.081   6.173
10151SOL    HW131352   6.745   0.986   6.168
10151SOL    HW231353   6.713   1.111   6.268
10152SOL     OW31354   3.790   6.631   3.001
10152SOL    HW131355   3.766   6.670   3.090
10152SOL    HW231356   3.836   6.544   3.014
10153SOL     OW31357   4.823   4.092   1.518
10153SOL    HW131358   4.784   4.137   1.598
10153SOL    HW231359   4.751   4.044   1.468
10154SOL     OW31360   3.897   5.212   5.135
10154SOL    HW131361   3.837   5.153   5.081
10154SOL    HW231362   3.991   5.180   5.128
10155SOL     OW31363   4.130   1.366   3.663
10155SOL    HW131364   4.190   1.318   3.727
10155SOL    HW231365   4.171   1.453   3.636
10156SOL     OW31366   4.040   1.608   5.668
10156SOL    HW131367   4.011   1.658   5.750
10156SOL    HW231368   4.123   1.650   5.631
10157SOL     OW31369   0.615   4.482   1.523
10157SOL    HW131370   0.622   4.382   1.520
10157SOL    HW231371   0.567   4.514   1.442
10158SOL     OW31372   5.836   5.241   6.977
10158SOL    HW131373   5.790   5.181   6.912
10158SOL    HW231374   5.806   5.335   6.962
10159SOL     OW31375   3.356   3.111   1.878
10159SOL    HW131376   3.301   3.140   1.800
10159SOL    HW231377   3.438   3.167   1.884
10160SOL     OW31378   6.970   4.272   2.451
10160SOL    HW131379   0.027   4.280   2.510
10160SOL    HW231380   6.930   4.362   2.436
10161SOL     OW31381   5.214   3.182   5.731
10161SOL    HW131382   5.298   3.218   5.689
10161SOL    HW231383   5.236   3.097   5.779
10162SOL     OW31384   1.753   3.061   2.307
10162SOL    HW131385   1.844   3.091   2.279
10162SOL    HW231386   1.709   3.013   2.231
10163SOL     OW31387   2.705   5.048   4.777
10163SOL    HW131388   2.614   5.008   4.767
10163SOL    HW231389   2.762   4.987   4.833
10164SOL     OW31390   6.649   1.265   3.836
10164SOL    HW131391   6.683   1.348   3.881
10164SOL    HW231392   6.631   1.284   3.740
10165SOL     OW31393   1.124   3.878   4.023
10165SOL    HW131394   1.026   3.868   4.005
10165SOL    HW231395   1.145   3.841   4.113
10166SOL     OW31396   2.495   6.289   2.764
10166SOL    HW131397   2.590   6.313   2.786
10166SOL    HW231398   2.460   6.225   2.832
10167SOL     OW31399   2.592   2.252   6.498
10167SOL    HW131400   2.499   2.223   6.522
10167SOL    HW231401   2.641   2.278   6.581
10168SOL     OW31402   6.969   0.035   6.933
10168SOL    HW131403   6.962   0.117   6.989
10168SOL    HW231404   6.919   6.983   6.977
10169SOL     OW31405   4.989   4.705   3.460
10169SOL    HW131406   5.005   4.623   3.405
10169SOL    HW231407   4.895   4.705   3.494
10170SOL     OW31408   5.103   6.271   0.534
10170SOL    HW131409   5.053   6.184   0.539
10170SOL    HW231410   5.200   6.253   0.520
10171SOL     OW31411   2.280   4.629   5.194
10171SOL    HW131412   2.256   4.537   5.224
10171SOL    HW231413   2.349   4.625   5.122
10172SOL     OW31414   6.706   0.795   2.688
10172SOL    HW131415   6.736   0.724   2.624
10172SOL    HW231416   6.672   0.753   2.772
10173SOL     OW31417   3.604   3.448   5.096
10173SOL    HW131418   3.524   3.489   5.140
10173SOL    HW231419   3.576   3.400   5.013
10174SOL     OW31420   4.608   5.442   1.213
10174SOL    HW131421   4.628   5.515   1.279
10174SOL    HW231422   4.537   5.382   1.251
10175SOL     OW31423   6.726   6.620   4.528
10175SOL    HW131424   6.693   6.543   4.584
10175SOL    HW231425   6.668   6.700   4.544
10176SOL     OW31426   0.456   0.346   4.577
10176SOL    HW131427   0.555   0.359   4.569
10176SOL    HW231428   0.414   0.430   4.611
10177SOL     OW31429   2.394   0.765   4.166
10177SOL    HW131430   2.335   0.715   4.230
10177SOL    HW231431   2.441   0.699   4.107
10178SOL     OW31432   0.415   2.118   1.446
10178SOL    HW131433   0.392   2.031   1.489
10178SOL    HW231434   0.513   2.123   1.429
10179SOL     OW31435   0.424   5.402   0.374
10179SOL    HW131436   0.479   5.486   0.376
10179SOL    HW231437   0.364   5.400   0.454
10180SOL     OW31438   3.428   6.999   6.554
10180SOL    HW131439   3.367   6.927   6.587
10180SOL    HW231440   3.515   6.994   6.602
10181SOL     OW31441   6.637   3.577   3.375
10181SOL    HW131442   6.575   3.623   3.438
10181SOL    HW231443   6.610   3.598   3.281
10182SOL     OW31444   3.897   0.715   0.985
10182SOL    HW131445   3.809   0.762   0.982
10182SOL    HW231446   3.964   0.765   0.930
10183SOL     OW31447   4.657   6.561   5.726
10183SOL    HW131448   4.669   6.660   5.734
10183SOL    HW231449   4.746   6.517   5.719
10184SOL     OW31450   5.182   2.027   5.837
10184SOL    HW131451   5.196   1.941   5.886
10184SOL    HW231452   5.247   2.095   5.870
10185SOL     OW31453   3.230   5.183   1.575
10185SOL    HW131454   3.247   5.109   1.641
10185SOL    HW231455   3.210   5.268   1.625
10186SOL     OW31456   3.573   3.177   6.600
10186SOL    HW131457   3.615   3.142   6.684
10186SOL    HW231458   3.490   3.124   6.580
10187SOL     OW31459   1.875   4.158   5.362
10187SOL    HW131460   1.897   4.212   5.443
10187SOL    HW231461   1.959   4.118   5.325
10188SOL     OW31462   2.753   6.776   6.257
10188SOL    HW131463   2.828   6.842   6.258
10188SOL    HW231464   2.668   6.824   6.235
10189SOL     OW31465   1.953   1.679   4.462
10189SOL    HW131466   1.875   1.729   4.497
10189SOL    HW231467   2.018   1.661   4.536
10190SOL     OW31468   4.216   4.078   0.895
10190SOL    HW131469   4.171   4.054   0.809
10190SOL    HW231470   4.260   3.997   0.933
10191SOL     OW31471   5.400   0.528   0.225
10191SOL    HW131472   5.447   0.610   0.193
10191SOL    HW231473   5.439   0.498   0.311
10192SOL     OW31474   2.162   1.027   4.638
10192SOL    HW131475   2.116   1.009   4.551
10192SOL    HW231476   2.147   1.122   4.665
10193SOL     OW31477   3.783   3.450   3.804
10193SOL    HW131478   3.845   3.511   3.853
10193SOL    HW231479   3.828   3.362   3.789
10194SOL     OW31480   3.052   0.475   3.174
10194SOL    HW131481   3.101   0.388   3.180
10194SOL    HW231482   3.049   0.519   3.264
10195SOL     OW31483   5.387   0.405   1.909
10195SOL    HW131484   5.422   0.313   1.922
10195SOL    HW231485   5.381   0.452   1.997
10196SOL     OW31486   5.184   3.664   4.465
10196SOL    HW131487   5.212   3.574   4.431
10196SOL    HW231488   5.085   3.664   4.480
10197SOL     OW31489   5.253   1.574   2.347
10197SOL    HW131490   5.260   1.663   2.393
10197SOL    HW231491   5.158   1.558   2.320
10198SOL     OW31492   2.835   0.838   1.735
10198SOL    HW131493   2.864   0.751   1.696
10198SOL    HW231494   2.844   0.910   1.667
10199SOL     OW31495   0.810   2.238   0.758
10199SOL    HW131496   0.738   2.172   0.777
10199SOL    HW231497   0.770   2.324   0.728
10200SOL     OW31498   6.118   5.537   5.520
10200SOL    HW131499   6.115   5.629   5.482
10200SOL    HW231500   6.177   5.480   5.464
10201SOL     OW31501   1.651   5.272   3.330
10201SOL    HW131502   1.654   5.262   3.429
10201SOL    HW231503   1.556   5.268   3.298
10202SOL     OW31504   0.643   2.525   3.001
10202SOL    HW131505   0.726   2.581   3.000
10202SOL    HW231506   0.584   2.556   3.075
10203SOL     OW31507   1.103   3.163   1.920
10203SOL    HW131508   1.121   3.139   2.015
10203SOL    HW231509   1.122   3.083   1.862
10204SOL     OW31510   3.101   4.925   3.992
10204SOL    HW131511   3.149   4.897   4.074
10204SOL    HW231512   3.023   4.983   4.017
10205SOL     OW31513   4.245   0.531   1.393
10205SOL    HW131514   4.156   0.567   1.421
10205SOL    HW231515   4.237   0.433   1.374
10206SOL     OW31516   4.962   0.390   6.176
10206SOL    HW131517   5.048   0.339   6.180
10206SOL    HW231518   4.890   0.330   6.142
10207SOL     OW31519   3.745   1.193   3.115
10207SOL    HW131520   3.757   1.289   3.140
10207SOL    HW231521   3.684   1.149   3.181
10208SOL     OW31522   6.460   4.118   5.432
10208SOL    HW131523   6.497   4.085   5.519
10208SOL    HW231524   6.449   4.217   5.436
10209SOL     OW31525   5.343   6.676   6.549
10209SOL    HW131526   5.382   6.692   6.640
10209SOL    HW231527   5.399   6.723   6.480
10210SOL     OW31528   5.438   5.992   0.690
10210SOL    HW131529   5.455   5.992   0.788
10210SOL    HW231530   5.525   5.992   0.641
10211SOL     OW31531   3.552   5.805   4.881
10211SOL    HW131532   3.527   5.759   4.966
10211SOL    HW231533   3.587   5.737   4.816
10212SOL     OW31534   5.957   6.175   5.470
10212SOL    HW131535   5.882   6.235   5.439
10212SOL    HW231536   6.029   6.175   5.401
10213SOL     OW31537   4.794   0.582   4.405
10213SOL    HW131538   4.890   0.557   4.389
10213SOL    HW231539   4.751   0.514   4.464
10214SOL     OW31540   7.018   1.454   1.362
10214SOL    HW131541   6.998   1.501   1.276
10214SOL    HW231542   6.941   1.466   1.425
10215SOL     OW31543   4.077   3.147   6.514
10215SOL    HW131544   4.030   3.130   6.600
10215SOL    HW231545   4.159   3.090   6.509
10216SOL     OW31546   4.872   0.186   2.511
10216SOL    HW131547   4.828   0.112   2.563
10216SOL    HW231548   4.803   0.251   2.482
10217SOL     OW31549   3.099   1.931   5.568
10217SOL    HW131550   3.198   1.916   5.575
10217SOL    HW231551   3.072   1.933   5.472
10218SOL     OW31552   2.818   2.287   0.105
10218SOL    HW131553   2.725   2.304   0.073
10218SOL    HW231554   2.868   2.373   0.108
10219SOL     OW31555   0.646   4.793   0.371
10219SOL    HW131556   0.639   4.714   0.432
10219SOL    HW231557   0.729   4.786   0.316
10220SOL     OW31558   4.244   2.862   0.164
10220SOL    HW131559   4.226   2.960   0.158
10220SOL    HW231560   4.266   2.838   0.259
10221SOL     OW31561   3.302   1.216   4.851
10221SOL    HW131562   3.350   1.301   4.831
10221SOL    HW231563   3.218   1.211   4.795
10222SOL     OW31564   1.838   5.225   5.621
10222SOL    HW131565   1.876   5.169   5.547
10222SOL    HW231566   1.829   5.169   5.703
10223SOL     OW31567   6.971   4.337   0.980
10223SOL    HW131568   0.012   4.398   0.933
10223SOL    HW231569   6.930   4.274   0.915
10224SOL     OW31570   2.517   0.442   5.021
10224SOL    HW131571   2.499   0.447   4.923
10224SOL    HW231572   2.572   0.361   5.040
10225SOL     OW31573   5.048   5.961   4.116
10225SOL    HW131574   5.014   5.888   4.174
10225SOL    HW231575   5.126   6.006   4.160
10226SOL     OW31576   0.173   2.908   0.309
10226SOL    HW131577   0.105   2.835   0.301
10226SOL    HW231578   0.143   2.974   0.378
10227SOL     OW31579   5.882   5.725   6.113
10227SOL    HW131580   5.806   5.778   6.074
10227SOL    HW231581   5.965   5.779   6.109
10228SOL     OW31582   1.245   4.244   3.011
10228SOL    HW131583   1.146   4.251   3.001
10228SOL    HW231584   1.278   4.316   3.071
10229SOL     OW31585   1.881   1.503   2.123
10229SOL    HW131586   1.793   1.474   2.084
10229SOL    HW231587   1.885   1.603   2.123
10230SOL     OW31588   6.370   6.348   4.923
10230SOL    HW131589   6.289   6.407   4.930
10230SOL    HW231590   6.453   6.405   4.929
10231SOL     OW31591   4.541   0.034   4.514
10231SOL    HW131592   4.635   0.009   4.490
10231SOL    HW231593   4.513   7.007   4.596
10232SOL     OW31594   3.941   2.186   4.101
10232SOL    HW131595   3.875   2.179   4.176
10232SOL    HW231596   3.900   2.154   4.017
10233SOL     OW31597   4.910   1.208   5.401
10233SOL    HW131598   4.907   1.123   5.348
10233SOL    HW231599   4.834   1.211   5.465
10234SOL     OW31600   4.738   5.919   1.792
10234SOL    HW131601   4.731   5.957   1.885
10234SOL    HW231602   4.667   5.959   1.734
10235SOL     OW31603   4.835   1.664   6.516
10235SOL    HW131604   4.742   1.629   6.503
10235SOL    HW231605   4.897   1.587   6.533
10236SOL     OW31606   2.123   5.936   1.679
10236SOL    HW131607   2.196   5.874   1.710
10236SOL    HW231608   2.136   5.957   1.583
10237SOL     OW31609   5.722   2.524   2.991
10237SOL    HW131610   5.648   2.580   2.953
10237SOL    HW231611   5.683   2.439   3.027
10238SOL     OW31612   4.648   5.759   4.245
10238SOL    HW131613   4.644   5.678   4.303
10238SOL    HW231614   4.556   5.781   4.211
10239SOL     OW31615   6.439   3.777   3.951
10239SOL    HW131616   6.526   3.764   3.998
10239SOL    HW231617   6.425   3.704   3.884
10240SOL     OW31618   5.817   3.778   3.734
10240SOL    HW131619   5.830   3.776   3.833
10240SOL    HW231620   5.824   3.685   3.698
10241SOL     OW31621   1.694   1.401   3.178
10241SOL    HW131622   1.596   1.389   3.166
10241SOL    HW231623   1.740   1.389   3.090
10242SOL     OW31624   0.743   6.318   6.358
10242SOL    HW131625   0.681   6.287   6.430
10242SOL    HW231626   0.837   6.320   6.392
10243SOL     OW31627   1.196   6.229   2.449
10243SOL    HW131628   1.109   6.194   2.414
10243SOL    HW231629   1.259   6.244   2.373
10244SOL     OW31630   1.413   6.151   0.073
10244SOL    HW131631   1.432   6.242   0.110
10244SOL    HW231632   1.498   6.107   0.046
10245SOL     OW31633   2.087   2.460   0.156
10245SOL    HW131634   2.112   2.374   0.111
10245SOL    HW231635   2.167   2.497   0.203
10246SOL     OW31636   3.139   3.744   4.041
10246SOL    HW131637   3.166   3.815   4.106
10246SOL    HW231638   3.218   3.718   3.985
10247SOL     OW31639   1.077   6.146   5.946
10247SOL    HW131640   1.170   6.158   5.981
10247SOL    HW231641   1.080   6.096   5.860
10248SOL     OW31642   4.529   0.978   2.749
10248SOL    HW131643   4.579   0.906   2.797
10248SOL    HW231644   4.588   1.057   2.735
10249SOL     OW31645   4.789   1.124   6.951
10249SOL    HW131646   4.734   1.205   6.975
10249SOL    HW231647   4.765   1.094   6.859
10250SOL     OW31648   5.277   0.081   0.461
10250SOL    HW131649   5.239   0.020   0.531
10250SOL    HW231650   5.203   0.114   0.402
10251SOL     OW31651   3.769   4.323   6.735
10251SOL    HW131652   3.789   4.388   6.809
10251SOL    HW231653   3.807   4.356   6.650
10252SOL     OW31654   6.078   5.217   2.214
10252SOL    HW131655   6.012   5.152   2.253
10252SOL    HW231656   6.053   5.310   2.241
10253SOL     OW31657   3.854   4.727   6.670
10253SOL    HW131658   3.908   4.766   6.744
10253SOL    HW231659   3.781   4.669   6.708
10254SOL     OW31660   1.984   1.553   4.228
10254SOL    HW131661   2.063   1.513   4.272
10254SOL    HW231662   1.932   1.608   4.294
10255SOL     OW31663   3.067   5.305   3.224
10255SOL    HW131664   2.978   5.281   3.263
10255SOL    HW231665   3.067   5.402   3.199
10256SOL     OW31666   6.073   6.557   6.835
10256SOL    HW131667   6.013   6.477   6.845
10256SOL    HW231668   6.018   6.636   6.807
10257SOL     OW31669   2.049   6.643   6.486
10257SOL    HW131670   2.144   6.673   6.480
10257SOL    HW231671   2.032   6.570   6.420
10258SOL     OW31672   4.278   0.119   3.476
10258SOL    HW131673   4.235   0.131   3.566
10258SOL    HW231674   4.297   0.022   3.460
10259SOL     OW31675   0.915   3.646   3.927
10259SOL    HW131676   0.901   3.581   4.002
10259SOL    HW231677   0.835   3.706   3.920
10260SOL     OW31678   0.217   6.450   1.218
10260SOL    HW131679   0.240   6.528   1.160
10260SOL    HW231680   0.210   6.367   1.162
10261SOL     OW31681   2.320   6.766   1.260
10261SOL    HW131682   2.255   6.832   1.222
10261SOL    HW231683   2.406   6.813   1.283
10262SOL     OW31684   0.864   5.600   5.098
10262SOL    HW131685   0.932   5.672   5.085
10262SOL    HW231686   0.881   5.553   5.184
10263SOL     OW31687   6.652   2.120   5.390
10263SOL    HW131688   6.675   2.032   5.347
10263SOL    HW231689   6.714   2.136   5.467
10264SOL     OW31690   0.531   6.653   6.932
10264SOL    HW131691   0.579   6.635   6.846
10264SOL    HW231692   0.493   6.567   6.967
10265SOL     OW31693   4.122   2.089   1.996
10265SOL    HW131694   4.081   2.115   1.908
10265SOL    HW231695   4.053   2.092   2.067
10266SOL     OW31696   4.157   4.160   6.078
10266SOL    HW131697   4.082   4.197   6.024
10266SOL    HW231698   4.123   4.134   6.169
10267SOL     OW31699   0.061   1.787   6.126
10267SOL    HW131700   0.126   1.809   6.198
10267SOL    HW231701   0.088   1.701   6.082
10268SOL     OW31702   6.370   4.444   1.882
10268SOL    HW131703   6.375   4.466   1.785
10268SOL    HW231704   6.274   4.449   1.912
10269SOL     OW31705   3.097   2.624   6.278
10269SOL    HW131706   3.084   2.696   6.210
10269SOL    HW231707   3.064   2.537   6.241
10270SOL     OW31708   3.262   6.586   1.219
10270SOL    HW131709   3.325   6.654   1.254
10270SOL    HW231710   3.220   6.619   1.135
10271SOL     OW31711   3.413   4.923   0.476
10271SOL    HW131712   3.439   4.878   0.561
10271SOL    HW231713   3.409   4.855   0.402
10272SOL     OW31714   1.023   1.041   5.417
10272SOL    HW131715   0.990   0.959   5.371
10272SOL    HW231716   1.056   1.107   5.349
10273SOL     OW31717   4.047   6.586   3.802
10273SOL    HW131718   4.105   6.505   3.808
10273SOL    HW231719   3.978   6.582   3.874
10274SOL     OW31720   2.113   5.719   6.298
10274SOL    HW131721   2.184   5.660   6.258
10274SOL    HW231722   2.094   5.794   6.236
10275SOL     OW31723   1.158   6.769   2.067
10275SOL    HW131724   1.067   6.801   2.091
10275SOL    HW231725   1.197   6.828   1.996
10276SOL     OW31726   6.690   6.601   0.069
10276SOL    HW131727   6.628   6.592   0.147
10276SOL    HW231728   6.663   6.536   7.021
10277SOL     OW31729   1.117   5.820   2.306
10277SOL    HW131730   1.063   5.789   2.384
10277SOL    HW231731   1.209   5.845   2.337
10278SOL     OW31732   6.417   0.351   6.498
10278SOL    HW131733   6.408   0.251   6.499
10278SOL    HW231734   6.343   0.391   6.553
10279SOL     OW31735   3.601   5.988   3.426
10279SOL    HW131736   3.599   5.904   3.373
10279SOL    HW231737   3.515   6.037   3.413
10280SOL     OW31738   3.392   2.694   6.269
10280SOL    HW131739   3.293   2.698   6.256
10280SOL    HW231740   3.439   2.728   6.188
10281SOL     OW31741   3.616   6.679   3.952
10281SOL    HW131742   3.545   6.733   3.995
10281SOL    HW231743   3.575   6.608   3.896
10282SOL     OW31744   1.287   2.647   4.909
10282SOL    HW131745   1.248   2.563   4.870
10282SOL    HW231746   1.340   2.695   4.839
10283SOL     OW31747   1.664   3.200   5.435
10283SOL    HW131748   1.638   3.137   5.363
10283SOL    HW231749   1.756   3.178   5.468
10284SOL     OW31750   5.570   3.036   6.413
10284SOL    HW131751   5.532   3.030   6.321
10284SOL    HW231752   5.496   3.049   6.479
10285SOL     OW31753   6.198   0.266   0.698
10285SOL    HW131754   6.297   0.252   0.694
10285SOL    HW231755   6.151   0.186   0.661
10286SOL     OW31756   4.420   0.647   4.094
10286SOL    HW131757   4.348   0.627   4.160
10286SOL    HW231758   4.466   0.733   4.119
10287SOL     OW31759   1.683   4.975   1.263
10287SOL    HW131760   1.679   4.881   1.229
10287SOL    HW231761   1.746   5.028   1.207
10288SOL     OW31762   4.920   6.416   4.009
10288SOL    HW131763   5.007   6.377   3.978
10288SOL    HW231764   4.938   6.482   4.082
10289SOL     OW31765   2.926   1.438   1.487
10289SOL    HW131766   2.834   1.450   1.449
10289SOL    HW231767   2.929   1.478   1.579
10290SOL     OW31768   2.897   3.622   2.159
10290SOL    HW131769   2.930   3.654   2.248
10290SOL    HW231770   2.861   3.530   2.168
10291SOL     OW31771   4.050   0.406   5.827
10291SOL    HW131772   4.017   0.314   5.852
10291SOL    HW231773   4.120   0.435   5.893
10292SOL     OW31774   6.902   0.719   4.677
10292SOL    HW131775   6.888   0.653   4.603
10292SOL    HW231776   6.826   0.784   4.679
10293SOL     OW31777   2.892   5.955   2.920
10293SOL    HW131778   2.885   5.875   2.861
10293SOL    HW231779   2.914   6.036   2.864
10294SOL     OW31780   5.878   1.829   2.955
10294SOL    HW131781   5.935   1.889   2.898
10294SOL    HW231782   5.911   1.735   2.947
10295SOL     OW31783   1.775   4.403   4.908
10295SOL    HW131784   1.752   4.393   5.005
10295SOL    HW231785   1.822   4.321   4.877
10296SOL     OW31786   6.494   2.529   0.635
10296SOL    HW131787   6.469   2.625   0.622
10296SOL    HW231788   6.493   2.507   0.732
10297SOL     OW31789   2.412   5.584   4.922
10297SOL    HW131790   2.320   5.571   4.886
10297SOL    HW231791   2.435   5.508   4.983
10298SOL     OW31792   5.621   4.010   3.276
10298SOL    HW131793   5.642   3.983   3.181
10298SOL    HW231794   5.586   3.931   3.326
10299SOL     OW31795   4.941   3.951   2.110
10299SOL    HW131796   4.896   3.950   2.199
10299SOL    HW231797   4.889   3.894   2.046
10300SOL     OW31798   2.118   5.247   2.241
10300SOL    HW131799   2.067   5.281   2.162
10300SOL    HW231800   2.208   5.290   2.243
10301SOL     OW31801   5.240   1.600   1.343
10301SOL    HW131802   5.178   1.523   1.330
10301SOL    HW231803   5.314   1.596   1.276
10302SOL     OW31804   1.299   5.348   3.547
10302SOL    HW131805   1.362   5.425   3.546
10302SOL    HW231806   1.313   5.293   3.465
10303SOL     OW31807   3.584   3.257   1.410
10303SOL    HW131808   3.636   3.250   1.325
10303SOL    HW231809   3.543   3.168   1.431
10304SOL     OW31810   6.139   6.547   3.950
10304SOL    HW131811   6.219   6.533   3.891
10304SOL    HW231812   6.169   6.565   4.043
10305SOL     OW31813   1.868   5.107   1.132
10305SOL    HW131814   1.956   5.101   1.085
10305SOL    HW231815   1.838   5.203   1.135
10306SOL     OW31816   4.267   4.663   0.384
10306SOL    HW131817   4.350   4.704   0.422
10306SOL    HW231818   4.189   4.688   0.441
10307SOL     OW31819   3.185   1.029   5.433
10307SOL    HW131820   3.156   1.051   5.526
10307SOL    HW231821   3.196   0.930   5.425
10308SOL     OW31822   3.001   5.512   3.785
10308SOL    HW131823   3.054   5.438   3.744
10308SOL    HW231824   2.904   5.500   3.764
10309SOL     OW31825   0.478   6.485   3.422
10309SOL    HW131826   0.465   6.408   3.483
10309SOL    HW231827   0.475   6.453   3.327
10310SOL     OW31828   3.166   3.443   4.592
10310SOL    HW131829   3.236   3.417   4.658
10310SOL    HW231830   3.079   3.400   4.616
10311SOL     OW31831   0.470   6.374   1.116
10311SOL    HW131832   0.483   6.349   1.020
10311SOL    HW231833   0.372   6.377   1.137
10312SOL     OW31834   2.379   4.213   0.871
10312SOL    HW131835   2.444   4.198   0.946
10312SOL    HW231836   2.298   4.260   0.905
10313SOL     OW31837   6.223   6.128   3.906
10313SOL    HW131838   6.137   6.107   3.954
10313SOL    HW231839   6.287   6.052   3.918
10314SOL     OW31840   6.490   4.980   5.625
10314SOL    HW131841   6.416   4.963   5.691
10314SOL    HW231842   6.455   5.039   5.552
10315SOL     OW31843   5.518   6.356   5.207
10315SOL    HW131844   5.542   6.449   5.237
10315SOL    HW231845   5.589   6.292   5.237
10316SOL     OW31846   0.139   3.899   2.985
10316SOL    HW131847   0.078   3.821   2.998
10316SOL    HW231848   0.224   3.884   3.036
10317SOL     OW31849   3.929   4.552   0.591
10317SOL    HW131850   3.846   4.592   0.629
10317SOL    HW231851   4.005   4.617   0.599
10318SOL     OW31852   6.600   5.675   2.183
10318SOL    HW131853   6.590   5.669   2.084
10318SOL    HW231854   6.510   5.688   2.225
10319SOL     OW31855   4.952   6.165   4.452
10319SOL    HW131856   4.909   6.191   4.365
10319SOL    HW231857   4.893   6.098   4.498
10320SOL     OW31858   4.472   6.290   1.593
10320SOL    HW131859   4.439   6.378   1.625
10320SOL    HW231860   4.568   6.298   1.566
10321SOL     OW31861   3.668   0.032   3.817
10321SOL    HW131862   3.759   7.015   3.803
10321SOL    HW231863   3.599   6.984   3.807
10322SOL     OW31864   6.991   2.693   0.283
10322SOL    HW131865   7.005   2.634   0.203
10322SOL    HW231866   7.005   2.640   0.366
10323SOL     OW31867   6.961   1.842   4.923
10323SOL    HW131868   6.920   1.916   4.975
10323SOL    HW231869   6.988   1.768   4.985
10324SOL     OW31870   3.156   3.071   3.775
10324SOL    HW131871   3.196   2.987   3.740
10324SOL    HW231872   3.207   3.150   3.739
10325SOL     OW31873   0.686   3.676   3.318
10325SOL    HW131874   0.661   3.655   3.413
10325SOL    HW231875   0.785   3.688   3.312
10326SOL     OW31876   4.675   1.354   1.222
10326SOL    HW131877   4.754   1.323   1.169
10326SOL    HW231878   4.660   1.452   1.204
10327SOL     OW31879   6.875   0.851   3.374
10327SOL    HW131880   6.853   0.937   3.421
10327SOL    HW231881   6.802   0.785   3.389
10328SOL     OW31882   6.050   3.181   2.429
10328SOL    HW131883   6.119   3.235   2.477
10328SOL    HW231884   5.995   3.130   2.496
10329SOL     OW31885   3.763   6.286   2.906
10329SOL    HW131886   3.850   6.317   2.944
10329SOL    HW231887   3.721   6.221   2.969
10330SOL     OW31888   3.469   4.131   1.335
10330SOL    HW131889   3.545   4.176   1.381
10330SOL    HW231890   3.501   4.047   1.291
10331SOL     OW31891   5.608   0.484   4.469
10331SOL    HW131892   5.512   0.485   4.442
10331SOL    HW231893   5.616   0.511   4.565
10332SOL     OW31894   0.403   1.639   0.294
10332SOL    HW131895   0.378   1.615   0.200
10332SOL    HW231896   0.362   1.572   0.357
10333SOL     OW31897   4.910   4.360   4.964
10333SOL    HW131898   4.959   4.326   5.044
10333SOL    HW231899   4.975   4.390   4.895
10334SOL     OW31900   1.078   5.208   5.016
10334SOL    HW131901   1.076   5.278   5.087
10334SOL    HW231902   1.124   5.245   4.935
10335SOL     OW31903   2.582   5.495   1.677
10335SOL    HW131904   2.530   5.555   1.617
10335SOL    HW231905   2.654   5.449   1.624
10336SOL     OW31906   4.266   6.248   2.994
10336SOL    HW131907   4.305   6.181   3.057
10336SOL    HW231908   4.329   6.325   2.984
10337SOL     OW31909   1.275   4.862   5.083
10337SOL    HW131910   1.198   4.910   5.041
10337SOL    HW231911   1.255   4.848   5.180
10338SOL     OW31912   3.436   4.861   3.018
10338SOL    HW131913   3.469   4.948   3.055
10338SOL    HW231914   3.413   4.873   2.921
10339SOL     OW31915   3.331   5.346   0.276
10339SOL    HW131916   3.256   5.381   0.219
10339SOL    HW231917   3.297   5.270   0.332
10340SOL     OW31918   2.076   6.736   0.090
10340SOL    HW131919   2.130   6.656   0.118
10340SOL    HW231920   2.107   6.766   7.022
10341SOL     OW31921   1.037   2.482   2.348
10341SOL    HW131922   0.976   2.412   2.384
10341SOL    HW231923   1.071   2.538   2.424
10342SOL     OW31924   2.900   6.426   3.446
10342SOL    HW131925   2.995   6.454   3.459
10342SOL    HW231926   2.881   6.415   3.349
10343SOL     OW31927   2.232   2.973   3.629
10343SOL    HW131928   2.134   2.954   3.628
10343SOL    HW231929   2.259   2.998   3.722
10344SOL     OW31930   4.282   3.878   0.699
10344SOL    HW131931   4.289   3.884   0.799
10344SOL    HW231932   4.370   3.848   0.661
10345SOL     OW31933   1.722   1.468   5.708
10345SOL    HW131934   1.726   1.372   5.734
10345SOL    HW231935   1.626   1.496   5.701
10346SOL     OW31936   5.702   4.849   0.705
10346SOL    HW131937   5.658   4.829   0.617
10346SOL    HW231938   5.761   4.773   0.731
10347SOL     OW31939   5.006   0.768   1.903
10347SOL    HW131940   5.019   0.689   1.843
10347SOL    HW231941   4.919   0.759   1.951
10348SOL     OW31942   6.693   4.767   6.020
10348SOL    HW131943   6.730   4.717   6.098
10348SOL    HW231944   6.739   4.856   6.014
10349SOL     OW31945   6.725   2.108   0.992
10349SOL    HW131946   6.753   2.188   0.940
10349SOL    HW231947   6.726   2.129   1.090
10350SOL     OW31948   2.045   4.601   4.806
10350SOL    HW131949   2.125   4.556   4.765
10350SOL    HW231950   1.967   4.594   4.743
10351SOL     OW31951   4.301   4.699   4.220
10351SOL    HW131952   4.226   4.687   4.155
10351SOL    HW231953   4.273   4.761   4.292
10352SOL     OW31954   6.435   1.085   6.806
10352SOL    HW131955   6.376   1.142   6.750
10352SOL    HW231956   6.450   1.129   6.895
10353SOL     OW31957   6.175   2.790   3.544
10353SOL    HW131958   6.116   2.720   3.583
10353SOL    HW231959   6.149   2.807   3.449
10354SOL     OW31960   6.333   2.716   1.528
10354SOL    HW131961   6.313   2.620   1.504
10354SOL    HW231962   6.261   2.775   1.490
10355SOL     OW31963   0.826   1.596   0.802
10355SOL    HW131964   0.909   1.637   0.839
10355SOL    HW231965   0.819   1.616   0.704
10356SOL     OW31966   5.950   3.202   5.519
10356SOL    HW131967   5.881   3.265   5.485
10356SOL    HW231968   5.935   3.185   5.617
10357SOL     OW31969   1.484   0.649   5.939
10357SOL    HW131970   1.523   0.597   5.863
10357SOL    HW231971   1.428   0.589   5.996
10358SOL     OW31972   0.469   3.149   3.199
10358SOL    HW131973   0.472   3.177   3.103
10358SOL    HW231974   0.558   3.167   3.242
10359SOL     OW31975   6.647   2.193   2.303
10359SOL    HW131976   6.568   2.235   2.259
10359SOL    HW231977   6.687   2.258   2.368
10360SOL     OW31978   5.595   4.225   1.313
10360SOL    HW131979   5.677   4.240   1.367
10360SOL    HW231980   5.519   4.201   1.374
10361SOL     OW31981   6.377   2.359   2.474
10361SOL    HW131982   6.392   2.268   2.510
10361SOL    HW231983   6.294   2.397   2.514
10362SOL     OW31984   1.290   6.333   1.575
10362SOL    HW131985   1.350   6.276   1.631
10362SOL    HW231986   1.319   6.328   1.480
10363SOL     OW31987   5.412   4.240   6.342
10363SOL    HW131988   5.335   4.302   6.331
10363SOL    HW231989   5.435   4.232   6.440
10364SOL     OW31990   5.844   4.792   2.400
10364SOL    HW131991   5.755   4.746   2.390
10364SOL    HW231992   5.914   4.724   2.422
10365SOL     OW31993   6.123   5.114   0.734
10365SOL    HW131994   6.215   5.080   0.753
10365SOL    HW231995   6.085   5.067   0.655
10366SOL     OW31996   3.346   6.109   3.374
10366SOL    HW131997   3.300   6.109   3.286
10366SOL    HW231998   3.288   6.063   3.442
10367SOL     OW31999   5.368   6.253   1.707
10367SOL    HW132000   5.452   6.200   1.708
10367SOL    HW232001   5.316   6.232   1.624
10368SOL     OW32002   2.129   6.283   1.506
10368SOL    HW132003   2.106   6.188   1.484
10368SOL    HW232004   2.067   6.344   1.456
10369SOL     OW32005   2.543   6.888   6.064
10369SOL    HW132006   2.516   6.804   6.018
10369SOL    HW232007   2.584   6.951   5.997
10370SOL     OW32008   1.518   1.090   5.107
10370SOL    HW132009   1.546   1.145   5.185
10370SOL    HW232010   1.598   1.053   5.061
10371SOL     OW32011   4.526   5.306   2.663
10371SOL    HW132012   4.443   5.278   2.616
10371SOL    HW232013   4.554   5.235   2.727
10372SOL     OW32014   2.274   6.558   1.069
10372SOL    HW132015   2.286   6.644   1.120
10372SOL    HW232016   2.247   6.579   0.975
10373SOL     OW32017   6.498   1.702   6.090
10373SOL    HW132018   6.594   1.675   6.082
10373SOL    HW232019   6.445   1.662   6.014
10374SOL     OW32020   3.225   5.382   3.460
10374SOL    HW132021   3.140   5.342   3.424
10374SOL    HW232022   3.302   5.356   3.401
10375SOL     OW32023   2.829   4.861   0.462
10375SOL    HW132024   2.753   4.843   0.524
10375SOL    HW232025   2.851   4.959   0.462
10376SOL     OW32026   2.008   5.048   4.455
10376SOL    HW132027   2.043   4.955   4.445
10376SOL    HW232028   2.077   5.104   4.500
10377SOL     OW32029   1.680   0.829   2.609
10377SOL    HW132030   1.670   0.834   2.708
10377SOL    HW232031   1.697   0.921   2.572
10378SOL     OW32032   0.225   5.474   3.924
10378SOL    HW132033   0.293   5.441   3.859
10378SOL    HW232034   0.185   5.396   3.972
10379SOL     OW32035   1.927   0.296   4.264
10379SOL    HW132036   1.897   0.231   4.334
10379SOL    HW232037   1.848   0.337   4.219
10380SOL     OW32038   3.007   2.143   4.256
10380SOL    HW132039   2.922   2.121   4.304
10380SOL    HW232040   2.986   2.169   4.161
10381SOL     OW32041   4.183   6.336   2.296
10381SOL    HW132042   4.144   6.384   2.218
10381SOL    HW232043   4.192   6.239   2.274
10382SOL     OW32044   4.022   5.528   1.207
10382SOL    HW132045   4.059   5.476   1.130
10382SOL    HW232046   4.047   5.625   1.197
10383SOL     OW32047   1.104   5.009   0.443
10383SOL    HW132048   1.193   5.046   0.469
10383SOL    HW232049   1.115   4.944   0.368
10384SOL     OW32050   5.381   5.806   1.172
10384SOL    HW132051   5.353   5.711   1.164
10384SOL    HW232052   5.435   5.818   1.256
10385SOL     OW32053   4.397   4.385   0.418
10385SOL    HW132054   4.317   4.354   0.469
10385SOL    HW232055   4.368   4.438   0.339
10386SOL     OW32056   7.003   1.033   0.819
10386SOL    HW132057   0.024   0.991   0.739
10386SOL    HW232058   0.050   1.079   0.874
10387SOL     OW32059   5.304   3.442   1.669
10387SOL    HW132060   5.321   3.507   1.594
10387SOL    HW232061   5.355   3.471   1.750
10388SOL     OW32062   2.100   6.742   5.273
10388SOL    HW132063   2.110   6.792   5.359
10388SOL    HW232064   2.140   6.797   5.199
10389SOL     OW32065   0.554   4.220   6.915
10389SOL    HW132066   0.571   4.285   6.989
10389SOL    HW232067   0.457   4.220   6.891
10390SOL     OW32068   2.484   2.379   2.105
10390SOL    HW132069   2.505   2.333   2.019
10390SOL    HW232070   2.559   2.367   2.169
10391SOL     OW32071   5.579   6.771   4.171
10391SOL    HW132072   5.654   6.837   4.175
10391SOL    HW232073   5.498   6.814   4.133
10392SOL     OW32074   6.417   3.661   4.318
10392SOL    HW132075   6.480   3.688   4.246
10392SOL    HW232076   6.367   3.742   4.351
10393SOL     OW32077   1.463   3.583   4.000
10393SOL    HW132078   1.463   3.680   4.025
10393SOL    HW232079   1.555   3.555   3.974
10394SOL     OW32080   3.131   0.448   4.127
10394SOL    HW132081   3.223   0.485   4.112
10394SOL    HW232082   3.091   0.489   4.209
10395SOL     OW32083   1.272   0.607   0.812
10395SOL    HW132084   1.181   0.618   0.772
10395SOL    HW232085   1.316   0.526   0.773
10396SOL     OW32086   2.992   2.237   4.605
10396SOL    HW132087   2.952   2.281   4.525
10396SOL    HW232088   2.929   2.168   4.641
10397SOL     OW32089   4.280   2.004   3.590
10397SOL    HW132090   4.204   1.943   3.609
10397SOL    HW232091   4.268   2.090   3.641
10398SOL     OW32092   6.151   3.093   1.487
10398SOL    HW132093   6.061   3.133   1.469
10398SOL    HW232094   6.150   2.996   1.464
10399SOL     OW32095   1.129   4.235   1.813
10399SOL    HW132096   1.155   4.184   1.895
10399SOL    HW232097   1.184   4.204   1.736
10400SOL     OW32098   3.510   5.788   0.507
10400SOL    HW132099   3.549   5.789   0.598
10400SOL    HW232100   3.466   5.699   0.491
10401SOL     OW32101   0.617   1.476   5.790
10401SOL    HW132102   0.624   1.382   5.759
10401SOL    HW232103   0.576   1.478   5.882
10402SOL     OW32104   0.307   2.631   5.083
10402SOL    HW132105   0.364   2.661   5.160
10402SOL    HW232106   0.277   2.537   5.099
10403SOL     OW32107   3.345   0.739   1.603
10403SOL    HW132108   3.333   0.713   1.699
10403SOL    HW232109   3.434   0.784   1.592
10404SOL     OW32110   0.097   6.646   6.361
10404SOL    HW132111   0.071   6.624   6.455
10404SOL    HW232112   0.123   6.742   6.355
10405SOL     OW32113   0.406   2.307   6.347
10405SOL    HW132114   0.349   2.389   6.335
10405SOL    HW232115   0.443   2.279   6.258
10406SOL     OW32116   2.687   4.989   1.379
10406SOL    HW132117   2.694   5.079   1.421
10406SOL    HW232118   2.665   4.999   1.282
10407SOL     OW32119   2.549   6.975   6.920
10407SOL    HW132120   2.527   6.973   7.018
10407SOL    HW232121   2.515   0.038   6.880
10408SOL     OW32122   4.152   1.549   6.956
10408SOL    HW132123   4.147   1.630   7.014
10408SOL    HW232124   4.246   1.537   6.924
10409SOL     OW32125   6.279   4.538   1.406
10409SOL    HW132126   6.192   4.494   1.427
10409SOL    HW232127   6.334   4.545   1.490
10410SOL     OW32128   5.864   0.210   0.821
10410SOL    HW132129   5.865   0.214   0.721
10410SOL    HW232130   5.814   0.128   0.849
10411SOL     OW32131   2.349   5.628   3.448
10411SOL    HW132132   2.318   5.638   3.543
10411SOL    HW232133   2.299   5.553   3.405
10412SOL     OW32134   6.612   0.520   0.686
10412SOL    HW132135   6.615   0.577   0.604
10412SOL    HW232136   6.544   0.448   0.674
10413SOL     OW32137   6.984   2.669   1.335
10413SOL    HW132138   6.942   2.745   1.385
10413SOL    HW232139   0.055   2.655   1.368
10414SOL     OW32140   4.571   2.615   4.274
10414SOL    HW132141   4.620   2.696   4.306
10414SOL    HW232142   4.590   2.601   4.176
10415SOL     OW32143   0.678   6.163   6.143
10415SOL    HW132144   0.693   6.232   6.213
10415SOL    HW232145   0.638   6.081   6.184
10416SOL     OW32146   5.749   2.477   4.171
10416SOL    HW132147   5.698   2.547   4.120
10416SOL    HW232148   5.686   2.412   4.211
10417SOL     OW32149   2.647   4.854   4.241
10417SOL    HW132150   2.691   4.799   4.312
10417SOL    HW232151   2.596   4.794   4.179
10418SOL     OW32152   0.695   4.847   5.546
10418SOL    HW132153   0.782   4.861   5.499
10418SOL    HW232154   0.711   4.822   5.641
10419SOL     OW32155   1.322   1.212   0.864
10419SOL    HW132156   1.376   1.294   0.882
10419SOL    HW232157   1.353   1.138   0.923
10420SOL     OW32158   0.214   3.271   3.801
10420SOL    HW132159   0.170   3.328   3.731
10420SOL    HW232160   0.273   3.204   3.756
10421SOL     OW32161   0.334   0.908   2.702
10421SOL    HW132162   0.298   0.875   2.790
10421SOL    HW232163   0.259   0.939   2.644
10422SOL     OW32164   6.235   3.203   6.316
10422SOL    HW132165   6.260   3.119   6.363
10422SOL    HW232166   6.136   3.204   6.301
10423SOL     OW32167   5.358   4.476   3.196
10423SOL    HW132168   5.414   4.398   3.223
10423SOL    HW232169   5.307   4.509   3.276
10424SOL     OW32170   4.933   1.921   6.510
10424SOL    HW132171   4.893   2.010   6.487
10424SOL    HW232172   4.860   1.853   6.520
10425SOL     OW32173   2.074   6.503   2.184
10425SOL    HW132174   2.095   6.541   2.094
10425SOL    HW232175   2.012   6.425   2.174
10426SOL     OW32176   6.624   4.334   6.671
10426SOL    HW132177   6.709   4.383   6.653
10426SOL    HW232178   6.643   4.236   6.677
10427SOL     OW32179   5.083   1.713   6.930
10427SOL    HW132180   5.001   1.756   6.893
10427SOL    HW232181   5.129   1.776   6.992
10428SOL     OW32182   4.618   0.475   4.097
10428SOL    HW132183   4.535   0.530   4.093
10428SOL    HW232184   4.610   0.407   4.170
10429SOL     OW32185   6.334   5.828   1.787
10429SOL    HW132186   6.396   5.906   1.783
10429SOL    HW232187   6.279   5.825   1.704
10430SOL     OW32188   4.048   6.588   2.413
10430SOL    HW132189   4.123   6.522   2.416
10430SOL    HW232190   4.081   6.674   2.374
10431SOL     OW32191   2.726   0.874   4.791
10431SOL    HW132192   2.738   0.777   4.771
10431SOL    HW232193   2.816   0.916   4.809
10432SOL     OW32194   5.979   0.626   5.605
10432SOL    HW132195   5.880   0.631   5.588
10432SOL    HW232196   6.011   0.533   5.585
10433SOL     OW32197   2.312   6.577   0.340
10433SOL    HW132198   2.237   6.516   0.316
10433SOL    HW232199   2.398   6.526   0.338
10434SOL     OW32200   1.975   1.098   3.784
10434SOL    HW132201   1.895   1.050   3.751
10434SOL    HW232202   2.055   1.070   3.731
10435SOL     OW32203   5.024   6.531   6.791
10435SOL    HW132204   5.113   6.513   6.833
10435SOL    HW232205   5.037   6.581   6.705
10436SOL     OW32206   1.372   5.768   3.034
10436SOL    HW132207   1.462   5.788   2.996
10436SOL    HW232208   1.379   5.763   3.134
10437SOL     OW32209   6.911   4.953   6.242
10437SOL    HW132210   6.898   4.854   6.255
10437SOL    HW232211   6.884   5.001   6.325
10438SOL     OW32212   3.973   6.235   6.993
10438SOL    HW132213   4.043   6.265   0.034
10438SOL    HW232214   3.898   6.192   0.021
10439SOL     OW32215   3.935   6.907   5.948
10439SOL    HW132216   3.889   6.986   5.989
10439SOL    HW232217   3.960   6.842   6.020
10440SOL     OW32218   2.166   5.485   0.652
10440SOL    HW132219   2.110   5.494   0.734
10440SOL    HW232220   2.260   5.465   0.679
10441SOL     OW32221   5.183   1.858   6.659
10441SOL    HW132222   5.179   1.776   6.716
10441SOL    HW232223   5.095   1.870   6.613
10442SOL     OW32224   4.004   5.286   5.753
10442SOL    HW132225   4.000   5.217   5.680
10442SOL    HW232226   4.058   5.364   5.722
10443SOL     OW32227   6.117   2.756   5.018
10443SOL    HW132228   6.173   2.793   5.092
10443SOL    HW232229   6.071   2.831   4.970
10444SOL     OW32230   3.971   5.187   3.954
10444SOL    HW132231   3.913   5.218   3.879
10444SOL    HW232232   4.060   5.158   3.918
10445SOL     OW32233   6.580   6.214   5.050
10445SOL    HW132234   6.547   6.139   5.108
10445SOL    HW232235   6.510   6.237   4.982
10446SOL     OW32236   1.195   5.385   6.502
10446SOL    HW132237   1.155   5.315   6.561
10446SOL    HW232238   1.139   5.395   6.420
10447SOL     OW32239   6.065   2.485   1.627
10447SOL    HW132240   6.123   2.494   1.546
10447SOL    HW232241   5.973   2.517   1.605
10448SOL     OW32242   3.879   4.009   2.797
10448SOL    HW132243   3.793   4.049   2.766
10448SOL    HW232244   3.892   4.030   2.894
10449SOL     OW32245   2.149   5.464   4.040
10449SOL    HW132246   2.233   5.455   4.094
10449SOL    HW232247   2.086   5.390   4.064
10450SOL     OW32248   6.688   2.540   0.934
10450SOL    HW132249   6.681   2.626   0.884
10450SOL    HW232250   6.674   2.556   1.031
10451SOL     OW32251   2.268   4.182   3.149
10451SOL    HW132252   2.248   4.104   3.089
10451SOL    HW232253   2.338   4.239   3.107
10452SOL     OW32254   0.788   2.977   4.794
10452SOL    HW132255   0.705   2.931   4.764
10452SOL    HW232256   0.772   3.020   4.883
10453SOL     OW32257   4.808   0.060   1.805
10453SOL    HW132258   4.784   0.029   1.713
10453SOL    HW232259   4.907   0.060   1.816
10454SOL     OW32260   4.905   3.533   2.307
10454SOL    HW132261   4.842   3.478   2.252
10454SOL    HW232262   4.960   3.590   2.246
10455SOL     OW32263   6.724   4.830   3.538
10455SOL    HW132264   6.652   4.885   3.497
10455SOL    HW232265   6.734   4.855   3.634
10456SOL     OW32266   4.315   6.096   0.773
10456SOL    HW132267   4.339   5.999   0.772
10456SOL    HW232268   4.335   6.135   0.863
10457SOL     OW32269   3.945   3.896   4.215
10457SOL    HW132270   4.022   3.835   4.195
10457SOL    HW232271   3.891   3.858   4.290
10458SOL     OW32272   0.778   6.959   1.202
10458SOL    HW132273   0.788   6.901   1.284
10458SOL    HW232274   0.796   6.904   1.121
10459SOL     OW32275   6.604   5.294   2.507
10459SOL    HW132276   6.511   5.331   2.511
10459SOL    HW232277   6.620   5.254   2.416
10460SOL     OW32278   1.905   5.356   2.399
10460SOL    HW132279   1.964   5.321   2.326
10460SOL    HW232280   1.947   5.436   2.440
10461SOL     OW32281   2.735   2.033   6.789
10461SOL    HW132282   2.738   2.004   6.885
10461SOL    HW232283   2.672   1.973   6.739
10462SOL     OW32284   6.801   0.014   1.178
10462SOL    HW132285   6.863   6.973   1.132
10462SOL    HW232286   6.731   0.044   1.114
10463SOL     OW32287   2.989   3.918   0.735
10463SOL    HW132288   2.917   3.899   0.801
10463SOL    HW232289   2.948   3.952   0.650
10464SOL     OW32290   5.303   0.388   1.456
10464SOL    HW132291   5.337   0.300   1.423
10464SOL    HW232292   5.258   0.436   1.381
10465SOL     OW32293   6.107   4.864   6.280
10465SOL    HW132294   6.189   4.884   6.334
10465SOL    HW232295   6.093   4.765   6.276
10466SOL     OW32296   5.062   5.784   6.033
10466SOL    HW132297   5.065   5.686   6.050
10466SOL    HW232298   5.103   5.804   5.944
10467SOL     OW32299   3.816   0.587   4.151
10467SOL    HW132300   3.861   0.629   4.230
10467SOL    HW232301   3.733   0.639   4.128
10468SOL     OW32302   3.722   5.846   2.790
10468SOL    HW132303   3.799   5.838   2.853
10468SOL    HW232304   3.750   5.899   2.709
10469SOL     OW32305   1.479   4.767   0.590
10469SOL    HW132306   1.534   4.702   0.538
10469SOL    HW232307   1.489   4.858   0.551
10470SOL     OW32308   2.940   1.757   4.234
10470SOL    HW132309   2.932   1.792   4.327
10470SOL    HW232310   2.850   1.753   4.192
10471SOL     OW32311   3.860   3.565   0.585
10471SOL    HW132312   3.852   3.657   0.623
10471SOL    HW232313   3.954   3.532   0.594
10472SOL     OW32314   4.408   0.875   2.518
10472SOL    HW132315   4.438   0.907   2.607
10472SOL    HW232316   4.466   0.913   2.446
10473SOL     OW32317   4.691   5.937   0.520
10473SOL    HW132318   4.723   5.848   0.490
10473SOL    HW232319   4.663   5.932   0.616
10474SOL     OW32320   4.303   0.192   4.704
10474SOL    HW132321   4.211   0.225   4.728
10474SOL    HW232322   4.330   0.230   4.616
10475SOL     OW32323   4.015   6.188   1.469
10475SOL    HW132324   4.103   6.141   1.480
10475SOL    HW232325   3.966   6.188   1.556
10476SOL     OW32326   0.004   4.670   0.830
10476SOL    HW132327   0.068   4.671   0.753
10476SOL    HW232328   0.001   4.760   0.872
10477SOL     OW32329   5.660   4.497   5.035
10477SOL    HW132330   5.630   4.531   4.946
10477SOL    HW232331   5.730   4.427   5.022
10478SOL     OW32332   0.659   6.574   1.425
10478SOL    HW132333   0.687   6.478   1.433
10478SOL    HW232334   0.715   6.630   1.487
10479SOL     OW32335   1.530   4.929   3.544
10479SOL    HW132336   1.448   4.986   3.542
10479SOL    HW232337   1.503   4.833   3.554
10480SOL     OW32338   6.053   6.777   2.179
10480SOL    HW132339   6.140   6.814   2.147
10480SOL    HW232340   6.015   6.717   2.108
10481SOL     OW32341   2.408   0.598   4.785
10481SOL    HW132342   2.476   0.659   4.827
10481SOL    HW232343   2.325   0.598   4.842
10482SOL     OW32344   1.102   5.334   6.228
10482SOL    HW132345   1.184   5.347   6.172
10482SOL    HW232346   1.031   5.397   6.197
10483SOL     OW32347   0.109   5.371   1.075
10483SOL    HW132348   0.040   5.299   1.083
10483SOL    HW232349   0.066   5.456   1.046
10484SOL     OW32350   6.239   1.978   1.577
10484SOL    HW132351   6.163   2.013   1.522
10484SOL    HW232352   6.203   1.913   1.644
10485SOL     OW32353   3.760   3.775   3.877
10485SOL    HW132354   3.708   3.743   3.798
10485SOL    HW232355   3.725   3.732   3.960
10486SOL     OW32356   6.018   5.923   5.585
10486SOL    HW132357   6.038   5.858   5.512
10486SOL    HW232358   5.975   6.005   5.547
10487SOL     OW32359   4.567   2.176   2.098
10487SOL    HW132360   4.498   2.219   2.156
10487SOL    HW232361   4.532   2.090   2.061
10488SOL     OW32362   6.506   2.527   5.266
10488SOL    HW132363   6.511   2.544   5.168
10488SOL    HW232364   6.590   2.559   5.311
10489SOL     OW32365   5.859   4.155   4.476
10489SOL    HW132366   5.782   4.167   4.413
10489SOL    HW232367   5.920   4.085   4.440
10490SOL     OW32368   5.866   6.359   6.860
10490SOL    HW132369   5.825   6.418   6.790
10490SOL    HW232370   5.827   6.267   6.853
10491SOL     OW32371   1.957   2.582   5.710
10491SOL    HW132372   1.983   2.509   5.647
10491SOL    HW232373   1.949   2.668   5.659
10492SOL     OW32374   3.642   6.911   6.731
10492SOL    HW132375   3.693   6.898   6.816
10492SOL    HW232376   3.694   6.871   6.655
10493SOL     OW32377   3.577   5.467   1.403
10493SOL    HW132378   3.540   5.402   1.469
10493SOL    HW232379   3.677   5.460   1.402
10494SOL     OW32380   1.348   4.385   4.861
10494SOL    HW132381   1.270   4.447   4.857
10494SOL    HW232382   1.404   4.396   4.779
10495SOL     OW32383   6.572   6.844   1.023
10495SOL    HW132384   6.493   6.784   1.033
10495SOL    HW232385   6.655   6.792   1.040
10496SOL     OW32386   0.749   3.151   6.040
10496SOL    HW132387   0.691   3.183   6.115
10496SOL    HW232388   0.827   3.213   6.030
10497SOL     OW32389   2.060   0.221   1.494
10497SOL    HW132390   2.128   0.160   1.536
10497SOL    HW232391   2.011   0.270   1.566
10498SOL     OW32392   4.916   4.371   0.206
10498SOL    HW132393   4.898   4.360   0.108
10498SOL    HW232394   4.897   4.284   0.253
10499SOL     OW32395   6.195   4.242   2.476
10499SOL    HW132396   6.275   4.298   2.496
10499SOL    HW232397   6.223   4.147   2.464
10500SOL     OW32398   0.897   3.325   5.590
10500SOL    HW132399   0.956   3.335   5.509
10500SOL    HW232400   0.864   3.415   5.618
10501SOL     OW32401   4.008   4.893   3.083
10501SOL    HW132402   4.051   4.885   3.173
10501SOL    HW232403   3.912   4.864   3.090
10502SOL     OW32404   3.269   3.723   2.489
10502SOL    HW132405   3.267   3.624   2.504
10502SOL    HW232406   3.342   3.746   2.425
10503SOL     OW32407   0.094   2.514   6.145
10503SOL    HW132408   0.095   2.573   6.064
10503SOL    HW232409   0.127   2.423   6.120
10504SOL     OW32410   0.962   3.056   5.687
10504SOL    HW132411   0.893   2.991   5.718
10504SOL    HW232412   0.919   3.143   5.665
10505SOL     OW32413   5.928   6.921   1.111
10505SOL    HW132414   5.969   6.972   1.035
10505SOL    HW232415   5.860   6.857   1.076
10506SOL     OW32416   1.366   2.829   6.594
10506SOL    HW132417   1.313   2.889   6.653
10506SOL    HW232418   1.372   2.738   6.636
10507SOL     OW32419   0.978   5.221   5.883
10507SOL    HW132420   0.897   5.242   5.938
10507SOL    HW232421   1.025   5.142   5.921
10508SOL     OW32422   1.930   5.158   5.368
10508SOL    HW132423   1.940   5.103   5.285
10508SOL    HW232424   1.938   5.255   5.345
10509SOL     OW32425   4.627   2.505   2.169
10509SOL    HW132426   4.604   2.557   2.251
10509SOL    HW232427   4.632   2.408   2.191
10510SOL     OW32428   5.650   6.210   3.970
10510SOL    HW132429   5.700   6.124   3.966
10510SOL    HW232430   5.577   6.204   4.038
10511SOL     OW32431   4.800   2.017   1.705
10511SOL    HW132432   4.739   1.949   1.746
10511SOL    HW232433   4.745   2.085   1.657
10512SOL     OW32434   4.515   0.833   5.130
10512SOL    HW132435   4.513   0.908   5.196
10512SOL    HW232436   4.525   0.869   5.038
10513SOL     OW32437   4.281   2.880   0.786
10513SOL    HW132438   4.369   2.892   0.740
10513SOL    HW232439   4.297   2.859   0.882
10514SOL     OW32440   1.572   3.372   1.792
10514SOL    HW132441   1.485   3.419   1.778
10514SOL    HW232442   1.620   3.363   1.705
10515SOL     OW32443   2.332   2.801   4.852
10515SOL    HW132444   2.379   2.714   4.855
10515SOL    HW232445   2.358   2.856   4.931
10516SOL     OW32446   4.217   2.186   1.317
10516SOL    HW132447   4.213   2.253   1.391
10516SOL    HW232448   4.156   2.110   1.338
10517SOL     OW32449   0.932   2.796   2.383
10517SOL    HW132450   0.923   2.824   2.287
10517SOL    HW232451   0.892   2.705   2.395
10518SOL     OW32452   0.478   5.426   2.829
10518SOL    HW132453   0.506   5.413   2.734
10518SOL    HW232454   0.547   5.386   2.890
10519SOL     OW32455   3.832   6.800   0.829
10519SOL    HW132456   3.869   6.822   0.739
10519SOL    HW232457   3.799   6.883   0.873
10520SOL     OW32458   0.982   2.724   5.729
10520SOL    HW132459   0.897   2.698   5.684
10520SOL    HW232460   1.045   2.761   5.661
10521SOL     OW32461   6.425   3.173   2.760
10521SOL    HW132462   6.405   3.120   2.842
10521SOL    HW232463   6.510   3.139   2.718
10522SOL     OW32464   5.235   2.130   3.927
10522SOL    HW132465   5.168   2.180   3.871
10522SOL    HW232466   5.314   2.190   3.945
10523SOL     OW32467   1.205   4.507   3.401
10523SOL    HW132468   1.159   4.442   3.462
10523SOL    HW232469   1.138   4.568   3.360
10524SOL     OW32470   0.091   6.378   5.463
10524SOL    HW132471   0.011   6.383   5.404
10524SOL    HW232472   0.166   6.333   5.414
10525SOL     OW32473   5.061   1.169   3.513
10525SOL    HW132474   5.037   1.190   3.607
10525SOL    HW232475   5.081   1.071   3.504
10526SOL     OW32476   0.676   4.642   7.013
10526SOL    HW132477   0.773   4.640   0.016
10526SOL    HW232478   0.657   4.726   6.963
10527SOL     OW32479   0.633   6.946   5.425
10527SOL    HW132480   0.726   6.927   5.456
10527SOL    HW232481   0.574   6.869   5.446
10528SOL     OW32482   1.272   3.483   5.633
10528SOL    HW132483   1.260   3.576   5.599
10528SOL    HW232484   1.368   3.456   5.626
10529SOL     OW32485   6.894   5.681   0.593
10529SOL    HW132486   6.984   5.723   0.608
10529SOL    HW232487   6.884   5.658   0.496
10530SOL     OW32488   6.909   6.179   1.379
10530SOL    HW132489   6.870   6.256   1.330
10530SOL    HW232490   6.960   6.212   1.458
10531SOL     OW32491   2.974   2.968   5.438
10531SOL    HW132492   2.898   2.948   5.376
10531SOL    HW232493   2.943   2.953   5.533
10532SOL     OW32494   5.085   6.124   0.020
10532SOL    HW132495   5.077   6.206   0.075
10532SOL    HW232496   5.090   6.149   6.946
10533SOL     OW32497   4.199   0.079   3.116
10533SOL    HW132498   4.160   7.020   3.072
10533SOL    HW232499   4.270   0.051   3.180
10534SOL     OW32500   1.320   5.730   4.303
10534SOL    HW132501   1.299   5.637   4.273
10534SOL    HW232502   1.413   5.754   4.275
10535SOL     OW32503   3.434   2.101   2.578
10535SOL    HW132504   3.473   2.020   2.536
10535SOL    HW232505   3.506   2.151   2.627
10536SOL     OW32506   4.856   3.086   4.725
10536SOL    HW132507   4.867   3.181   4.696
10536SOL    HW232508   4.873   3.080   4.824
10537SOL     OW32509   3.097   6.974   4.213
10537SOL    HW132510   3.123   0.048   4.203
10537SOL    HW232511   3.005   6.961   4.177
10538SOL     OW32512   0.370   3.714   2.888
10538SOL    HW132513   0.367   3.783   2.960
10538SOL    HW232514   0.389   3.625   2.928
10539SOL     OW32515   6.545   0.192   3.536
10539SOL    HW132516   6.469   0.131   3.514
10539SOL    HW232517   6.606   0.146   3.600
10540SOL     OW32518   1.445   4.590   6.229
10540SOL    HW132519   1.380   4.529   6.274
10540SOL    HW232520   1.396   4.659   6.176
10541SOL     OW32521   3.329   3.334   5.301
10541SOL    HW132522   3.364   3.418   5.261
10541SOL    HW232523   3.342   3.258   5.237
10542SOL     OW32524   4.905   0.066   3.704
10542SOL    HW132525   4.952   0.094   3.620
10542SOL    HW232526   4.806   0.069   3.690
10543SOL     OW32527   1.048   3.384   4.811
10543SOL    HW132528   1.117   3.311   4.808
10543SOL    HW232529   0.986   3.374   4.734
10544SOL     OW32530   2.037   1.325   3.239
10544SOL    HW132531   2.087   1.410   3.224
10544SOL    HW232532   2.070   1.255   3.175
10545SOL     OW32533   2.318   2.818   2.491
10545SOL    HW132534   2.228   2.774   2.483
10545SOL    HW232535   2.338   2.870   2.408
10546SOL     OW32536   3.045   6.709   6.485
10546SOL    HW132537   3.038   6.646   6.563
10546SOL    HW232538   3.120   6.773   6.500
10547SOL     OW32539   4.660   6.540   5.329
10547SOL    HW132540   4.614   6.481   5.394
10547SOL    HW232541   4.601   6.556   5.250
10548SOL     OW32542   6.766   6.084   3.135
10548SOL    HW132543   6.729   6.155   3.194
10548SOL    HW232544   6.709   6.002   3.142
10549SOL     OW32545   0.014   0.191   1.769
10549SOL    HW132546   6.966   0.130   1.806
10549SOL    HW232547   0.006   0.192   1.669
10550SOL     OW32548   4.735   5.886   3.362
10550SOL    HW132549   4.833   5.879   3.384
10550SOL    HW232550   4.724   5.893   3.263
10551SOL     OW32551   3.186   0.740   5.510
10551SOL    HW132552   3.168   0.686   5.427
10551SOL    HW232553   3.157   0.688   5.590
10552SOL     OW32554   3.072   0.442   3.807
10552SOL    HW132555   3.069   0.414   3.711
10552SOL    HW232556   3.137   0.385   3.856
10553SOL     OW32557   6.918   5.490   1.356
10553SOL    HW132558   6.996   5.428   1.361
10553SOL    HW232559   6.950   5.584   1.361
10554SOL     OW32560   5.677   6.375   2.649
10554SOL    HW132561   5.711   6.282   2.656
10554SOL    HW232562   5.658   6.397   2.554
10555SOL     OW32563   3.659   3.142   1.150
10555SOL    HW132564   3.577   3.179   1.106
10555SOL    HW232565   3.737   3.155   1.090
10556SOL     OW32566   2.109   1.465   2.535
10556SOL    HW132567   2.095   1.564   2.540
10556SOL    HW232568   2.035   1.423   2.483
10557SOL     OW32569   2.944   4.892   3.534
10557SOL    HW132570   3.034   4.930   3.510
10557SOL    HW232571   2.949   4.847   3.623
10558SOL     OW32572   3.434   5.199   5.073
10558SOL    HW132573   3.469   5.122   5.019
10558SOL    HW232574   3.396   5.165   5.159
10559SOL     OW32575   4.333   6.588   1.337
10559SOL    HW132576   4.280   6.508   1.363
10559SOL    HW232577   4.308   6.666   1.395
10560SOL     OW32578   5.428   6.807   2.673
10560SOL    HW132579   5.507   6.815   2.612
10560SOL    HW232580   5.457   6.766   2.759
10561SOL     OW32581   6.744   4.631   0.354
10561SOL    HW132582   6.834   4.649   0.395
10561SOL    HW232583   6.708   4.716   0.315
10562SOL     OW32584   4.563   5.575   2.259
10562SOL    HW132585   4.647   5.613   2.220
10562SOL    HW232586   4.578   5.552   2.355
10563SOL     OW32587   0.313   6.745   2.193
10563SOL    HW132588   0.313   6.823   2.255
10563SOL    HW232589   0.276   6.772   2.104
10564SOL     OW32590   5.087   4.049   3.689
10564SOL    HW132591   4.990   4.072   3.684
10564SOL    HW232592   5.119   4.059   3.784
10565SOL     OW32593   0.696   0.859   6.107
10565SOL    HW132594   0.758   0.932   6.136
10565SOL    HW232595   0.658   0.881   6.017
10566SOL     OW32596   3.790   2.742   6.948
10566SOL    HW132597   3.883   2.776   6.955
10566SOL    HW232598   3.726   2.807   6.990
10567SOL     OW32599   1.929   2.300   6.488
10567SOL    HW132600   1.861   2.227   6.492
10567SOL    HW232601   1.935   2.334   6.394
10568SOL     OW32602   4.621   2.289   6.171
10568SOL    HW132603   4.578   2.229   6.238
10568SOL    HW232604   4.645   2.376   6.214
10569SOL     OW32605   5.612   0.095   0.208
10569SOL    HW132606   5.567   0.043   0.280
10569SOL    HW232607   5.625   0.190   0.237
10570SOL     OW32608   1.100   4.229   3.486
10570SOL    HW132609   1.014   4.262   3.448
10570SOL    HW232610   1.139   4.161   3.425
10571SOL     OW32611   6.426   4.287   5.656
10571SOL    HW132612   6.514   4.334   5.652
10571SOL    HW232613   6.357   4.339   5.605
10572SOL     OW32614   6.099   4.109   1.025
10572SOL    HW132615   6.162   4.118   1.103
10572SOL    HW232616   6.151   4.090   0.942
10573SOL     OW32617   6.331   2.354   3.100
10573SOL    HW132618   6.343   2.416   3.177
10573SOL    HW232619   6.389   2.383   3.024
10574SOL     OW32620   5.876   3.006   2.546
10574SOL    HW132621   5.881   2.970   2.639
10574SOL    HW232622   5.781   3.026   2.523
10575SOL     OW32623   6.206   6.437   2.120
10575SOL    HW132624   6.227   6.363   2.056
10575SOL    HW232625   6.280   6.445   2.187
10576SOL     OW32626   1.764   4.419   4.454
10576SOL    HW132627   1.786   4.455   4.363
10576SOL    HW232628   1.700   4.343   4.445
10577SOL     OW32629   3.486   4.156   0.665
10577SOL    HW132630   3.452   4.063   0.648
10577SOL    HW232631   3.571   4.170   0.613
10578SOL     OW32632   0.322   3.567   4.072
10578SOL    HW132633   0.231   3.547   4.035
10578SOL    HW232634   0.364   3.641   4.019
10579SOL     OW32635   0.677   3.425   6.418
10579SOL    HW132636   0.725   3.512   6.416
10579SOL    HW232637   0.612   3.425   6.493
10580SOL     OW32638   6.361   0.004   0.160
10580SOL    HW132639   6.428   6.993   0.094
10580SOL    HW232640   6.408   0.051   0.235
10581SOL     OW32641   4.532   0.325   3.096
10581SOL    HW132642   4.483   0.351   3.013
10581SOL    HW232643   4.481   0.359   3.176
10582SOL     OW32644   6.065   4.059   6.178
10582SOL    HW132645   6.106   4.147   6.203
10582SOL    HW232646   5.982   4.074   6.125
10583SOL     OW32647   2.920   2.036   4.965
10583SOL    HW132648   2.982   2.089   5.024
10583SOL    HW232649   2.837   2.013   5.016
10584SOL     OW32650   1.110   6.755   3.890
10584SOL    HW132651   1.205   6.725   3.895
10584SOL    HW232652   1.101   6.821   3.815
10585SOL     OW32653   1.385   0.515   5.376
10585SOL    HW132654   1.453   0.588   5.385
10585SOL    HW232655   1.299   0.553   5.342
10586SOL     OW32656   4.037   4.243   5.226
10586SOL    HW132657   4.049   4.201   5.315
10586SOL    HW232658   4.122   4.288   5.198
10587SOL     OW32659   2.015   5.261   5.983
10587SOL    HW132660   1.987   5.286   5.890
10587SOL    HW232661   1.934   5.245   6.039
10588SOL     OW32662   1.323   4.284   3.625
10588SOL    HW132663   1.329   4.367   3.680
10588SOL    HW232664   1.231   4.277   3.586
10589SOL     OW32665   5.588   6.197   4.282
10589SOL    HW132666   5.664   6.259   4.302
10589SOL    HW232667   5.502   6.242   4.307
10590SOL     OW32668   0.657   5.282   2.268
10590SOL    HW132669   0.716   5.358   2.296
10590SOL    HW232670   0.711   5.213   2.221
10591SOL     OW32671   6.732   2.973   1.713
10591SOL    HW132672   6.688   3.062   1.718
10591SOL    HW232673   6.752   2.950   1.617
10592SOL     OW32674   6.938   1.500   4.822
10592SOL    HW132675   0.010   1.528   4.808
10592SOL    HW232676   6.884   1.522   4.741
10593SOL     OW32677   3.356   5.268   3.255
10593SOL    HW132678   3.281   5.269   3.189
10593SOL    HW232679   3.443   5.262   3.206
10594SOL     OW32680   3.058   5.692   3.552
10594SOL    HW132681   3.144   5.702   3.503
10594SOL    HW232682   3.076   5.662   3.646
10595SOL     OW32683   5.037   6.910   0.621
10595SOL    HW132684   5.001   6.932   0.530
10595SOL    HW232685   4.976   6.844   0.666
10596SOL     OW32686   5.335   3.385   0.071
10596SOL    HW132687   5.402   3.405   0.143
10596SOL    HW232688   5.383   3.362   7.009
10597SOL     OW32689   1.845   6.859   5.128
10597SOL    HW132690   1.771   6.811   5.081
10597SOL    HW232691   1.917   6.882   5.062
10598SOL     OW32692   2.768   1.210   6.173
10598SOL    HW132693   2.839   1.225   6.104
10598SOL    HW232694   2.678   1.221   6.131
10599SOL     OW32695   0.199   2.339   0.220
10599SOL    HW132696   0.237   2.406   0.284
10599SOL    HW232697   0.123   2.380   0.169
10600SOL     OW32698   3.449   2.066   1.484
10600SOL    HW132699   3.437   2.123   1.565
10600SOL    HW232700   3.512   1.991   1.506
10601SOL     OW32701   1.678   0.857   5.626
10601SOL    HW132702   1.610   0.930   5.621
10601SOL    HW232703   1.704   0.842   5.721
10602SOL     OW32704   0.187   6.964   1.314
10602SOL    HW132705   0.130   6.973   1.396
10602SOL    HW232706   0.279   6.936   1.341
10603SOL     OW32707   5.453   0.739   2.518
10603SOL    HW132708   5.477   0.789   2.434
10603SOL    HW232709   5.516   0.662   2.529
10604SOL     OW32710   4.946   0.091   4.821
10604SOL    HW132711   4.876   0.020   4.824
10604SOL    HW232712   4.917   0.169   4.876
10605SOL     OW32713   2.657   1.713   1.589
10605SOL    HW132714   2.641   1.615   1.583
10605SOL    HW232715   2.755   1.732   1.595
10606SOL     OW32716   6.384   0.903   0.374
10606SOL    HW132717   6.326   0.822   0.365
10606SOL    HW232718   6.344   0.965   0.441
10607SOL     OW32719   3.163   4.397   6.838
10607SOL    HW132720   3.179   4.471   6.904
10607SOL    HW232721   3.097   4.332   6.875
10608SOL     OW32722   6.070   3.948   3.701
10608SOL    HW132723   5.975   3.926   3.678
10608SOL    HW232724   6.080   3.952   3.800
10609SOL     OW32725   5.303   1.403   6.612
10609SOL    HW132726   5.293   1.378   6.708
10609SOL    HW232727   5.292   1.322   6.555
10610SOL     OW32728   0.238   1.438   3.640
10610SOL    HW132729   0.287   1.408   3.558
10610SOL    HW232730   0.302   1.450   3.715
10611SOL     OW32731   3.911   5.739   4.841
10611SOL    HW132732   3.884   5.644   4.829
10611SOL    HW232733   3.954   5.750   4.931
10612SOL     OW32734   5.916   2.005   3.358
10612SOL    HW132735   5.914   2.097   3.398
10612SOL    HW232736   6.009   1.968   3.364
10613SOL     OW32737   4.330   6.525   4.554
10613SOL    HW132738   4.261   6.469   4.507
10613SOL    HW232739   4.285   6.588   4.617
10614SOL     OW32740   3.964   1.764   6.359
10614SOL    HW132741   3.938   1.859   6.344
10614SOL    HW232742   3.935   1.735   6.449
10615SOL     OW32743   2.040   1.648   5.413
10615SOL    HW132744   2.090   1.734   5.420
10615SOL    HW232745   2.098   1.578   5.371
10616SOL     OW32746   1.831   6.321   0.114
10616SOL    HW132747   1.785   6.239   0.145
10616SOL    HW232748   1.769   6.375   0.056
10617SOL     OW32749   2.155   3.124   1.323
10617SOL    HW132750   2.065   3.149   1.287
10617SOL    HW232751   2.164   3.155   1.417
10618SOL     OW32752   1.012   5.305   3.607
10618SOL    HW132753   1.098   5.352   3.590
10618SOL    HW232754   0.964   5.349   3.682
10619SOL     OW32755   1.557   2.407   2.906
10619SOL    HW132756   1.571   2.361   2.993
10619SOL    HW232757   1.528   2.340   2.837
10620SOL     OW32758   3.285   1.073   6.264
10620SOL    HW132759   3.268   1.011   6.188
10620SOL    HW232760   3.199   1.115   6.292
10621SOL     OW32761   0.965   4.016   3.268
10621SOL    HW132762   0.974   3.917   3.269
10621SOL    HW232763   1.044   4.057   3.221
10622SOL     OW32764   4.570   1.530   6.804
10622SOL    HW132765   4.591   1.617   6.758
10622SOL    HW232766   4.512   1.475   6.745
10623SOL     OW32767   4.758   6.905   6.190
10623SOL    HW132768   4.814   6.955   6.255
10623SOL    HW232769   4.816   6.859   6.123
10624SOL     OW32770   0.796   2.195   0.425
10624SOL    HW132771   0.699   2.192   0.402
10624SOL    HW232772   0.819   2.121   0.488
10625SOL     OW32773   5.641   5.026   0.247
10625SOL    HW132774   5.648   5.114   0.293
10625SOL    HW232775   5.732   4.997   0.217
10626SOL     OW32776   5.482   3.291   1.080
10626SOL    HW132777   5.459   3.241   1.163
10626SOL    HW232778   5.519   3.380   1.103
10627SOL     OW32779   5.602   5.505   5.501
10627SOL    HW132780   5.607   5.601   5.530
10627SOL    HW232781   5.651   5.448   5.566
10628SOL     OW32782   3.350   6.744   0.485
10628SOL    HW132783   3.390   6.692   0.560
10628SOL    HW232784   3.423   6.787   0.432
10629SOL     OW32785   3.586   5.749   4.426
10629SOL    HW132786   3.558   5.722   4.334
10629SOL    HW232787   3.506   5.779   4.478
10630SOL     OW32788   4.173   1.185   1.750
10630SOL    HW132789   4.272   1.173   1.742
10630SOL    HW232790   4.148   1.276   1.718
10631SOL     OW32791   3.770   6.064   1.142
10631SOL    HW132792   3.765   6.063   1.242
10631SOL    HW232793   3.861   6.095   1.114
10632SOL     OW32794   5.139   6.090   3.513
10632SOL    HW132795   5.205   6.154   3.473
10632SOL    HW232796   5.094   6.133   3.591
10633SOL     OW32797   1.720   3.300   1.127
10633SOL    HW132798   1.703   3.309   1.225
10633SOL    HW232799   1.817   3.313   1.109
10634SOL     OW32800   0.179   3.872   0.097
10634SOL    HW132801   0.229   3.818   0.164
10634SOL    HW232802   0.215   3.853   0.005
10635SOL     OW32803   2.219   4.909   6.499
10635SOL    HW132804   2.178   4.939   6.413
10635SOL    HW232805   2.152   4.919   6.573
10636SOL     OW32806   6.755   2.241   6.947
10636SOL    HW132807   6.825   2.301   6.909
10636SOL    HW232808   6.761   2.151   6.903
10637SOL     OW32809   2.624   0.383   6.956
10637SOL    HW132810   2.533   0.413   6.928
10637SOL    HW232811   2.691   0.413   6.889
10638SOL     OW32812   5.691   5.297   1.441
10638SOL    HW132813   5.659   5.207   1.472
10638SOL    HW232814   5.737   5.287   1.353
10639SOL     OW32815   0.952   5.324   1.885
10639SOL    HW132816   0.870   5.380   1.875
10639SOL    HW232817   0.926   5.227   1.886
10640SOL     OW32818   4.289   6.280   3.303
10640SOL    HW132819   4.328   6.232   3.381
10640SOL    HW232820   4.361   6.301   3.237
10641SOL     OW32821   1.187   1.387   3.810
10641SOL    HW132822   1.267   1.446   3.799
10641SOL    HW232823   1.114   1.419   3.750
10642SOL     OW32824   6.642   2.877   6.019
10642SOL    HW132825   6.599   2.833   5.940
10642SOL    HW232826   6.593   2.852   6.102
10643SOL     OW32827   2.364   4.935   6.150
10643SOL    HW132828   2.271   4.907   6.175
10643SOL    HW232829   2.359   4.989   6.065
10644SOL     OW32830   6.528   3.454   2.768
10644SOL    HW132831   6.513   3.355   2.757
10644SOL    HW232832   6.480   3.486   2.850
10645SOL     OW32833   2.629   2.426   3.154
10645SOL    HW132834   2.674   2.434   3.065
10645SOL    HW232835   2.652   2.505   3.210
10646SOL     OW32836   5.396   0.797   3.507
10646SOL    HW132837   5.492   0.827   3.504
10646SOL    HW232838   5.372   0.772   3.601
10647SOL     OW32839   3.316   5.488   4.728
10647SOL    HW132840   3.413   5.465   4.731
10647SOL    HW232841   3.266   5.420   4.675
10648SOL     OW32842   4.462   4.532   5.612
10648SOL    HW132843   4.440   4.513   5.708
10648SOL    HW232844   4.512   4.455   5.573
10649SOL     OW32845   6.397   3.781   2.828
10649SOL    HW132846   6.488   3.786   2.786
10649SOL    HW232847   6.379   3.688   2.858
10650SOL     OW32848   0.820   0.023   3.830
10650SOL    HW132849   0.728   0.052   3.803
10650SOL    HW232850   0.848   6.967   3.775
10651SOL     OW32851   3.678   6.054   6.056
10651SOL    HW132852   3.741   5.976   6.048
10651SOL    HW232853   3.666   6.078   6.152
10652SOL     OW32854   2.297   0.465   0.286
10652SOL    HW132855   2.348   0.414   0.216
10652SOL    HW232856   2.329   0.438   0.377
10653SOL     OW32857   4.426   5.939   4.756
10653SOL    HW132858   4.340   5.916   4.710
10653SOL    HW232859   4.485   5.858   4.758
10654SOL     OW32860   6.313   1.633   4.438
10654SOL    HW132861   6.359   1.567   4.378
10654SOL    HW232862   6.229   1.666   4.393
10655SOL     OW32863   6.999   4.528   1.742
10655SOL    HW132864   0.046   4.461   1.767
10655SOL    HW232865   6.969   4.511   1.648
10656SOL     OW32866   5.813   2.764   3.777
10656SOL    HW132867   5.759   2.707   3.838
10656SOL    HW232868   5.875   2.706   3.724
10657SOL     OW32869   5.119   6.701   4.336
10657SOL    HW132870   5.051   6.720   4.406
10657SOL    HW232871   5.072   6.681   4.249
10658SOL     OW32872   0.912   2.754   5.020
10658SOL    HW132873   0.932   2.852   5.019
10658SOL    HW232874   0.957   2.712   5.098
10659SOL     OW32875   0.976   5.737   0.534
10659SOL    HW132876   0.975   5.775   0.626
10659SOL    HW232877   1.032   5.793   0.474
10660SOL     OW32878   5.702   2.859   5.124
10660SOL    HW132879   5.714   2.907   5.211
10660SOL    HW232880   5.751   2.772   5.127
10661SOL     OW32881   2.562   4.843   5.701
10661SOL    HW132882   2.593   4.922   5.752
10661SOL    HW232883   2.602   4.844   5.609
10662SOL     OW32884   2.820   1.331   1.906
10662SOL    HW132885   2.906   1.365   1.945
10662SOL    HW232886   2.818   1.231   1.913
10663SOL     OW32887   0.966   2.147   3.656
10663SOL    HW132888   0.892   2.117   3.716
10663SOL    HW232889   0.954   2.106   3.566
10664SOL     OW32890   0.599   5.144   4.803
10664SOL    HW132891   0.596   5.143   4.903
10664SOL    HW232892   0.591   5.238   4.771
10665SOL     OW32893   2.919   2.624   6.886
10665SOL    HW132894   2.839   2.588   6.839
10665SOL    HW232895   2.989   2.648   6.819
10666SOL     OW32896   3.838   3.861   2.010
10666SOL    HW132897   3.774   3.909   2.070
10666SOL    HW232898   3.929   3.862   2.052
10667SOL     OW32899   5.065   2.515   3.480
10667SOL    HW132900   4.998   2.441   3.485
10667SOL    HW232901   5.053   2.576   3.559
10668SOL     OW32902   3.674   2.624   5.367
10668SOL    HW132903   3.589   2.598   5.321
10668SOL    HW232904   3.722   2.542   5.397
10669SOL     OW32905   5.639   1.430   1.419
10669SOL    HW132906   5.694   1.348   1.405
10669SOL    HW232907   5.689   1.510   1.387
10670SOL     OW32908   4.921   3.652   4.527
10670SOL    HW132909   4.967   3.658   4.616
10670SOL    HW232910   4.841   3.712   4.527
10671SOL     OW32911   1.924   3.079   4.507
10671SOL    HW132912   1.901   2.985   4.481
10671SOL    HW232913   2.024   3.088   4.512
10672SOL     OW32914   5.923   3.254   1.469
10672SOL    HW132915   5.982   3.311   1.528
10672SOL    HW232916   5.850   3.309   1.431
10673SOL     OW32917   1.790   1.501   1.142
10673SOL    HW132918   1.755   1.428   1.201
10673SOL    HW232919   1.851   1.463   1.074
10674SOL     OW32920   3.936   4.005   3.350
10674SOL    HW132921   3.962   3.909   3.341
10674SOL    HW232922   3.931   4.029   3.446
10675SOL     OW32923   3.872   6.712   5.370
10675SOL    HW132924   3.893   6.724   5.273
10675SOL    HW232925   3.775   6.729   5.386
10676SOL     OW32926   1.916   6.845   5.459
10676SOL    HW132927   1.926   6.797   5.372
10676SOL    HW232928   1.911   6.777   5.533
10677SOL     OW32929   6.959   1.626   0.706
10677SOL    HW132930   7.007   1.695   0.761
10677SOL    HW232931   6.972   1.536   0.748
10678SOL     OW32932   4.076   5.491   3.532
10678SOL    HW132933   4.039   5.456   3.618
10678SOL    HW232934   4.176   5.495   3.537
10679SOL     OW32935   4.309   3.138   6.936
10679SOL    HW132936   4.360   3.130   6.851
10679SOL    HW232937   4.368   3.173   7.008
10680SOL     OW32938   4.050   1.271   4.293
10680SOL    HW132939   4.121   1.200   4.287
10680SOL    HW232940   4.026   1.301   4.201
10681SOL     OW32941   1.380   2.732   5.335
10681SOL    HW132942   1.441   2.671   5.283
10681SOL    HW232943   1.336   2.797   5.273
10682SOL     OW32944   5.061   3.484   5.611
10682SOL    HW132945   5.121   3.563   5.624
10682SOL    HW232946   4.988   3.486   5.678
10683SOL     OW32947   3.044   0.616   3.423
10683SOL    HW132948   3.108   0.682   3.383
10683SOL    HW232949   3.003   0.654   3.505
10684SOL     OW32950   4.490   4.566   2.082
10684SOL    HW132951   4.486   4.467   2.068
10684SOL    HW232952   4.551   4.607   2.014
10685SOL     OW32953   0.770   6.067   1.129
10685SOL    HW132954   0.851   6.010   1.142
10685SOL    HW232955   0.688   6.011   1.133
10686SOL     OW32956   2.727   1.873   6.453
10686SOL    HW132957   2.717   1.789   6.400
10686SOL    HW232958   2.677   1.947   6.409
10687SOL     OW32959   0.674   4.394   3.489
10687SOL    HW132960   0.701   4.490   3.487
10687SOL    HW232961   0.749   4.338   3.456
10688SOL     OW32962   5.353   1.980   2.267
10688SOL    HW132963   5.316   2.018   2.183
10688SOL    HW232964   5.442   1.938   2.248
10689SOL     OW32965   7.020   0.096   2.706
10689SOL    HW132966   0.034   0.029   2.771
10689SOL    HW232967   6.921   0.100   2.713
10690SOL     OW32968   0.372   0.136   3.934
10690SOL    HW132969   0.278   0.142   3.899
10690SOL    HW232970   0.371   0.140   4.034
10691SOL     OW32971   3.519   0.568   2.821
10691SOL    HW132972   3.547   0.583   2.726
10691SOL    HW232973   3.428   0.527   2.823
10692SOL     OW32974   2.345   0.189   3.905
10692SOL    HW132975   2.389   0.267   3.949
10692SOL    HW232976   2.376   0.183   3.810
10693SOL     OW32977   1.547   5.714   0.673
10693SOL    HW132978   1.573   5.786   0.608
10693SOL    HW232979   1.592   5.629   0.647
10694SOL     OW32980   4.187   6.704   5.380
10694SOL    HW132981   4.087   6.704   5.381
10694SOL    HW232982   4.221   6.796   5.362
10695SOL     OW32983   6.764   4.040   2.043
10695SOL    HW132984   6.688   4.103   2.061
10695SOL    HW232985   6.829   4.084   1.981
10696SOL     OW32986   6.521   4.874   4.572
10696SOL    HW132987   6.576   4.948   4.609
10696SOL    HW232988   6.444   4.856   4.632
10697SOL     OW32989   1.382   5.370   5.622
10697SOL    HW132990   1.448   5.308   5.664
10697SOL    HW232991   1.430   5.453   5.590
10698SOL     OW32992   4.776   3.102   0.067
10698SOL    HW132993   4.852   3.110   0.002
10698SOL    HW232994   4.804   3.047   0.145
10699SOL     OW32995   3.234   3.312   0.150
10699SOL    HW132996   3.276   3.273   0.233
10699SOL    HW232997   3.284   3.394   0.124
10700SOL     OW32998   4.858   0.995   0.897
10700SOL    HW132999   4.811   1.009   0.810
10700SOL    HW233000   4.810   0.925   0.950
10701SOL     OW33001   2.645   0.841   6.403
10701SOL    HW133002   2.664   0.805   6.494
10701SOL    HW233003   2.659   0.769   6.335
10702SOL     OW33004   5.417   2.148   1.956
10702SOL    HW133005   5.401   2.099   1.870
10702SOL    HW233006   5.331   2.183   1.992
10703SOL     OW33007   1.285   2.796   6.337
10703SOL    HW133008   1.280   2.883   6.288
10703SOL    HW233009   1.300   2.812   6.434
10704SOL     OW33010   6.291   6.874   2.068
10704SOL    HW133011   6.248   6.887   1.979
10704SOL    HW233012   6.275   6.955   2.125
10705SOL     OW33013   5.781   4.500   1.262
10705SOL    HW133014   5.861   4.494   1.203
10705SOL    HW233015   5.770   4.414   1.311
10706SOL     OW33016   4.891   0.335   1.790
10706SOL    HW133017   4.865   0.239   1.796
10706SOL    HW233018   4.860   0.383   1.872
10707SOL     OW33019   5.816   0.165   4.116
10707SOL    HW133020   5.859   0.150   4.027
10707SOL    HW233021   5.718   0.149   4.108
10708SOL     OW33022   4.271   1.719   2.331
10708SOL    HW133023   4.210   1.654   2.376
10708SOL    HW233024   4.238   1.738   2.239
10709SOL     OW33025   5.861   5.551   3.592
10709SOL    HW133026   5.933   5.614   3.621
10709SOL    HW233027   5.779   5.603   3.569
10710SOL     OW33028   5.433   1.555   3.142
10710SOL    HW133029   5.510   1.524   3.198
10710SOL    HW233030   5.404   1.480   3.082
10711SOL     OW33031   3.592   6.848   1.837
10711SOL    HW133032   3.659   6.782   1.870
10711SOL    HW233033   3.635   6.911   1.772
10712SOL     OW33034   4.792   6.934   2.919
10712SOL    HW133035   4.891   6.933   2.904
10712SOL    HW233036   4.763   0.004   2.943
10713SOL     OW33037   1.516   4.193   0.881
10713SOL    HW133038   1.434   4.177   0.934
10713SOL    HW233039   1.505   4.277   0.828
10714SOL     OW33040   4.028   3.272   4.302
10714SOL    HW133041   3.962   3.198   4.314
10714SOL    HW233042   4.014   3.315   4.213
10715SOL     OW33043   6.125   1.030   2.222
10715SOL    HW133044   6.138   1.009   2.319
10715SOL    HW233045   6.073   0.956   2.179
10716SOL     OW33046   5.821   2.673   3.508
10716SOL    HW133047   5.814   2.770   3.487
10716SOL    HW233048   5.730   2.631   3.506
10717SOL     OW33049   1.153   2.360   6.713
10717SOL    HW133050   1.204   2.278   6.686
10717SOL    HW233051   1.078   2.375   6.649
10718SOL     OW33052   1.260   5.118   5.816
10718SOL    HW133053   1.220   5.197   5.768
10718SOL    HW233054   1.344   5.090   5.770
10719SOL     OW33055   6.437   5.251   4.519
10719SOL    HW133056   6.398   5.233   4.610
10719SOL    HW233057   6.526   5.207   4.511
10720SOL     OW33058   5.734   5.692   3.940
10720SOL    HW133059   5.656   5.653   3.989
10720SOL    HW233060   5.818   5.674   3.992
10721SOL     OW33061   5.098   3.756   5.185
10721SOL    HW133062   5.099   3.666   5.228
10721SOL    HW233063   5.141   3.823   5.246
10722SOL     OW33064   6.963   3.893   6.079
10722SOL    HW133065   7.013   3.807   6.083
10722SOL    HW233066   6.901   3.892   6.001
10723SOL     OW33067   0.127   0.277   0.205
10723SOL    HW133068   0.112   0.243   0.298
10723SOL    HW233069   0.226   0.282   0.187
10724SOL     OW33070   6.612   6.241   0.149
10724SOL    HW133071   6.552   6.166   0.121
10724SOL    HW233072   6.614   6.311   0.077
10725SOL     OW33073   2.706   5.486   5.419
10725SOL    HW133074   2.763   5.407   5.397
10725SOL    HW233075   2.760   5.553   5.469
10726SOL     OW33076   4.654   0.724   3.761
10726SOL    HW133077   4.589   0.696   3.690
10726SOL    HW233078   4.729   0.658   3.765
10727SOL     OW33079   1.258   5.760   6.114
10727SOL    HW133080   1.275   5.726   6.207
10727SOL    HW233081   1.325   5.830   6.091
10728SOL     OW33082   6.737   5.303   0.789
10728SOL    HW133083   6.665   5.250   0.833
10728SOL    HW233084   6.724   5.400   0.809
10729SOL     OW33085   6.350   2.290   1.288
10729SOL    HW133086   6.367   2.195   1.315
10729SOL    HW233087   6.285   2.292   1.212
10730SOL     OW33088   4.394   0.497   1.831
10730SOL    HW133089   4.297   0.517   1.840
10730SOL    HW233090   4.412   0.461   1.740
10731SOL     OW33091   4.217   1.291   0.830
10731SOL    HW133092   4.316   1.306   0.829
10731SOL    HW233093   4.173   1.360   0.773
10732SOL     OW33094   0.186   5.195   5.002
10732SOL    HW133095   0.196   5.153   5.092
10732SOL    HW233096   0.113   5.264   5.006
10733SOL     OW33097   6.106   2.178   6.677
10733SOL    HW133098   6.029   2.146   6.733
10733SOL    HW233099   6.111   2.278   6.682
10734SOL     OW33100   1.170   1.892   1.690
10734SOL    HW133101   1.264   1.861   1.671
10734SOL    HW233102   1.107   1.815   1.681
10735SOL     OW33103   0.503   3.536   1.915
10735SOL    HW133104   0.453   3.577   1.991
10735SOL    HW233105   0.448   3.464   1.873
10736SOL     OW33106   2.842   6.884   4.118
10736SOL    HW133107   2.763   6.911   4.063
10736SOL    HW233108   2.895   6.814   4.070
10737SOL     OW33109   0.171   2.497   1.797
10737SOL    HW133110   0.121   2.571   1.753
10737SOL    HW233111   0.248   2.470   1.739
10738SOL     OW33112   4.181   0.354   3.054
10738SOL    HW133113   4.174   0.409   3.137
10738SOL    HW233114   4.201   0.259   3.079
10739SOL     OW33115   2.234   2.382   1.899
10739SOL    HW133116   2.314   2.387   1.960
10739SOL    HW233117   2.193   2.292   1.906
10740SOL     OW33118   4.976   4.809   4.530
10740SOL    HW133119   5.016   4.717   4.525
10740SOL    HW233120   4.894   4.813   4.473
10741SOL     OW33121   3.531   0.319   2.023
10741SOL    HW133122   3.578   0.235   1.997
10741SOL    HW233123   3.492   0.361   1.941
10742SOL     OW33124   5.625   5.157   1.178
10742SOL    HW133125   5.625   5.093   1.255
10742SOL    HW233126   5.679   5.119   1.103
10743SOL     OW33127   2.378   2.291   3.582
10743SOL    HW133128   2.429   2.369   3.618
10743SOL    HW233129   2.377   2.218   3.650
10744SOL     OW33130   3.876   2.415   0.858
10744SOL    HW133131   3.965   2.441   0.821
10744SOL    HW233132   3.885   2.392   0.955
10745SOL     OW33133   0.155   5.879   5.936
10745SOL    HW133134   0.247   5.897   5.973
10745SOL    HW233135   0.156   5.895   5.837
10746SOL     OW33136   0.742   3.823   5.282
10746SOL    HW133137   0.706   3.914   5.303
10746SOL    HW233138   0.718   3.798   5.189
10747SOL     OW33139   3.328   0.805   4.626
10747SOL    HW133140   3.241   0.832   4.584
10747SOL    HW233141   3.310   0.762   4.715
10748SOL     OW33142   5.386   1.277   2.437
10748SOL    HW133143   5.391   1.356   2.376
10748SOL    HW233144   5.294   1.236   2.431
10749SOL     OW33145   1.550   6.613   4.729
10749SOL    HW133146   1.546   6.516   4.752
10749SOL    HW233147   1.461   6.655   4.748
10750SOL     OW33148   3.964   0.449   4.992
10750SOL    HW133149   3.865   0.443   4.976
10750SOL    HW233150   4.002   0.521   4.935
10751SOL     OW33151   1.815   5.224   4.294
10751SOL    HW133152   1.852   5.215   4.387
10751SOL    HW233153   1.761   5.142   4.272
10752SOL     OW33154   5.202   4.509   5.084
10752SOL    HW133155   5.275   4.576   5.070
10752SOL    HW233156   5.119   4.556   5.112
10753SOL     OW33157   0.380   2.920   4.058
10753SOL    HW133158   0.343   3.013   4.062
10753SOL    HW233159   0.304   2.854   4.057
10754SOL     OW33160   0.766   0.416   3.028
10754SOL    HW133161   0.680   0.464   3.045
10754SOL    HW233162   0.843   0.475   3.052
10755SOL     OW33163   6.559   6.700   1.698
10755SOL    HW133164   6.552   6.603   1.719
10755SOL    HW233165   6.474   6.732   1.658
10756SOL     OW33166   6.866   6.384   5.321
10756SOL    HW133167   6.792   6.322   5.345
10756SOL    HW233168   6.861   6.405   5.223
10757SOL     OW33169   2.309   2.824   0.515
10757SOL    HW133170   2.408   2.811   0.517
10757SOL    HW233171   2.265   2.738   0.486
10758SOL     OW33172   0.754   6.489   3.492
10758SOL    HW133173   0.750   6.457   3.587
10758SOL    HW233174   0.690   6.565   3.480
10759SOL     OW33175   0.804   2.631   0.427
10759SOL    HW133176   0.877   2.697   0.441
10759SOL    HW233177   0.843   2.543   0.401
10760SOL     OW33178   6.091   1.215   3.257
10760SOL    HW133179   6.082   1.118   3.280
10760SOL    HW233180   6.128   1.265   3.336
10761SOL     OW33181   2.223   5.440   5.983
10761SOL    HW133182   2.151   5.508   5.971
10761SOL    HW233183   2.199   5.356   5.933
10762SOL     OW33184   2.775   0.565   4.807
10762SOL    HW133185   2.873   0.568   4.790
10762SOL    HW233186   2.737   0.480   4.770
10763SOL     OW33187   3.894   0.771   3.408
10763SOL    HW133188   3.844   0.758   3.494
10763SOL    HW233189   3.849   0.720   3.335
10764SOL     OW33190   4.795   1.186   4.077
10764SOL    HW133191   4.771   1.090   4.060
10764SOL    HW233192   4.747   1.217   4.159
10765SOL     OW33193   4.850   3.457   1.444
10765SOL    HW133194   4.773   3.413   1.400
10765SOL    HW233195   4.850   3.555   1.422
10766SOL     OW33196   3.151   3.672   1.001
10766SOL    HW133197   3.191   3.635   1.085
10766SOL    HW233198   3.139   3.599   0.934
10767SOL     OW33199   2.204   0.453   1.823
10767SOL    HW133200   2.245   0.533   1.866
10767SOL    HW233201   2.165   0.393   1.894
10768SOL     OW33202   6.725   4.934   0.994
10768SOL    HW133203   6.696   5.011   1.051
10768SOL    HW233204   6.777   4.869   1.049
10769SOL     OW33205   2.301   3.729   6.032
10769SOL    HW133206   2.305   3.784   6.115
10769SOL    HW233207   2.383   3.744   5.978
10770SOL     OW33208   4.321   5.842   3.529
10770SOL    HW133209   4.341   5.783   3.451
10770SOL    HW233210   4.400   5.846   3.590
10771SOL     OW33211   3.039   0.128   3.660
10771SOL    HW133212   3.106   0.120   3.733
10771SOL    HW233213   2.947   0.115   3.697
10772SOL     OW33214   5.955   5.969   4.345
10772SOL    HW133215   5.905   6.050   4.373
10772SOL    HW233216   5.914   5.888   4.388
10773SOL     OW33217   5.338   4.893   4.190
10773SOL    HW133218   5.255   4.946   4.174
10773SOL    HW233219   5.418   4.950   4.170
10774SOL     OW33220   1.361   0.987   3.691
10774SOL    HW133221   1.423   1.003   3.615
10774SOL    HW233222   1.343   0.889   3.700
10775SOL     OW33223   0.927   4.679   2.016
10775SOL    HW133224   1.009   4.695   2.071
10775SOL    HW233225   0.954   4.645   1.926
10776SOL     OW33226   2.177   0.476   6.429
10776SOL    HW133227   2.176   0.406   6.358
10776SOL    HW233228   2.272   0.494   6.457
10777SOL     OW33229   3.352   5.585   1.651
10777SOL    HW133230   3.431   5.616   1.705
10777SOL    HW233231   3.358   5.623   1.559
10778SOL     OW33232   5.486   6.512   3.893
10778SOL    HW133233   5.432   6.462   3.825
10778SOL    HW233234   5.450   6.605   3.902
10779SOL     OW33235   5.918   2.959   3.488
10779SOL    HW133236   5.906   2.953   3.389
10779SOL    HW233237   5.831   2.987   3.530
10780SOL     OW33238   0.579   1.311   3.410
10780SOL    HW133239   0.635   1.390   3.383
10780SOL    HW233240   0.611   1.229   3.363
10781SOL     OW33241   3.250   0.200   4.152
10781SOL    HW133242   3.182   0.274   4.145
10781SOL    HW233243   3.315   0.222   4.224
10782SOL     OW33244   6.007   6.627   4.478
10782SOL    HW133245   6.041   6.591   4.564
10782SOL    HW233246   5.935   6.567   4.443
10783SOL     OW33247   6.347   2.704   3.041
10783SOL    HW133248   6.415   2.634   3.020
10783SOL    HW233249   6.287   2.717   2.962
10784SOL     OW33250   2.531   1.535   3.811
10784SOL    HW133251   2.471   1.514   3.889
10784SOL    HW233252   2.600   1.463   3.802
10785SOL     OW33253   0.663   3.896   6.958
10785SOL    HW133254   0.609   3.926   0.014
10785SOL    HW233255   0.618   3.925   6.874
10786SOL     OW33256   6.267   5.677   2.803
10786SOL    HW133257   6.334   5.686   2.876
10786SOL    HW233258   6.190   5.622   2.835
10787SOL     OW33259   0.855   1.197   4.982
10787SOL    HW133260   0.800   1.137   5.040
10787SOL    HW233261   0.872   1.153   4.894
10788SOL     OW33262   0.086   3.901   6.596
10788SOL    HW133263   7.014   3.922   6.622
10788SOL    HW233264   0.086   3.822   6.534
10789SOL     OW33265   7.004   2.458   0.109
10789SOL    HW133266   7.006   2.454   0.009
10789SOL    HW233267   6.909   2.469   0.140
10790SOL     OW33268   0.188   0.034   2.187
10790SOL    HW133269   0.129   0.104   2.228
10790SOL    HW233270   0.261   0.011   2.250
10791SOL     OW33271   6.350   6.194   2.439
10791SOL    HW133272   6.414   6.239   2.501
10791SOL    HW233273   6.371   6.097   2.434
10792SOL     OW33274   3.844   3.595   4.947
10792SOL    HW133275   3.786   3.630   4.873
10792SOL    HW233276   3.936   3.633   4.939
10793SOL     OW33277   5.753   3.399   5.110
10793SOL    HW133278   5.806   3.467   5.160
10793SOL    HW233279   5.721   3.328   5.173
10794SOL     OW33280   3.603   3.141   3.856
10794SOL    HW133281   3.654   3.204   3.915
10794SOL    HW233282   3.621   3.164   3.760
10795SOL     OW33283   0.954   4.297   3.093
10795SOL    HW133284   0.992   4.387   3.115
10795SOL    HW233285   0.856   4.296   3.116
10796SOL     OW33286   0.857   6.543   5.174
10796SOL    HW133287   0.928   6.486   5.132
10796SOL    HW233288   0.778   6.487   5.197
10797SOL     OW33289   4.058   3.262   0.409
10797SOL    HW133290   4.089   3.312   0.489
10797SOL    HW233291   3.975   3.212   0.431
10798SOL     OW33292   1.486   1.247   1.617
10798SOL    HW133293   1.433   1.332   1.622
10798SOL    HW233294   1.471   1.204   1.528
10799SOL     OW33295   4.036   1.208   2.196
10799SOL    HW133296   4.000   1.302   2.200
10799SOL    HW233297   3.963   1.145   2.171
10800SOL     OW33298   1.233   6.565   6.886
10800SOL    HW133299   1.300   6.511   6.834
10800SOL    HW233300   1.281   6.625   6.950
10801SOL     OW33301   1.501   0.904   0.648
10801SOL    HW133302   1.525   0.826   0.591
10801SOL    HW233303   1.403   0.901   0.668
10802SOL     OW33304   6.411   6.808   3.104
10802SOL    HW133305   6.401   6.907   3.115
10802SOL    HW233306   6.325   6.769   3.070
10803SOL     OW33307   1.598   5.318   6.634
10803SOL    HW133308   1.607   5.226   6.672
10803SOL    HW233309   1.555   5.313   6.544
10804SOL     OW33310   0.530   3.409   4.047
10804SOL    HW133311   0.466   3.471   4.092
10804SOL    HW233312   0.500   3.315   4.060
10805SOL     OW33313   6.132   0.854   5.442
10805SOL    HW133314   6.155   0.818   5.352
10805SOL    HW233315   6.141   0.782   5.511
10806SOL     OW33316   1.732   4.441   6.778
10806SOL    HW133317   1.831   4.439   6.788
10806SOL    HW233318   1.690   4.467   6.865
10807SOL     OW33319   2.552   6.418   3.961
10807SOL    HW133320   2.478   6.414   3.893
10807SOL    HW233321   2.546   6.339   4.022
10808SOL     OW33322   0.398   2.261   5.957
10808SOL    HW133323   0.394   2.212   5.870
10808SOL    HW233324   0.493   2.273   5.985
10809SOL     OW33325   2.571   5.266   4.541
10809SOL    HW133326   2.609   5.313   4.620
10809SOL    HW233327   2.547   5.333   4.471
10810SOL     OW33328   0.429   0.223   4.190
10810SOL    HW133329   0.377   0.269   4.261
10810SOL    HW233330   0.525   0.217   4.217
10811SOL     OW33331   4.852   4.995   4.694
10811SOL    HW133332   4.836   5.083   4.649
10811SOL    HW233333   4.899   4.933   4.631
10812SOL     OW33334   0.273   2.878   6.823
10812SOL    HW133335   0.260   2.961   6.876
10812SOL    HW233336   0.336   2.895   6.747
10813SOL     OW33337   0.365   3.380   6.346
10813SOL    HW133338   0.309   3.345   6.271
10813SOL    HW233339   0.358   3.479   6.349
10814SOL     OW33340   2.062   0.323   0.654
10814SOL    HW133341   2.032   0.411   0.692
10814SOL    HW233342   1.983   0.263   0.644
10815SOL     OW33343   4.961   0.838   4.450
10815SOL    HW133344   5.015   0.769   4.401
10815SOL    HW233345   4.970   0.926   4.404
10816SOL     OW33346   3.653   3.037   3.370
10816SOL    HW133347   3.566   2.986   3.368
10816SOL    HW233348   3.639   3.128   3.330
10817SOL     OW33349   2.446   0.177   3.275
10817SOL    HW133350   2.544   0.187   3.292
10817SOL    HW233351   2.420   0.081   3.289
10818SOL     OW33352   4.155   4.917   5.909
10818SOL    HW133353   4.179   4.898   6.004
10818SOL    HW233354   4.213   4.861   5.849
10819SOL     OW33355   0.016   5.799   6.168
10819SOL    HW133356   0.064   5.818   6.254
10819SOL    HW233357   0.070   5.833   6.091
10820SOL     OW33358   1.797   4.618   5.791
10820SOL    HW133359   1.857   4.633   5.712
10820SOL    HW233360   1.726   4.552   5.766
10821SOL     OW33361   4.900   5.016   3.160
10821SOL    HW133362   4.822   5.078   3.165
10821SOL    HW233363   4.927   4.990   3.253
10822SOL     OW33364   5.734   2.744   0.973
10822SOL    HW133365   5.771   2.797   0.897
10822SOL    HW233366   5.652   2.696   0.944
10823SOL     OW33367   6.351   6.664   2.817
10823SOL    HW133368   6.426   6.671   2.883
10823SOL    HW233369   6.343   6.570   2.785
10824SOL     OW33370   0.936   1.485   4.196
10824SOL    HW133371   0.878   1.506   4.118
10824SOL    HW233372   1.031   1.509   4.176
10825SOL     OW33373   1.406   1.881   0.747
10825SOL    HW133374   1.388   1.972   0.784
10825SOL    HW233375   1.365   1.812   0.807
10826SOL     OW33376   1.266   2.840   3.017
10826SOL    HW133377   1.350   2.894   3.012
10826SOL    HW233378   1.208   2.862   2.938
10827SOL     OW33379   0.030   3.184   5.090
10827SOL    HW133380   0.008   3.249   5.163
10827SOL    HW233381   6.984   3.111   5.089
10828SOL     OW33382   6.446   4.649   6.058
10828SOL    HW133383   6.491   4.562   6.037
10828SOL    HW233384   6.511   4.724   6.048
10829SOL     OW33385   4.157   3.610   5.895
10829SOL    HW133386   4.121   3.702   5.880
10829SOL    HW233387   4.230   3.591   5.829
10830SOL     OW33388   4.780   0.944   3.649
10830SOL    HW133389   4.730   0.868   3.689
10830SOL    HW233390   4.861   0.910   3.602
10831SOL     OW33391   3.902   0.815   2.823
10831SOL    HW133392   3.813   0.806   2.779
10831SOL    HW233393   3.944   0.725   2.834
10832SOL     OW33394   6.758   3.525   7.005
10832SOL    HW133395   6.832   3.476   0.028
10832SOL    HW233396   6.701   3.570   0.051
10833SOL     OW33397   0.800   0.999   0.834
10833SOL    HW133398   0.762   0.950   0.755
10833SOL    HW233399   0.727   1.044   0.885
10834SOL     OW33400   6.496   6.631   0.509
10834SOL    HW133401   6.497   6.587   0.599
10834SOL    HW233402   6.474   6.728   0.520
10835SOL     OW33403   6.870   2.420   5.626
10835SOL    HW133404   6.935   2.413   5.550
10835SOL    HW233405   6.917   2.398   5.711
10836SOL     OW33406   6.973   1.865   3.530
10836SOL    HW133407   7.020   1.812   3.459
10836SOL    HW233408   6.949   1.804   3.606
10837SOL     OW33409   0.075   4.273   2.790
10837SOL    HW133410   0.136   4.215   2.843
10837SOL    HW233411   7.013   4.223   2.770
10838SOL     OW33412   6.201   5.729   3.947
10838SOL    HW133413   6.122   5.682   3.987
10838SOL    HW233414   6.282   5.672   3.957
10839SOL     OW33415   4.541   3.821   0.611
10839SOL    HW133416   4.640   3.815   0.628
10839SOL    HW233417   4.514   3.749   0.547
10840SOL     OW33418   2.880   0.717   0.980
10840SOL    HW133419   2.835   0.640   1.026
10840SOL    HW233420   2.895   0.694   0.884
10841SOL     OW33421   0.998   5.197   4.587
10841SOL    HW133422   0.984   5.287   4.628
10841SOL    HW233423   1.094   5.171   4.594
10842SOL     OW33424   5.169   4.195   0.629
10842SOL    HW133425   5.229   4.156   0.699
10842SOL    HW233426   5.195   4.159   0.539
10843SOL     OW33427   2.254   2.239   1.637
10843SOL    HW133428   2.278   2.255   1.733
10843SOL    HW233429   2.312   2.294   1.578
10844SOL     OW33430   0.501   5.387   5.229
10844SOL    HW133431   0.550   5.442   5.162
10844SOL    HW233432   0.480   5.297   5.190
10845SOL     OW33433   4.282   6.521   5.215
10845SOL    HW133434   4.334   6.456   5.271
10845SOL    HW233435   4.243   6.591   5.275
10846SOL     OW33436   5.460   0.210   0.644
10846SOL    HW133437   5.409   0.195   0.559
10846SOL    HW233438   5.484   0.121   0.683
10847SOL     OW33439   1.736   2.016   0.095
10847SOL    HW133440   1.829   2.035   0.126
10847SOL    HW233441   1.700   1.937   0.143
10848SOL     OW33442   1.833   4.201   1.422
10848SOL    HW133443   1.819   4.267   1.495
10848SOL    HW233444   1.874   4.246   1.343
10849SOL     OW33445   2.254   5.974   3.796
10849SOL    HW133446   2.323   5.959   3.867
10849SOL    HW233447   2.267   5.908   3.723
10850SOL     OW33448   3.520   6.543   6.903
10850SOL    HW133449   3.444   6.492   6.943
10850SOL    HW233450   3.503   6.558   6.805
10851SOL     OW33451   2.231   5.053   1.550
10851SOL    HW133452   2.160   5.000   1.595
10851SOL    HW233453   2.277   4.996   1.482
10852SOL     OW33454   2.014   1.665   1.213
10852SOL    HW133455   1.926   1.617   1.222
10852SOL    HW233456   2.084   1.615   1.263
10853SOL     OW33457   2.679   1.808   6.126
10853SOL    HW133458   2.592   1.857   6.116
10853SOL    HW233459   2.667   1.733   6.192
10854SOL     OW33460   4.548   6.014   5.481
10854SOL    HW133461   4.615   5.970   5.540
10854SOL    HW233462   4.478   6.057   5.537
10855SOL     OW33463   3.571   0.797   0.564
10855SOL    HW133464   3.608   0.802   0.471
10855SOL    HW233465   3.613   0.720   0.613
10856SOL     OW33466   0.011   1.211   0.393
10856SOL    HW133467   0.106   1.179   0.397
10856SOL    HW233468   6.974   1.134   0.373
10857SOL     OW33469   6.133   2.029   2.521
10857SOL    HW133470   6.204   1.960   2.529
10857SOL    HW233471   6.063   1.998   2.456
10858SOL     OW33472   2.833   5.952   1.315
10858SOL    HW133473   2.825   5.897   1.399
10858SOL    HW233474   2.747   5.999   1.297
10859SOL     OW33475   0.899   5.730   3.497
10859SOL    HW133476   0.918   5.796   3.569
10859SOL    HW233477   0.965   5.742   3.423
10860SOL     OW33478   6.441   2.945   3.288
10860SOL    HW133479   6.426   2.854   3.327
10860SOL    HW233480   6.425   3.014   3.358
10861SOL     OW33481   3.848   3.072   4.259
10861SOL    HW133482   3.789   3.072   4.339
10861SOL    HW233483   3.837   2.985   4.210
10862SOL     OW33484   1.121   0.406   5.024
10862SOL    HW133485   1.179   0.351   5.085
10862SOL    HW233486   1.059   0.346   4.974
10863SOL     OW33487   2.995   5.464   4.723
10863SOL    HW133488   3.009   5.434   4.629
10863SOL    HW233489   2.924   5.534   4.725
10864SOL     OW33490   3.357   6.153   2.622
10864SOL    HW133491   3.304   6.097   2.686
10864SOL    HW233492   3.412   6.218   2.674
10865SOL     OW33493   6.567   1.983   6.078
10865SOL    HW133494   6.552   1.886   6.059
10865SOL    HW233495   6.547   2.003   6.174
10866SOL     OW33496   5.617   4.706   0.510
10866SOL    HW133497   5.615   4.690   0.412
10866SOL    HW233498   5.553   4.643   0.556
10867SOL     OW33499   3.377   3.144   0.342
10867SOL    HW133500   3.440   3.081   0.296
10867SOL    HW233501   3.308   3.092   0.391
10868SOL     OW33502   3.222   1.773   2.966
10868SOL    HW133503   3.290   1.837   2.929
10868SOL    HW233504   3.263   1.683   2.976
10869NA      NA33505   6.430   2.192   5.504
10870NA      NA33506   4.311   4.618   5.239
10871NA      NA33507   2.226   3.577   1.514
10872NA      NA33508   4.880   3.824   5.125
10873NA      NA33509   4.085   2.292   5.236
10874NA      NA33510   3.711   4.722   1.710
10875NA      NA33511   6.722   5.716   5.676
10876NA      NA33512   3.822   3.522   5.164
10877NA      NA33513   4.713   6.771   0.110
10878NA      NA33514   3.538   6.967   5.386
10879NA      NA33515   6.403   4.828   2.400
10880NA      NA33516   2.164   0.706   2.950
10881NA      NA33517   3.261   4.464   0.940
10882NA      NA33518   3.583   3.690   2.956
   7.02259   7.02259   7.02259
