Generated by trjconv : CNT in water t= 319.00000
33518
    1C        C    1   2.840   2.768   4.745
    1C        C    2   2.893   2.713   4.863
    1C        C    3   2.843   2.774   4.979
    1C        C    4   2.846   2.771   4.258
    1C        C    5   2.894   2.719   4.380
    1C        C    6   2.843   2.768   4.502
    1C        C    7   3.011   2.639   4.623
    1C        C    8   2.893   2.718   4.624
    1C        C    9   3.074   2.599   4.742
    1C        C   10   3.007   2.630   4.863
    1C        C   11   3.183   2.494   4.974
    1C        C   12   3.060   2.560   4.972
    1C        C   13   2.846   2.770   3.770
    1C        C   14   2.899   2.723   3.892
    1C        C   15   2.852   2.775   4.014
    1C        C   16   3.017   2.645   4.137
    1C        C   17   2.900   2.723   4.137
    1C        C   18   3.078   2.608   4.259
    1C        C   19   3.013   2.643   4.380
    1C        C   20   3.204   2.548   4.503
    1C        C   21   3.075   2.606   4.501
    1C        C   22   3.278   2.535   4.622
    1C        C   23   3.208   2.549   4.744
    1C        C   24   3.413   2.487   4.864
    1C        C   25   3.271   2.501   4.862
    1C        C   26   3.493   2.476   4.979
    1C        C   27   2.851   2.772   3.281
    1C        C   28   2.903   2.726   3.404
    1C        C   29   2.852   2.778   3.525
    1C        C   30   3.015   2.643   3.648
    1C        C   31   2.902   2.728   3.647
    1C        C   32   3.077   2.606   3.769
    1C        C   33   3.013   2.639   3.891
    1C        C   34   3.207   2.553   4.014
    1C        C   35   3.076   2.607   4.014
    1C        C   36   3.274   2.533   4.136
    1C        C   37   3.211   2.561   4.259
    1C        C   38   3.415   2.509   4.379
    1C        C   39   3.276   2.534   4.382
    1C        C   40   3.487   2.502   4.501
    1C        C   41   3.417   2.508   4.623
    1C        C   42   3.629   2.485   4.743
    1C        C   43   3.487   2.480   4.743
    1C        C   44   3.707   2.486   4.861
    1C        C   45   3.632   2.474   4.978
    1C        C   46   2.840   2.755   2.792
    1C        C   47   2.895   2.714   2.916
    1C        C   48   2.843   2.764   3.037
    1C        C   49   3.011   2.634   3.157
    1C        C   50   2.897   2.717   3.159
    1C        C   51   3.076   2.604   3.279
    1C        C   52   3.017   2.643   3.402
    1C        C   53   3.205   2.551   3.527
    1C        C   54   3.076   2.607   3.525
    1C        C   55   3.274   2.526   3.648
    1C        C   56   3.207   2.551   3.770
    1C        C   57   3.415   2.510   3.892
    1C        C   58   3.276   2.535   3.892
    1C        C   59   3.487   2.503   4.013
    1C        C   60   3.413   2.507   4.134
    1C        C   61   3.624   2.497   4.259
    1C        C   62   3.483   2.496   4.256
    1C        C   63   3.699   2.508   4.378
    1C        C   64   3.628   2.503   4.500
    1C        C   65   3.835   2.544   4.617
    1C        C   66   3.699   2.507   4.622
    1C        C   67   3.905   2.559   4.738
    1C        C   68   3.841   2.531   4.861
    1C        C   69   4.051   2.583   4.972
    1C        C   70   3.922   2.527   4.975
    1C        C   71   2.818   2.728   2.310
    1C        C   72   2.885   2.692   2.429
    1C        C   73   2.831   2.745   2.549
    1C        C   74   3.005   2.624   2.672
    1C        C   75   2.886   2.699   2.670
    1C        C   76   3.068   2.589   2.794
    1C        C   77   3.010   2.632   2.916
    1C        C   78   3.206   2.545   3.037
    1C        C   79   3.075   2.597   3.037
    1C        C   80   3.273   2.532   3.161
    1C        C   81   3.206   2.549   3.284
    1C        C   82   3.412   2.498   3.402
    1C        C   83   3.274   2.527   3.406
    1C        C   84   3.486   2.493   3.523
    1C        C   85   3.414   2.503   3.644
    1C        C   86   3.623   2.506   3.770
    1C        C   87   3.482   2.501   3.768
    1C        C   88   3.695   2.518   3.891
    1C        C   89   3.628   2.504   4.015
    1C        C   90   3.834   2.542   4.136
    1C        C   91   3.697   2.504   4.138
    1C        C   92   3.902   2.574   4.255
    1C        C   93   3.834   2.549   4.377
    1C        C   94   4.030   2.634   4.499
    1C        C   95   3.907   2.564   4.497
    1C        C   96   4.094   2.667   4.620
    1C        C   97   4.033   2.621   4.739
    1C        C   98   4.192   2.766   4.863
    1C        C   99   4.099   2.657   4.860
    1C        C  100   4.216   2.846   4.975
    1C        C  101   2.822   2.735   2.071
    1C        C  102   2.991   2.595   2.189
    1C        C  103   2.875   2.680   2.188
    1C        C  104   3.063   2.571   2.309
    1C        C  105   3.004   2.616   2.430
    1C        C  106   3.198   2.530   2.548
    1C        C  107   3.068   2.584   2.552
    1C        C  108   3.265   2.513   2.672
    1C        C  109   3.197   2.531   2.794
    1C        C  110   3.411   2.500   2.911
    1C        C  111   3.270   2.518   2.914
    1C        C  112   3.479   2.496   3.034
    1C        C  113   3.411   2.504   3.158
    1C        C  114   3.624   2.502   3.278
    1C        C  115   3.482   2.501   3.280
    1C        C  116   3.693   2.510   3.401
    1C        C  117   3.627   2.500   3.526
    1C        C  118   3.831   2.551   3.647
    1C        C  119   3.695   2.514   3.649
    1C        C  120   3.898   2.575   3.769
    1C        C  121   3.833   2.551   3.892
    1C        C  122   4.024   2.640   4.012
    1C        C  123   3.898   2.575   4.015
    1C        C  124   4.083   2.680   4.134
    1C        C  125   4.028   2.637   4.257
    1C        C  126   4.199   2.763   4.376
    1C        C  127   4.094   2.669   4.378
    1C        C  128   4.245   2.817   4.499
    1C        C  129   4.200   2.760   4.620
    1C        C  130   4.330   2.932   4.740
    1C        C  131   4.245   2.818   4.741
    1C        C  132   4.354   3.005   4.858
    1C        C  133   4.290   2.964   4.975
    1C        C  134   3.175   2.469   2.080
    1C        C  135   3.042   2.512   2.085
    1C        C  136   3.261   2.475   2.191
    1C        C  137   3.194   2.517   2.308
    1C        C  138   3.404   2.474   2.429
    1C        C  139   3.265   2.496   2.429
    1C        C  140   3.480   2.482   2.548
    1C        C  141   3.405   2.491   2.667
    1C        C  142   3.619   2.501   2.791
    1C        C  143   3.479   2.488   2.787
    1C        C  144   3.691   2.511   2.913
    1C        C  145   3.620   2.501   3.035
    1C        C  146   3.830   2.539   3.154
    1C        C  147   3.693   2.504   3.156
    1C        C  148   3.893   2.573   3.276
    1C        C  149   3.829   2.549   3.400
    1C        C  150   4.024   2.630   3.521
    1C        C  151   3.896   2.570   3.523
    1C        C  152   4.084   2.670   3.642
    1C        C  153   4.024   2.639   3.767
    1C        C  154   4.196   2.762   3.888
    1C        C  155   4.084   2.675   3.889
    1C        C  156   4.248   2.813   4.010
    1C        C  157   4.197   2.763   4.132
    1C        C  158   4.340   2.920   4.252
    1C        C  159   4.249   2.812   4.253
    1C        C  160   4.376   2.981   4.374
    1C        C  161   4.335   2.925   4.497
    1C        C  162   4.441   3.112   4.616
    1C        C  163   4.373   2.988   4.618
    1C        C  164   4.465   3.185   4.735
    1C        C  165   4.433   3.122   4.858
    1C        C  166   4.509   3.321   4.970
    1C        C  167   4.483   3.185   4.973
    1C        C  168   3.476   2.430   2.074
    1C        C  169   3.401   2.455   2.189
    1C        C  170   3.619   2.465   2.308
    1C        C  171   3.477   2.462   2.308
    1C        C  172   3.693   2.490   2.426
    1C        C  173   3.621   2.484   2.548
    1C        C  174   3.826   2.542   2.666
    1C        C  175   3.690   2.504   2.669
    1C        C  176   3.892   2.565   2.789
    1C        C  177   3.828   2.542   2.913
    1C        C  178   4.029   2.619   3.032
    1C        C  179   3.900   2.561   3.034
    1C        C  180   4.088   2.657   3.155
    1C        C  181   4.024   2.626   3.277
    1C        C  182   4.197   2.750   3.400
    1C        C  183   4.088   2.660   3.398
    1C        C  184   4.245   2.808   3.520
    1C        C  185   4.193   2.760   3.642
    1C        C  186   4.338   2.914   3.763
    1C        C  187   4.247   2.806   3.764
    1C        C  188   4.381   2.973   3.884
    1C        C  189   4.340   2.920   4.009
    1C        C  190   4.449   3.103   4.128
    1C        C  191   4.381   2.979   4.131
    1C        C  192   4.470   3.170   4.251
    1C        C  193   4.436   3.109   4.373
    1C        C  194   4.503   3.313   4.491
    1C        C  195   4.467   3.177   4.493
    1C        C  196   4.522   3.390   4.608
    1C        C  197   4.501   3.322   4.730
    1C        C  198   4.546   3.535   4.849
    1C        C  199   4.520   3.394   4.851
    1C        C  200   4.574   3.622   4.960
    1C        C  201   3.616   2.420   2.070
    1C        C  202   3.826   2.509   2.185
    1C        C  203   3.691   2.462   2.185
    1C        C  204   3.900   2.542   2.302
    1C        C  205   3.830   2.522   2.423
    1C        C  206   4.021   2.619   2.544
    1C        C  207   3.895   2.555   2.544
    1C        C  208   4.083   2.656   2.666
    1C        C  209   4.019   2.626   2.788
    1C        C  210   4.196   2.746   2.907
    1C        C  211   4.082   2.662   2.909
    1C        C  212   4.247   2.796   3.029
    1C        C  213   4.195   2.749   3.152
    1C        C  214   4.334   2.906   3.272
    1C        C  215   4.245   2.796   3.276
    1C        C  216   4.375   2.966   3.393
    1C        C  217   4.338   2.914   3.519
    1C        C  218   4.442   3.099   3.640
    1C        C  219   4.380   2.972   3.641
    1C        C  220   4.472   3.165   3.761
    1C        C  221   4.446   3.098   3.882
    1C        C  222   4.499   3.304   4.002
    1C        C  223   4.474   3.165   4.004
    1C        C  224   4.507   3.376   4.124
    1C        C  225   4.503   3.308   4.247
    1C        C  226   4.518   3.522   4.365
    1C        C  227   4.512   3.381   4.368
    1C        C  228   4.513   3.598   4.484
    1C        C  229   4.525   3.531   4.608
    1C        C  230   4.505   3.746   4.723
    1C        C  231   4.533   3.606   4.727
    1C        C  232   4.495   3.821   4.842
    1C        C  233   4.544   3.759   4.958
    1C        C  234   4.016   2.617   2.063
    1C        C  235   3.895   2.548   2.069
    1C        C  236   4.084   2.651   2.181
    1C        C  237   4.023   2.614   2.302
    1C        C  238   4.201   2.736   2.422
    1C        C  239   4.081   2.659   2.422
    1C        C  240   4.251   2.789   2.543
    1C        C  241   4.195   2.742   2.664
    1C        C  242   4.339   2.901   2.785
    1C        C  243   4.249   2.793   2.785
    1C        C  244   4.375   2.965   2.906
    1C        C  245   4.338   2.904   3.028
    1C        C  246   4.438   3.089   3.150
    1C        C  247   4.379   2.961   3.150
    1C        C  248   4.461   3.158   3.271
    1C        C  249   4.435   3.094   3.394
    1C        C  250   4.496   3.299   3.512
    1C        C  251   4.463   3.162   3.515
    1C        C  252   4.509   3.370   3.634
    1C        C  253   4.504   3.302   3.759
    1C        C  254   4.521   3.515   3.877
    1C        C  255   4.511   3.374   3.880
    1C        C  256   4.514   3.588   3.998
    1C        C  257   4.510   3.517   4.120
    1C        C  258   4.488   3.730   4.239
    1C        C  259   4.508   3.590   4.241
    1C        C  260   4.462   3.802   4.358
    1C        C  261   4.474   3.734   4.481
    1C        C  262   4.427   3.942   4.598
    1C        C  263   4.464   3.806   4.602
    1C        C  264   4.395   4.010   4.718
    1C        C  265   4.433   3.948   4.839
    1C        C  266   4.316   4.129   4.956
    1C        C  267   4.390   4.011   4.956
    1C        C  268   4.259   2.778   2.062
    1C        C  269   4.202   2.729   2.180
    1C        C  270   4.345   2.891   2.299
    1C        C  271   4.257   2.779   2.300
    1C        C  272   4.388   2.951   2.420
    1C        C  273   4.345   2.894   2.542
    1C        C  274   4.452   3.079   2.661
    1C        C  275   4.382   2.957   2.663
    1C        C  276   4.473   3.150   2.781
    1C        C  277   4.449   3.085   2.905
    1C        C  278   4.505   3.289   3.024
    1C        C  279   4.468   3.153   3.027
    1C        C  280   4.513   3.361   3.146
    1C        C  281   4.497   3.295   3.269
    1C        C  282   4.509   3.509   3.391
    1C        C  283   4.508   3.368   3.390
    1C        C  284   4.509   3.582   3.512
    1C        C  285   4.514   3.511   3.634
    1C        C  286   4.490   3.724   3.753
    1C        C  287   4.512   3.585   3.755
    1C        C  288   4.471   3.795   3.874
    1C        C  289   4.489   3.727   3.997
    1C        C  290   4.423   3.931   4.114
    1C        C  291   4.472   3.799   4.117
    1C        C  292   4.400   4.002   4.234
    1C        C  293   4.423   3.938   4.357
    1C        C  294   4.322   4.128   4.478
    1C        C  295   4.397   4.008   4.477
    1C        C  296   4.285   4.192   4.598
    1C        C  297   4.327   4.135   4.720
    1C        C  298   4.197   4.314   4.838
    1C        C  299   4.281   4.198   4.839
    1C        C  300   4.171   4.403   4.947
    1C        C  301   4.346   2.887   2.060
    1C        C  302   4.472   3.066   2.175
    1C        C  303   4.392   2.947   2.178
    1C        C  304   4.480   3.143   2.295
    1C        C  305   4.453   3.076   2.416
    1C        C  306   4.507   3.282   2.537
    1C        C  307   4.479   3.144   2.538
    1C        C  308   4.513   3.356   2.658
    1C        C  309   4.496   3.289   2.781
    1C        C  310   4.520   3.501   2.897
    1C        C  311   4.515   3.360   2.902
    1C        C  312   4.515   3.569   3.020
    1C        C  313   4.509   3.502   3.145
    1C        C  314   4.482   3.714   3.262
    1C        C  315   4.502   3.574   3.266
    1C        C  316   4.472   3.787   3.383
    1C        C  317   4.490   3.722   3.507
    1C        C  318   4.426   3.924   3.625
    1C        C  319   4.473   3.791   3.629
    1C        C  320   4.393   3.989   3.746
    1C        C  321   4.427   3.929   3.869
    1C        C  322   4.316   4.111   3.989
    1C        C  323   4.395   3.994   3.991
    1C        C  324   4.279   4.172   4.111
    1C        C  325   4.326   4.123   4.235
    1C        C  326   4.189   4.290   4.353
    1C        C  327   4.284   4.185   4.355
    1C        C  328   4.141   4.346   4.473
    1C        C  329   4.194   4.299   4.596
    1C        C  330   4.028   4.442   4.711
    1C        C  331   4.141   4.355   4.714
    1C        C  332   3.972   4.499   4.828
    1C        C  333   4.050   4.474   4.942
    1C        C  334   4.549   3.268   2.060
    1C        C  335   4.539   3.128   2.065
    1C        C  336   4.540   3.348   2.175
    1C        C  337   4.520   3.279   2.297
    1C        C  338   4.526   3.495   2.412
    1C        C  339   4.522   3.354   2.416
    1C        C  340   4.523   3.569   2.532
    1C        C  341   4.517   3.497   2.654
    1C        C  342   4.495   3.711   2.772
    1C        C  343   4.518   3.571   2.774
    1C        C  344   4.474   3.778   2.895
    1C        C  345   4.490   3.708   3.017
    1C        C  346   4.416   3.910   3.138
    1C        C  347   4.467   3.778   3.137
    1C        C  348   4.389   3.979   3.259
    1C        C  349   4.423   3.920   3.382
    1C        C  350   4.322   4.109   3.503
    1C        C  351   4.391   3.986   3.503
    1C        C  352   4.275   4.168   3.623
    1C        C  353   4.314   4.106   3.743
    1C        C  354   4.179   4.270   3.864
    1C        C  355   4.269   4.161   3.865
    1C        C  356   4.126   4.319   3.986
    1C        C  357   4.182   4.274   4.107
    1C        C  358   4.012   4.401   4.230
    1C        C  359   4.131   4.325   4.229
    1C        C  360   3.952   4.444   4.350
    1C        C  361   4.018   4.415   4.472
    1C        C  362   3.825   4.511   4.593
    1C        C  363   3.957   4.460   4.591
    1C        C  364   3.760   4.543   4.714
    1C        C  365   3.839   4.546   4.831
    1C        C  366   3.628   4.594   4.947
    1C        C  367   3.765   4.570   4.947
    1C        C  368   4.509   3.561   2.050
    1C        C  369   4.518   3.487   2.168
    1C        C  370   4.501   3.702   2.289
    1C        C  371   4.517   3.562   2.288
    1C        C  372   4.483   3.778   2.407
    1C        C  373   4.501   3.708   2.528
    1C        C  374   4.421   3.906   2.650
    1C        C  375   4.480   3.778   2.649
    1C        C  376   4.384   3.969   2.771
    1C        C  377   4.421   3.909   2.893
    1C        C  378   4.321   4.096   3.010
    1C        C  379   4.389   3.973   3.015
    1C        C  380   4.275   4.151   3.132
    1C        C  381   4.315   4.100   3.257
    1C        C  382   4.182   4.263   3.374
    1C        C  383   4.280   4.162   3.379
    1C        C  384   4.130   4.315   3.495
    1C        C  385   4.176   4.269   3.621
    1C        C  386   4.008   4.396   3.740
    1C        C  387   4.127   4.321   3.743
    1C        C  388   3.946   4.432   3.862
    1C        C  389   4.010   4.400   3.984
    1C        C  390   3.821   4.491   4.109
    1C        C  391   3.951   4.435   4.107
    1C        C  392   3.750   4.513   4.228
    1C        C  393   3.823   4.500   4.349
    1C        C  394   3.618   4.552   4.473
    1C        C  395   3.758   4.530   4.471
    1C        C  396   3.546   4.559   4.594
    1C        C  397   3.619   4.556   4.714
    1C        C  398   3.408   4.547   4.837
    1C        C  399   3.548   4.570   4.835
    1C        C  400   3.345   4.518   4.958
    1C        C  401   4.503   3.700   2.050
    1C        C  402   4.448   3.910   2.164
    1C        C  403   4.487   3.774   2.168
    1C        C  404   4.407   3.974   2.283
    1C        C  405   4.435   3.911   2.406
    1C        C  406   4.328   4.095   2.524
    1C        C  407   4.400   3.974   2.527
    1C        C  408   4.274   4.147   2.644
    1C        C  409   4.310   4.089   2.768
    1C        C  410   4.175   4.252   2.888
    1C        C  411   4.276   4.154   2.889
    1C        C  412   4.126   4.300   3.012
    1C        C  413   4.173   4.249   3.135
    1C        C  414   4.001   4.380   3.253
    1C        C  415   4.120   4.304   3.254
    1C        C  416   3.941   4.419   3.375
    1C        C  417   4.007   4.385   3.495
    1C        C  418   3.816   4.477   3.619
    1C        C  419   3.947   4.426   3.616
    1C        C  420   3.748   4.503   3.740
    1C        C  421   3.815   4.485   3.863
    1C        C  422   3.612   4.536   3.987
    1C        C  423   3.751   4.508   3.987
    1C        C  424   3.539   4.538   4.108
    1C        C  425   3.611   4.540   4.229
    1C        C  426   3.402   4.545   4.355
    1C        C  427   3.544   4.549   4.353
    1C        C  428   3.331   4.540   4.476
    1C        C  429   3.405   4.547   4.596
    1C        C  430   3.193   4.519   4.724
    1C        C  431   3.332   4.546   4.718
    1C        C  432   3.124   4.493   4.845
    1C        C  433   3.209   4.487   4.956
    1C        C  434   4.385   4.120   2.053
    1C        C  435   4.442   3.993   2.051
    1C        C  436   4.302   4.161   2.162
    1C        C  437   4.328   4.093   2.284
    1C        C  438   4.184   4.253   2.399
    1C        C  439   4.283   4.153   2.404
    1C        C  440   4.126   4.299   2.520
    1C        C  441   4.176   4.249   2.642
    1C        C  442   4.011   4.381   2.764
    1C        C  443   4.124   4.297   2.764
    1C        C  444   3.948   4.416   2.885
    1C        C  445   4.009   4.379   3.008
    1C        C  446   3.813   4.467   3.128
    1C        C  447   3.942   4.409   3.128
    1C        C  448   3.747   4.495   3.249
    1C        C  449   3.809   4.470   3.373
    1C        C  450   3.607   4.522   3.496
    1C        C  451   3.746   4.493   3.498
    1C        C  452   3.541   4.538   3.620
    1C        C  453   3.610   4.534   3.744
    1C        C  454   3.398   4.541   3.863
    1C        C  455   3.540   4.543   3.866
    1C        C  456   3.331   4.523   3.986
    1C        C  457   3.398   4.524   4.110
    1C        C  458   3.192   4.502   4.237
    1C        C  459   3.331   4.530   4.234
    1C        C  460   3.125   4.487   4.360
    1C        C  461   3.192   4.513   4.481
    1C        C  462   2.996   4.433   4.603
    1C        C  463   3.123   4.497   4.603
    1C        C  464   2.933   4.399   4.725
    1C        C  465   2.990   4.443   4.848
    1C        C  466   2.799   4.339   4.960
    1C        C  467   2.905   4.430   4.963
    1C        C  468   4.129   4.289   2.039
    1C        C  469   4.189   4.250   2.159
    1C        C  470   4.007   4.374   2.278
    1C        C  471   4.128   4.298   2.278
    1C        C  472   3.944   4.409   2.399
    1C        C  473   4.009   4.379   2.521
    1C        C  474   3.813   4.460   2.643
    1C        C  475   3.946   4.413   2.643
    1C        C  476   3.745   4.483   2.765
    1C        C  477   3.816   4.467   2.886
    1C        C  478   3.606   4.516   3.008
    1C        C  479   3.745   4.490   3.006
    1C        C  480   3.536   4.529   3.130
    1C        C  481   3.608   4.523   3.252
    1C        C  482   3.396   4.533   3.377
    1C        C  483   3.537   4.531   3.374
    1C        C  484   3.325   4.530   3.499
    1C        C  485   3.400   4.539   3.618
    1C        C  486   3.192   4.496   3.744
    1C        C  487   3.329   4.531   3.740
    1C        C  488   3.129   4.470   3.868
    1C        C  489   3.194   4.491   3.992
    1C        C  490   3.002   4.406   4.117
    1C        C  491   3.127   4.473   4.115
    1C        C  492   2.942   4.375   4.241
    1C        C  493   2.998   4.424   4.361
    1C        C  494   2.826   4.300   4.484
    1C        C  495   2.938   4.386   4.483
    1C        C  496   2.776   4.253   4.607
    1C        C  497   2.820   4.313   4.728
    1C        C  498   2.663   4.165   4.844
    1C        C  499   2.751   4.275   4.845
    1C        C  500   2.594   4.117   4.956
    1C        C  501   4.005   4.352   2.041
    1C        C  502   3.814   4.460   2.155
    1C        C  503   3.942   4.402   2.156
    1C        C  504   3.744   4.481   2.276
    1C        C  505   3.812   4.458   2.397
    1C        C  506   3.605   4.501   2.519
    1C        C  507   3.745   4.478   2.520
    1C        C  508   3.534   4.510   2.640
    1C        C  509   3.606   4.506   2.761
    1C        C  510   3.396   4.521   2.886
    1C        C  511   3.538   4.517   2.885
    1C        C  512   3.325   4.517   3.008
    1C        C  513   3.395   4.527   3.130
    1C        C  514   3.190   4.485   3.255
    1C        C  515   3.326   4.522   3.254
    1C        C  516   3.124   4.463   3.378
    1C        C  517   3.188   4.496   3.500
    1C        C  518   2.998   4.407   3.626
    1C        C  519   3.123   4.473   3.623
    1C        C  520   2.941   4.371   3.750
    1C        C  521   2.999   4.416   3.871
    1C        C  522   2.835   4.280   3.995
    1C        C  523   2.944   4.370   3.993
    1C        C  524   2.789   4.228   4.118
    1C        C  525   2.834   4.284   4.240
    1C        C  526   2.690   4.134   4.366
    1C        C  527   2.777   4.246   4.364
    1C        C  528   2.651   4.075   4.487
    1C        C  529   2.686   4.144   4.605
    1C        C  530   2.580   3.961   4.730
    1C        C  531   2.637   4.091   4.727
    1C        C  532   2.539   3.900   4.852
    1C        C  533   2.522   3.997   4.956
    1C        C  534   3.617   4.554   2.036
    1C        C  535   3.751   4.511   2.040
    1C        C  536   3.536   4.532   2.152
    1C        C  537   3.604   4.509   2.275
    1C        C  538   3.392   4.511   2.400
    1C        C  539   3.534   4.509   2.397
    1C        C  540   3.321   4.506   2.521
    1C        C  541   3.393   4.508   2.643
    1C        C  542   3.183   4.485   2.765
    1C        C  543   3.323   4.508   2.766
    1C        C  544   3.119   4.461   2.888
    1C        C  545   3.188   4.483   3.009
    1C        C  546   2.995   4.404   3.136
    1C        C  547   3.123   4.463   3.133
    1C        C  548   2.934   4.368   3.258
    1C        C  549   2.997   4.400   3.381
    1C        C  550   2.829   4.277   3.507
    1C        C  551   2.938   4.367   3.504
    1C        C  552   2.781   4.228   3.631
    1C        C  553   2.833   4.280   3.751
    1C        C  554   2.699   4.117   3.879
    1C        C  555   2.782   4.231   3.874
    1C        C  556   2.654   4.061   4.000
    1C        C  557   2.692   4.125   4.120
    1C        C  558   2.598   3.941   4.244
    1C        C  559   2.651   4.073   4.245
    1C        C  560   2.573   3.878   4.368
    1C        C  561   2.591   3.947   4.490
    1C        C  562   2.531   3.746   4.614
    1C        C  563   2.561   3.884   4.613
    1C        C  564   2.511   3.681   4.738
    1C        C  565   2.520   3.758   4.857
    1C        C  566   2.532   3.545   4.977
    1C        C  567   2.534   3.684   4.975
    1C        C  568   3.323   4.476   2.040
    1C        C  569   3.395   4.513   2.154
    1C        C  570   3.185   4.476   2.278
    1C        C  571   3.323   4.508   2.277
    1C        C  572   3.117   4.453   2.400
    1C        C  573   3.182   4.479   2.522
    1C        C  574   2.985   4.403   2.647
    1C        C  575   3.113   4.462   2.645
    1C        C  576   2.928   4.365   2.771
    1C        C  577   2.993   4.397   2.892
    1C        C  578   2.824   4.273   3.019
    1C        C  579   2.933   4.362   3.016
    1C        C  580   2.772   4.225   3.142
    1C        C  581   2.828   4.275   3.261
    1C        C  582   2.689   4.118   3.389
    1C        C  583   2.780   4.226   3.385
    1C        C  584   2.650   4.058   3.510
    1C        C  585   2.695   4.116   3.631
    1C        C  586   2.597   3.932   3.754
    1C        C  587   2.662   4.058   3.756
    1C        C  588   2.570   3.868   3.877
    1C        C  589   2.594   3.933   4.000
    1C        C  590   2.529   3.736   4.129
    1C        C  591   2.572   3.871   4.125
    1C        C  592   2.519   3.667   4.252
    1C        C  593   2.536   3.741   4.371
    1C        C  594   2.509   3.533   4.496
    1C        C  595   2.517   3.674   4.494
    1C        C  596   2.522   3.465   4.619
    1C        C  597   2.514   3.538   4.739
    1C        C  598   2.536   3.327   4.862
    1C        C  599   2.527   3.467   4.860
    1C        C  600   2.535   3.249   4.979
    1C        C  601   3.194   4.426   2.043
    1C        C  602   2.982   4.390   2.160
    1C        C  603   3.116   4.440   2.158
    1C        C  604   2.924   4.356   2.285
    1C        C  605   2.991   4.391   2.404
    1C        C  606   2.816   4.271   2.528
    1C        C  607   2.927   4.359   2.526
    1C        C  608   2.773   4.220   2.653
    1C        C  609   2.822   4.272   2.774
    1C        C  610   2.687   4.111   2.895
    1C        C  611   2.771   4.225   2.897
    1C        C  612   2.653   4.053   3.019
    1C        C  613   2.690   4.109   3.143
    1C        C  614   2.592   3.927   3.265
    1C        C  615   2.651   4.056   3.268
    1C        C  616   2.567   3.863   3.389
    1C        C  617   2.593   3.929   3.511
    1C        C  618   2.536   3.726   3.637
    1C        C  619   2.570   3.863   3.634
    1C        C  620   2.521   3.659   3.761
    1C        C  621   2.534   3.731   3.882
    1C        C  622   2.514   3.525   4.009
    1C        C  623   2.521   3.666   4.006
    1C        C  624   2.516   3.454   4.131
    1C        C  625   2.509   3.526   4.252
    1C        C  626   2.533   3.319   4.378
    1C        C  627   2.510   3.458   4.376
    1C        C  628   2.556   3.252   4.501
    1C        C  629   2.542   3.325   4.621
    1C        C  630   2.591   3.117   4.742
    1C        C  631   2.550   3.253   4.742
    1C        C  632   2.617   3.049   4.864
    1C        C  633   2.563   3.112   4.981
    1C        C  634   2.782   4.300   2.051
    1C        C  635   2.890   4.388   2.050
    1C        C  636   2.743   4.232   2.168
    1C        C  637   2.808   4.273   2.286
    1C        C  638   2.676   4.108   2.408
    1C        C  639   2.760   4.222   2.408
    1C        C  640   2.639   4.050   2.532
    1C        C  641   2.683   4.111   2.651
    1C        C  642   2.582   3.925   2.778
    1C        C  643   2.644   4.052   2.774
    1C        C  644   2.560   3.861   2.901
    1C        C  645   2.593   3.926   3.022
    1C        C  646   2.522   3.726   3.148
    1C        C  647   2.560   3.862   3.144
    1C        C  648   2.508   3.656   3.270
    1C        C  649   2.525   3.728   3.391
    1C        C  650   2.509   3.519   3.518
    1C        C  651   2.516   3.660   3.514
    1C        C  652   2.513   3.448   3.640
    1C        C  653   2.515   3.518   3.763
    1C        C  654   2.532   3.312   3.888
    1C        C  655   2.513   3.452   3.888
    1C        C  656   2.549   3.245   4.011
    1C        C  657   2.537   3.314   4.133
    1C        C  658   2.604   3.117   4.256
    1C        C  659   2.551   3.248   4.257
    1C        C  660   2.633   3.054   4.379
    1C        C  661   2.603   3.118   4.501
    1C        C  662   2.703   2.932   4.621
    1C        C  663   2.629   3.052   4.623
    1C        C  664   2.748   2.876   4.743
    1C        C  665   2.701   2.933   4.864
    1C        C  666   2.742   2.869   4.982
    1C        C  667   2.680   4.023   2.055
    1C        C  668   2.678   4.107   2.167
    1C        C  669   2.582   3.915   2.291
    1C        C  670   2.638   4.046   2.287
    1C        C  671   2.554   3.850   2.413
    1C        C  672   2.580   3.921   2.532
    1C        C  673   2.522   3.721   2.659
    1C        C  674   2.559   3.857   2.656
    1C        C  675   2.518   3.652   2.782
    1C        C  676   2.527   3.723   2.904
    1C        C  677   2.505   3.513   3.029
    1C        C  678   2.513   3.654   3.026
    1C        C  679   2.505   3.443   3.152
    1C        C  680   2.500   3.515   3.273
    1C        C  681   2.520   3.306   3.398
    1C        C  682   2.500   3.446   3.397
    1C        C  683   2.534   3.236   3.520
    1C        C  684   2.524   3.307   3.641
    1C        C  685   2.582   3.107   3.769
    1C        C  686   2.541   3.242   3.766
    1C        C  687   2.626   3.045   3.889
    1C        C  688   2.596   3.111   4.010
    1C        C  689   2.716   2.939   4.136
    1C        C  690   2.631   3.052   4.133
    1C        C  691   2.756   2.880   4.258
    1C        C  692   2.710   2.935   4.380
    1C        C  693   2.749   2.874   4.501
    1C        C  694   2.629   3.892   2.054
    1C        C  695   2.522   3.708   2.173
    1C        C  696   2.578   3.838   2.173
    1C        C  697   2.505   3.640   2.295
    1C        C  698   2.520   3.712   2.415
    1C        C  699   2.491   3.508   2.543
    1C        C  700   2.502   3.648   2.539
    1C        C  701   2.504   3.438   2.665
    1C        C  702   2.505   3.511   2.786
    1C        C  703   2.529   3.301   2.908
    1C        C  704   2.507   3.440   2.908
    1C        C  705   2.544   3.235   3.032
    1C        C  706   2.531   3.305   3.154
    1C        C  707   2.595   3.105   3.278
    1C        C  708   2.543   3.237   3.277
    1C        C  709   2.624   3.045   3.403
    1C        C  710   2.592   3.107   3.525
    1C        C  711   2.704   2.930   3.648
    1C        C  712   2.617   3.042   3.649
    1C        C  713   2.751   2.875   3.769
    1C        C  714   2.710   2.932   3.892
    1C        C  715   2.758   2.880   4.014
    1C        C  716   2.450   3.498   2.063
    1C        C  717   2.494   3.631   2.059
    1C        C  718   2.459   3.423   2.184
    1C        C  719   2.477   3.500   2.302
    1C        C  720   2.516   3.293   2.423
    1C        C  721   2.485   3.431   2.424
    1C        C  722   2.537   3.223   2.544
    1C        C  723   2.523   3.298   2.663
    1C        C  724   2.592   3.099   2.791
    1C        C  725   2.543   3.231   2.785
    1C        C  726   2.622   3.035   2.913
    1C        C  727   2.593   3.102   3.034
    1C        C  728   2.707   2.924   3.158
    1C        C  729   2.627   3.041   3.156
    1C        C  730   2.753   2.874   3.282
    1C        C  731   2.705   2.929   3.403
    1C        C  732   2.752   2.878   3.526
    1C        C  733   2.499   3.201   2.070
    1C        C  734   2.484   3.281   2.184
    1C        C  735   2.589   3.091   2.307
    1C        C  736   2.526   3.218   2.304
    1C        C  737   2.618   3.023   2.427
    1C        C  738   2.592   3.093   2.547
    1C        C  739   2.697   2.911   2.670
    1C        C  740   2.624   3.032   2.671
    1C        C  741   2.740   2.854   2.792
    1C        C  742   2.696   2.914   2.912
    1C        C  743   2.746   2.867   3.035
    1C        C  744   2.547   3.071   2.073
    1C        C  745   2.683   2.899   2.188
    1C        C  746   2.610   3.019   2.187
    1C        C  747   2.731   2.840   2.307
    1C        C  748   2.687   2.900   2.427
    1C        C  749   2.732   2.846   2.549
    1C        C  750   2.737   2.845   2.070
    1C        C  751   3.656   2.294   2.004
    1C        O  752   3.710   2.203   2.071
    1C        O  753   3.721   2.295   1.880
    1C        C  754   4.628   3.056   1.971
    1C        O  755   4.591   3.047   1.851
    1C        O  756   4.766   3.046   1.995
    1C        C  757   4.443   4.217   1.957
    1C        O  758   4.552   4.270   1.992
    1C        O  759   4.410   4.229   1.822
    1C        C  760   3.580   4.659   1.939
    1C        O  761   3.591   4.783   1.959
    1C        O  762   3.542   4.620   1.809
    1C        C  763   2.864   4.505   1.963
    1C        O  764   2.906   4.517   1.844
    1C        O  765   2.805   4.624   2.006
    1C        C  766   2.346   3.475   1.961
    1C        O  767   2.380   3.470   1.840
    1C        O  768   2.223   3.540   1.977
    1C        C  769   4.668   3.580   5.065
    1C        O  770   4.636   3.555   5.185
    1C        O  771   4.807   3.598   5.059
    1C        C  772   4.270   4.455   5.044
    1C        O  773   4.268   4.413   5.163
    1C        O  774   4.296   4.593   5.047
    1C        C  775   4.144   2.512   5.063
    1C        O  776   4.186   2.395   5.044
    1C        O  777   4.144   2.520   5.203
    1C        C  778   2.902   4.520   5.080
    1C        O  779   2.806   4.595   5.110
    1C        O  780   2.977   4.495   5.196
    1C        C  781   2.469   3.037   5.068
    1C        O  782   2.367   2.973   5.031
    1C        O  783   2.501   3.025   5.203
    1C        C  784   2.408   3.978   5.049
    1C        O  785   2.296   4.028   5.021
    1C        O  786   2.439   3.954   5.184
    1C        C  787   2.951   2.427   2.005
    1C        O  788   2.919   2.462   1.888
    1C        O  789   2.935   2.294   2.041
    1C        C  790   3.184   2.384   5.074
    1C        O  791   3.210   2.265   5.045
    1C        O  792   3.205   2.414   5.209
    1C        H  793   4.286   3.025   5.063
    1C        H  794   4.171   2.814   5.067
    1C        H  795   4.517   3.116   5.048
    1C        H  796   4.500   3.380   5.060
    1C        H  797   4.603   3.821   5.022
    1C        H  798   4.416   3.971   5.052
    1C        H  799   4.306   4.180   5.049
    1C        H  800   4.033   4.543   5.021
    1C        H  801   3.815   4.578   5.042
    1C        H  802   3.594   4.669   5.015
    1C        H  803   3.405   4.493   5.043
    1C        H  804   3.166   4.440   5.042
    1C        H  805   3.899   2.457   5.053
    1C        H  806   3.684   2.467   5.072
    1C        H  807   3.000   2.554   5.061
    1C        H  808   3.446   2.486   5.075
    1C        H  809   2.911   2.773   5.062
    1C        H  810   2.662   2.854   5.052
    1C        H  811   2.526   3.297   5.074
    1C        H  812   2.467   3.511   5.054
    1C        H  813   2.530   3.738   5.067
    1C        H  814   2.593   4.177   5.045
    1C        H  815   2.743   4.318   5.049
    1C        H  816   2.738   2.906   1.982
    1C        H  817   2.846   2.690   1.977
    1C        H  818   3.206   2.423   1.988
    1C        H  819   3.429   2.439   1.978
    1C        H  820   3.856   2.524   1.972
    1C        H  821   4.046   2.658   1.970
    1C        H  822   4.277   2.697   1.994
    1C        H  823   4.359   2.930   1.963
    1C        H  824   4.545   3.312   1.963
    1C        H  825   4.458   3.516   1.968
    1C        H  826   4.489   3.743   1.953
    1C        H  827   3.805   4.533   1.951
    1C        H  828   3.966   4.380   1.945
    1C        H  829   4.178   4.269   1.947
    1C        H  830   4.532   3.982   1.993
    1C        H  831   2.677   3.824   1.987
    1C        H  832   2.716   4.063   1.962
    1C        H  833   2.710   4.307   1.972
    1C        H  834   3.375   4.445   1.952
    1C        H  835   3.163   4.360   1.964
    1C        H  836   2.537   3.008   1.987
    1C        H  837   2.458   3.242   1.980
    1C        H  838   2.485   3.681   1.965
    2V3OU   H29  839   2.805   3.549   3.220
    2V3OU   C27  840   2.788   3.508   3.323
    2V3OU   H27  841   2.733   3.577   3.391
    2V3OU   H28  842   2.738   3.409   3.314
    2V3OU   O11  843   2.914   3.479   3.384
    2V3OU   C15  844   2.926   3.398   3.496
    2V3OU   C13  845   3.051   3.370   3.554
    2V3OU   C14  846   3.078   3.267   3.646
    2V3OU   C16  847   2.976   3.184   3.690
    2V3OU    H6  848   2.993   3.101   3.760
    2V3OU   C12  849   3.212   3.228   3.697
    2V3OU    O2  850   3.232   3.127   3.767
    2V3OU   C10  851   3.323   3.307   3.643
    2V3OU    C8  852   3.456   3.270   3.664
    2V3OU   O10  853   3.490   3.150   3.719
    2V3OU   H26  854   3.404   3.108   3.738
    2V3OU    C6  855   3.567   3.351   3.626
    2V3OU    C5  856   3.538   3.470   3.559
    2V3OU    C4  857   3.705   3.296   3.624
    2V3OU    H4  858   3.720   3.224   3.710
    2V3OU    H5  859   3.707   3.230   3.532
    2V3OU    C2  860   3.819   3.398   3.622
    2V3OU    O6  861   3.812   3.475   3.742
    2V3OU   H21  862   3.766   3.559   3.726
    2V3OU    C3  863   3.784   3.494   3.508
    2V3OU    H2  864   3.869   3.566   3.506
    2V3OU    H3  865   3.783   3.442   3.409
    2V3OU   C25  866   3.955   3.330   3.607
    2V3OU    O7  867   4.001   3.292   3.499
    2V3OU   C26  868   4.030   3.288   3.732
    2V3OU   H22  869   4.069   3.383   3.778
    2V3OU   H23  870   4.121   3.228   3.705
    2V3OU    O8  871   3.963   3.209   3.827
    2V3OU   H24  872   3.926   3.264   3.897
    2V3OU    C1  873   3.652   3.565   3.534
    2V3OU    H1  874   3.622   3.615   3.437
    2V3OU    O3  875   3.658   3.652   3.647
    2V3OU   C19  876   3.611   3.787   3.639
    2V3OU    H9  877   3.512   3.802   3.586
    2V3OU    O4  878   3.711   3.845   3.557
    2V3OU   C20  879   3.843   3.867   3.607
    2V3OU   H10  880   3.892   3.768   3.631
    2V3OU   C24  881   3.604   3.853   3.777
    2V3OU   H16  882   3.541   3.792   3.846
    2V3OU   H17  883   3.560   3.956   3.774
    2V3OU   C23  884   3.744   3.878   3.834
    2V3OU   H15  885   3.789   3.777   3.864
    2V3OU    N1  886   3.734   3.954   3.957
    2V3OU   H19  887   3.810   3.921   4.014
    2V3OU   H20  888   3.645   3.936   3.998
    2V3OU   C21  889   3.848   3.944   3.739
    2V3OU   H11  890   3.950   3.924   3.784
    2V3OU    O5  891   3.828   4.085   3.743
    2V3OU   H18  892   3.778   4.095   3.825
    2V3OU   C22  893   3.914   3.950   3.502
    2V3OU   H12  894   3.856   4.043   3.482
    2V3OU   H13  895   3.909   3.897   3.403
    2V3OU   H14  896   4.022   3.962   3.531
    2V3OU   C11  897   3.159   3.468   3.543
    2V3OU    O1  898   3.133   3.583   3.501
    2V3OU    C9  899   3.298   3.426   3.571
    2V3OU    C7  900   3.403   3.507   3.529
    2V3OU    O9  901   3.387   3.623   3.456
    2V3OU   H25  902   3.290   3.634   3.453
    2V3OU   C17  903   2.826   3.314   3.549
    2V3OU    H7  904   2.730   3.347   3.507
    2V3OU   C18  905   2.848   3.215   3.643
    2V3OU    H8  906   2.782   3.175   3.721
    3SOL     OW  907   2.761   4.748   6.030
    3SOL    HW1  908   2.804   4.765   5.941
    3SOL    HW2  909   2.714   4.659   6.027
    4SOL     OW  910   6.618   6.888   6.907
    4SOL    HW1  911   6.591   6.981   6.881
    4SOL    HW2  912   6.598   6.825   6.833
    5SOL     OW  913   5.199   2.389   2.029
    5SOL    HW1  914   5.258   2.325   2.078
    5SOL    HW2  915   5.123   2.416   2.089
    6SOL     OW  916   4.742   1.948   2.248
    6SOL    HW1  917   4.839   1.955   2.269
    6SOL    HW2  918   4.700   2.040   2.253
    7SOL     OW  919   0.562   4.021   3.905
    7SOL    HW1  920   0.563   4.104   3.851
    7SOL    HW2  921   0.523   4.040   3.995
    8SOL     OW  922   2.755   2.201   5.447
    8SOL    HW1  923   2.753   2.102   5.429
    8SOL    HW2  924   2.824   2.243   5.387
    9SOL     OW  925   6.018   2.307   5.825
    9SOL    HW1  926   6.066   2.393   5.841
    9SOL    HW2  927   6.035   2.244   5.901
   10SOL     OW  928   2.767   4.960   4.800
   10SOL    HW1  929   2.729   4.896   4.867
   10SOL    HW2  930   2.840   5.013   4.842
   11SOL     OW  931   1.819   1.506   6.072
   11SOL    HW1  932   1.794   1.410   6.067
   11SOL    HW2  933   1.917   1.517   6.060
   12SOL     OW  934   3.013   4.864   3.865
   12SOL    HW1  935   2.964   4.833   3.946
   12SOL    HW2  936   3.112   4.855   3.880
   13SOL     OW  937   4.320   6.072   3.420
   13SOL    HW1  938   4.338   6.122   3.335
   13SOL    HW2  939   4.370   6.115   3.494
   14SOL     OW  940   3.765   5.009   6.196
   14SOL    HW1  941   3.832   4.963   6.138
   14SOL    HW2  942   3.804   5.023   6.287
   15SOL     OW  943   0.857   6.610   0.072
   15SOL    HW1  944   0.939   6.557   0.051
   15SOL    HW2  945   0.869   6.704   0.041
   16SOL     OW  946   5.339   2.705   6.509
   16SOL    HW1  947   5.383   2.661   6.431
   16SOL    HW2  948   5.251   2.662   6.527
   17SOL     OW  949   5.247   0.209   6.503
   17SOL    HW1  950   5.172   0.204   6.570
   17SOL    HW2  951   5.217   0.169   6.417
   18SOL     OW  952   3.619   0.883   4.891
   18SOL    HW1  953   3.555   0.902   4.965
   18SOL    HW2  954   3.620   0.960   4.827
   19SOL     OW  955   0.523   2.679   2.142
   19SOL    HW1  956   0.484   2.768   2.118
   19SOL    HW2  957   0.510   2.615   2.067
   20SOL     OW  958   4.869   2.315   5.331
   20SOL    HW1  959   4.856   2.398   5.278
   20SOL    HW2  960   4.959   2.276   5.310
   21SOL     OW  961   2.613   0.782   3.062
   21SOL    HW1  962   2.614   0.878   3.089
   21SOL    HW2  963   2.522   0.744   3.077
   22SOL     OW  964   1.284   5.998   0.292
   22SOL    HW1  965   1.186   5.998   0.311
   22SOL    HW2  966   1.327   6.075   0.339
   23SOL     OW  967   3.951   5.282   2.170
   23SOL    HW1  968   3.932   5.353   2.102
   23SOL    HW2  969   3.864   5.248   2.207
   24SOL     OW  970   3.665   0.372   2.430
   24SOL    HW1  971   3.580   0.375   2.482
   24SOL    HW2  972   3.668   0.448   2.365
   25SOL     OW  973   2.065   0.215   3.498
   25SOL    HW1  974   2.079   0.264   3.412
   25SOL    HW2  975   2.151   0.172   3.526
   26SOL     OW  976   6.703   2.105   6.890
   26SOL    HW1  977   6.656   2.054   6.818
   26SOL    HW2  978   6.720   2.199   6.859
   27SOL     OW  979   1.854   1.664   1.841
   27SOL    HW1  980   1.885   1.759   1.835
   27SOL    HW2  981   1.812   1.648   1.930
   28SOL     OW  982   0.742   0.959   4.913
   28SOL    HW1  983   0.792   0.887   4.864
   28SOL    HW2  984   0.787   1.047   4.898
   29SOL     OW  985   6.607   1.218   1.052
   29SOL    HW1  986   6.516   1.230   1.091
   29SOL    HW2  987   6.601   1.171   0.964
   30SOL     OW  988   5.035   0.085   5.255
   30SOL    HW1  989   5.095   0.053   5.181
   30SOL    HW2  990   5.060   0.039   5.340
   31SOL     OW  991   0.711   2.502   5.727
   31SOL    HW1  992   0.801   2.532   5.759
   31SOL    HW2  993   0.663   2.580   5.686
   32SOL     OW  994   1.193   2.022   2.156
   32SOL    HW1  995   1.206   2.111   2.113
   32SOL    HW2  996   1.212   1.950   2.089
   33SOL     OW  997   0.897   4.603   5.008
   33SOL    HW1  998   0.981   4.646   5.040
   33SOL    HW2  999   0.892   4.609   4.908
   34SOL     OW 1000   2.440   5.650   5.164
   34SOL    HW1 1001   2.441   5.746   5.193
   34SOL    HW2 1002   2.534   5.618   5.151
   35SOL     OW 1003   4.422   2.202   5.692
   35SOL    HW1 1004   4.452   2.296   5.711
   35SOL    HW2 1005   4.329   2.190   5.726
   36SOL     OW 1006   4.710   1.795   3.693
   36SOL    HW1 1007   4.790   1.746   3.726
   36SOL    HW2 1008   4.673   1.748   3.613
   37SOL     OW 1009   1.626   2.081   4.852
   37SOL    HW1 1010   1.629   2.161   4.911
   37SOL    HW2 1011   1.581   2.105   4.765
   38SOL     OW 1012   1.377   4.971   1.639
   38SOL    HW1 1013   1.400   4.875   1.624
   38SOL    HW2 1014   1.282   4.987   1.613
   39SOL     OW 1015   5.990   5.005   6.043
   39SOL    HW1 1016   5.926   5.025   6.118
   39SOL    HW2 1017   5.943   4.951   5.974
   40SOL     OW 1018   3.673   2.075   0.070
   40SOL    HW1 1019   3.647   2.058   6.996
   40SOL    HW2 1020   3.620   2.016   0.131
   41SOL     OW 1021   5.676   3.489   3.190
   41SOL    HW1 1022   5.775   3.480   3.198
   41SOL    HW2 1023   5.634   3.398   3.190
   42SOL     OW 1024   3.331   6.414   4.774
   42SOL    HW1 1025   3.309   6.328   4.820
   42SOL    HW2 1026   3.251   6.474   4.775
   43SOL     OW 1027   4.328   0.949   5.298
   43SOL    HW1 1028   4.247   0.994   5.337
   43SOL    HW2 1029   4.311   0.926   5.203
   44SOL     OW 1030   5.664   2.474   5.206
   44SOL    HW1 1031   5.577   2.523   5.203
   44SOL    HW2 1032   5.694   2.454   5.113
   45SOL     OW 1033   4.465   5.133   1.677
   45SOL    HW1 1034   4.445   5.035   1.684
   45SOL    HW2 1035   4.496   5.166   1.766
   46SOL     OW 1036   1.498   2.294   3.805
   46SOL    HW1 1037   1.484   2.391   3.821
   46SOL    HW2 1038   1.545   2.254   3.884
   47SOL     OW 1039   4.028   4.264   1.194
   47SOL    HW1 1040   3.983   4.181   1.160
   47SOL    HW2 1041   3.959   4.327   1.229
   48SOL     OW 1042   6.764   2.348   6.757
   48SOL    HW1 1043   6.723   2.438   6.770
   48SOL    HW2 1044   6.862   2.358   6.743
   49SOL     OW 1045   6.057   2.534   1.523
   49SOL    HW1 1046   6.108   2.614   1.489
   49SOL    HW2 1047   6.121   2.461   1.546
   50SOL     OW 1048   6.496   1.222   5.236
   50SOL    HW1 1049   6.404   1.186   5.221
   50SOL    HW2 1050   6.551   1.209   5.154
   51SOL     OW 1051   2.246   6.379   2.486
   51SOL    HW1 1052   2.256   6.478   2.485
   51SOL    HW2 1053   2.262   6.345   2.578
   52SOL     OW 1054   5.397   3.613   1.850
   52SOL    HW1 1055   5.327   3.684   1.839
   52SOL    HW2 1056   5.401   3.584   1.945
   53SOL     OW 1057   4.858   0.886   3.577
   53SOL    HW1 1058   4.889   0.879   3.482
   53SOL    HW2 1059   4.840   0.795   3.613
   54SOL     OW 1060   5.779   6.699   0.954
   54SOL    HW1 1061   5.721   6.760   0.899
   54SOL    HW2 1062   5.860   6.674   0.901
   55SOL     OW 1063   1.986   2.727   5.115
   55SOL    HW1 1064   1.935   2.798   5.066
   55SOL    HW2 1065   2.074   2.764   5.144
   56SOL     OW 1066   0.736   1.133   1.062
   56SOL    HW1 1067   0.835   1.147   1.059
   56SOL    HW2 1068   0.704   1.101   0.972
   57SOL     OW 1069   3.850   1.277   0.722
   57SOL    HW1 1070   3.819   1.249   0.813
   57SOL    HW2 1071   3.899   1.202   0.679
   58SOL     OW 1072   0.764   6.616   5.749
   58SOL    HW1 1073   0.722   6.679   5.684
   58SOL    HW2 1074   0.851   6.582   5.712
   59SOL     OW 1075   0.080   3.581   5.949
   59SOL    HW1 1076   0.111   3.671   5.919
   59SOL    HW2 1077   0.009   3.592   6.019
   60SOL     OW 1078   4.724   2.864   4.299
   60SOL    HW1 1079   4.741   2.957   4.265
   60SOL    HW2 1080   4.762   2.798   4.234
   61SOL     OW 1081   6.826   1.049   4.392
   61SOL    HW1 1082   6.921   1.029   4.419
   61SOL    HW2 1083   6.802   0.994   4.312
   62SOL     OW 1084   2.371   1.503   1.995
   62SOL    HW1 1085   2.439   1.438   2.027
   62SOL    HW2 1086   2.368   1.502   1.895
   63SOL     OW 1087   3.998   0.265   4.124
   63SOL    HW1 1088   4.085   0.299   4.161
   63SOL    HW2 1089   3.997   0.275   4.025
   64SOL     OW 1090   0.086   3.017   6.585
   64SOL    HW1 1091   0.009   3.053   6.533
   64SOL    HW2 1092   0.125   2.938   6.539
   65SOL     OW 1093   0.908   5.789   6.042
   65SOL    HW1 1094   0.887   5.692   6.024
   65SOL    HW2 1095   0.861   5.845   5.974
   66SOL     OW 1096   3.269   0.553   3.562
   66SOL    HW1 1097   3.227   0.596   3.482
   66SOL    HW2 1098   3.217   0.578   3.644
   67SOL     OW 1099   0.393   3.208   6.536
   67SOL    HW1 1100   0.443   3.126   6.510
   67SOL    HW2 1101   0.453   3.288   6.528
   68SOL     OW 1102   0.219   1.712   6.205
   68SOL    HW1 1103   0.129   1.672   6.223
   68SOL    HW2 1104   0.268   1.657   6.138
   69SOL     OW 1105   1.314   3.231   5.208
   69SOL    HW1 1106   1.313   3.178   5.293
   69SOL    HW2 1107   1.392   3.294   5.209
   70SOL     OW 1108   5.076   5.171   4.730
   70SOL    HW1 1109   5.074   5.271   4.734
   70SOL    HW2 1110   5.009   5.139   4.663
   71SOL     OW 1111   5.061   1.821   3.181
   71SOL    HW1 1112   5.032   1.826   3.086
   71SOL    HW2 1113   5.036   1.731   3.219
   72SOL     OW 1114   0.425   1.052   3.061
   72SOL    HW1 1115   0.328   1.032   3.072
   72SOL    HW2 1116   0.449   1.049   2.964
   73SOL     OW 1117   3.238   0.867   1.098
   73SOL    HW1 1118   3.177   0.818   1.037
   73SOL    HW2 1119   3.330   0.868   1.060
   74SOL     OW 1120   3.057   1.132   6.742
   74SOL    HW1 1121   3.149   1.133   6.782
   74SOL    HW2 1122   2.990   1.160   6.811
   75SOL     OW 1123   3.717   1.131   1.610
   75SOL    HW1 1124   3.738   1.223   1.643
   75SOL    HW2 1125   3.654   1.086   1.673
   76SOL     OW 1126   2.933   3.298   6.533
   76SOL    HW1 1127   3.009   3.325   6.474
   76SOL    HW2 1128   2.856   3.269   6.476
   77SOL     OW 1129   1.992   5.999   3.018
   77SOL    HW1 1130   2.017   6.095   3.005
   77SOL    HW2 1131   2.039   5.963   3.099
   78SOL     OW 1132   4.459   1.363   1.174
   78SOL    HW1 1133   4.432   1.378   1.270
   78SOL    HW2 1134   4.523   1.286   1.170
   79SOL     OW 1135   3.082   6.161   1.202
   79SOL    HW1 1136   3.155   6.100   1.233
   79SOL    HW2 1137   3.053   6.220   1.278
   80SOL     OW 1138   4.031   1.314   4.505
   80SOL    HW1 1139   4.073   1.400   4.533
   80SOL    HW2 1140   4.100   1.255   4.463
   81SOL     OW 1141   1.713   6.861   1.823
   81SOL    HW1 1142   1.639   6.798   1.798
   81SOL    HW2 1143   1.760   6.827   1.905
   82SOL     OW 1144   6.690   5.653   1.394
   82SOL    HW1 1145   6.595   5.653   1.360
   82SOL    HW2 1146   6.753   5.655   1.316
   83SOL     OW 1147   1.060   0.790   6.527
   83SOL    HW1 1148   1.052   0.695   6.556
   83SOL    HW2 1149   1.100   0.794   6.436
   84SOL     OW 1150   5.914   4.171   3.186
   84SOL    HW1 1151   5.951   4.094   3.133
   84SOL    HW2 1152   5.921   4.150   3.284
   85SOL     OW 1153   1.345   0.951   3.359
   85SOL    HW1 1154   1.301   1.041   3.348
   85SOL    HW2 1155   1.293   0.883   3.307
   86SOL     OW 1156   0.121   1.320   6.919
   86SOL    HW1 1157   0.219   1.302   6.925
   86SOL    HW2 1158   0.070   1.238   6.944
   87SOL     OW 1159   3.593   4.174   1.053
   87SOL    HW1 1160   3.573   4.143   0.960
   87SOL    HW2 1161   3.653   4.108   1.098
   88SOL     OW 1162   3.040   2.169   6.286
   88SOL    HW1 1163   2.984   2.220   6.351
   88SOL    HW2 1164   2.990   2.158   6.200
   89SOL     OW 1165   3.350   3.565   0.049
   89SOL    HW1 1166   3.337   3.623   0.129
   89SOL    HW2 1167   3.386   3.476   0.078
   90SOL     OW 1168   3.882   4.951   2.970
   90SOL    HW1 1169   3.934   5.035   2.957
   90SOL    HW2 1170   3.920   4.901   3.048
   91SOL     OW 1171   6.072   4.051   5.830
   91SOL    HW1 1172   6.132   4.081   5.904
   91SOL    HW2 1173   5.999   3.994   5.868
   92SOL     OW 1174   4.902   4.184   0.524
   92SOL    HW1 1175   4.977   4.251   0.521
   92SOL    HW2 1176   4.820   4.229   0.559
   93SOL     OW 1177   3.131   3.329   7.021
   93SOL    HW1 1178   3.183   3.338   6.936
   93SOL    HW2 1179   3.195   3.319   0.076
   94SOL     OW 1180   2.227   6.030   0.133
   94SOL    HW1 1181   2.183   5.943   0.158
   94SOL    HW2 1182   2.233   6.037   0.034
   95SOL     OW 1183   1.878   0.558   3.009
   95SOL    HW1 1184   1.977   0.571   2.998
   95SOL    HW2 1185   1.862   0.487   3.078
   96SOL     OW 1186   4.379   5.576   5.868
   96SOL    HW1 1187   4.395   5.520   5.950
   96SOL    HW2 1188   4.349   5.667   5.895
   97SOL     OW 1189   2.294   3.758   5.262
   97SOL    HW1 1190   2.227   3.812   5.212
   97SOL    HW2 1191   2.378   3.810   5.275
   98SOL     OW 1192   0.995   1.223   0.758
   98SOL    HW1 1193   0.934   1.166   0.703
   98SOL    HW2 1194   0.951   1.311   0.776
   99SOL     OW 1195   3.837   3.640   2.438
   99SOL    HW1 1196   3.808   3.724   2.392
   99SOL    HW2 1197   3.933   3.649   2.465
  100SOL     OW 1198   6.778   6.778   4.064
  100SOL    HW1 1199   6.743   6.871   4.072
  100SOL    HW2 1200   6.773   6.732   4.152
  101SOL     OW 1201   0.229   5.700   2.415
  101SOL    HW1 1202   0.170   5.738   2.345
  101SOL    HW2 1203   0.301   5.766   2.438
  102SOL     OW 1204   3.908   5.816   1.657
  102SOL    HW1 1205   3.956   5.864   1.584
  102SOL    HW2 1206   3.974   5.775   1.719
  103SOL     OW 1207   1.804   2.346   2.881
  103SOL    HW1 1208   1.844   2.308   2.798
  103SOL    HW2 1209   1.871   2.402   2.929
  104SOL     OW 1210   1.466   5.087   1.847
  104SOL    HW1 1211   1.433   5.029   1.773
  104SOL    HW2 1212   1.540   5.040   1.895
  105SOL     OW 1213   5.742   1.297   6.325
  105SOL    HW1 1214   5.660   1.261   6.368
  105SOL    HW2 1215   5.722   1.325   6.231
  106SOL     OW 1216   4.293   6.060   2.951
  106SOL    HW1 1217   4.263   5.989   3.015
  106SOL    HW2 1218   4.390   6.080   2.968
  107SOL     OW 1219   0.047   1.019   6.955
  107SOL    HW1 1220   0.007   1.002   0.024
  107SOL    HW2 1221   0.035   0.938   6.897
  108SOL     OW 1222   3.675   0.067   6.104
  108SOL    HW1 1223   3.716   0.058   6.013
  108SOL    HW2 1224   3.575   0.070   6.095
  109SOL     OW 1225   2.858   0.456   2.599
  109SOL    HW1 1226   2.792   0.509   2.547
  109SOL    HW2 1227   2.950   0.471   2.561
  110SOL     OW 1228   2.624   4.901   4.305
  110SOL    HW1 1229   2.653   4.812   4.271
  110SOL    HW2 1230   2.608   4.963   4.228
  111SOL     OW 1231   2.022   1.081   3.229
  111SOL    HW1 1232   1.956   1.116   3.296
  111SOL    HW2 1233   2.064   1.158   3.181
  112SOL     OW 1234   5.321   6.467   0.551
  112SOL    HW1 1235   5.279   6.552   0.519
  112SOL    HW2 1236   5.380   6.430   0.479
  113SOL     OW 1237   1.208   5.888   2.789
  113SOL    HW1 1238   1.182   5.854   2.699
  113SOL    HW2 1239   1.245   5.981   2.781
  114SOL     OW 1240   1.548   6.370   1.877
  114SOL    HW1 1241   1.608   6.409   1.947
  114SOL    HW2 1242   1.593   6.291   1.835
  115SOL     OW 1243   5.402   0.414   2.881
  115SOL    HW1 1244   5.416   0.349   2.956
  115SOL    HW2 1245   5.318   0.466   2.899
  116SOL     OW 1246   0.094   5.668   1.461
  116SOL    HW1 1247   0.075   5.765   1.444
  116SOL    HW2 1248   0.034   5.635   1.534
  117SOL     OW 1249   1.557   0.961   0.949
  117SOL    HW1 1250   1.549   0.864   0.971
  117SOL    HW2 1251   1.510   0.980   0.863
  118SOL     OW 1252   1.949   2.487   3.071
  118SOL    HW1 1253   1.955   2.448   3.163
  118SOL    HW2 1254   1.900   2.574   3.075
  119SOL     OW 1255   6.930   0.200   6.613
  119SOL    HW1 1256   6.983   0.207   6.698
  119SOL    HW2 1257   6.938   0.108   6.577
  120SOL     OW 1258   5.001   0.333   4.116
  120SOL    HW1 1259   4.965   0.315   4.024
  120SOL    HW2 1260   4.949   0.407   4.158
  121SOL     OW 1261   1.020   4.016   0.674
  121SOL    HW1 1262   1.045   3.990   0.767
  121SOL    HW2 1263   0.921   4.029   0.668
  122SOL     OW 1264   1.610   3.692   0.170
  122SOL    HW1 1265   1.576   3.599   0.183
  122SOL    HW2 1266   1.627   3.709   0.073
  123SOL     OW 1267   1.010   1.349   2.340
  123SOL    HW1 1268   1.082   1.283   2.320
  123SOL    HW2 1269   0.922   1.301   2.343
  124SOL     OW 1270   3.149   2.099   0.484
  124SOL    HW1 1271   3.213   2.114   0.409
  124SOL    HW2 1272   3.056   2.095   0.447
  125SOL     OW 1273   3.179   2.836   0.615
  125SOL    HW1 1274   3.255   2.899   0.631
  125SOL    HW2 1275   3.195   2.786   0.530
  126SOL     OW 1276   3.613   3.019   2.847
  126SOL    HW1 1277   3.562   3.037   2.932
  126SOL    HW2 1278   3.710   3.036   2.863
  127SOL     OW 1279   6.957   6.553   6.223
  127SOL    HW1 1280   6.986   6.500   6.143
  127SOL    HW2 1281   6.943   6.648   6.197
  128SOL     OW 1282   5.089   3.472   1.710
  128SOL    HW1 1283   5.119   3.539   1.642
  128SOL    HW2 1284   5.162   3.406   1.727
  129SOL     OW 1285   3.174   4.217   0.411
  129SOL    HW1 1286   3.245   4.275   0.451
  129SOL    HW2 1287   3.214   4.129   0.386
  130SOL     OW 1288   6.277   0.389   4.853
  130SOL    HW1 1289   6.328   0.404   4.938
  130SOL    HW2 1290   6.324   0.434   4.777
  131SOL     OW 1291   5.922   0.697   3.676
  131SOL    HW1 1292   5.840   0.752   3.660
  131SOL    HW2 1293   5.917   0.655   3.767
  132SOL     OW 1294   3.122   2.839   1.290
  132SOL    HW1 1295   3.193   2.900   1.255
  132SOL    HW2 1296   3.125   2.752   1.240
  133SOL     OW 1297   5.582   0.723   3.982
  133SOL    HW1 1298   5.536   0.704   3.896
  133SOL    HW2 1299   5.564   0.648   4.046
  134SOL     OW 1300   0.249   0.029   2.672
  134SOL    HW1 1301   0.162   7.013   2.703
  134SOL    HW2 1302   0.235   0.082   2.588
  135SOL     OW 1303   5.214   3.572   4.153
  135SOL    HW1 1304   5.125   3.596   4.192
  135SOL    HW2 1305   5.285   3.583   4.223
  136SOL     OW 1306   1.827   6.456   4.524
  136SOL    HW1 1307   1.865   6.534   4.574
  136SOL    HW2 1308   1.781   6.394   4.588
  137SOL     OW 1309   4.191   1.142   4.369
  137SOL    HW1 1310   4.214   1.063   4.426
  137SOL    HW2 1311   4.128   1.113   4.297
  138SOL     OW 1312   0.828   4.034   3.158
  138SOL    HW1 1313   0.849   3.944   3.197
  138SOL    HW2 1314   0.831   4.103   3.231
  139SOL     OW 1315   2.218   5.417   6.586
  139SOL    HW1 1316   2.247   5.513   6.594
  139SOL    HW2 1317   2.119   5.414   6.570
  140SOL     OW 1318   1.241   6.630   3.249
  140SOL    HW1 1319   1.234   6.726   3.224
  140SOL    HW2 1320   1.256   6.575   3.167
  141SOL     OW 1321   6.646   2.246   6.282
  141SOL    HW1 1322   6.590   2.171   6.247
  141SOL    HW2 1323   6.732   2.251   6.231
  142SOL     OW 1324   2.171   3.741   2.180
  142SOL    HW1 1325   2.170   3.693   2.092
  142SOL    HW2 1326   2.186   3.676   2.254
  143SOL     OW 1327   5.614   5.776   0.742
  143SOL    HW1 1328   5.645   5.858   0.790
  143SOL    HW2 1329   5.601   5.798   0.645
  144SOL     OW 1330   2.297   4.908   5.084
  144SOL    HW1 1331   2.219   4.848   5.068
  144SOL    HW2 1332   2.375   4.875   5.031
  145SOL     OW 1333   1.789   5.181   1.422
  145SOL    HW1 1334   1.834   5.268   1.441
  145SOL    HW2 1335   1.744   5.186   1.333
  146SOL     OW 1336   4.735   0.994   6.563
  146SOL    HW1 1337   4.669   1.067   6.576
  146SOL    HW2 1338   4.817   1.013   6.617
  147SOL     OW 1339   5.311   1.492   5.849
  147SOL    HW1 1340   5.389   1.534   5.802
  147SOL    HW2 1341   5.227   1.507   5.797
  148SOL     OW 1342   0.605   5.820   1.636
  148SOL    HW1 1343   0.634   5.724   1.630
  148SOL    HW2 1344   0.569   5.849   1.548
  149SOL     OW 1345   3.345   1.817   4.672
  149SOL    HW1 1346   3.246   1.825   4.684
  149SOL    HW2 1347   3.390   1.895   4.715
  150SOL     OW 1348   4.796   0.152   6.271
  150SOL    HW1 1349   4.711   0.144   6.219
  150SOL    HW2 1350   4.848   0.231   6.238
  151SOL     OW 1351   3.547   0.993   1.778
  151SOL    HW1 1352   3.460   0.960   1.742
  151SOL    HW2 1353   3.614   0.919   1.777
  152SOL     OW 1354   6.707   1.623   0.130
  152SOL    HW1 1355   6.723   1.688   0.056
  152SOL    HW2 1356   6.773   1.639   0.203
  153SOL     OW 1357   2.859   0.276   2.799
  153SOL    HW1 1358   2.829   0.344   2.732
  153SOL    HW2 1359   2.942   0.232   2.765
  154SOL     OW 1360   0.150   3.141   0.562
  154SOL    HW1 1361   0.248   3.121   0.560
  154SOL    HW2 1362   0.100   3.061   0.597
  155SOL     OW 1363   0.834   0.110   3.186
  155SOL    HW1 1364   0.886   0.025   3.193
  155SOL    HW2 1365   0.868   0.175   3.254
  156SOL     OW 1366   6.066   0.901   0.172
  156SOL    HW1 1367   6.156   0.876   0.209
  156SOL    HW2 1368   6.056   0.865   0.080
  157SOL     OW 1369   5.553   3.446   0.494
  157SOL    HW1 1370   5.539   3.491   0.582
  157SOL    HW2 1371   5.467   3.446   0.443
  158SOL     OW 1372   1.739   2.478   0.961
  158SOL    HW1 1373   1.741   2.386   0.921
  158SOL    HW2 1374   1.711   2.472   1.056
  159SOL     OW 1375   4.328   5.064   1.148
  159SOL    HW1 1376   4.388   5.124   1.200
  159SOL    HW2 1377   4.284   4.999   1.210
  160SOL     OW 1378   6.155   0.197   0.956
  160SOL    HW1 1379   6.104   0.118   0.992
  160SOL    HW2 1380   6.124   0.217   0.863
  161SOL     OW 1381   2.040   6.958   2.090
  161SOL    HW1 1382   2.077   6.996   2.005
  161SOL    HW2 1383   2.054   6.859   2.091
  162SOL     OW 1384   3.136   6.904   0.066
  162SOL    HW1 1385   3.144   6.868   0.159
  162SOL    HW2 1386   3.117   7.002   0.070
  163SOL     OW 1387   0.455   5.543   2.881
  163SOL    HW1 1388   0.536   5.576   2.929
  163SOL    HW2 1389   0.460   5.568   2.785
  164SOL     OW 1390   1.211   3.178   2.352
  164SOL    HW1 1391   1.296   3.204   2.397
  164SOL    HW2 1392   1.134   3.202   2.410
  165SOL     OW 1393   5.750   4.851   0.379
  165SOL    HW1 1394   5.667   4.868   0.432
  165SOL    HW2 1395   5.750   4.756   0.346
  166SOL     OW 1396   6.754   3.565   2.355
  166SOL    HW1 1397   6.688   3.553   2.281
  166SOL    HW2 1398   6.734   3.650   2.404
  167SOL     OW 1399   6.251   1.051   6.443
  167SOL    HW1 1400   6.246   1.143   6.404
  167SOL    HW2 1401   6.163   1.005   6.433
  168SOL     OW 1402   3.962   1.992   1.739
  168SOL    HW1 1403   3.866   2.017   1.751
  168SOL    HW2 1404   4.019   2.072   1.752
  169SOL     OW 1405   5.725   2.722   6.949
  169SOL    HW1 1406   5.649   2.762   6.897
  169SOL    HW2 1407   5.783   2.669   6.887
  170SOL     OW 1408   0.107   6.009   2.600
  170SOL    HW1 1409   0.098   6.000   2.699
  170SOL    HW2 1410   0.112   5.918   2.559
  171SOL     OW 1411   2.158   3.524   0.371
  171SOL    HW1 1412   2.125   3.551   0.281
  171SOL    HW2 1413   2.083   3.532   0.437
  172SOL     OW 1414   6.226   2.335   2.417
  172SOL    HW1 1415   6.175   2.299   2.494
  172SOL    HW2 1416   6.216   2.434   2.413
  173SOL     OW 1417   5.527   1.146   4.753
  173SOL    HW1 1418   5.523   1.244   4.736
  173SOL    HW2 1419   5.573   1.129   4.840
  174SOL     OW 1420   4.486   5.442   4.167
  174SOL    HW1 1421   4.514   5.390   4.248
  174SOL    HW2 1422   4.411   5.394   4.122
  175SOL     OW 1423   3.502   0.937   1.111
  175SOL    HW1 1424   3.567   0.869   1.144
  175SOL    HW2 1425   3.501   1.015   1.174
  176SOL     OW 1426   4.798   4.462   2.571
  176SOL    HW1 1427   4.722   4.462   2.637
  176SOL    HW2 1428   4.817   4.368   2.543
  177SOL     OW 1429   4.916   2.963   4.935
  177SOL    HW1 1430   4.865   2.962   5.021
  177SOL    HW2 1431   4.879   2.894   4.873
  178SOL     OW 1432   2.661   4.803   5.032
  178SOL    HW1 1433   2.715   4.724   5.061
  178SOL    HW2 1434   2.675   4.878   5.097
  179SOL     OW 1435   4.382   6.774   0.101
  179SOL    HW1 1436   4.285   6.753   0.090
  179SOL    HW2 1437   4.407   6.761   0.197
  180SOL     OW 1438   2.388   6.795   0.767
  180SOL    HW1 1439   2.385   6.695   0.775
  180SOL    HW2 1440   2.476   6.828   0.801
  181SOL     OW 1441   3.619   3.093   6.094
  181SOL    HW1 1442   3.623   2.994   6.076
  181SOL    HW2 1443   3.527   3.118   6.122
  182SOL     OW 1444   4.290   2.425   6.661
  182SOL    HW1 1445   4.280   2.520   6.690
  182SOL    HW2 1446   4.387   2.402   6.653
  183SOL     OW 1447   4.024   2.120   3.577
  183SOL    HW1 1448   4.023   2.140   3.674
  183SOL    HW2 1449   4.083   2.184   3.529
  184SOL     OW 1450   0.645   6.654   3.617
  184SOL    HW1 1451   0.688   6.616   3.699
  184SOL    HW2 1452   0.707   6.718   3.573
  185SOL     OW 1453   1.313   1.206   4.045
  185SOL    HW1 1454   1.233   1.254   4.010
  185SOL    HW2 1455   1.396   1.249   4.009
  186SOL     OW 1456   5.280   0.164   4.609
  186SOL    HW1 1457   5.341   0.221   4.664
  186SOL    HW2 1458   5.327   0.138   4.525
  187SOL     OW 1459   5.843   6.626   2.209
  187SOL    HW1 1460   5.756   6.648   2.254
  187SOL    HW2 1461   5.826   6.602   2.113
  188SOL     OW 1462   0.550   3.008   3.932
  188SOL    HW1 1463   0.571   3.019   4.029
  188SOL    HW2 1464   0.591   3.083   3.880
  189SOL     OW 1465   1.647   4.923   6.759
  189SOL    HW1 1466   1.681   4.829   6.760
  189SOL    HW2 1467   1.610   4.943   6.668
  190SOL     OW 1468   6.134   4.492   6.698
  190SOL    HW1 1469   6.042   4.456   6.716
  190SOL    HW2 1470   6.184   4.497   6.784
  191SOL     OW 1471   6.799   1.273   6.224
  191SOL    HW1 1472   6.778   1.260   6.127
  191SOL    HW2 1473   6.769   1.364   6.252
  192SOL     OW 1474   6.795   4.766   1.672
  192SOL    HW1 1475   6.876   4.712   1.694
  192SOL    HW2 1476   6.713   4.711   1.687
  193SOL     OW 1477   4.969   3.857   5.317
  193SOL    HW1 1478   4.957   3.841   5.219
  193SOL    HW2 1479   4.922   3.786   5.369
  194SOL     OW 1480   4.057   6.438   3.081
  194SOL    HW1 1481   3.996   6.518   3.077
  194SOL    HW2 1482   4.093   6.428   3.173
  195SOL     OW 1483   1.625   0.994   3.309
  195SOL    HW1 1484   1.671   0.905   3.304
  195SOL    HW2 1485   1.526   0.980   3.302
  196SOL     OW 1486   3.366   6.976   0.312
  196SOL    HW1 1487   3.308   0.036   0.322
  196SOL    HW2 1488   3.450   7.001   0.265
  197SOL     OW 1489   2.550   6.597   0.233
  197SOL    HW1 1490   2.518   6.517   0.183
  197SOL    HW2 1491   2.509   6.598   0.324
  198SOL     OW 1492   4.771   6.630   1.614
  198SOL    HW1 1493   4.815   6.703   1.562
  198SOL    HW2 1494   4.738   6.666   1.701
  199SOL     OW 1495   6.576   1.229   3.000
  199SOL    HW1 1496   6.644   1.242   3.071
  199SOL    HW2 1497   6.517   1.310   2.995
  200SOL     OW 1498   1.222   4.316   2.604
  200SOL    HW1 1499   1.222   4.367   2.690
  200SOL    HW2 1500   1.199   4.220   2.622
  201SOL     OW 1501   4.079   6.500   5.926
  201SOL    HW1 1502   4.115   6.442   5.999
  201SOL    HW2 1503   4.010   6.561   5.964
  202SOL     OW 1504   5.250   0.375   5.394
  202SOL    HW1 1505   5.325   0.435   5.421
  202SOL    HW2 1506   5.250   0.364   5.294
  203SOL     OW 1507   5.054   2.370   5.004
  203SOL    HW1 1508   4.978   2.393   5.065
  203SOL    HW2 1509   5.065   2.270   5.002
  204SOL     OW 1510   0.454   0.732   6.747
  204SOL    HW1 1511   0.366   0.722   6.702
  204SOL    HW2 1512   0.510   0.799   6.698
  205SOL     OW 1513   0.728   1.313   2.285
  205SOL    HW1 1514   0.709   1.235   2.225
  205SOL    HW2 1515   0.751   1.392   2.229
  206SOL     OW 1516   0.596   4.971   2.693
  206SOL    HW1 1517   0.621   4.887   2.740
  206SOL    HW2 1518   0.662   5.043   2.715
  207SOL     OW 1519   4.116   0.213   5.012
  207SOL    HW1 1520   4.130   0.262   5.098
  207SOL    HW2 1521   4.041   0.257   4.961
  208SOL     OW 1522   5.100   3.739   5.755
  208SOL    HW1 1523   5.005   3.749   5.725
  208SOL    HW2 1524   5.146   3.670   5.698
  209SOL     OW 1525   0.920   5.642   5.496
  209SOL    HW1 1526   1.020   5.649   5.504
  209SOL    HW2 1527   0.896   5.549   5.470
  210SOL     OW 1528   4.178   2.262   2.043
  210SOL    HW1 1529   4.140   2.353   2.056
  210SOL    HW2 1530   4.107   2.193   2.059
  211SOL     OW 1531   1.048   6.491   4.341
  211SOL    HW1 1532   1.066   6.473   4.244
  211SOL    HW2 1533   0.953   6.471   4.362
  212SOL     OW 1534   2.443   4.824   2.163
  212SOL    HW1 1535   2.465   4.884   2.086
  212SOL    HW2 1536   2.417   4.879   2.242
  213SOL     OW 1537   3.835   0.900   6.689
  213SOL    HW1 1538   3.930   0.874   6.706
  213SOL    HW2 1539   3.800   0.848   6.611
  214SOL     OW 1540   3.236   6.154   2.270
  214SOL    HW1 1541   3.276   6.133   2.180
  214SOL    HW2 1542   3.137   6.155   2.263
  215SOL     OW 1543   3.098   3.959   1.938
  215SOL    HW1 1544   3.068   3.878   1.989
  215SOL    HW2 1545   3.168   4.008   1.990
  216SOL     OW 1546   1.829   6.817   5.043
  216SOL    HW1 1547   1.759   6.889   5.049
  216SOL    HW2 1548   1.919   6.857   5.059
  217SOL     OW 1549   2.429   2.612   4.592
  217SOL    HW1 1550   2.360   2.649   4.530
  217SOL    HW2 1551   2.425   2.660   4.679
  218SOL     OW 1552   0.885   3.213   4.880
  218SOL    HW1 1553   0.935   3.128   4.895
  218SOL    HW2 1554   0.786   3.194   4.880
  219SOL     OW 1555   3.053   6.250   6.206
  219SOL    HW1 1556   3.080   6.154   6.214
  219SOL    HW2 1557   2.955   6.255   6.184
  220SOL     OW 1558   3.222   6.091   6.530
  220SOL    HW1 1559   3.157   6.109   6.604
  220SOL    HW2 1560   3.294   6.030   6.563
  221SOL     OW 1561   6.644   3.445   2.797
  221SOL    HW1 1562   6.689   3.532   2.777
  221SOL    HW2 1563   6.567   3.432   2.735
  222SOL     OW 1564   2.128   4.653   5.629
  222SOL    HW1 1565   2.201   4.587   5.616
  222SOL    HW2 1566   2.158   4.724   5.693
  223SOL     OW 1567   6.735   3.994   0.529
  223SOL    HW1 1568   6.641   4.003   0.494
  223SOL    HW2 1569   6.800   4.014   0.456
  224SOL     OW 1570   2.505   1.919   4.045
  224SOL    HW1 1571   2.587   1.871   4.015
  224SOL    HW2 1572   2.428   1.855   4.052
  225SOL     OW 1573   4.987   1.163   6.237
  225SOL    HW1 1574   4.894   1.198   6.233
  225SOL    HW2 1575   5.050   1.239   6.257
  226SOL     OW 1576   0.440   6.946   6.457
  226SOL    HW1 1577   0.476   6.946   6.364
  226SOL    HW2 1578   0.515   6.934   6.522
  227SOL     OW 1579   1.393   4.600   2.281
  227SOL    HW1 1580   1.453   4.630   2.207
  227SOL    HW2 1581   1.363   4.506   2.264
  228SOL     OW 1582   3.023   6.575   3.844
  228SOL    HW1 1583   3.049   6.478   3.840
  228SOL    HW2 1584   3.095   6.630   3.802
  229SOL     OW 1585   5.984   5.772   0.540
  229SOL    HW1 1586   5.993   5.787   0.639
  229SOL    HW2 1587   6.073   5.782   0.497
  230SOL     OW 1588   3.226   4.861   3.167
  230SOL    HW1 1589   3.238   4.959   3.184
  230SOL    HW2 1590   3.301   4.810   3.210
  231SOL     OW 1591   6.113   1.695   5.791
  231SOL    HW1 1592   6.065   1.753   5.724
  231SOL    HW2 1593   6.066   1.701   5.879
  232SOL     OW 1594   1.049   4.103   6.253
  232SOL    HW1 1595   1.111   4.100   6.175
  232SOL    HW2 1596   1.029   4.010   6.284
  233SOL     OW 1597   1.880   0.950   4.313
  233SOL    HW1 1598   1.859   1.046   4.331
  233SOL    HW2 1599   1.880   0.933   4.215
  234SOL     OW 1600   2.631   6.115   5.450
  234SOL    HW1 1601   2.679   6.140   5.534
  234SOL    HW2 1602   2.692   6.061   5.392
  235SOL     OW 1603   2.959   3.686   2.555
  235SOL    HW1 1604   2.960   3.744   2.474
  235SOL    HW2 1605   2.921   3.596   2.531
  236SOL     OW 1606   6.148   2.923   6.695
  236SOL    HW1 1607   6.068   2.885   6.648
  236SOL    HW2 1608   6.154   2.884   6.787
  237SOL     OW 1609   6.879   6.638   0.651
  237SOL    HW1 1610   6.952   6.570   0.650
  237SOL    HW2 1611   6.792   6.594   0.671
  238SOL     OW 1612   6.442   2.339   6.976
  238SOL    HW1 1613   6.381   2.393   0.013
  238SOL    HW2 1614   6.485   2.267   0.008
  239SOL     OW 1615   6.893   4.986   6.932
  239SOL    HW1 1616   6.899   5.085   6.944
  239SOL    HW2 1617   6.797   4.959   6.928
  240SOL     OW 1618   0.012   3.085   5.156
  240SOL    HW1 1619   7.006   3.083   5.252
  240SOL    HW2 1620   6.951   3.081   5.098
  241SOL     OW 1621   0.712   0.591   4.053
  241SOL    HW1 1622   0.779   0.646   4.005
  241SOL    HW2 1623   0.622   0.636   4.048
  242SOL     OW 1624   2.091   2.485   6.035
  242SOL    HW1 1625   2.153   2.549   5.988
  242SOL    HW2 1626   2.027   2.447   5.969
  243SOL     OW 1627   4.744   6.919   6.372
  243SOL    HW1 1628   4.774   7.004   6.329
  243SOL    HW2 1629   4.765   6.841   6.312
  244SOL     OW 1630   4.838   2.980   4.546
  244SOL    HW1 1631   4.802   2.945   4.459
  244SOL    HW2 1632   4.773   2.958   4.620
  245SOL     OW 1633   0.131   2.463   4.342
  245SOL    HW1 1634   0.053   2.404   4.319
  245SOL    HW2 1635   0.142   2.465   4.442
  246SOL     OW 1636   5.550   3.229   2.894
  246SOL    HW1 1637   5.514   3.137   2.878
  246SOL    HW2 1638   5.582   3.237   2.989
  247SOL     OW 1639   1.789   1.826   2.588
  247SOL    HW1 1640   1.702   1.800   2.629
  247SOL    HW2 1641   1.782   1.822   2.489
  248SOL     OW 1642   4.630   2.769   4.992
  248SOL    HW1 1643   4.637   2.855   5.044
  248SOL    HW2 1644   4.575   2.703   5.044
  249SOL     OW 1645   4.859   0.362   5.244
  249SOL    HW1 1646   4.780   0.304   5.224
  249SOL    HW2 1647   4.923   0.312   5.302
  250SOL     OW 1648   4.578   2.420   5.442
  250SOL    HW1 1649   4.504   2.485   5.458
  250SOL    HW2 1650   4.659   2.450   5.493
  251SOL     OW 1651   4.304   4.669   5.915
  251SOL    HW1 1652   4.295   4.718   6.001
  251SOL    HW2 1653   4.215   4.659   5.872
  252SOL     OW 1654   0.034   0.815   6.743
  252SOL    HW1 1655   0.107   0.763   6.699
  252SOL    HW2 1656   6.980   0.754   6.766
  253SOL     OW 1657   2.344   4.591   0.257
  253SOL    HW1 1658   2.363   4.523   0.328
  253SOL    HW2 1659   2.331   4.681   0.299
  254SOL     OW 1660   6.535   2.707   3.687
  254SOL    HW1 1661   6.562   2.678   3.595
  254SOL    HW2 1662   6.569   2.800   3.703
  255SOL     OW 1663   2.369   2.372   4.042
  255SOL    HW1 1664   2.401   2.349   3.950
  255SOL    HW2 1665   2.437   2.431   4.086
  256SOL     OW 1666   6.847   4.683   0.131
  256SOL    HW1 1667   6.926   4.741   0.113
  256SOL    HW2 1668   6.875   4.587   0.129
  257SOL     OW 1669   3.677   5.525   4.994
  257SOL    HW1 1670   3.658   5.598   5.061
  257SOL    HW2 1671   3.721   5.448   5.041
  258SOL     OW 1672   5.498   3.430   4.747
  258SOL    HW1 1673   5.499   3.354   4.812
  258SOL    HW2 1674   5.416   3.486   4.763
  259SOL     OW 1675   2.177   3.009   2.308
  259SOL    HW1 1676   2.147   3.104   2.316
  259SOL    HW2 1677   2.123   2.963   2.237
  260SOL     OW 1678   4.130   0.999   0.910
  260SOL    HW1 1679   4.213   0.966   0.865
  260SOL    HW2 1680   4.146   1.091   0.947
  261SOL     OW 1681   6.893   3.922   1.361
  261SOL    HW1 1682   6.976   3.867   1.355
  261SOL    HW2 1683   6.904   3.991   1.433
  262SOL     OW 1684   0.497   3.965   2.162
  262SOL    HW1 1685   0.544   4.007   2.084
  262SOL    HW2 1686   0.439   3.890   2.130
  263SOL     OW 1687   0.228   1.436   3.968
  263SOL    HW1 1688   0.139   1.418   4.008
  263SOL    HW2 1689   0.246   1.535   3.970
  264SOL     OW 1690   6.150   4.382   5.433
  264SOL    HW1 1691   6.110   4.435   5.358
  264SOL    HW2 1692   6.077   4.337   5.484
  265SOL     OW 1693   4.973   4.060   2.807
  265SOL    HW1 1694   4.952   4.002   2.885
  265SOL    HW2 1695   5.036   4.012   2.746
  266SOL     OW 1696   3.579   2.836   6.028
  266SOL    HW1 1697   3.601   2.762   6.091
  266SOL    HW2 1698   3.606   2.809   5.935
  267SOL     OW 1699   6.901   2.735   6.233
  267SOL    HW1 1700   6.842   2.815   6.225
  267SOL    HW2 1701   6.860   2.669   6.296
  268SOL     OW 1702   5.000   5.959   5.346
  268SOL    HW1 1703   5.020   5.873   5.299
  268SOL    HW2 1704   5.085   5.996   5.384
  269SOL     OW 1705   1.436   1.580   0.270
  269SOL    HW1 1706   1.448   1.677   0.288
  269SOL    HW2 1707   1.460   1.560   0.175
  270SOL     OW 1708   6.627   0.573   1.841
  270SOL    HW1 1709   6.646   0.572   1.743
  270SOL    HW2 1710   6.712   0.565   1.892
  271SOL     OW 1711   2.741   1.596   0.399
  271SOL    HW1 1712   2.776   1.682   0.360
  271SOL    HW2 1713   2.771   1.589   0.494
  272SOL     OW 1714   3.308   5.222   4.266
  272SOL    HW1 1715   3.242   5.296   4.258
  272SOL    HW2 1716   3.366   5.237   4.346
  273SOL     OW 1717   1.583   5.404   5.587
  273SOL    HW1 1718   1.514   5.337   5.558
  273SOL    HW2 1719   1.674   5.368   5.567
  274SOL     OW 1720   5.191   2.133   4.367
  274SOL    HW1 1721   5.124   2.083   4.312
  274SOL    HW2 1722   5.200   2.226   4.332
  275SOL     OW 1723   0.548   5.828   6.426
  275SOL    HW1 1724   0.635   5.782   6.438
  275SOL    HW2 1725   0.562   5.913   6.375
  276SOL     OW 1726   6.580   5.563   3.951
  276SOL    HW1 1727   6.645   5.494   3.918
  276SOL    HW2 1728   6.498   5.517   3.985
  277SOL     OW 1729   3.435   1.300   6.501
  277SOL    HW1 1730   3.480   1.224   6.549
  277SOL    HW2 1731   3.415   1.272   6.406
  278SOL     OW 1732   6.536   3.566   2.212
  278SOL    HW1 1733   6.568   3.589   2.120
  278SOL    HW2 1734   6.446   3.607   2.227
  279SOL     OW 1735   6.160   2.922   4.229
  279SOL    HW1 1736   6.220   2.909   4.150
  279SOL    HW2 1737   6.126   2.834   4.260
  280SOL     OW 1738   4.101   0.122   3.322
  280SOL    HW1 1739   4.126   0.103   3.227
  280SOL    HW2 1740   4.180   0.161   3.370
  281SOL     OW 1741   2.981   4.840   3.345
  281SOL    HW1 1742   3.022   4.851   3.436
  281SOL    HW2 1743   3.053   4.828   3.277
  282SOL     OW 1744   3.869   2.461   5.406
  282SOL    HW1 1745   3.899   2.545   5.361
  282SOL    HW2 1746   3.949   2.412   5.441
  283SOL     OW 1747   5.975   0.465   5.743
  283SOL    HW1 1748   5.895   0.408   5.762
  283SOL    HW2 1749   6.013   0.499   5.829
  284SOL     OW 1750   1.150   4.596   4.713
  284SOL    HW1 1751   1.050   4.589   4.716
  284SOL    HW2 1752   1.186   4.594   4.806
  285SOL     OW 1753   5.208   5.861   0.299
  285SOL    HW1 1754   5.139   5.817   0.357
  285SOL    HW2 1755   5.296   5.862   0.347
  286SOL     OW 1756   4.273   4.864   5.528
  286SOL    HW1 1757   4.366   4.830   5.543
  286SOL    HW2 1758   4.250   4.859   5.431
  287SOL     OW 1759   1.544   5.450   6.548
  287SOL    HW1 1760   1.508   5.428   6.458
  287SOL    HW2 1761   1.510   5.540   6.576
  288SOL     OW 1762   4.047   1.528   0.154
  288SOL    HW1 1763   4.057   1.617   0.198
  288SOL    HW2 1764   4.016   1.541   0.059
  289SOL     OW 1765   0.834   4.925   5.522
  289SOL    HW1 1766   0.895   4.975   5.584
  289SOL    HW2 1767   0.747   4.908   5.569
  290SOL     OW 1768   5.066   1.062   3.712
  290SOL    HW1 1769   4.985   1.018   3.672
  290SOL    HW2 1770   5.043   1.155   3.740
  291SOL     OW 1771   4.419   1.008   3.974
  291SOL    HW1 1772   4.490   1.076   3.954
  291SOL    HW2 1773   4.395   0.961   3.889
  292SOL     OW 1774   5.242   1.402   3.778
  292SOL    HW1 1775   5.145   1.417   3.761
  292SOL    HW2 1776   5.292   1.397   3.692
  293SOL     OW 1777   4.285   6.502   1.232
  293SOL    HW1 1778   4.363   6.475   1.289
  293SOL    HW2 1779   4.201   6.468   1.274
  294SOL     OW 1780   6.359   5.811   6.833
  294SOL    HW1 1781   6.303   5.772   6.759
  294SOL    HW2 1782   6.333   5.769   6.920
  295SOL     OW 1783   2.472   2.138   5.177
  295SOL    HW1 1784   2.394   2.112   5.120
  295SOL    HW2 1785   2.509   2.226   5.146
  296SOL     OW 1786   0.084   2.485   1.744
  296SOL    HW1 1787   0.004   2.426   1.751
  296SOL    HW2 1788   0.160   2.435   1.703
  297SOL     OW 1789   3.026   5.212   3.275
  297SOL    HW1 1790   3.062   5.129   3.315
  297SOL    HW2 1791   3.021   5.284   3.344
  298SOL     OW 1792   4.845   6.821   0.244
  298SOL    HW1 1793   4.894   6.909   0.243
  298SOL    HW2 1794   4.757   6.833   0.290
  299SOL     OW 1795   4.438   1.976   6.843
  299SOL    HW1 1796   4.443   2.014   6.936
  299SOL    HW2 1797   4.387   1.890   6.845
  300SOL     OW 1798   4.182   0.297   2.553
  300SOL    HW1 1799   4.091   0.320   2.587
  300SOL    HW2 1800   4.251   0.342   2.609
  301SOL     OW 1801   4.997   1.433   1.254
  301SOL    HW1 1802   5.030   1.347   1.292
  301SOL    HW2 1803   5.069   1.502   1.261
  302SOL     OW 1804   0.440   0.841   2.344
  302SOL    HW1 1805   0.353   0.889   2.352
  302SOL    HW2 1806   0.424   0.745   2.320
  303SOL     OW 1807   6.475   6.078   1.841
  303SOL    HW1 1808   6.376   6.079   1.853
  303SOL    HW2 1809   6.503   5.996   1.792
  304SOL     OW 1810   2.251   6.252   6.776
  304SOL    HW1 1811   2.206   6.208   6.698
  304SOL    HW2 1812   2.305   6.184   6.826
  305SOL     OW 1813   1.503   2.788   0.930
  305SOL    HW1 1814   1.482   2.754   1.022
  305SOL    HW2 1815   1.592   2.835   0.932
  306SOL     OW 1816   0.102   1.243   2.729
  306SOL    HW1 1817   0.185   1.297   2.713
  306SOL    HW2 1818   0.074   1.253   2.824
  307SOL     OW 1819   4.007   4.387   0.078
  307SOL    HW1 1820   4.101   4.367   0.050
  307SOL    HW2 1821   3.943   4.335   0.021
  308SOL     OW 1822   5.926   2.357   4.009
  308SOL    HW1 1823   5.877   2.341   3.923
  308SOL    HW2 1824   6.016   2.394   3.989
  309SOL     OW 1825   1.655   6.413   0.421
  309SOL    HW1 1826   1.679   6.392   0.327
  309SOL    HW2 1827   1.576   6.358   0.448
  310SOL     OW 1828   5.005   6.669   4.298
  310SOL    HW1 1829   4.965   6.739   4.358
  310SOL    HW2 1830   5.045   6.713   4.217
  311SOL     OW 1831   2.889   5.066   2.568
  311SOL    HW1 1832   2.946   4.997   2.522
  311SOL    HW2 1833   2.897   5.153   2.519
  312SOL     OW 1834   3.735   2.144   3.979
  312SOL    HW1 1835   3.671   2.129   4.055
  312SOL    HW2 1836   3.684   2.170   3.897
  313SOL     OW 1837   3.442   4.101   2.581
  313SOL    HW1 1838   3.362   4.102   2.640
  313SOL    HW2 1839   3.519   4.145   2.628
  314SOL     OW 1840   2.099   4.655   5.029
  314SOL    HW1 1841   2.062   4.564   5.009
  314SOL    HW2 1842   2.102   4.709   4.945
  315SOL     OW 1843   1.064   2.063   3.847
  315SOL    HW1 1844   1.121   1.994   3.893
  315SOL    HW2 1845   1.060   2.041   3.749
  316SOL     OW 1846   3.824   0.681   4.662
  316SOL    HW1 1847   3.767   0.633   4.594
  316SOL    HW2 1848   3.893   0.619   4.698
  317SOL     OW 1849   0.307   1.366   1.830
  317SOL    HW1 1850   0.406   1.356   1.836
  317SOL    HW2 1851   0.285   1.456   1.794
  318SOL     OW 1852   6.440   0.038   6.761
  318SOL    HW1 1853   6.366   6.992   6.759
  318SOL    HW2 1854   6.444   0.086   6.674
  319SOL     OW 1855   6.505   1.718   3.514
  319SOL    HW1 1856   6.530   1.718   3.417
  319SOL    HW2 1857   6.463   1.805   3.538
  320SOL     OW 1858   5.879   3.012   7.016
  320SOL    HW1 1859   5.873   2.951   0.075
  320SOL    HW2 1860   5.788   3.022   6.976
  321SOL     OW 1861   4.606   2.409   6.927
  321SOL    HW1 1862   4.508   2.413   6.912
  321SOL    HW2 1863   4.648   2.344   6.863
  322SOL     OW 1864   3.341   2.960   4.537
  322SOL    HW1 1865   3.253   3.001   4.560
  322SOL    HW2 1866   3.397   2.951   4.619
  323SOL     OW 1867   1.402   2.848   5.487
  323SOL    HW1 1868   1.304   2.870   5.493
  323SOL    HW2 1869   1.414   2.749   5.486
  324SOL     OW 1870   2.576   0.416   2.833
  324SOL    HW1 1871   2.661   0.367   2.853
  324SOL    HW2 1872   2.550   0.399   2.738
  325SOL     OW 1873   0.945   3.462   2.101
  325SOL    HW1 1874   0.926   3.467   2.002
  325SOL    HW2 1875   0.874   3.512   2.150
  326SOL     OW 1876   0.805   4.177   6.090
  326SOL    HW1 1877   0.835   4.162   5.996
  326SOL    HW2 1878   0.882   4.164   6.153
  327SOL     OW 1879   2.559   4.609   2.922
  327SOL    HW1 1880   2.494   4.684   2.936
  327SOL    HW2 1881   2.570   4.558   3.007
  328SOL     OW 1882   2.082   5.004   1.998
  328SOL    HW1 1883   2.153   5.063   1.959
  328SOL    HW2 1884   2.106   4.979   2.091
  329SOL     OW 1885   2.474   3.501   5.943
  329SOL    HW1 1886   2.494   3.566   5.870
  329SOL    HW2 1887   2.487   3.408   5.909
  330SOL     OW 1888   2.764   6.429   0.589
  330SOL    HW1 1889   2.762   6.348   0.647
  330SOL    HW2 1890   2.856   6.440   0.550
  331SOL     OW 1891   5.157   5.458   0.660
  331SOL    HW1 1892   5.249   5.476   0.694
  331SOL    HW2 1893   5.135   5.361   0.671
  332SOL     OW 1894   5.887   2.735   5.148
  332SOL    HW1 1895   5.871   2.647   5.194
  332SOL    HW2 1896   5.850   2.731   5.055
  333SOL     OW 1897   4.569   0.789   5.319
  333SOL    HW1 1898   4.486   0.833   5.285
  333SOL    HW2 1899   4.634   0.859   5.348
  334SOL     OW 1900   3.075   2.273   0.214
  334SOL    HW1 1901   3.122   2.290   0.128
  334SOL    HW2 1902   3.097   2.346   0.279
  335SOL     OW 1903   3.546   0.093   6.580
  335SOL    HW1 1904   3.607   0.157   6.533
  335SOL    HW2 1905   3.456   0.135   6.592
  336SOL     OW 1906   3.186   0.710   3.333
  336SOL    HW1 1907   3.106   0.682   3.279
  336SOL    HW2 1908   3.193   0.810   3.333
  337SOL     OW 1909   6.992   3.506   5.185
  337SOL    HW1 1910   6.943   3.569   5.245
  337SOL    HW2 1911   6.999   3.417   5.229
  338SOL     OW 1912   2.809   2.260   1.172
  338SOL    HW1 1913   2.837   2.167   1.146
  338SOL    HW2 1914   2.770   2.259   1.264
  339SOL     OW 1915   4.419   5.277   4.789
  339SOL    HW1 1916   4.354   5.348   4.760
  339SOL    HW2 1917   4.482   5.316   4.857
  340SOL     OW 1918   5.238   3.572   4.731
  340SOL    HW1 1919   5.201   3.575   4.824
  340SOL    HW2 1920   5.177   3.623   4.669
  341SOL     OW 1921   6.005   6.698   4.604
  341SOL    HW1 1922   6.068   6.674   4.529
  341SOL    HW2 1923   6.026   6.642   4.684
  342SOL     OW 1924   5.278   3.367   0.437
  342SOL    HW1 1925   5.275   3.323   0.347
  342SOL    HW2 1926   5.189   3.361   0.481
  343SOL     OW 1927   0.502   5.931   1.871
  343SOL    HW1 1928   0.472   6.025   1.860
  343SOL    HW2 1929   0.529   5.894   1.782
  344SOL     OW 1930   0.881   3.499   1.859
  344SOL    HW1 1931   0.830   3.421   1.823
  344SOL    HW2 1932   0.955   3.522   1.797
  345SOL     OW 1933   5.216   2.375   3.545
  345SOL    HW1 1934   5.296   2.361   3.604
  345SOL    HW2 1935   5.165   2.289   3.538
  346SOL     OW 1936   1.787   1.181   2.224
  346SOL    HW1 1937   1.710   1.175   2.288
  346SOL    HW2 1938   1.864   1.127   2.259
  347SOL     OW 1939   3.051   5.935   0.195
  347SOL    HW1 1940   2.979   5.932   0.125
  347SOL    HW2 1941   3.139   5.909   0.154
  348SOL     OW 1942   4.866   3.752   2.775
  348SOL    HW1 1943   4.954   3.793   2.751
  348SOL    HW2 1944   4.807   3.820   2.817
  349SOL     OW 1945   0.105   5.083   1.850
  349SOL    HW1 1946   0.011   5.047   1.844
  349SOL    HW2 1947   0.143   5.092   1.758
  350SOL     OW 1948   2.888   1.997   1.521
  350SOL    HW1 1949   2.954   2.015   1.594
  350SOL    HW2 1950   2.854   2.084   1.485
  351SOL     OW 1951   2.409   3.346   0.805
  351SOL    HW1 1952   2.422   3.439   0.773
  351SOL    HW2 1953   2.484   3.321   0.867
  352SOL     OW 1954   3.603   6.748   3.823
  352SOL    HW1 1955   3.686   6.716   3.868
  352SOL    HW2 1956   3.537   6.673   3.818
  353SOL     OW 1957   3.086   0.134   7.020
  353SOL    HW1 1958   3.085   0.214   0.060
  353SOL    HW2 1959   3.004   0.134   6.964
  354SOL     OW 1960   4.613   2.278   1.680
  354SOL    HW1 1961   4.562   2.317   1.603
  354SOL    HW2 1962   4.550   2.260   1.756
  355SOL     OW 1963   1.559   4.453   2.986
  355SOL    HW1 1964   1.572   4.416   2.894
  355SOL    HW2 1965   1.584   4.550   2.987
  356SOL     OW 1966   2.167   0.841   5.519
  356SOL    HW1 1967   2.179   0.764   5.582
  356SOL    HW2 1968   2.081   0.887   5.538
  357SOL     OW 1969   6.817   6.780   5.376
  357SOL    HW1 1970   6.885   6.738   5.316
  357SOL    HW2 1971   6.738   6.718   5.385
  358SOL     OW 1972   4.657   6.311   0.805
  358SOL    HW1 1973   4.646   6.246   0.880
  358SOL    HW2 1974   4.610   6.397   0.828
  359SOL     OW 1975   2.980   1.884   2.020
  359SOL    HW1 1976   2.884   1.901   1.995
  359SOL    HW2 1977   3.027   1.841   1.944
  360SOL     OW 1978   1.182   4.699   5.621
  360SOL    HW1 1979   1.114   4.665   5.556
  360SOL    HW2 1980   1.136   4.746   5.696
  361SOL     OW 1981   6.836   6.289   3.117
  361SOL    HW1 1982   6.770   6.364   3.124
  361SOL    HW2 1983   6.807   6.227   3.044
  362SOL     OW 1984   3.452   2.718   1.624
  362SOL    HW1 1985   3.505   2.701   1.540
  362SOL    HW2 1986   3.510   2.701   1.703
  363SOL     OW 1987   5.750   4.382   3.183
  363SOL    HW1 1988   5.791   4.467   3.151
  363SOL    HW2 1989   5.819   4.309   3.182
  364SOL     OW 1990   6.742   5.213   6.295
  364SOL    HW1 1991   6.689   5.270   6.233
  364SOL    HW2 1992   6.687   5.192   6.377
  365SOL     OW 1993   5.443   0.148   1.891
  365SOL    HW1 1994   5.353   0.186   1.911
  365SOL    HW2 1995   5.512   0.221   1.897
  366SOL     OW 1996   5.309   1.810   0.046
  366SOL    HW1 1997   5.299   1.777   0.139
  366SOL    HW2 1998   5.329   1.733   7.006
  367SOL     OW 1999   5.884   2.772   1.061
  367SOL    HW1 2000   5.978   2.789   1.031
  367SOL    HW2 2001   5.877   2.788   1.159
  368SOL     OW 2002   0.839   2.691   5.475
  368SOL    HW1 2003   0.896   2.698   5.557
  368SOL    HW2 2004   0.897   2.669   5.396
  369SOL     OW 2005   5.860   5.204   2.201
  369SOL    HW1 2006   5.778   5.186   2.255
  369SOL    HW2 2007   5.919   5.123   2.202
  370SOL     OW 2008   1.191   1.291   5.041
  370SOL    HW1 2009   1.181   1.315   4.944
  370SOL    HW2 2010   1.121   1.224   5.066
  371SOL     OW 2011   1.881   4.583   6.244
  371SOL    HW1 2012   1.848   4.499   6.201
  371SOL    HW2 2013   1.944   4.630   6.183
  372SOL     OW 2014   2.056   6.579   6.062
  372SOL    HW1 2015   1.998   6.657   6.086
  372SOL    HW2 2016   2.081   6.530   6.145
  373SOL     OW 2017   5.826   6.126   4.963
  373SOL    HW1 2018   5.922   6.154   4.966
  373SOL    HW2 2019   5.771   6.200   4.926
  374SOL     OW 2020   2.384   2.109   3.916
  374SOL    HW1 2021   2.284   2.106   3.918
  374SOL    HW2 2022   2.421   2.022   3.947
  375SOL     OW 2023   0.566   4.335   3.885
  375SOL    HW1 2024   0.557   4.365   3.790
  375SOL    HW2 2025   0.480   4.353   3.934
  376SOL     OW 2026   1.695   1.013   5.084
  376SOL    HW1 2027   1.650   1.009   4.995
  376SOL    HW2 2028   1.777   1.069   5.078
  377SOL     OW 2029   1.347   1.744   0.636
  377SOL    HW1 2030   1.278   1.684   0.596
  377SOL    HW2 2031   1.438   1.708   0.616
  378SOL     OW 2032   4.451   2.125   0.049
  378SOL    HW1 2033   4.548   2.142   0.068
  378SOL    HW2 2034   4.410   2.208   0.011
  379SOL     OW 2035   5.920   2.250   0.937
  379SOL    HW1 2036   5.851   2.236   0.866
  379SOL    HW2 2037   5.905   2.339   0.980
  380SOL     OW 2038   3.193   1.135   0.732
  380SOL    HW1 2039   3.160   1.061   0.674
  380SOL    HW2 2040   3.130   1.212   0.726
  381SOL     OW 2041   1.848   4.133   3.537
  381SOL    HW1 2042   1.824   4.218   3.491
  381SOL    HW2 2043   1.930   4.094   3.494
  382SOL     OW 2044   5.881   0.881   0.696
  382SOL    HW1 2045   5.941   0.928   0.762
  382SOL    HW2 2046   5.934   0.856   0.616
  383SOL     OW 2047   3.962   3.137   6.712
  383SOL    HW1 2048   4.014   3.188   6.781
  383SOL    HW2 2049   3.904   3.201   6.661
  384SOL     OW 2050   6.390   5.326   4.699
  384SOL    HW1 2051   6.350   5.352   4.787
  384SOL    HW2 2052   6.359   5.389   4.629
  385SOL     OW 2053   3.136   4.645   5.351
  385SOL    HW1 2054   3.191   4.588   5.413
  385SOL    HW2 2055   3.085   4.587   5.288
  386SOL     OW 2056   3.113   6.483   4.219
  386SOL    HW1 2057   3.118   6.433   4.133
  386SOL    HW2 2058   3.027   6.536   4.222
  387SOL     OW 2059   1.084   6.275   2.750
  387SOL    HW1 2060   1.012   6.319   2.697
  387SOL    HW2 2061   1.128   6.204   2.695
  388SOL     OW 2062   1.327   2.573   5.512
  388SOL    HW1 2063   1.239   2.545   5.472
  388SOL    HW2 2064   1.397   2.505   5.488
  389SOL     OW 2065   3.891   3.871   1.621
  389SOL    HW1 2066   3.888   3.783   1.574
  389SOL    HW2 2067   3.803   3.888   1.666
  390SOL     OW 2068   2.570   1.802   2.368
  390SOL    HW1 2069   2.646   1.837   2.313
  390SOL    HW2 2070   2.576   1.840   2.460
  391SOL     OW 2071   2.398   1.898   6.199
  391SOL    HW1 2072   2.457   1.817   6.194
  391SOL    HW2 2073   2.376   1.917   6.294
  392SOL     OW 2074   1.505   4.989   0.888
  392SOL    HW1 2075   1.583   4.932   0.916
  392SOL    HW2 2076   1.496   5.066   0.952
  393SOL     OW 2077   1.349   4.202   6.283
  393SOL    HW1 2078   1.279   4.208   6.354
  393SOL    HW2 2079   1.408   4.124   6.300
  394SOL     OW 2080   6.783   1.842   6.970
  394SOL    HW1 2081   6.688   1.874   6.979
  394SOL    HW2 2082   6.821   1.874   6.884
  395SOL     OW 2083   4.903   3.625   3.007
  395SOL    HW1 2084   4.864   3.667   2.925
  395SOL    HW2 2085   4.999   3.605   2.992
  396SOL     OW 2086   3.669   4.161   1.403
  396SOL    HW1 2087   3.758   4.115   1.407
  396SOL    HW2 2088   3.671   4.230   1.331
  397SOL     OW 2089   5.231   1.512   6.102
  397SOL    HW1 2090   5.276   1.489   6.015
  397SOL    HW2 2091   5.234   1.611   6.116
  398SOL     OW 2092   0.649   6.307   2.418
  398SOL    HW1 2093   0.569   6.333   2.362
  398SOL    HW2 2094   0.731   6.349   2.379
  399SOL     OW 2095   6.172   6.082   2.552
  399SOL    HW1 2096   6.107   6.009   2.577
  399SOL    HW2 2097   6.129   6.171   2.564
  400SOL     OW 2098   6.518   6.895   5.896
  400SOL    HW1 2099   6.612   6.870   5.917
  400SOL    HW2 2100   6.511   6.995   5.887
  401SOL     OW 2101   5.223   0.635   5.718
  401SOL    HW1 2102   5.318   0.636   5.686
  401SOL    HW2 2103   5.199   0.725   5.754
  402SOL     OW 2104   5.706   0.023   3.223
  402SOL    HW1 2105   5.740   0.111   3.258
  402SOL    HW2 2106   5.664   0.037   3.133
  403SOL     OW 2107   3.971   2.178   4.113
  403SOL    HW1 2108   4.044   2.217   4.056
  403SOL    HW2 2109   3.887   2.174   4.060
  404SOL     OW 2110   1.152   5.134   4.558
  404SOL    HW1 2111   1.142   5.093   4.468
  404SOL    HW2 2112   1.151   5.233   4.550
  405SOL     OW 2113   1.741   3.811   1.721
  405SOL    HW1 2114   1.830   3.793   1.678
  405SOL    HW2 2115   1.728   3.747   1.797
  406SOL     OW 2116   1.059   4.801   4.543
  406SOL    HW1 2117   1.055   4.708   4.578
  406SOL    HW2 2118   0.983   4.817   4.481
  407SOL     OW 2119   1.274   0.737   3.905
  407SOL    HW1 2120   1.369   0.736   3.874
  407SOL    HW2 2121   1.213   0.739   3.826
  408SOL     OW 2122   1.363   2.440   2.714
  408SOL    HW1 2123   1.398   2.526   2.676
  408SOL    HW2 2124   1.302   2.460   2.791
  409SOL     OW 2125   7.011   3.041   1.820
  409SOL    HW1 2126   0.032   2.995   1.898
  409SOL    HW2 2127   6.942   2.981   1.779
  410SOL     OW 2128   1.882   1.532   1.583
  410SOL    HW1 2129   1.865   1.580   1.669
  410SOL    HW2 2130   1.979   1.538   1.559
  411SOL     OW 2131   5.401   0.302   1.541
  411SOL    HW1 2132   5.488   0.273   1.581
  411SOL    HW2 2133   5.343   0.342   1.612
  412SOL     OW 2134   4.370   5.904   4.035
  412SOL    HW1 2135   4.422   5.832   4.081
  412SOL    HW2 2136   4.419   5.934   3.953
  413SOL     OW 2137   5.256   4.119   1.824
  413SOL    HW1 2138   5.186   4.078   1.765
  413SOL    HW2 2139   5.216   4.196   1.874
  414SOL     OW 2140   3.393   5.649   3.436
  414SOL    HW1 2141   3.351   5.725   3.387
  414SOL    HW2 2142   3.473   5.617   3.385
  415SOL     OW 2143   0.644   6.257   6.708
  415SOL    HW1 2144   0.680   6.182   6.764
  415SOL    HW2 2145   0.545   6.249   6.703
  416SOL     OW 2146   4.967   6.392   4.024
  416SOL    HW1 2147   5.000   6.462   3.960
  416SOL    HW2 2148   4.977   6.301   3.983
  417SOL     OW 2149   3.139   5.327   6.601
  417SOL    HW1 2150   3.198   5.369   6.670
  417SOL    HW2 2151   3.131   5.229   6.620
  418SOL     OW 2152   4.193   6.489   0.442
  418SOL    HW1 2153   4.254   6.426   0.490
  418SOL    HW2 2154   4.237   6.578   0.433
  419SOL     OW 2155   2.041   0.396   1.737
  419SOL    HW1 2156   2.123   0.372   1.789
  419SOL    HW2 2157   2.050   0.489   1.702
  420SOL     OW 2158   5.113   1.338   0.098
  420SOL    HW1 2159   5.053   1.265   0.131
  420SOL    HW2 2160   5.172   1.303   0.025
  421SOL     OW 2161   6.647   4.164   5.899
  421SOL    HW1 2162   6.576   4.093   5.903
  421SOL    HW2 2163   6.689   4.164   5.808
  422SOL     OW 2164   6.202   3.505   1.450
  422SOL    HW1 2165   6.158   3.419   1.427
  422SOL    HW2 2166   6.159   3.579   1.398
  423SOL     OW 2167   0.841   1.868   6.402
  423SOL    HW1 2168   0.755   1.818   6.404
  423SOL    HW2 2169   0.875   1.871   6.308
  424SOL     OW 2170   2.191   4.693   0.951
  424SOL    HW1 2171   2.272   4.637   0.965
  424SOL    HW2 2172   2.127   4.645   0.891
  425SOL     OW 2173   5.562   1.783   3.499
  425SOL    HW1 2174   5.530   1.697   3.458
  425SOL    HW2 2175   5.517   1.797   3.587
  426SOL     OW 2176   3.939   1.986   4.925
  426SOL    HW1 2177   3.862   1.985   4.989
  426SOL    HW2 2178   3.983   2.076   4.928
  427SOL     OW 2179   5.344   6.302   3.615
  427SOL    HW1 2180   5.248   6.330   3.618
  427SOL    HW2 2181   5.391   6.354   3.544
  428SOL     OW 2182   3.888   0.383   4.951
  428SOL    HW1 2183   3.939   0.380   4.864
  428SOL    HW2 2184   3.915   0.465   5.002
  429SOL     OW 2185   1.361   3.812   1.140
  429SOL    HW1 2186   1.422   3.796   1.062
  429SOL    HW2 2187   1.318   3.901   1.130
  430SOL     OW 2188   0.821   0.507   5.153
  430SOL    HW1 2189   0.894   0.461   5.102
  430SOL    HW2 2190   0.733   0.469   5.127
  431SOL     OW 2191   3.433   6.907   0.965
  431SOL    HW1 2192   3.400   6.999   0.986
  431SOL    HW2 2193   3.400   6.879   0.875
  432SOL     OW 2194   6.567   1.570   0.366
  432SOL    HW1 2195   6.641   1.581   0.300
  432SOL    HW2 2196   6.536   1.475   0.366
  433SOL     OW 2197   2.579   6.608   4.863
  433SOL    HW1 2198   2.562   6.547   4.785
  433SOL    HW2 2199   2.497   6.662   4.881
  434SOL     OW 2200   3.073   6.072   2.763
  434SOL    HW1 2201   3.101   6.068   2.667
  434SOL    HW2 2202   3.149   6.043   2.821
  435SOL     OW 2203   5.072   2.776   6.904
  435SOL    HW1 2204   5.002   2.719   6.947
  435SOL    HW2 2205   5.158   2.724   6.898
  436SOL     OW 2206   2.985   6.340   1.412
  436SOL    HW1 2207   2.887   6.358   1.416
  436SOL    HW2 2208   3.010   6.278   1.487
  437SOL     OW 2209   1.098   1.102   0.282
  437SOL    HW1 2210   1.075   1.046   0.362
  437SOL    HW2 2211   1.104   1.198   0.310
  438SOL     OW 2212   1.587   4.027   3.537
  438SOL    HW1 2213   1.583   3.975   3.452
  438SOL    HW2 2214   1.682   4.054   3.556
  439SOL     OW 2215   5.522   4.913   2.763
  439SOL    HW1 2216   5.472   4.903   2.677
  439SOL    HW2 2217   5.584   4.991   2.756
  440SOL     OW 2218   1.914   1.398   4.930
  440SOL    HW1 2219   1.911   1.473   4.865
  440SOL    HW2 2220   1.978   1.419   5.003
  441SOL     OW 2221   0.680   2.602   4.161
  441SOL    HW1 2222   0.756   2.596   4.097
  441SOL    HW2 2223   0.594   2.612   4.110
  442SOL     OW 2224   3.399   5.506   5.474
  442SOL    HW1 2225   3.399   5.439   5.399
  442SOL    HW2 2226   3.407   5.458   5.561
  443SOL     OW 2227   5.955   4.392   4.594
  443SOL    HW1 2228   5.921   4.408   4.687
  443SOL    HW2 2229   6.035   4.449   4.578
  444SOL     OW 2230   4.730   1.074   5.757
  444SOL    HW1 2231   4.686   0.985   5.773
  444SOL    HW2 2232   4.684   1.144   5.813
  445SOL     OW 2233   1.055   5.747   2.988
  445SOL    HW1 2234   1.121   5.746   2.913
  445SOL    HW2 2235   1.044   5.841   3.021
  446SOL     OW 2236   3.063   5.739   3.790
  446SOL    HW1 2237   3.136   5.689   3.744
  446SOL    HW2 2238   3.074   5.837   3.774
  447SOL     OW 2239   0.378   2.691   5.990
  447SOL    HW1 2240   0.368   2.614   5.928
  447SOL    HW2 2241   0.440   2.666   6.065
  448SOL     OW 2242   2.146   0.656   2.964
  448SOL    HW1 2243   2.145   0.720   3.040
  448SOL    HW2 2244   2.224   0.594   2.972
  449SOL     OW 2245   4.008   1.219   3.857
  449SOL    HW1 2246   4.021   1.270   3.942
  449SOL    HW2 2247   4.092   1.223   3.803
  450SOL     OW 2248   1.513   5.444   2.968
  450SOL    HW1 2249   1.556   5.359   2.938
  450SOL    HW2 2250   1.442   5.424   3.035
  451SOL     OW 2251   1.683   2.243   3.200
  451SOL    HW1 2252   1.678   2.343   3.211
  451SOL    HW2 2253   1.648   2.217   3.110
  452SOL     OW 2254   5.878   6.467   0.555
  452SOL    HW1 2255   5.944   6.392   0.558
  452SOL    HW2 2256   5.842   6.475   0.462
  453SOL     OW 2257   4.042   0.671   5.965
  453SOL    HW1 2258   3.999   0.691   5.877
  453SOL    HW2 2259   4.020   0.744   6.030
  454SOL     OW 2260   6.701   4.680   6.471
  454SOL    HW1 2261   6.783   4.667   6.416
  454SOL    HW2 2262   6.686   4.777   6.487
  455SOL     OW 2263   5.990   2.587   3.236
  455SOL    HW1 2264   5.964   2.616   3.329
  455SOL    HW2 2265   6.079   2.626   3.212
  456SOL     OW 2266   6.289   6.447   3.843
  456SOL    HW1 2267   6.260   6.383   3.914
  456SOL    HW2 2268   6.260   6.413   3.753
  457SOL     OW 2269   1.631   2.196   4.037
  457SOL    HW1 2270   1.564   2.124   4.018
  457SOL    HW2 2271   1.612   2.235   4.127
  458SOL     OW 2272   4.470   5.938   3.206
  458SOL    HW1 2273   4.390   5.903   3.255
  458SOL    HW2 2274   4.542   5.960   3.271
  459SOL     OW 2275   1.729   6.282   5.316
  459SOL    HW1 2276   1.771   6.262   5.405
  459SOL    HW2 2277   1.641   6.235   5.309
  460SOL     OW 2278   2.527   6.654   3.833
  460SOL    HW1 2279   2.623   6.627   3.844
  460SOL    HW2 2280   2.488   6.675   3.922
  461SOL     OW 2281   6.353   6.467   6.561
  461SOL    HW1 2282   6.390   6.420   6.641
  461SOL    HW2 2283   6.276   6.525   6.589
  462SOL     OW 2284   3.988   3.239   0.012
  462SOL    HW1 2285   4.066   3.230   6.972
  462SOL    HW2 2286   4.016   3.286   0.096
  463SOL     OW 2287   5.515   5.936   3.314
  463SOL    HW1 2288   5.467   5.854   3.286
  463SOL    HW2 2289   5.484   6.014   3.259
  464SOL     OW 2290   2.624   1.495   5.238
  464SOL    HW1 2291   2.720   1.487   5.266
  464SOL    HW2 2292   2.575   1.553   5.303
  465SOL     OW 2293   0.643   3.030   0.198
  465SOL    HW1 2294   0.706   3.054   0.125
  465SOL    HW2 2295   0.661   3.087   0.278
  466SOL     OW 2296   1.040   6.442   3.271
  466SOL    HW1 2297   1.117   6.503   3.287
  466SOL    HW2 2298   1.055   6.390   3.187
  467SOL     OW 2299   1.737   1.102   0.684
  467SOL    HW1 2300   1.794   1.094   0.602
  467SOL    HW2 2301   1.755   1.191   0.728
  468SOL     OW 2302   3.666   0.274   6.286
  468SOL    HW1 2303   3.569   0.296   6.299
  468SOL    HW2 2304   3.675   0.207   6.211
  469SOL     OW 2305   2.911   2.900   6.580
  469SOL    HW1 2306   3.005   2.896   6.546
  469SOL    HW2 2307   2.871   2.989   6.558
  470SOL     OW 2308   4.615   6.424   1.613
  470SOL    HW1 2309   4.535   6.468   1.653
  470SOL    HW2 2310   4.689   6.491   1.606
  471SOL     OW 2311   2.464   2.621   3.473
  471SOL    HW1 2312   2.551   2.607   3.522
  471SOL    HW2 2313   2.428   2.532   3.445
  472SOL     OW 2314   4.544   3.541   6.844
  472SOL    HW1 2315   4.587   3.502   6.926
  472SOL    HW2 2316   4.449   3.563   6.864
  473SOL     OW 2317   1.214   2.985   2.739
  473SOL    HW1 2318   1.189   2.889   2.746
  473SOL    HW2 2319   1.301   2.994   2.690
  474SOL     OW 2320   5.182   5.124   4.357
  474SOL    HW1 2321   5.092   5.144   4.317
  474SOL    HW2 2322   5.252   5.173   4.306
  475SOL     OW 2323   6.064   1.358   6.536
  475SOL    HW1 2324   6.113   1.339   6.621
  475SOL    HW2 2325   6.021   1.274   6.503
  476SOL     OW 2326   0.376   3.283   3.513
  476SOL    HW1 2327   0.426   3.234   3.584
  476SOL    HW2 2328   0.351   3.221   3.439
  477SOL     OW 2329   2.551   6.299   3.332
  477SOL    HW1 2330   2.484   6.251   3.388
  477SOL    HW2 2331   2.583   6.381   3.381
  478SOL     OW 2332   3.351   6.024   2.070
  478SOL    HW1 2333   3.329   5.929   2.092
  478SOL    HW2 2334   3.309   6.049   1.983
  479SOL     OW 2335   4.355   1.584   5.951
  479SOL    HW1 2336   4.282   1.519   5.932
  479SOL    HW2 2337   4.360   1.601   6.050
  480SOL     OW 2338   2.811   0.725   0.080
  480SOL    HW1 2339   2.763   0.710   7.015
  480SOL    HW2 2340   2.863   0.810   0.075
  481SOL     OW 2341   2.158   6.736   1.247
  481SOL    HW1 2342   2.190   6.650   1.209
  481SOL    HW2 2343   2.083   6.772   1.192
  482SOL     OW 2344   3.862   4.974   2.281
  482SOL    HW1 2345   3.817   4.921   2.353
  482SOL    HW2 2346   3.956   4.944   2.270
  483SOL     OW 2347   6.292   1.878   2.246
  483SOL    HW1 2348   6.305   1.780   2.259
  483SOL    HW2 2349   6.369   1.928   2.288
  484SOL     OW 2350   2.109   3.714   4.710
  484SOL    HW1 2351   2.157   3.801   4.704
  484SOL    HW2 2352   2.080   3.698   4.805
  485SOL     OW 2353   4.114   5.771   2.873
  485SOL    HW1 2354   4.114   5.687   2.819
  485SOL    HW2 2355   4.021   5.808   2.879
  486SOL     OW 2356   6.751   1.124   0.410
  486SOL    HW1 2357   6.790   1.071   0.335
  486SOL    HW2 2358   6.821   1.138   0.481
  487SOL     OW 2359   0.856   0.772   2.449
  487SOL    HW1 2360   0.768   0.815   2.471
  487SOL    HW2 2361   0.859   0.681   2.489
  488SOL     OW 2362   0.580   1.375   1.740
  488SOL    HW1 2363   0.660   1.418   1.783
  488SOL    HW2 2364   0.523   1.446   1.698
  489SOL     OW 2365   4.107   6.052   6.058
  489SOL    HW1 2366   4.052   6.105   5.993
  489SOL    HW2 2367   4.049   5.983   6.102
  490SOL     OW 2368   0.541   5.799   2.987
  490SOL    HW1 2369   0.545   5.881   3.044
  490SOL    HW2 2370   0.464   5.806   2.924
  491SOL     OW 2371   1.146   4.037   2.208
  491SOL    HW1 2372   1.203   3.957   2.191
  491SOL    HW2 2373   1.054   4.021   2.171
  492SOL     OW 2374   1.324   0.277   4.838
  492SOL    HW1 2375   1.231   0.240   4.836
  492SOL    HW2 2376   1.335   0.342   4.763
  493SOL     OW 2377   4.997   6.182   5.703
  493SOL    HW1 2378   5.055   6.122   5.648
  493SOL    HW2 2379   5.029   6.183   5.798
  494SOL     OW 2380   0.574   6.903   0.169
  494SOL    HW1 2381   0.540   6.925   0.078
  494SOL    HW2 2382   0.657   6.956   0.187
  495SOL     OW 2383   4.716   5.801   3.706
  495SOL    HW1 2384   4.638   5.745   3.676
  495SOL    HW2 2385   4.732   5.787   3.803
  496SOL     OW 2386   5.097   2.986   1.821
  496SOL    HW1 2387   5.108   2.964   1.918
  496SOL    HW2 2388   5.090   2.901   1.769
  497SOL     OW 2389   2.611   1.867   4.571
  497SOL    HW1 2390   2.604   1.871   4.472
  497SOL    HW2 2391   2.524   1.841   4.611
  498SOL     OW 2392   1.120   4.486   1.606
  498SOL    HW1 2393   1.056   4.440   1.667
  498SOL    HW2 2394   1.213   4.473   1.639
  499SOL     OW 2395   1.752   6.163   4.382
  499SOL    HW1 2396   1.757   6.072   4.424
  499SOL    HW2 2397   1.800   6.229   4.439
  500SOL     OW 2398   0.416   2.787   5.512
  500SOL    HW1 2399   0.346   2.830   5.569
  500SOL    HW2 2400   0.504   2.791   5.558
  501SOL     OW 2401   3.021   6.475   0.847
  501SOL    HW1 2402   3.015   6.562   0.797
  501SOL    HW2 2403   3.031   6.400   0.781
  502SOL     OW 2404   1.035   3.838   6.364
  502SOL    HW1 2405   0.940   3.840   6.393
  502SOL    HW2 2406   1.082   3.761   6.407
  503SOL     OW 2407   0.454   5.288   6.557
  503SOL    HW1 2408   0.493   5.377   6.531
  503SOL    HW2 2409   0.416   5.294   6.649
  504SOL     OW 2410   1.068   4.807   2.740
  504SOL    HW1 2411   1.147   4.867   2.745
  504SOL    HW2 2412   1.085   4.734   2.673
  505SOL     OW 2413   2.761   5.904   5.354
  505SOL    HW1 2414   2.786   5.854   5.271
  505SOL    HW2 2415   2.699   5.848   5.409
  506SOL     OW 2416   2.867   4.848   4.101
  506SOL    HW1 2417   2.800   4.783   4.136
  506SOL    HW2 2418   2.938   4.862   4.170
  507SOL     OW 2419   3.554   6.993   3.598
  507SOL    HW1 2420   3.492   6.932   3.550
  507SOL    HW2 2421   3.540   6.984   3.697
  508SOL     OW 2422   6.344   3.389   2.609
  508SOL    HW1 2423   6.431   3.366   2.567
  508SOL    HW2 2424   6.304   3.306   2.650
  509SOL     OW 2425   2.865   1.091   1.065
  509SOL    HW1 2426   2.864   1.092   1.165
  509SOL    HW2 2427   2.949   1.133   1.032
  510SOL     OW 2428   6.485   4.328   6.718
  510SOL    HW1 2429   6.409   4.311   6.655
  510SOL    HW2 2430   6.452   4.325   6.812
  511SOL     OW 2431   1.080   2.112   6.169
  511SOL    HW1 2432   1.101   2.015   6.175
  511SOL    HW2 2433   1.022   2.139   6.246
  512SOL     OW 2434   6.329   2.879   6.502
  512SOL    HW1 2435   6.374   2.793   6.527
  512SOL    HW2 2436   6.283   2.916   6.583
  513SOL     OW 2437   5.892   6.913   3.379
  513SOL    HW1 2438   5.981   6.908   3.335
  513SOL    HW2 2439   5.825   6.953   3.317
  514SOL     OW 2440   6.183   1.341   4.109
  514SOL    HW1 2441   6.215   1.318   4.201
  514SOL    HW2 2442   6.083   1.343   4.109
  515SOL     OW 2443   0.649   0.100   6.839
  515SOL    HW1 2444   0.648   0.188   6.886
  515SOL    HW2 2445   0.555   0.069   6.822
  516SOL     OW 2446   2.947   4.819   2.101
  516SOL    HW1 2447   2.915   4.863   2.185
  516SOL    HW2 2448   2.895   4.735   2.085
  517SOL     OW 2449   4.417   5.683   1.475
  517SOL    HW1 2450   4.381   5.674   1.382
  517SOL    HW2 2451   4.472   5.766   1.482
  518SOL     OW 2452   2.801   2.113   3.448
  518SOL    HW1 2453   2.888   2.159   3.431
  518SOL    HW2 2454   2.813   2.045   3.520
  519SOL     OW 2455   0.472   6.497   4.494
  519SOL    HW1 2456   0.505   6.409   4.527
  519SOL    HW2 2457   0.380   6.513   4.529
  520SOL     OW 2458   5.805   3.510   7.014
  520SOL    HW1 2459   5.755   3.524   0.078
  520SOL    HW2 2460   5.821   3.598   6.970
  521SOL     OW 2461   6.531   5.337   5.091
  521SOL    HW1 2462   6.486   5.248   5.078
  521SOL    HW2 2463   6.493   5.404   5.028
  522SOL     OW 2464   3.575   3.441   4.769
  522SOL    HW1 2465   3.637   3.513   4.737
  522SOL    HW2 2466   3.482   3.462   4.739
  523SOL     OW 2467   0.814   5.945   1.386
  523SOL    HW1 2468   0.735   5.941   1.447
  523SOL    HW2 2469   0.872   6.022   1.411
  524SOL     OW 2470   0.253   1.787   2.606
  524SOL    HW1 2471   0.179   1.855   2.612
  524SOL    HW2 2472   0.333   1.828   2.563
  525SOL     OW 2473   2.022   3.792   5.954
  525SOL    HW1 2474   2.012   3.696   5.927
  525SOL    HW2 2475   2.022   3.849   5.872
  526SOL     OW 2476   4.104   6.002   3.806
  526SOL    HW1 2477   4.163   6.082   3.820
  526SOL    HW2 2478   4.009   6.027   3.825
  527SOL     OW 2479   5.671   2.975   0.578
  527SOL    HW1 2480   5.686   3.072   0.558
  527SOL    HW2 2481   5.624   2.966   0.666
  528SOL     OW 2482   0.833   2.181   3.738
  528SOL    HW1 2483   0.852   2.160   3.642
  528SOL    HW2 2484   0.918   2.178   3.791
  529SOL     OW 2485   1.225   6.675   5.086
  529SOL    HW1 2486   1.225   6.761   5.035
  529SOL    HW2 2487   1.263   6.691   5.178
  530SOL     OW 2488   3.248   3.205   4.316
  530SOL    HW1 2489   3.344   3.188   4.293
  530SOL    HW2 2490   3.191   3.136   4.272
  531SOL     OW 2491   0.872   1.641   2.975
  531SOL    HW1 2492   0.881   1.726   3.027
  531SOL    HW2 2493   0.838   1.569   3.035
  532SOL     OW 2494   0.291   2.951   6.771
  532SOL    HW1 2495   0.229   3.025   6.745
  532SOL    HW2 2496   0.269   2.870   6.717
  533SOL     OW 2497   4.051   6.354   4.144
  533SOL    HW1 2498   4.021   6.334   4.050
  533SOL    HW2 2499   3.973   6.349   4.205
  534SOL     OW 2500   5.530   6.230   2.106
  534SOL    HW1 2501   5.626   6.215   2.084
  534SOL    HW2 2502   5.521   6.246   2.205
  535SOL     OW 2503   7.001   3.349   4.751
  535SOL    HW1 2504   0.072   3.356   4.789
  535SOL    HW2 2505   7.005   3.353   4.652
  536SOL     OW 2506   6.284   5.013   2.053
  536SOL    HW1 2507   6.340   4.936   2.023
  536SOL    HW2 2508   6.273   5.010   2.152
  537SOL     OW 2509   2.598   6.605   4.285
  537SOL    HW1 2510   2.665   6.644   4.349
  537SOL    HW2 2511   2.628   6.514   4.258
  538SOL     OW 2512   0.723   4.955   3.606
  538SOL    HW1 2513   0.693   5.039   3.561
  538SOL    HW2 2514   0.820   4.939   3.586
  539SOL     OW 2515   1.589   5.850   1.205
  539SOL    HW1 2516   1.532   5.774   1.237
  539SOL    HW2 2517   1.636   5.892   1.283
  540SOL     OW 2518   1.651   0.970   2.832
  540SOL    HW1 2519   1.700   0.937   2.751
  540SOL    HW2 2520   1.612   1.060   2.813
  541SOL     OW 2521   4.972   5.480   3.905
  541SOL    HW1 2522   4.895   5.530   3.867
  541SOL    HW2 2523   5.056   5.533   3.889
  542SOL     OW 2524   6.194   6.211   6.706
  542SOL    HW1 2525   6.264   6.273   6.743
  542SOL    HW2 2526   6.166   6.242   6.615
  543SOL     OW 2527   1.131   3.432   5.171
  543SOL    HW1 2528   1.039   3.395   5.164
  543SOL    HW2 2529   1.198   3.358   5.161
  544SOL     OW 2530   1.945   4.573   0.241
  544SOL    HW1 2531   2.014   4.546   0.174
  544SOL    HW2 2532   1.862   4.519   0.228
  545SOL     OW 2533   3.058   1.709   1.837
  545SOL    HW1 2534   2.972   1.695   1.788
  545SOL    HW2 2535   3.095   1.621   1.865
  546SOL     OW 2536   2.372   2.919   0.793
  546SOL    HW1 2537   2.314   2.838   0.793
  546SOL    HW2 2538   2.464   2.894   0.823
  547SOL     OW 2539   3.242   0.629   0.213
  547SOL    HW1 2540   3.187   0.706   0.245
  547SOL    HW2 2541   3.339   0.647   0.230
  548SOL     OW 2542   3.766   3.558   2.185
  548SOL    HW1 2543   3.801   3.556   2.279
  548SOL    HW2 2544   3.687   3.498   2.178
  549SOL     OW 2545   5.271   3.116   1.577
  549SOL    HW1 2546   5.248   3.197   1.523
  549SOL    HW2 2547   5.196   3.050   1.573
  550SOL     OW 2548   0.529   5.742   3.853
  550SOL    HW1 2549   0.438   5.705   3.874
  550SOL    HW2 2550   0.551   5.721   3.757
  551SOL     OW 2551   0.671   0.492   2.879
  551SOL    HW1 2552   0.695   0.406   2.924
  551SOL    HW2 2553   0.583   0.524   2.914
  552SOL     OW 2554   5.717   4.498   6.882
  552SOL    HW1 2555   5.806   4.461   6.910
  552SOL    HW2 2556   5.665   4.525   6.963
  553SOL     OW 2557   2.701   6.900   2.407
  553SOL    HW1 2558   2.627   6.916   2.342
  553SOL    HW2 2559   2.699   6.804   2.437
  554SOL     OW 2560   5.830   0.318   6.628
  554SOL    HW1 2561   5.858   0.315   6.724
  554SOL    HW2 2562   5.807   0.226   6.596
  555SOL     OW 2563   1.896   4.958   3.647
  555SOL    HW1 2564   1.896   5.056   3.666
  555SOL    HW2 2565   1.842   4.911   3.716
  556SOL     OW 2566   4.496   2.434   3.378
  556SOL    HW1 2567   4.511   2.494   3.300
  556SOL    HW2 2568   4.557   2.355   3.371
  557SOL     OW 2569   0.242   5.198   0.653
  557SOL    HW1 2570   0.246   5.292   0.620
  557SOL    HW2 2571   0.258   5.197   0.752
  558SOL     OW 2572   3.118   3.077   4.635
  558SOL    HW1 2573   3.045   3.077   4.705
  558SOL    HW2 2574   3.101   3.150   4.570
  559SOL     OW 2575   6.562   5.673   0.182
  559SOL    HW1 2576   6.513   5.586   0.186
  559SOL    HW2 2577   6.503   5.746   0.219
  560SOL     OW 2578   4.861   5.029   6.824
  560SOL    HW1 2579   4.953   4.993   6.842
  560SOL    HW2 2580   4.798   4.953   6.809
  561SOL     OW 2581   0.807   1.438   1.225
  561SOL    HW1 2582   0.817   1.393   1.313
  561SOL    HW2 2583   0.711   1.462   1.211
  562SOL     OW 2584   5.114   0.498   6.093
  562SOL    HW1 2585   5.104   0.596   6.078
  562SOL    HW2 2586   5.184   0.482   6.163
  563SOL     OW 2587   2.251   0.983   3.628
  563SOL    HW1 2588   2.190   0.909   3.658
  563SOL    HW2 2589   2.314   1.006   3.702
  564SOL     OW 2590   1.163   1.982   6.872
  564SOL    HW1 2591   1.125   1.900   6.828
  564SOL    HW2 2592   1.119   2.063   6.834
  565SOL     OW 2593   3.796   2.803   5.192
  565SOL    HW1 2594   3.786   2.851   5.105
  565SOL    HW2 2595   3.712   2.811   5.245
  566SOL     OW 2596   0.037   5.100   3.904
  566SOL    HW1 2597   6.981   5.102   3.840
  566SOL    HW2 2598   0.083   5.011   3.896
  567SOL     OW 2599   2.931   2.950   1.637
  567SOL    HW1 2600   2.896   2.913   1.551
  567SOL    HW2 2601   2.931   2.878   1.707
  568SOL     OW 2602   4.688   1.513   0.019
  568SOL    HW1 2603   4.629   1.576   0.070
  568SOL    HW2 2604   4.784   1.540   0.030
  569SOL     OW 2605   1.827   2.943   6.490
  569SOL    HW1 2606   1.844   2.956   6.587
  569SOL    HW2 2607   1.881   2.866   6.457
  570SOL     OW 2608   3.144   6.535   6.915
  570SOL    HW1 2609   3.151   6.490   6.826
  570SOL    HW2 2610   3.064   6.596   6.914
  571SOL     OW 2611   3.173   0.300   1.858
  571SOL    HW1 2612   3.085   0.275   1.817
  571SOL    HW2 2613   3.169   0.283   1.956
  572SOL     OW 2614   2.872   4.852   5.533
  572SOL    HW1 2615   2.920   4.936   5.508
  572SOL    HW2 2616   2.846   4.803   5.450
  573SOL     OW 2617   5.215   1.837   5.670
  573SOL    HW1 2618   5.309   1.851   5.700
  573SOL    HW2 2619   5.153   1.855   5.745
  574SOL     OW 2620   3.273   1.751   4.167
  574SOL    HW1 2621   3.312   1.740   4.258
  574SOL    HW2 2622   3.309   1.681   4.106
  575SOL     OW 2623   5.153   3.825   0.576
  575SOL    HW1 2624   5.136   3.845   0.480
  575SOL    HW2 2625   5.122   3.902   0.632
  576SOL     OW 2626   1.070   1.920   2.858
  576SOL    HW1 2627   1.014   1.935   2.939
  576SOL    HW2 2628   1.032   1.844   2.805
  577SOL     OW 2629   1.171   1.100   2.343
  577SOL    HW1 2630   1.143   1.008   2.315
  577SOL    HW2 2631   1.270   1.110   2.331
  578SOL     OW 2632   5.632   5.508   3.637
  578SOL    HW1 2633   5.539   5.536   3.612
  578SOL    HW2 2634   5.694   5.585   3.625
  579SOL     OW 2635   1.869   2.904   2.573
  579SOL    HW1 2636   1.820   2.830   2.528
  579SOL    HW2 2637   1.841   2.910   2.669
  580SOL     OW 2638   6.625   5.260   0.133
  580SOL    HW1 2639   6.704   5.211   0.096
  580SOL    HW2 2640   6.644   5.286   0.227
  581SOL     OW 2641   2.857   3.327   2.046
  581SOL    HW1 2642   2.858   3.249   1.983
  581SOL    HW2 2643   2.869   3.412   1.995
  582SOL     OW 2644   4.739   6.951   2.054
  582SOL    HW1 2645   4.677   0.008   2.045
  582SOL    HW2 2646   4.778   6.949   2.146
  583SOL     OW 2647   2.847   5.003   5.790
  583SOL    HW1 2648   2.852   4.910   5.827
  583SOL    HW2 2649   2.874   5.002   5.694
  584SOL     OW 2650   3.041   3.983   6.108
  584SOL    HW1 2651   3.082   3.946   6.024
  584SOL    HW2 2652   3.103   4.050   6.148
  585SOL     OW 2653   5.442   3.002   6.237
  585SOL    HW1 2654   5.489   3.058   6.169
  585SOL    HW2 2655   5.414   3.060   6.314
  586SOL     OW 2656   3.854   1.899   5.845
  586SOL    HW1 2657   3.805   1.958   5.780
  586SOL    HW2 2658   3.845   1.804   5.816
  587SOL     OW 2659   3.985   1.164   5.832
  587SOL    HW1 2660   4.040   1.091   5.874
  587SOL    HW2 2661   3.899   1.173   5.883
  588SOL     OW 2662   2.316   4.838   1.787
  588SOL    HW1 2663   2.346   4.747   1.758
  588SOL    HW2 2664   2.216   4.839   1.795
  589SOL     OW 2665   3.051   4.888   1.457
  589SOL    HW1 2666   3.076   4.977   1.496
  589SOL    HW2 2667   3.076   4.886   1.360
  590SOL     OW 2668   4.944   3.394   3.356
  590SOL    HW1 2669   4.907   3.365   3.268
  590SOL    HW2 2670   5.042   3.409   3.348
  591SOL     OW 2671   4.106   5.303   4.238
  591SOL    HW1 2672   4.024   5.357   4.215
  591SOL    HW2 2673   4.183   5.334   4.182
  592SOL     OW 2674   3.424   0.971   1.440
  592SOL    HW1 2675   3.418   1.017   1.528
  592SOL    HW2 2676   3.487   1.021   1.380
  593SOL     OW 2677   4.675   2.367   3.104
  593SOL    HW1 2678   4.676   2.304   3.182
  593SOL    HW2 2679   4.639   2.455   3.134
  594SOL     OW 2680   5.805   2.228   6.745
  594SOL    HW1 2681   5.858   2.253   6.826
  594SOL    HW2 2682   5.840   2.143   6.707
  595SOL     OW 2683   5.918   6.773   3.620
  595SOL    HW1 2684   5.847   6.762   3.690
  595SOL    HW2 2685   5.897   6.852   3.562
  596SOL     OW 2686   1.840   4.643   2.920
  596SOL    HW1 2687   1.787   4.579   2.864
  596SOL    HW2 2688   1.844   4.610   3.014
  597SOL     OW 2689   3.550   6.980   6.981
  597SOL    HW1 2690   3.504   6.896   7.008
  597SOL    HW2 2691   3.487   0.015   6.928
  598SOL     OW 2692   3.749   4.578   5.625
  598SOL    HW1 2693   3.788   4.600   5.536
  598SOL    HW2 2694   3.798   4.630   5.696
  599SOL     OW 2695   2.682   6.523   2.087
  599SOL    HW1 2696   2.761   6.563   2.133
  599SOL    HW2 2697   2.691   6.424   2.086
  600SOL     OW 2698   0.834   1.322   0.046
  600SOL    HW1 2699   0.785   1.239   0.075
  600SOL    HW2 2700   0.872   1.368   0.126
  601SOL     OW 2701   2.978   0.119   4.522
  601SOL    HW1 2702   2.973   0.149   4.426
  601SOL    HW2 2703   3.068   0.082   4.540
  602SOL     OW 2704   2.526   2.488   6.154
  602SOL    HW1 2705   2.442   2.466   6.105
  602SOL    HW2 2706   2.543   2.587   6.147
  603SOL     OW 2707   3.739   1.847   3.727
  603SOL    HW1 2708   3.769   1.772   3.785
  603SOL    HW2 2709   3.640   1.856   3.733
  604SOL     OW 2710   0.798   3.508   1.162
  604SOL    HW1 2711   0.766   3.413   1.168
  604SOL    HW2 2712   0.728   3.564   1.118
  605SOL     OW 2713   7.009   6.571   2.382
  605SOL    HW1 2714   7.006   6.483   2.430
  605SOL    HW2 2715   6.916   6.603   2.365
  606SOL     OW 2716   5.284   0.420   6.325
  606SOL    HW1 2717   5.265   0.364   6.406
  606SOL    HW2 2718   5.344   0.496   6.351
  607SOL     OW 2719   6.401   0.151   5.871
  607SOL    HW1 2720   6.389   0.206   5.789
  607SOL    HW2 2721   6.311   0.133   5.912
  608SOL     OW 2722   2.781   6.041   6.349
  608SOL    HW1 2723   2.796   6.133   6.312
  608SOL    HW2 2724   2.683   6.023   6.353
  609SOL     OW 2725   4.091   3.389   3.221
  609SOL    HW1 2726   4.096   3.488   3.236
  609SOL    HW2 2727   4.065   3.344   3.306
  610SOL     OW 2728   4.975   3.181   2.066
  610SOL    HW1 2729   4.943   3.272   2.092
  610SOL    HW2 2730   4.897   3.125   2.039
  611SOL     OW 2731   3.603   0.069   0.219
  611SOL    HW1 2732   3.613   0.058   0.121
  611SOL    HW2 2733   3.691   0.053   0.264
  612SOL     OW 2734   3.658   6.521   5.568
  612SOL    HW1 2735   3.614   6.435   5.542
  612SOL    HW2 2736   3.737   6.502   5.626
  613SOL     OW 2737   4.430   6.833   5.950
  613SOL    HW1 2738   4.406   6.804   6.042
  613SOL    HW2 2739   4.410   6.760   5.885
  614SOL     OW 2740   4.504   4.435   1.144
  614SOL    HW1 2741   4.579   4.379   1.181
  614SOL    HW2 2742   4.419   4.383   1.149
  615SOL     OW 2743   0.458   2.499   1.941
  615SOL    HW1 2744   0.419   2.549   1.863
  615SOL    HW2 2745   0.521   2.429   1.908
  616SOL     OW 2746   0.677   1.955   3.734
  616SOL    HW1 2747   0.724   1.884   3.680
  616SOL    HW2 2748   0.737   2.034   3.743
  617SOL     OW 2749   6.215   3.675   6.334
  617SOL    HW1 2750   6.129   3.693   6.285
  617SOL    HW2 2751   6.196   3.620   6.416
  618SOL     OW 2752   6.595   2.229   6.558
  618SOL    HW1 2753   6.632   2.202   6.469
  618SOL    HW2 2754   6.659   2.291   6.603
  619SOL     OW 2755   4.667   0.653   6.544
  619SOL    HW1 2756   4.719   0.613   6.469
  619SOL    HW2 2757   4.723   0.658   6.626
  620SOL     OW 2758   4.761   2.673   1.423
  620SOL    HW1 2759   4.714   2.663   1.335
  620SOL    HW2 2760   4.747   2.766   1.457
  621SOL     OW 2761   2.293   6.201   6.325
  621SOL    HW1 2762   2.361   6.207   6.252
  621SOL    HW2 2763   2.213   6.256   6.300
  622SOL     OW 2764   1.259   1.161   4.321
  622SOL    HW1 2765   1.291   1.180   4.228
  622SOL    HW2 2766   1.291   1.233   4.383
  623SOL     OW 2767   1.285   6.329   6.079
  623SOL    HW1 2768   1.253   6.421   6.101
  623SOL    HW2 2769   1.246   6.300   5.991
  624SOL     OW 2770   0.175   1.601   1.724
  624SOL    HW1 2771   0.121   1.629   1.645
  624SOL    HW2 2772   0.143   1.651   1.805
  625SOL     OW 2773   1.333   1.848   1.971
  625SOL    HW1 2774   1.303   1.762   2.011
  625SOL    HW2 2775   1.427   1.838   1.937
  626SOL     OW 2776   0.983   5.927   3.463
  626SOL    HW1 2777   1.077   5.896   3.450
  626SOL    HW2 2778   0.963   5.932   3.561
  627SOL     OW 2779   6.672   6.493   0.762
  627SOL    HW1 2780   6.709   6.410   0.721
  627SOL    HW2 2781   6.580   6.475   0.797
  628SOL     OW 2782   5.422   5.841   5.883
  628SOL    HW1 2783   5.409   5.762   5.823
  628SOL    HW2 2784   5.471   5.814   5.965
  629SOL     OW 2785   0.723   0.667   6.671
  629SOL    HW1 2786   0.645   0.616   6.635
  629SOL    HW2 2787   0.719   0.761   6.638
  630SOL     OW 2788   0.107   1.645   0.971
  630SOL    HW1 2789   0.043   1.680   0.902
  630SOL    HW2 2790   0.148   1.722   1.020
  631SOL     OW 2791   3.862   1.486   5.339
  631SOL    HW1 2792   3.902   1.520   5.254
  631SOL    HW2 2793   3.935   1.464   5.403
  632SOL     OW 2794   3.898   1.454   1.591
  632SOL    HW1 2795   3.927   1.538   1.637
  632SOL    HW2 2796   3.943   1.376   1.632
  633SOL     OW 2797   3.270   3.352   6.767
  633SOL    HW1 2798   3.260   3.307   6.679
  633SOL    HW2 2799   3.355   3.321   6.811
  634SOL     OW 2800   4.055   3.744   2.221
  634SOL    HW1 2801   4.071   3.657   2.174
  634SOL    HW2 2802   4.026   3.813   2.154
  635SOL     OW 2803   4.712   5.423   0.827
  635SOL    HW1 2804   4.775   5.493   0.862
  635SOL    HW2 2805   4.674   5.453   0.740
  636SOL     OW 2806   3.198   6.401   0.302
  636SOL    HW1 2807   3.241   6.381   0.214
  636SOL    HW2 2808   3.176   6.498   0.308
  637SOL     OW 2809   0.042   3.104   3.122
  637SOL    HW1 2810   0.009   3.199   3.120
  637SOL    HW2 2811   0.098   3.091   3.204
  638SOL     OW 2812   5.552   2.709   3.046
  638SOL    HW1 2813   5.585   2.645   3.115
  638SOL    HW2 2814   5.627   2.732   2.983
  639SOL     OW 2815   4.883   3.350   3.100
  639SOL    HW1 2816   4.875   3.310   3.009
  639SOL    HW2 2817   4.870   3.449   3.095
  640SOL     OW 2818   0.490   5.136   4.008
  640SOL    HW1 2819   0.507   5.038   4.017
  640SOL    HW2 2820   0.576   5.183   3.990
  641SOL     OW 2821   0.488   4.281   5.230
  641SOL    HW1 2822   0.563   4.332   5.187
  641SOL    HW2 2823   0.527   4.213   5.293
  642SOL     OW 2824   0.027   3.320   3.866
  642SOL    HW1 2825   0.011   3.345   3.961
  642SOL    HW2 2826   0.105   3.373   3.831
  643SOL     OW 2827   6.137   6.383   6.169
  643SOL    HW1 2828   6.231   6.398   6.139
  643SOL    HW2 2829   6.098   6.305   6.120
  644SOL     OW 2830   1.876   6.758   4.401
  644SOL    HW1 2831   1.906   6.733   4.309
  644SOL    HW2 2832   1.801   6.823   4.395
  645SOL     OW 2833   4.543   0.056   5.149
  645SOL    HW1 2834   4.611   0.061   5.222
  645SOL    HW2 2835   4.488   0.139   5.149
  646SOL     OW 2836   3.317   0.911   4.596
  646SOL    HW1 2837   3.262   0.905   4.679
  646SOL    HW2 2838   3.406   0.951   4.617
  647SOL     OW 2839   5.313   1.919   5.278
  647SOL    HW1 2840   5.239   1.952   5.337
  647SOL    HW2 2841   5.274   1.884   5.193
  648SOL     OW 2842   0.676   3.395   3.436
  648SOL    HW1 2843   0.649   3.392   3.340
  648SOL    HW2 2844   0.682   3.490   3.466
  649SOL     OW 2845   2.680   4.250   0.930
  649SOL    HW1 2846   2.733   4.329   0.960
  649SOL    HW2 2847   2.608   4.231   0.996
  650SOL     OW 2848   5.766   4.555   0.229
  650SOL    HW1 2849   5.831   4.617   0.186
  650SOL    HW2 2850   5.815   4.484   0.279
  651SOL     OW 2851   0.804   6.555   6.036
  651SOL    HW1 2852   0.802   6.575   5.938
  651SOL    HW2 2853   0.877   6.489   6.055
  652SOL     OW 2854   5.203   6.949   3.778
  652SOL    HW1 2855   5.242   7.003   3.702
  652SOL    HW2 2856   5.277   6.914   3.835
  653SOL     OW 2857   1.287   5.927   6.706
  653SOL    HW1 2858   1.352   5.996   6.673
  653SOL    HW2 2859   1.200   5.972   6.728
  654SOL     OW 2860   0.637   5.669   0.138
  654SOL    HW1 2861   0.701   5.591   0.136
  654SOL    HW2 2862   0.687   5.753   0.118
  655SOL     OW 2863   7.014   5.931   1.428
  655SOL    HW1 2864   7.001   6.006   1.363
  655SOL    HW2 2865   6.930   5.877   1.433
  656SOL     OW 2866   1.836   6.147   0.986
  656SOL    HW1 2867   1.811   6.242   1.007
  656SOL    HW2 2868   1.909   6.118   1.048
  657SOL     OW 2869   2.473   3.853   1.630
  657SOL    HW1 2870   2.431   3.935   1.592
  657SOL    HW2 2871   2.406   3.778   1.630
  658SOL     OW 2872   1.993   3.503   6.568
  658SOL    HW1 2873   2.022   3.466   6.656
  658SOL    HW2 2874   2.073   3.518   6.509
  659SOL     OW 2875   1.461   6.211   5.280
  659SOL    HW1 2876   1.407   6.193   5.199
  659SOL    HW2 2877   1.403   6.204   5.362
  660SOL     OW 2878   5.957   3.791   2.378
  660SOL    HW1 2879   5.919   3.812   2.468
  660SOL    HW2 2880   5.923   3.703   2.347
  661SOL     OW 2881   4.724   4.185   3.067
  661SOL    HW1 2882   4.678   4.184   3.156
  661SOL    HW2 2883   4.657   4.169   2.994
  662SOL     OW 2884   4.355   0.291   4.854
  662SOL    HW1 2885   4.291   0.272   4.929
  662SOL    HW2 2886   4.351   0.217   4.787
  663SOL     OW 2887   1.110   3.609   6.501
  663SOL    HW1 2888   1.089   3.513   6.515
  663SOL    HW2 2889   1.189   3.617   6.439
  664SOL     OW 2890   0.313   5.100   6.409
  664SOL    HW1 2891   0.355   5.182   6.448
  664SOL    HW2 2892   0.277   5.121   6.318
  665SOL     OW 2893   4.289   4.801   0.763
  665SOL    HW1 2894   4.267   4.877   0.702
  665SOL    HW2 2895   4.213   4.735   0.762
  666SOL     OW 2896   5.252   1.898   2.936
  666SOL    HW1 2897   5.166   1.850   2.919
  666SOL    HW2 2898   5.234   1.994   2.955
  667SOL     OW 2899   6.041   3.768   3.271
  667SOL    HW1 2900   6.035   3.829   3.192
  667SOL    HW2 2901   6.005   3.678   3.246
  668SOL     OW 2902   4.704   6.031   6.916
  668SOL    HW1 2903   4.621   6.086   6.904
  668SOL    HW2 2904   4.679   5.937   6.938
  669SOL     OW 2905   4.028   6.148   3.317
  669SOL    HW1 2906   4.088   6.068   3.317
  669SOL    HW2 2907   4.057   6.211   3.389
  670SOL     OW 2908   2.534   2.869   1.466
  670SOL    HW1 2909   2.455   2.905   1.515
  670SOL    HW2 2910   2.587   2.810   1.527
  671SOL     OW 2911   2.947   5.661   0.091
  671SOL    HW1 2912   2.928   5.753   0.123
  671SOL    HW2 2913   2.873   5.600   0.118
  672SOL     OW 2914   0.662   4.368   1.846
  672SOL    HW1 2915   0.719   4.336   1.922
  672SOL    HW2 2916   0.566   4.353   1.868
  673SOL     OW 2917   6.620   0.526   1.306
  673SOL    HW1 2918   6.662   0.616   1.296
  673SOL    HW2 2919   6.520   0.536   1.304
  674SOL     OW 2920   6.901   3.255   4.323
  674SOL    HW1 2921   6.814   3.304   4.318
  674SOL    HW2 2922   6.899   3.191   4.400
  675SOL     OW 2923   0.722   1.204   4.622
  675SOL    HW1 2924   0.682   1.290   4.653
  675SOL    HW2 2925   0.726   1.140   4.698
  676SOL     OW 2926   3.933   5.994   2.962
  676SOL    HW1 2927   3.955   5.991   2.864
  676SOL    HW2 2928   4.012   5.962   3.014
  677SOL     OW 2929   6.190   1.584   6.815
  677SOL    HW1 2930   6.090   1.583   6.813
  677SOL    HW2 2931   6.222   1.644   6.888
  678SOL     OW 2932   1.414   1.306   4.548
  678SOL    HW1 2933   1.434   1.348   4.637
  678SOL    HW2 2934   1.374   1.375   4.488
  679SOL     OW 2935   4.745   1.705   4.502
  679SOL    HW1 2936   4.830   1.743   4.466
  679SOL    HW2 2937   4.713   1.631   4.444
  680SOL     OW 2938   6.140   5.506   5.908
  680SOL    HW1 2939   6.132   5.411   5.936
  680SOL    HW2 2940   6.124   5.566   5.987
  681SOL     OW 2941   5.536   5.948   1.412
  681SOL    HW1 2942   5.602   5.981   1.480
  681SOL    HW2 2943   5.471   5.886   1.457
  682SOL     OW 2944   1.710   0.276   0.548
  682SOL    HW1 2945   1.703   0.361   0.598
  682SOL    HW2 2946   1.806   0.245   0.547
  683SOL     OW 2947   3.706   2.657   6.753
  683SOL    HW1 2948   3.781   2.665   6.820
  683SOL    HW2 2949   3.625   2.621   6.799
  684SOL     OW 2950   6.240   0.690   6.981
  684SOL    HW1 2951   6.263   0.765   6.920
  684SOL    HW2 2952   6.295   0.610   6.958
  685SOL     OW 2953   4.523   1.395   4.405
  685SOL    HW1 2954   4.594   1.461   4.378
  685SOL    HW2 2955   4.567   1.308   4.429
  686SOL     OW 2956   5.614   2.459   3.511
  686SOL    HW1 2957   5.537   2.428   3.567
  686SOL    HW2 2958   5.596   2.440   3.415
  687SOL     OW 2959   0.122   2.746   4.761
  687SOL    HW1 2960   0.108   2.727   4.858
  687SOL    HW2 2961   0.215   2.717   4.735
  688SOL     OW 2962   1.669   2.716   6.917
  688SOL    HW1 2963   1.596   2.650   6.899
  688SOL    HW2 2964   1.754   2.684   6.874
  689SOL     OW 2965   0.123   4.453   5.928
  689SOL    HW1 2966   0.185   4.385   5.968
  689SOL    HW2 2967   0.046   4.407   5.885
  690SOL     OW 2968   0.464   3.724   3.413
  690SOL    HW1 2969   0.549   3.689   3.452
  690SOL    HW2 2970   0.482   3.766   3.324
  691SOL     OW 2971   2.417   0.295   6.488
  691SOL    HW1 2972   2.443   0.223   6.553
  691SOL    HW2 2973   2.403   0.381   6.538
  692SOL     OW 2974   4.153   5.724   3.951
  692SOL    HW1 2975   4.063   5.752   3.985
  692SOL    HW2 2976   4.220   5.795   3.972
  693SOL     OW 2977   6.413   0.559   3.394
  693SOL    HW1 2978   6.331   0.545   3.450
  693SOL    HW2 2979   6.418   0.655   3.366
  694SOL     OW 2980   3.866   6.239   2.582
  694SOL    HW1 2981   3.879   6.153   2.631
  694SOL    HW2 2982   3.917   6.311   2.629
  695SOL     OW 2983   4.236   5.884   4.979
  695SOL    HW1 2984   4.158   5.839   5.021
  695SOL    HW2 2985   4.231   5.875   4.880
  696SOL     OW 2986   3.651   5.529   2.509
  696SOL    HW1 2987   3.606   5.614   2.535
  696SOL    HW2 2988   3.598   5.451   2.543
  697SOL     OW 2989   2.282   2.681   4.277
  697SOL    HW1 2990   2.328   2.672   4.189
  697SOL    HW2 2991   2.252   2.775   4.289
  698SOL     OW 2992   5.599   0.454   0.036
  698SOL    HW1 2993   5.614   0.358   0.060
  698SOL    HW2 2994   5.615   0.511   0.116
  699SOL     OW 2995   1.468   3.975   6.357
  699SOL    HW1 2996   1.553   3.970   6.409
  699SOL    HW2 2997   1.413   3.894   6.375
  700SOL     OW 2998   2.666   1.205   3.585
  700SOL    HW1 2999   2.729   1.176   3.513
  700SOL    HW2 3000   2.698   1.170   3.673
  701SOL     OW 3001   5.957   3.233   5.233
  701SOL    HW1 3002   6.029   3.163   5.239
  701SOL    HW2 3003   5.965   3.281   5.146
  702SOL     OW 3004   0.407   6.691   5.993
  702SOL    HW1 3005   0.340   6.761   6.016
  702SOL    HW2 3006   0.367   6.626   5.928
  703SOL     OW 3007   3.318   4.206   6.492
  703SOL    HW1 3008   3.408   4.164   6.507
  703SOL    HW2 3009   3.270   4.213   6.579
  704SOL     OW 3010   1.274   1.116   6.702
  704SOL    HW1 3011   1.187   1.108   6.751
  704SOL    HW2 3012   1.276   1.050   6.627
  705SOL     OW 3013   6.168   6.224   2.980
  705SOL    HW1 3014   6.108   6.301   3.000
  705SOL    HW2 3015   6.201   6.230   2.886
  706SOL     OW 3016   4.423   2.461   4.183
  706SOL    HW1 3017   4.400   2.407   4.263
  706SOL    HW2 3018   4.488   2.533   4.209
  707SOL     OW 3019   4.587   6.680   2.122
  707SOL    HW1 3020   4.655   6.670   2.195
  707SOL    HW2 3021   4.624   6.740   2.051
  708SOL     OW 3022   3.872   1.126   1.171
  708SOL    HW1 3023   3.814   1.045   1.159
  708SOL    HW2 3024   3.947   1.103   1.233
  709SOL     OW 3025   0.881   5.265   0.646
  709SOL    HW1 3026   0.928   5.176   0.650
  709SOL    HW2 3027   0.797   5.260   0.701
  710SOL     OW 3028   3.434   2.883   2.655
  710SOL    HW1 3029   3.506   2.910   2.720
  710SOL    HW2 3030   3.345   2.914   2.689
  711SOL     OW 3031   0.211   2.304   6.015
  711SOL    HW1 3032   0.141   2.249   5.970
  711SOL    HW2 3033   0.178   2.335   6.104
  712SOL     OW 3034   3.725   3.430   0.939
  712SOL    HW1 3035   3.673   3.439   0.853
  712SOL    HW2 3036   3.735   3.333   0.961
  713SOL     OW 3037   3.697   2.899   6.379
  713SOL    HW1 3038   3.768   2.838   6.343
  713SOL    HW2 3039   3.735   2.992   6.387
  714SOL     OW 3040   6.637   4.288   4.148
  714SOL    HW1 3041   6.550   4.264   4.105
  714SOL    HW2 3042   6.639   4.387   4.164
  715SOL     OW 3043   5.822   5.467   0.021
  715SOL    HW1 3044   5.808   5.410   6.962
  715SOL    HW2 3045   5.774   5.554   0.009
  716SOL     OW 3046   0.998   0.385   0.835
  716SOL    HW1 3047   1.038   0.443   0.906
  716SOL    HW2 3048   1.017   0.289   0.856
  717SOL     OW 3049   5.987   4.605   6.059
  717SOL    HW1 3050   6.059   4.665   6.025
  717SOL    HW2 3051   6.025   4.539   6.124
  718SOL     OW 3052   5.007   2.695   6.504
  718SOL    HW1 3053   4.986   2.695   6.406
  718SOL    HW2 3054   5.022   2.600   6.535
  719SOL     OW 3055   6.101   0.747   1.774
  719SOL    HW1 3056   6.151   0.802   1.707
  719SOL    HW2 3057   6.046   0.678   1.726
  720SOL     OW 3058   3.514   0.774   6.676
  720SOL    HW1 3059   3.596   0.720   6.694
  720SOL    HW2 3060   3.433   0.716   6.683
  721SOL     OW 3061   2.422   1.385   4.230
  721SOL    HW1 3062   2.510   1.369   4.275
  721SOL    HW2 3063   2.411   1.483   4.213
  722SOL     OW 3064   3.029   0.366   4.708
  722SOL    HW1 3065   3.127   0.380   4.717
  722SOL    HW2 3066   3.005   0.274   4.737
  723SOL     OW 3067   2.161   3.805   3.077
  723SOL    HW1 3068   2.162   3.741   3.001
  723SOL    HW2 3069   2.079   3.790   3.133
  724SOL     OW 3070   1.326   2.844   4.500
  724SOL    HW1 3071   1.295   2.885   4.585
  724SOL    HW2 3072   1.376   2.759   4.519
  725SOL     OW 3073   3.973   5.850   0.727
  725SOL    HW1 3074   3.980   5.922   0.658
  725SOL    HW2 3075   4.029   5.875   0.806
  726SOL     OW 3076   4.486   4.962   0.543
  726SOL    HW1 3077   4.469   4.906   0.462
  726SOL    HW2 3078   4.448   5.053   0.530
  727SOL     OW 3079   5.712   5.285   6.248
  727SOL    HW1 3080   5.784   5.219   6.228
  727SOL    HW2 3081   5.751   5.366   6.292
  728SOL     OW 3082   6.248   3.509   5.001
  728SOL    HW1 3083   6.282   3.461   5.082
  728SOL    HW2 3084   6.313   3.580   4.975
  729SOL     OW 3085   1.023   2.095   0.548
  729SOL    HW1 3086   1.025   2.193   0.567
  729SOL    HW2 3087   1.097   2.050   0.598
  730SOL     OW 3088   5.583   1.301   2.984
  730SOL    HW1 3089   5.530   1.346   3.056
  730SOL    HW2 3090   5.677   1.334   2.987
  731SOL     OW 3091   5.383   4.548   5.793
  731SOL    HW1 3092   5.438   4.581   5.869
  731SOL    HW2 3093   5.308   4.491   5.828
  732SOL     OW 3094   0.304   2.379   1.659
  732SOL    HW1 3095   0.349   2.295   1.688
  732SOL    HW2 3096   0.372   2.451   1.645
  733SOL     OW 3097   5.904   6.201   5.793
  733SOL    HW1 3098   5.810   6.219   5.762
  733SOL    HW2 3099   5.967   6.217   5.717
  734SOL     OW 3100   6.949   4.651   2.601
  734SOL    HW1 3101   0.023   4.642   2.631
  734SOL    HW2 3102   6.889   4.640   2.680
  735SOL     OW 3103   3.868   1.981   0.715
  735SOL    HW1 3104   3.921   1.915   0.662
  735SOL    HW2 3105   3.920   2.066   0.724
  736SOL     OW 3106   0.880   0.653   3.193
  736SOL    HW1 3107   0.905   0.580   3.258
  736SOL    HW2 3108   0.963   0.694   3.156
  737SOL     OW 3109   4.958   2.251   5.721
  737SOL    HW1 3110   4.922   2.186   5.654
  737SOL    HW2 3111   5.049   2.281   5.694
  738SOL     OW 3112   2.072   4.522   2.469
  738SOL    HW1 3113   2.022   4.599   2.508
  738SOL    HW2 3114   2.131   4.553   2.395
  739SOL     OW 3115   4.245   0.308   4.221
  739SOL    HW1 3116   4.327   0.252   4.209
  739SOL    HW2 3117   4.225   0.317   4.318
  740SOL     OW 3118   5.118   0.347   1.019
  740SOL    HW1 3119   5.042   0.362   0.956
  740SOL    HW2 3120   5.105   0.402   1.101
  741SOL     OW 3121   2.037   6.523   2.996
  741SOL    HW1 3122   1.993   6.572   3.072
  741SOL    HW2 3123   2.104   6.583   2.952
  742SOL     OW 3124   2.479   6.536   1.896
  742SOL    HW1 3125   2.490   6.635   1.880
  742SOL    HW2 3126   2.559   6.502   1.946
  743SOL     OW 3127   0.249   3.828   4.190
  743SOL    HW1 3128   0.259   3.734   4.156
  743SOL    HW2 3129   0.329   3.852   4.244
  744SOL     OW 3130   5.687   0.580   6.840
  744SOL    HW1 3131   5.645   0.533   6.762
  744SOL    HW2 3132   5.675   0.525   6.922
  745SOL     OW 3133   0.614   5.674   5.089
  745SOL    HW1 3134   0.518   5.681   5.115
  745SOL    HW2 3135   0.622   5.681   4.989
  746SOL     OW 3136   6.907   5.000   5.840
  746SOL    HW1 3137   6.976   5.064   5.873
  746SOL    HW2 3138   6.816   5.040   5.852
  747SOL     OW 3139   3.963   6.572   4.454
  747SOL    HW1 3140   3.948   6.521   4.538
  747SOL    HW2 3141   4.057   6.559   4.423
  748SOL     OW 3142   3.709   4.875   2.494
  748SOL    HW1 3143   3.612   4.860   2.508
  748SOL    HW2 3144   3.759   4.859   2.579
  749SOL     OW 3145   6.461   4.582   5.427
  749SOL    HW1 3146   6.498   4.503   5.378
  749SOL    HW2 3147   6.530   4.654   5.431
  750SOL     OW 3148   1.629   2.304   0.674
  750SOL    HW1 3149   1.537   2.335   0.648
  750SOL    HW2 3150   1.689   2.308   0.594
  751SOL     OW 3151   3.630   2.560   6.480
  751SOL    HW1 3152   3.659   2.608   6.563
  751SOL    HW2 3153   3.568   2.486   6.505
  752SOL     OW 3154   3.670   1.400   2.268
  752SOL    HW1 3155   3.576   1.399   2.303
  752SOL    HW2 3156   3.733   1.384   2.344
  753SOL     OW 3157   1.775   3.522   5.035
  753SOL    HW1 3158   1.769   3.436   5.085
  753SOL    HW2 3159   1.746   3.597   5.095
  754SOL     OW 3160   5.526   2.600   5.953
  754SOL    HW1 3161   5.541   2.542   5.873
  754SOL    HW2 3162   5.436   2.642   5.948
  755SOL     OW 3163   1.296   4.415   5.134
  755SOL    HW1 3164   1.317   4.344   5.068
  755SOL    HW2 3165   1.349   4.401   5.217
  756SOL     OW 3166   3.710   0.285   0.581
  756SOL    HW1 3167   3.611   0.297   0.582
  756SOL    HW2 3168   3.755   0.373   0.595
  757SOL     OW 3169   0.839   0.237   3.959
  757SOL    HW1 3170   0.817   0.249   4.056
  757SOL    HW2 3171   0.916   0.174   3.950
  758SOL     OW 3172   4.040   0.087   1.952
  758SOL    HW1 3173   4.049   7.016   1.915
  758SOL    HW2 3174   3.951   0.096   1.998
  759SOL     OW 3175   0.524   1.254   1.190
  759SOL    HW1 3176   0.607   1.208   1.159
  759SOL    HW2 3177   0.549   1.333   1.245
  760SOL     OW 3178   5.337   0.167   5.597
  760SOL    HW1 3179   5.417   0.219   5.627
  760SOL    HW2 3180   5.290   0.217   5.524
  761SOL     OW 3181   5.931   3.019   5.673
  761SOL    HW1 3182   5.837   3.034   5.705
  761SOL    HW2 3183   5.934   2.933   5.621
  762SOL     OW 3184   2.424   0.749   5.021
  762SOL    HW1 3185   2.490   0.744   4.946
  762SOL    HW2 3186   2.351   0.814   4.997
  763SOL     OW 3187   4.084   5.275   6.199
  763SOL    HW1 3188   4.031   5.215   6.138
  763SOL    HW2 3189   4.158   5.317   6.147
  764SOL     OW 3190   5.214   1.848   5.026
  764SOL    HW1 3191   5.143   1.782   5.052
  764SOL    HW2 3192   5.258   1.817   4.942
  765SOL     OW 3193   1.195   6.373   1.344
  765SOL    HW1 3194   1.291   6.344   1.335
  765SOL    HW2 3195   1.154   6.381   1.254
  766SOL     OW 3196   2.244   3.631   6.922
  766SOL    HW1 3197   2.249   3.680   6.835
  766SOL    HW2 3198   2.314   3.560   6.924
  767SOL     OW 3199   6.323   5.641   1.723
  767SOL    HW1 3200   6.318   5.681   1.815
  767SOL    HW2 3201   6.405   5.584   1.716
  768SOL     OW 3202   2.140   6.308   1.948
  768SOL    HW1 3203   2.050   6.318   1.906
  768SOL    HW2 3204   2.209   6.303   1.876
  769SOL     OW 3205   3.413   0.690   5.186
  769SOL    HW1 3206   3.382   0.731   5.272
  769SOL    HW2 3207   3.508   0.660   5.196
  770SOL     OW 3208   2.266   4.223   3.085
  770SOL    HW1 3209   2.337   4.293   3.090
  770SOL    HW2 3210   2.194   4.243   3.151
  771SOL     OW 3211   2.793   5.528   2.371
  771SOL    HW1 3212   2.787   5.549   2.469
  771SOL    HW2 3213   2.838   5.603   2.323
  772SOL     OW 3214   5.446   4.744   0.779
  772SOL    HW1 3215   5.349   4.731   0.758
  772SOL    HW2 3216   5.458   4.829   0.830
  773SOL     OW 3217   0.223   3.450   4.839
  773SOL    HW1 3218   0.245   3.445   4.936
  773SOL    HW2 3219   0.306   3.442   4.785
  774SOL     OW 3220   1.064   1.451   1.146
  774SOL    HW1 3221   0.965   1.443   1.150
  774SOL    HW2 3222   1.103   1.367   1.110
  775SOL     OW 3223   0.792   2.173   2.858
  775SOL    HW1 3224   0.741   2.255   2.833
  775SOL    HW2 3225   0.889   2.188   2.843
  776SOL     OW 3226   1.039   0.200   6.030
  776SOL    HW1 3227   1.070   0.155   5.946
  776SOL    HW2 3228   0.941   0.183   6.043
  777SOL     OW 3229   2.501   5.062   1.540
  777SOL    HW1 3230   2.481   4.983   1.597
  777SOL    HW2 3231   2.415   5.103   1.509
  778SOL     OW 3232   3.058   1.129   2.283
  778SOL    HW1 3233   3.137   1.137   2.344
  778SOL    HW2 3234   3.087   1.091   2.195
  779SOL     OW 3235   0.383   2.646   2.507
  779SOL    HW1 3236   0.334   2.726   2.472
  779SOL    HW2 3237   0.463   2.677   2.558
  780SOL     OW 3238   6.231   3.896   3.625
  780SOL    HW1 3239   6.217   3.956   3.704
  780SOL    HW2 3240   6.328   3.897   3.599
  781SOL     OW 3241   5.343   0.963   0.184
  781SOL    HW1 3242   5.297   0.874   0.174
  781SOL    HW2 3243   5.430   0.961   0.136
  782SOL     OW 3244   1.529   3.996   6.757
  782SOL    HW1 3245   1.578   3.989   6.671
  782SOL    HW2 3246   1.517   4.093   6.781
  783SOL     OW 3247   4.148   5.368   0.633
  783SOL    HW1 3248   4.127   5.335   0.724
  783SOL    HW2 3249   4.147   5.468   0.632
  784SOL     OW 3250   5.578   6.626   0.620
  784SOL    HW1 3251   5.513   6.585   0.556
  784SOL    HW2 3252   5.665   6.575   0.616
  785SOL     OW 3253   0.721   2.444   2.808
  785SOL    HW1 3254   0.796   2.494   2.766
  785SOL    HW2 3255   0.637   2.499   2.803
  786SOL     OW 3256   1.379   0.538   1.500
  786SOL    HW1 3257   1.334   0.451   1.521
  786SOL    HW2 3258   1.423   0.573   1.583
  787SOL     OW 3259   3.278   0.221   6.579
  787SOL    HW1 3260   3.192   0.196   6.535
  787SOL    HW2 3261   3.304   0.314   6.549
  788SOL     OW 3262   3.897   3.075   5.848
  788SOL    HW1 3263   3.857   3.140   5.784
  788SOL    HW2 3264   3.851   2.987   5.840
  789SOL     OW 3265   5.293   4.165   0.841
  789SOL    HW1 3266   5.310   4.144   0.937
  789SOL    HW2 3267   5.377   4.148   0.789
  790SOL     OW 3268   1.523   1.445   4.159
  790SOL    HW1 3269   1.621   1.463   4.165
  790SOL    HW2 3270   1.502   1.406   4.069
  791SOL     OW 3271   3.366   5.442   3.866
  791SOL    HW1 3272   3.307   5.483   3.796
  791SOL    HW2 3273   3.422   5.512   3.909
  792SOL     OW 3274   0.472   6.537   1.120
  792SOL    HW1 3275   0.428   6.621   1.085
  792SOL    HW2 3276   0.539   6.504   1.053
  793SOL     OW 3277   4.680   4.915   3.703
  793SOL    HW1 3278   4.699   4.884   3.610
  793SOL    HW2 3279   4.668   5.014   3.703
  794SOL     OW 3280   3.399   3.639   5.527
  794SOL    HW1 3281   3.461   3.688   5.588
  794SOL    HW2 3282   3.452   3.579   5.467
  795SOL     OW 3283   3.469   6.845   4.256
  795SOL    HW1 3284   3.385   6.894   4.232
  795SOL    HW2 3285   3.547   6.906   4.249
  796SOL     OW 3286   0.471   1.810   6.274
  796SOL    HW1 3287   0.376   1.779   6.280
  796SOL    HW2 3288   0.528   1.752   6.333
  797SOL     OW 3289   5.449   3.263   0.868
  797SOL    HW1 3290   5.391   3.252   0.949
  797SOL    HW2 3291   5.497   3.177   0.850
  798SOL     OW 3292   4.405   0.208   2.183
  798SOL    HW1 3293   4.346   0.148   2.237
  798SOL    HW2 3294   4.436   0.285   2.240
  799SOL     OW 3295   6.341   0.486   6.055
  799SOL    HW1 3296   6.289   0.401   6.061
  799SOL    HW2 3297   6.437   0.465   6.035
  800SOL     OW 3298   5.336   2.440   2.440
  800SOL    HW1 3299   5.419   2.441   2.385
  800SOL    HW2 3300   5.299   2.347   2.444
  801SOL     OW 3301   1.328   3.714   4.040
  801SOL    HW1 3302   1.233   3.725   4.013
  801SOL    HW2 3303   1.343   3.621   4.073
  802SOL     OW 3304   4.377   1.546   0.708
  802SOL    HW1 3305   4.397   1.632   0.661
  802SOL    HW2 3306   4.382   1.470   0.643
  803SOL     OW 3307   0.265   6.695   5.152
  803SOL    HW1 3308   0.243   6.666   5.058
  803SOL    HW2 3309   0.252   6.794   5.160
  804SOL     OW 3310   5.244   5.262   6.519
  804SOL    HW1 3311   5.165   5.264   6.458
  804SOL    HW2 3312   5.320   5.216   6.473
  805SOL     OW 3313   4.031   0.200   5.593
  805SOL    HW1 3314   4.029   0.272   5.524
  805SOL    HW2 3315   4.117   0.149   5.586
  806SOL     OW 3316   5.218   1.286   4.260
  806SOL    HW1 3317   5.145   1.266   4.325
  806SOL    HW2 3318   5.298   1.229   4.281
  807SOL     OW 3319   1.220   1.961   4.056
  807SOL    HW1 3320   1.208   2.015   4.139
  807SOL    HW2 3321   1.186   1.868   4.072
  808SOL     OW 3322   4.331   3.605   6.431
  808SOL    HW1 3323   4.427   3.580   6.441
  808SOL    HW2 3324   4.319   3.660   6.349
  809SOL     OW 3325   0.013   5.307   1.615
  809SOL    HW1 3326   0.027   5.252   1.532
  809SOL    HW2 3327   6.936   5.313   1.634
  810SOL     OW 3328   3.167   2.585   1.187
  810SOL    HW1 3329   3.217   2.522   1.247
  810SOL    HW2 3330   3.089   2.537   1.147
  811SOL     OW 3331   3.921   5.668   4.922
  811SOL    HW1 3332   3.840   5.676   4.864
  811SOL    HW2 3333   3.960   5.577   4.913
  812SOL     OW 3334   0.170   1.383   2.079
  812SOL    HW1 3335   0.217   1.384   1.990
  812SOL    HW2 3336   0.093   1.447   2.076
  813SOL     OW 3337   3.224   6.165   5.505
  813SOL    HW1 3338   3.261   6.226   5.575
  813SOL    HW2 3339   3.171   6.092   5.549
  814SOL     OW 3340   6.790   6.251   2.679
  814SOL    HW1 3341   6.818   6.196   2.600
  814SOL    HW2 3342   6.821   6.345   2.666
  815SOL     OW 3343   0.653   3.697   2.955
  815SOL    HW1 3344   0.573   3.754   2.937
  815SOL    HW2 3345   0.641   3.608   2.911
  816SOL     OW 3346   6.257   6.343   0.593
  816SOL    HW1 3347   6.202   6.259   0.588
  816SOL    HW2 3348   6.272   6.367   0.689
  817SOL     OW 3349   1.935   3.863   0.866
  817SOL    HW1 3350   1.876   3.875   0.946
  817SOL    HW2 3351   1.901   3.919   0.791
  818SOL     OW 3352   6.490   2.573   2.167
  818SOL    HW1 3353   6.412   2.633   2.188
  818SOL    HW2 3354   6.534   2.545   2.252
  819SOL     OW 3355   5.742   2.748   2.564
  819SOL    HW1 3356   5.652   2.706   2.576
  819SOL    HW2 3357   5.800   2.688   2.508
  820SOL     OW 3358   2.862   2.599   5.379
  820SOL    HW1 3359   2.856   2.664   5.455
  820SOL    HW2 3360   2.919   2.638   5.307
  821SOL     OW 3361   1.270   4.073   1.130
  821SOL    HW1 3362   1.227   4.163   1.121
  821SOL    HW2 3363   1.360   4.084   1.171
  822SOL     OW 3364   1.679   4.269   4.304
  822SOL    HW1 3365   1.643   4.361   4.320
  822SOL    HW2 3366   1.716   4.232   4.389
  823SOL     OW 3367   5.612   4.006   6.642
  823SOL    HW1 3368   5.559   4.090   6.629
  823SOL    HW2 3369   5.675   4.019   6.719
  824SOL     OW 3370   5.569   1.118   6.442
  824SOL    HW1 3371   5.542   1.065   6.361
  824SOL    HW2 3372   5.486   1.146   6.491
  825SOL     OW 3373   0.634   4.115   1.209
  825SOL    HW1 3374   0.581   4.178   1.153
  825SOL    HW2 3375   0.714   4.161   1.246
  826SOL     OW 3376   5.310   2.804   5.561
  826SOL    HW1 3377   5.362   2.888   5.577
  826SOL    HW2 3378   5.213   2.825   5.551
  827SOL     OW 3379   3.186   4.849   5.636
  827SOL    HW1 3380   3.111   4.865   5.572
  827SOL    HW2 3381   3.258   4.795   5.591
  828SOL     OW 3382   5.124   6.895   6.448
  828SOL    HW1 3383   5.032   6.876   6.482
  828SOL    HW2 3384   5.118   6.927   6.354
  829SOL     OW 3385   3.017   3.906   3.080
  829SOL    HW1 3386   3.016   3.882   3.177
  829SOL    HW2 3387   2.938   3.866   3.035
  830SOL     OW 3388   5.054   5.287   6.327
  830SOL    HW1 3389   5.110   5.367   6.307
  830SOL    HW2 3390   5.039   5.235   6.244
  831SOL     OW 3391   5.834   0.905   6.527
  831SOL    HW1 3392   5.849   0.873   6.621
  831SOL    HW2 3393   5.744   0.873   6.495
  832SOL     OW 3394   2.900   0.612   1.730
  832SOL    HW1 3395   2.901   0.700   1.683
  832SOL    HW2 3396   2.860   0.543   1.669
  833SOL     OW 3397   0.393   3.875   5.411
  833SOL    HW1 3398   0.364   3.790   5.454
  833SOL    HW2 3399   0.464   3.918   5.467
  834SOL     OW 3400   3.903   3.645   0.179
  834SOL    HW1 3401   3.860   3.556   0.187
  834SOL    HW2 3402   3.926   3.662   0.083
  835SOL     OW 3403   3.261   0.388   5.202
  835SOL    HW1 3404   3.272   0.456   5.130
  835SOL    HW2 3405   3.206   0.426   5.276
  836SOL     OW 3406   4.189   6.163   0.117
  836SOL    HW1 3407   4.111   6.142   0.057
  836SOL    HW2 3408   4.194   6.261   0.131
  837SOL     OW 3409   5.397   6.894   0.361
  837SOL    HW1 3410   5.407   6.809   0.310
  837SOL    HW2 3411   5.479   6.910   0.416
  838SOL     OW 3412   2.421   0.686   4.375
  838SOL    HW1 3413   2.450   0.632   4.454
  838SOL    HW2 3414   2.488   0.758   4.358
  839SOL     OW 3415   2.010   2.854   2.167
  839SOL    HW1 3416   2.061   2.854   2.080
  839SOL    HW2 3417   2.003   2.761   2.202
  840SOL     OW 3418   5.823   6.302   6.852
  840SOL    HW1 3419   5.814   6.206   6.878
  840SOL    HW2 3420   5.757   6.323   6.780
  841SOL     OW 3421   3.937   4.989   6.664
  841SOL    HW1 3422   3.988   4.913   6.705
  841SOL    HW2 3423   3.983   5.075   6.685
  842SOL     OW 3424   4.114   6.942   5.137
  842SOL    HW1 3425   4.169   6.891   5.071
  842SOL    HW2 3426   4.130   0.018   5.127
  843SOL     OW 3427   1.563   1.435   0.782
  843SOL    HW1 3428   1.589   1.435   0.685
  843SOL    HW2 3429   1.586   1.523   0.823
  844SOL     OW 3430   5.978   0.507   0.875
  844SOL    HW1 3431   5.959   0.440   0.947
  844SOL    HW2 3432   6.050   0.569   0.905
  845SOL     OW 3433   5.829   4.273   5.268
  845SOL    HW1 3434   5.754   4.294   5.331
  845SOL    HW2 3435   5.848   4.175   5.271
  846SOL     OW 3436   2.064   1.919   6.848
  846SOL    HW1 3437   1.981   1.969   6.872
  846SOL    HW2 3438   2.045   1.820   6.850
  847SOL     OW 3439   1.818   3.271   1.199
  847SOL    HW1 3440   1.841   3.181   1.236
  847SOL    HW2 3441   1.723   3.293   1.221
  848SOL     OW 3442   5.767   0.882   6.172
  848SOL    HW1 3443   5.845   0.851   6.228
  848SOL    HW2 3444   5.799   0.946   6.103
  849SOL     OW 3445   0.500   4.146   6.089
  849SOL    HW1 3446   0.480   4.155   6.187
  849SOL    HW2 3447   0.599   4.140   6.076
  850SOL     OW 3448   5.161   0.802   3.805
  850SOL    HW1 3449   5.131   0.897   3.796
  850SOL    HW2 3450   5.157   0.757   3.716
  851SOL     OW 3451   0.488   1.867   2.428
  851SOL    HW1 3452   0.506   1.887   2.525
  851SOL    HW2 3453   0.570   1.830   2.385
  852SOL     OW 3454   1.421   2.863   0.031
  852SOL    HW1 3455   1.452   2.884   0.124
  852SOL    HW2 3456   1.479   2.912   6.987
  853SOL     OW 3457   1.911   4.366   2.726
  853SOL    HW1 3458   1.947   4.443   2.779
  853SOL    HW2 3459   1.914   4.283   2.782
  854SOL     OW 3460   4.574   5.916   1.482
  854SOL    HW1 3461   4.669   5.885   1.480
  854SOL    HW2 3462   4.569   6.008   1.521
  855SOL     OW 3463   0.090   0.118   1.978
  855SOL    HW1 3464   0.008   0.080   1.935
  855SOL    HW2 3465   0.123   0.195   1.924
  856SOL     OW 3466   1.487   1.876   5.384
  856SOL    HW1 3467   1.468   1.863   5.286
  856SOL    HW2 3468   1.520   1.969   5.399
  857SOL     OW 3469   5.998   4.695   2.099
  857SOL    HW1 3470   6.009   4.655   2.189
  857SOL    HW2 3471   6.086   4.693   2.051
  858SOL     OW 3472   3.088   3.798   1.174
  858SOL    HW1 3473   3.167   3.857   1.153
  858SOL    HW2 3474   3.109   3.741   1.254
  859SOL     OW 3475   4.846   5.626   5.405
  859SOL    HW1 3476   4.895   5.713   5.415
  859SOL    HW2 3477   4.850   5.575   5.491
  860SOL     OW 3478   4.711   3.776   0.408
  860SOL    HW1 3479   4.791   3.836   0.405
  860SOL    HW2 3480   4.718   3.715   0.487
  861SOL     OW 3481   2.318   6.824   3.552
  861SOL    HW1 3482   2.392   6.774   3.507
  861SOL    HW2 3483   2.350   6.861   3.639
  862SOL     OW 3484   0.728   4.019   5.052
  862SOL    HW1 3485   0.777   4.056   4.973
  862SOL    HW2 3486   0.703   3.924   5.034
  863SOL     OW 3487   6.532   0.369   0.951
  863SOL    HW1 3488   6.631   0.379   0.944
  863SOL    HW2 3489   6.511   0.281   0.995
  864SOL     OW 3490   4.175   4.839   3.492
  864SOL    HW1 3491   4.202   4.791   3.576
  864SOL    HW2 3492   4.183   4.938   3.506
  865SOL     OW 3493   0.760   5.930   5.792
  865SOL    HW1 3494   0.666   5.897   5.795
  865SOL    HW2 3495   0.772   6.006   5.856
  866SOL     OW 3496   1.584   1.823   1.836
  866SOL    HW1 3497   1.650   1.852   1.905
  866SOL    HW2 3498   1.613   1.854   1.746
  867SOL     OW 3499   3.710   3.691   0.473
  867SOL    HW1 3500   3.808   3.673   0.480
  867SOL    HW2 3501   3.691   3.743   0.390
  868SOL     OW 3502   5.455   0.329   1.262
  868SOL    HW1 3503   5.432   0.308   1.357
  868SOL    HW2 3504   5.546   0.293   1.241
  869SOL     OW 3505   6.278   5.172   3.284
  869SOL    HW1 3506   6.311   5.137   3.196
  869SOL    HW2 3507   6.319   5.261   3.302
  870SOL     OW 3508   4.096   3.097   0.935
  870SOL    HW1 3509   4.165   3.099   1.008
  870SOL    HW2 3510   4.038   3.177   0.942
  871SOL     OW 3511   4.871   3.077   3.324
  871SOL    HW1 3512   4.858   3.029   3.410
  871SOL    HW2 3513   4.855   3.175   3.337
  872SOL     OW 3514   5.496   4.427   3.828
  872SOL    HW1 3515   5.470   4.423   3.732
  872SOL    HW2 3516   5.537   4.516   3.848
  873SOL     OW 3517   5.908   6.785   4.246
  873SOL    HW1 3518   5.977   6.764   4.178
  873SOL    HW2 3519   5.856   6.702   4.269
  874SOL     OW 3520   0.945   4.325   5.714
  874SOL    HW1 3521   0.987   4.234   5.714
  874SOL    HW2 3522   1.012   4.394   5.740
  875SOL     OW 3523   3.660   2.744   0.409
  875SOL    HW1 3524   3.658   2.805   0.329
  875SOL    HW2 3525   3.712   2.662   0.387
  876SOL     OW 3526   0.485   5.390   3.145
  876SOL    HW1 3527   0.585   5.398   3.140
  876SOL    HW2 3528   0.446   5.410   3.056
  877SOL     OW 3529   4.054   3.910   6.909
  877SOL    HW1 3530   4.145   3.872   6.928
  877SOL    HW2 3531   3.990   3.835   6.895
  878SOL     OW 3532   3.649   5.757   5.176
  878SOL    HW1 3533   3.629   5.844   5.221
  878SOL    HW2 3534   3.745   5.732   5.193
  879SOL     OW 3535   2.803   2.131   1.866
  879SOL    HW1 3536   2.709   2.152   1.841
  879SOL    HW2 3537   2.842   2.208   1.917
  880SOL     OW 3538   3.516   3.799   5.720
  880SOL    HW1 3539   3.458   3.866   5.766
  880SOL    HW2 3540   3.611   3.816   5.743
  881SOL     OW 3541   4.531   4.009   5.368
  881SOL    HW1 3542   4.630   4.000   5.354
  881SOL    HW2 3543   4.503   4.103   5.351
  882SOL     OW 3544   1.341   1.670   4.508
  882SOL    HW1 3545   1.336   1.671   4.408
  882SOL    HW2 3546   1.429   1.708   4.536
  883SOL     OW 3547   4.658   5.724   5.874
  883SOL    HW1 3548   4.737   5.778   5.846
  883SOL    HW2 3549   4.599   5.708   5.794
  884SOL     OW 3550   0.188   4.023   0.132
  884SOL    HW1 3551   0.266   4.019   0.194
  884SOL    HW2 3552   0.117   3.961   0.165
  885SOL     OW 3553   5.011   5.606   6.023
  885SOL    HW1 3554   5.001   5.588   6.121
  885SOL    HW2 3555   5.039   5.701   6.009
  886SOL     OW 3556   4.025   0.579   0.848
  886SOL    HW1 3557   4.018   0.551   0.944
  886SOL    HW2 3558   4.094   0.523   0.802
  887SOL     OW 3559   3.907   6.787   4.131
  887SOL    HW1 3560   3.951   6.855   4.073
  887SOL    HW2 3561   3.848   6.832   4.198
  888SOL     OW 3562   5.849   6.239   2.733
  888SOL    HW1 3563   5.938   6.252   2.690
  888SOL    HW2 3564   5.859   6.179   2.812
  889SOL     OW 3565   1.785   6.470   5.667
  889SOL    HW1 3566   1.720   6.396   5.677
  889SOL    HW2 3567   1.875   6.441   5.701
  890SOL     OW 3568   2.145   5.032   2.260
  890SOL    HW1 3569   2.196   5.001   2.341
  890SOL    HW2 3570   2.129   5.130   2.266
  891SOL     OW 3571   6.017   4.351   0.995
  891SOL    HW1 3572   5.966   4.413   0.934
  891SOL    HW2 3573   6.023   4.261   0.952
  892SOL     OW 3574   3.911   4.212   5.920
  892SOL    HW1 3575   3.869   4.258   5.841
  892SOL    HW2 3576   3.941   4.121   5.893
  893SOL     OW 3577   1.877   1.357   2.059
  893SOL    HW1 3578   1.911   1.324   1.971
  893SOL    HW2 3579   1.835   1.281   2.109
  894SOL     OW 3580   1.752   2.343   3.570
  894SOL    HW1 3581   1.738   2.440   3.549
  894SOL    HW2 3582   1.663   2.298   3.583
  895SOL     OW 3583   1.396   5.939   4.770
  895SOL    HW1 3584   1.313   5.963   4.720
  895SOL    HW2 3585   1.391   5.976   4.863
  896SOL     OW 3586   6.048   6.741   2.361
  896SOL    HW1 3587   6.056   6.664   2.424
  896SOL    HW2 3588   5.974   6.722   2.295
  897SOL     OW 3589   4.838   1.015   0.509
  897SOL    HW1 3590   4.840   1.114   0.497
  897SOL    HW2 3591   4.792   0.992   0.595
  898SOL     OW 3592   4.232   6.211   2.735
  898SOL    HW1 3593   4.262   6.157   2.813
  898SOL    HW2 3594   4.156   6.270   2.762
  899SOL     OW 3595   0.353   5.441   0.343
  899SOL    HW1 3596   0.349   5.474   0.437
  899SOL    HW2 3597   0.261   5.426   0.309
  900SOL     OW 3598   4.581   6.165   1.252
  900SOL    HW1 3599   4.553   6.191   1.160
  900SOL    HW2 3600   4.681   6.174   1.260
  901SOL     OW 3601   1.042   0.971   5.409
  901SOL    HW1 3602   0.988   1.049   5.441
  901SOL    HW2 3603   0.998   0.886   5.439
  902SOL     OW 3604   0.433   2.348   0.110
  902SOL    HW1 3605   0.517   2.307   0.144
  902SOL    HW2 3606   0.427   2.443   0.141
  903SOL     OW 3607   6.782   3.778   6.379
  903SOL    HW1 3608   6.778   3.873   6.411
  903SOL    HW2 3609   6.867   3.736   6.411
  904SOL     OW 3610   1.809   2.851   3.644
  904SOL    HW1 3611   1.853   2.906   3.573
  904SOL    HW2 3612   1.717   2.886   3.661
  905SOL     OW 3613   4.801   3.657   6.221
  905SOL    HW1 3614   4.783   3.559   6.228
  905SOL    HW2 3615   4.716   3.705   6.197
  906SOL     OW 3616   0.843   3.340   5.844
  906SOL    HW1 3617   0.817   3.252   5.805
  906SOL    HW2 3618   0.771   3.372   5.905
  907SOL     OW 3619   6.002   3.080   2.874
  907SOL    HW1 3620   6.027   2.990   2.910
  907SOL    HW2 3621   5.987   3.075   2.776
  908SOL     OW 3622   1.867   5.987   3.322
  908SOL    HW1 3623   1.867   5.931   3.404
  908SOL    HW2 3624   1.817   5.940   3.249
  909SOL     OW 3625   2.999   6.583   2.036
  909SOL    HW1 3626   2.960   6.574   1.944
  909SOL    HW2 3627   3.098   6.565   2.031
  910SOL     OW 3628   2.776   0.584   1.256
  910SOL    HW1 3629   2.686   0.569   1.215
  910SOL    HW2 3630   2.782   0.678   1.289
  911SOL     OW 3631   0.122   5.262   1.265
  911SOL    HW1 3632   0.137   5.276   1.167
  911SOL    HW2 3633   0.055   5.188   1.279
  912SOL     OW 3634   6.232   0.693   4.457
  912SOL    HW1 3635   6.186   0.743   4.530
  912SOL    HW2 3636   6.290   0.622   4.497
  913SOL     OW 3637   1.670   0.718   3.228
  913SOL    HW1 3638   1.768   0.702   3.214
  913SOL    HW2 3639   1.636   0.781   3.158
  914SOL     OW 3640   2.656   5.973   5.022
  914SOL    HW1 3641   2.625   6.003   5.113
  914SOL    HW2 3642   2.577   5.946   4.968
  915SOL     OW 3643   1.194   3.712   0.093
  915SOL    HW1 3644   1.221   3.645   0.024
  915SOL    HW2 3645   1.118   3.767   0.058
  916SOL     OW 3646   1.530   2.798   1.501
  916SOL    HW1 3647   1.622   2.779   1.464
  916SOL    HW2 3648   1.462   2.750   1.446
  917SOL     OW 3649   5.466   0.637   2.253
  917SOL    HW1 3650   5.441   0.596   2.341
  917SOL    HW2 3651   5.383   0.651   2.199
  918SOL     OW 3652   2.523   6.601   6.902
  918SOL    HW1 3653   2.496   6.559   6.815
  918SOL    HW2 3654   2.605   6.656   6.888
  919SOL     OW 3655   6.739   5.776   2.686
  919SOL    HW1 3656   6.656   5.810   2.730
  919SOL    HW2 3657   6.819   5.818   2.730
  920SOL     OW 3658   2.257   5.914   3.465
  920SOL    HW1 3659   2.257   5.920   3.365
  920SOL    HW2 3660   2.347   5.883   3.496
  921SOL     OW 3661   4.703   4.163   4.056
  921SOL    HW1 3662   4.745   4.198   3.972
  921SOL    HW2 3663   4.748   4.078   4.083
  922SOL     OW 3664   3.589   2.650   5.691
  922SOL    HW1 3665   3.542   2.572   5.734
  922SOL    HW2 3666   3.527   2.728   5.686
  923SOL     OW 3667   2.992   4.453   6.243
  923SOL    HW1 3668   2.993   4.400   6.328
  923SOL    HW2 3669   2.902   4.447   6.201
  924SOL     OW 3670   6.998   2.535   2.589
  924SOL    HW1 3671   6.992   2.630   2.619
  924SOL    HW2 3672   0.072   2.505   2.591
  925SOL     OW 3673   6.914   1.793   5.913
  925SOL    HW1 3674   6.889   1.853   5.989
  925SOL    HW2 3675   7.012   1.801   5.895
  926SOL     OW 3676   6.621   1.344   0.614
  926SOL    HW1 3677   6.601   1.346   0.516
  926SOL    HW2 3678   6.548   1.391   0.664
  927SOL     OW 3679   5.547   3.962   3.286
  927SOL    HW1 3680   5.555   4.061   3.277
  927SOL    HW2 3681   5.631   3.925   3.324
  928SOL     OW 3682   1.396   6.504   0.232
  928SOL    HW1 3683   1.388   6.471   0.326
  928SOL    HW2 3684   1.305   6.513   0.192
  929SOL     OW 3685   0.688   0.863   1.182
  929SOL    HW1 3686   0.726   0.871   1.274
  929SOL    HW2 3687   0.688   0.953   1.137
  930SOL     OW 3688   5.529   6.020   4.757
  930SOL    HW1 3689   5.533   5.924   4.728
  930SOL    HW2 3690   5.541   6.080   4.678
  931SOL     OW 3691   5.655   3.345   2.652
  931SOL    HW1 3692   5.690   3.428   2.695
  931SOL    HW2 3693   5.620   3.284   2.723
  932SOL     OW 3694   2.799   6.763   2.811
  932SOL    HW1 3695   2.790   6.665   2.794
  932SOL    HW2 3696   2.881   6.797   2.765
  933SOL     OW 3697   0.757   5.832   3.301
  933SOL    HW1 3698   0.788   5.750   3.252
  933SOL    HW2 3699   0.828   5.863   3.363
  934SOL     OW 3700   1.605   0.871   4.609
  934SOL    HW1 3701   1.528   0.934   4.601
  934SOL    HW2 3702   1.627   0.834   4.519
  935SOL     OW 3703   5.182   4.009   5.354
  935SOL    HW1 3704   5.101   3.951   5.349
  935SOL    HW2 3705   5.200   4.049   5.264
  936SOL     OW 3706   1.464   1.300   6.293
  936SOL    HW1 3707   1.386   1.269   6.348
  936SOL    HW2 3708   1.475   1.240   6.214
  937SOL     OW 3709   4.985   1.455   4.601
  937SOL    HW1 3710   5.056   1.519   4.630
  937SOL    HW2 3711   4.901   1.474   4.651
  938SOL     OW 3712   0.544   5.480   6.292
  938SOL    HW1 3713   0.470   5.442   6.237
  938SOL    HW2 3714   0.616   5.411   6.302
  939SOL     OW 3715   4.780   0.567   5.540
  939SOL    HW1 3716   4.865   0.514   5.549
  939SOL    HW2 3717   4.726   0.557   5.623
  940SOL     OW 3718   0.955   3.159   2.488
  940SOL    HW1 3719   0.932   3.082   2.428
  940SOL    HW2 3720   0.881   3.226   2.485
  941SOL     OW 3721   6.653   0.624   4.624
  941SOL    HW1 3722   6.651   0.708   4.678
  941SOL    HW2 3723   6.747   0.590   4.620
  942SOL     OW 3724   4.837   0.211   3.873
  942SOL    HW1 3725   4.752   0.225   3.924
  942SOL    HW2 3726   4.817   0.212   3.775
  943SOL     OW 3727   1.468   3.512   3.865
  943SOL    HW1 3728   1.380   3.464   3.866
  943SOL    HW2 3729   1.452   3.609   3.848
  944SOL     OW 3730   6.588   3.947   5.555
  944SOL    HW1 3731   6.686   3.968   5.548
  944SOL    HW2 3732   6.545   3.959   5.465
  945SOL     OW 3733   6.775   4.596   5.624
  945SOL    HW1 3734   6.740   4.663   5.558
  945SOL    HW2 3735   6.813   4.518   5.575
  946SOL     OW 3736   4.437   3.154   5.748
  946SOL    HW1 3737   4.378   3.114   5.678
  946SOL    HW2 3738   4.494   3.225   5.706
  947SOL     OW 3739   3.578   2.843   4.158
  947SOL    HW1 3740   3.504   2.887   4.209
  947SOL    HW2 3741   3.541   2.765   4.107
  948SOL     OW 3742   4.079   0.301   0.968
  948SOL    HW1 3743   4.179   0.297   0.969
  948SOL    HW2 3744   4.045   0.265   0.881
  949SOL     OW 3745   1.175   6.617   6.208
  949SOL    HW1 3746   1.167   6.531   6.258
  949SOL    HW2 3747   1.121   6.687   6.254
  950SOL     OW 3748   4.303   4.934   1.809
  950SOL    HW1 3749   4.253   5.006   1.761
  950SOL    HW2 3750   4.277   4.845   1.772
  951SOL     OW 3751   1.968   0.553   2.692
  951SOL    HW1 3752   1.911   0.471   2.699
  951SOL    HW2 3753   1.962   0.606   2.777
  952SOL     OW 3754   5.613   1.823   2.717
  952SOL    HW1 3755   5.572   1.876   2.791
  952SOL    HW2 3756   5.680   1.758   2.755
  953SOL     OW 3757   5.038   5.769   4.583
  953SOL    HW1 3758   5.123   5.800   4.626
  953SOL    HW2 3759   5.039   5.669   4.575
  954SOL     OW 3760   5.065   5.646   0.482
  954SOL    HW1 3761   4.987   5.613   0.429
  954SOL    HW2 3762   5.090   5.577   0.550
  955SOL     OW 3763   0.018   4.888   3.112
  955SOL    HW1 3764   0.075   4.913   3.035
  955SOL    HW2 3765   0.066   4.821   3.169
  956SOL     OW 3766   0.221   2.142   2.725
  956SOL    HW1 3767   0.314   2.167   2.697
  956SOL    HW2 3768   0.168   2.120   2.644
  957SOL     OW 3769   0.814   5.027   4.486
  957SOL    HW1 3770   0.817   5.101   4.554
  957SOL    HW2 3771   0.801   5.067   4.395
  958SOL     OW 3772   4.649   2.153   2.712
  958SOL    HW1 3773   4.733   2.167   2.659
  958SOL    HW2 3774   4.581   2.107   2.655
  959SOL     OW 3775   3.243   5.562   3.652
  959SOL    HW1 3776   3.227   5.481   3.597
  959SOL    HW2 3777   3.308   5.622   3.605
  960SOL     OW 3778   0.059   6.010   3.287
  960SOL    HW1 3779   0.126   5.959   3.233
  960SOL    HW2 3780   0.105   6.053   3.365
  961SOL     OW 3781   4.508   0.065   3.446
  961SOL    HW1 3782   4.544   6.997   3.472
  961SOL    HW2 3783   4.550   0.094   3.359
  962SOL     OW 3784   1.186   0.931   4.088
  962SOL    HW1 3785   1.221   0.880   4.009
  962SOL    HW2 3786   1.214   1.027   4.081
  963SOL     OW 3787   6.950   2.486   6.119
  963SOL    HW1 3788   0.002   2.441   6.169
  963SOL    HW2 3789   6.939   2.579   6.153
  964SOL     OW 3790   6.044   4.276   0.103
  964SOL    HW1 3791   6.112   4.235   0.164
  964SOL    HW2 3792   6.086   4.349   0.050
  965SOL     OW 3793   5.720   1.793   0.756
  965SOL    HW1 3794   5.806   1.837   0.731
  965SOL    HW2 3795   5.654   1.803   0.681
  966SOL     OW 3796   5.203   2.657   1.930
  966SOL    HW1 3797   5.200   2.606   2.016
  966SOL    HW2 3798   5.290   2.706   1.924
  967SOL     OW 3799   2.525   4.768   1.585
  967SOL    HW1 3800   2.484   4.677   1.588
  967SOL    HW2 3801   2.586   4.780   1.664
  968SOL     OW 3802   3.712   1.792   2.414
  968SOL    HW1 3803   3.614   1.774   2.423
  968SOL    HW2 3804   3.730   1.887   2.439
  969SOL     OW 3805   3.622   5.831   6.551
  969SOL    HW1 3806   3.709   5.869   6.520
  969SOL    HW2 3807   3.556   5.904   6.565
  970SOL     OW 3808   4.544   1.387   5.493
  970SOL    HW1 3809   4.550   1.483   5.520
  970SOL    HW2 3810   4.623   1.337   5.530
  971SOL     OW 3811   6.725   2.177   2.815
  971SOL    HW1 3812   6.814   2.219   2.837
  971SOL    HW2 3813   6.726   2.082   2.846
  972SOL     OW 3814   5.685   4.095   1.700
  972SOL    HW1 3815   5.658   4.006   1.664
  972SOL    HW2 3816   5.766   4.127   1.651
  973SOL     OW 3817   6.832   4.529   6.857
  973SOL    HW1 3818   6.804   4.500   6.765
  973SOL    HW2 3819   6.915   4.583   6.851
  974SOL     OW 3820   5.463   0.211   2.272
  974SOL    HW1 3821   5.394   0.277   2.301
  974SOL    HW2 3822   5.543   0.260   2.237
  975SOL     OW 3823   1.734   5.813   6.858
  975SOL    HW1 3824   1.818   5.864   6.880
  975SOL    HW2 3825   1.723   5.807   6.759
  976SOL     OW 3826   6.335   3.372   2.997
  976SOL    HW1 3827   6.415   3.327   2.957
  976SOL    HW2 3828   6.361   3.413   3.085
  977SOL     OW 3829   1.431   0.569   3.207
  977SOL    HW1 3830   1.430   0.574   3.107
  977SOL    HW2 3831   1.522   0.593   3.241
  978SOL     OW 3832   4.858   3.589   5.684
  978SOL    HW1 3833   4.920   3.519   5.720
  978SOL    HW2 3834   4.833   3.566   5.590
  979SOL     OW 3835   0.104   1.994   0.947
  979SOL    HW1 3836   0.118   2.086   0.982
  979SOL    HW2 3837   0.178   1.972   0.882
  980SOL     OW 3838   4.284   2.231   4.039
  980SOL    HW1 3839   4.290   2.158   4.107
  980SOL    HW2 3840   4.334   2.311   4.071
  981SOL     OW 3841   1.175   2.155   5.495
  981SOL    HW1 3842   1.267   2.123   5.518
  981SOL    HW2 3843   1.108   2.090   5.529
  982SOL     OW 3844   2.500   1.902   3.576
  982SOL    HW1 3845   2.498   1.938   3.483
  982SOL    HW2 3846   2.541   1.970   3.637
  983SOL     OW 3847   5.870   2.205   4.792
  983SOL    HW1 3848   5.821   2.119   4.776
  983SOL    HW2 3849   5.942   2.215   4.723
  984SOL     OW 3850   2.795   1.608   4.164
  984SOL    HW1 3851   2.842   1.665   4.231
  984SOL    HW2 3852   2.761   1.525   4.208
  985SOL     OW 3853   5.175   4.946   6.590
  985SOL    HW1 3854   5.252   4.913   6.536
  985SOL    HW2 3855   5.112   4.996   6.531
  986SOL     OW 3856   5.584   4.097   0.932
  986SOL    HW1 3857   5.523   4.069   1.006
  986SOL    HW2 3858   5.679   4.081   0.959
  987SOL     OW 3859   4.349   0.080   1.954
  987SOL    HW1 3860   4.387   0.105   2.043
  987SOL    HW2 3861   4.269   0.137   1.935
  988SOL     OW 3862   3.337   3.264   3.056
  988SOL    HW1 3863   3.430   3.242   3.084
  988SOL    HW2 3864   3.288   3.180   3.033
  989SOL     OW 3865   6.684   0.852   5.116
  989SOL    HW1 3866   6.728   0.848   5.205
  989SOL    HW2 3867   6.587   0.832   5.125
  990SOL     OW 3868   4.322   0.806   1.893
  990SOL    HW1 3869   4.305   0.711   1.869
  990SOL    HW2 3870   4.399   0.842   1.840
  991SOL     OW 3871   1.527   2.954   4.895
  991SOL    HW1 3872   1.432   2.922   4.899
  991SOL    HW2 3873   1.564   2.962   4.987
  992SOL     OW 3874   0.249   2.841   2.361
  992SOL    HW1 3875   0.160   2.872   2.328
  992SOL    HW2 3876   0.320   2.866   2.295
  993SOL     OW 3877   1.553   4.709   2.091
  993SOL    HW1 3878   1.536   4.738   1.997
  993SOL    HW2 3879   1.647   4.674   2.098
  994SOL     OW 3880   3.304   3.865   2.429
  994SOL    HW1 3881   3.205   3.872   2.424
  994SOL    HW2 3882   3.340   3.940   2.484
  995SOL     OW 3883   3.791   3.239   5.394
  995SOL    HW1 3884   3.874   3.283   5.429
  995SOL    HW2 3885   3.736   3.206   5.471
  996SOL     OW 3886   2.127   4.446   4.136
  996SOL    HW1 3887   2.202   4.511   4.141
  996SOL    HW2 3888   2.041   4.493   4.155
  997SOL     OW 3889   1.170   0.766   3.201
  997SOL    HW1 3890   1.173   0.808   3.110
  997SOL    HW2 3891   1.232   0.688   3.204
  998SOL     OW 3892   4.030   6.883   4.452
  998SOL    HW1 3893   3.987   6.797   4.425
  998SOL    HW2 3894   4.057   6.933   4.370
  999SOL     OW 3895   5.195   4.329   2.003
  999SOL    HW1 3896   5.262   4.321   2.076
  999SOL    HW2 3897   5.216   4.408   1.947
 1000SOL     OW 3898   1.406   0.693   2.066
 1000SOL    HW1 3899   1.430   0.788   2.084
 1000SOL    HW2 3900   1.437   0.667   1.975
 1001SOL     OW 3901   5.986   6.620   0.770
 1001SOL    HW1 3902   6.080   6.591   0.789
 1001SOL    HW2 3903   5.945   6.556   0.705
 1002SOL     OW 3904   6.062   1.621   0.370
 1002SOL    HW1 3905   6.044   1.717   0.351
 1002SOL    HW2 3906   6.107   1.613   0.459
 1003SOL     OW 3907   2.340   5.857   1.577
 1003SOL    HW1 3908   2.328   5.903   1.490
 1003SOL    HW2 3909   2.415   5.791   1.571
 1004SOL     OW 3910   0.160   0.337   1.831
 1004SOL    HW1 3911   0.140   0.319   1.735
 1004SOL    HW2 3912   0.085   0.390   1.871
 1005SOL     OW 3913   0.918   2.114   3.484
 1005SOL    HW1 3914   0.861   2.061   3.421
 1005SOL    HW2 3915   1.014   2.106   3.458
 1006SOL     OW 3916   1.245   4.923   0.863
 1006SOL    HW1 3917   1.338   4.958   0.854
 1006SOL    HW2 3918   1.226   4.861   0.787
 1007SOL     OW 3919   5.004   0.253   4.539
 1007SOL    HW1 3920   5.092   0.207   4.535
 1007SOL    HW2 3921   5.011   0.336   4.594
 1008SOL     OW 3922   2.035   3.629   4.976
 1008SOL    HW1 3923   1.948   3.592   4.945
 1008SOL    HW2 3924   2.072   3.572   5.049
 1009SOL     OW 3925   0.318   5.550   4.951
 1009SOL    HW1 3926   0.346   5.458   4.978
 1009SOL    HW2 3927   0.352   5.570   4.859
 1010SOL     OW 3928   3.938   2.632   5.822
 1010SOL    HW1 3929   4.023   2.603   5.777
 1010SOL    HW2 3930   3.876   2.554   5.828
 1011SOL     OW 3931   2.272   5.356   2.297
 1011SOL    HW1 3932   2.349   5.366   2.235
 1011SOL    HW2 3933   2.295   5.291   2.369
 1012SOL     OW 3934   6.197   0.596   1.022
 1012SOL    HW1 3935   6.155   0.655   1.091
 1012SOL    HW2 3936   6.290   0.627   1.004
 1013SOL     OW 3937   0.918   0.985   5.952
 1013SOL    HW1 3938   0.875   1.074   5.958
 1013SOL    HW2 3939   0.964   0.976   5.864
 1014SOL     OW 3940   4.993   6.034   6.530
 1014SOL    HW1 3941   4.999   6.091   6.448
 1014SOL    HW2 3942   4.970   6.092   6.609
 1015SOL     OW 3943   2.312   6.599   5.483
 1015SOL    HW1 3944   2.213   6.592   5.475
 1015SOL    HW2 3945   2.350   6.511   5.511
 1016SOL     OW 3946   3.723   3.359   0.069
 1016SOL    HW1 3947   3.807   3.323   0.028
 1016SOL    HW2 3948   3.700   3.447   0.026
 1017SOL     OW 3949   3.875   2.535   1.231
 1017SOL    HW1 3950   3.958   2.563   1.279
 1017SOL    HW2 3951   3.812   2.491   1.295
 1018SOL     OW 3952   0.508   3.338   4.289
 1018SOL    HW1 3953   0.435   3.318   4.355
 1018SOL    HW2 3954   0.533   3.434   4.295
 1019SOL     OW 3955   6.786   0.411   0.928
 1019SOL    HW1 3956   6.869   0.383   0.976
 1019SOL    HW2 3957   6.799   0.399   0.830
 1020SOL     OW 3958   0.942   6.617   1.332
 1020SOL    HW1 3959   0.964   6.567   1.248
 1020SOL    HW2 3960   0.842   6.627   1.339
 1021SOL     OW 3961   5.317   0.577   1.251
 1021SOL    HW1 3962   5.382   0.503   1.234
 1021SOL    HW2 3963   5.360   0.664   1.230
 1022SOL     OW 3964   3.350   4.818   6.295
 1022SOL    HW1 3965   3.313   4.903   6.334
 1022SOL    HW2 3966   3.274   4.761   6.263
 1023SOL     OW 3967   1.325   0.009   2.336
 1023SOL    HW1 3968   1.255   6.988   2.393
 1023SOL    HW2 3969   1.330   6.982   2.249
 1024SOL     OW 3970   6.765   2.883   4.070
 1024SOL    HW1 3971   6.772   2.982   4.056
 1024SOL    HW2 3972   6.676   2.861   4.110
 1025SOL     OW 3973   2.597   2.778   0.941
 1025SOL    HW1 3974   2.517   2.770   1.001
 1025SOL    HW2 3975   2.600   2.699   0.879
 1026SOL     OW 3976   2.275   2.873   1.337
 1026SOL    HW1 3977   2.273   2.931   1.256
 1026SOL    HW2 3978   2.370   2.848   1.358
 1027SOL     OW 3979   2.803   6.695   0.745
 1027SOL    HW1 3980   2.899   6.721   0.753
 1027SOL    HW2 3981   2.795   6.614   0.687
 1028SOL     OW 3982   2.877   6.364   0.094
 1028SOL    HW1 3983   2.917   6.447   0.134
 1028SOL    HW2 3984   2.777   6.372   0.095
 1029SOL     OW 3985   2.019   0.554   0.300
 1029SOL    HW1 3986   2.064   0.643   0.305
 1029SOL    HW2 3987   2.070   0.488   0.354
 1030SOL     OW 3988   3.414   3.623   1.717
 1030SOL    HW1 3989   3.455   3.533   1.703
 1030SOL    HW2 3990   3.415   3.645   1.815
 1031SOL     OW 3991   4.803   5.161   0.903
 1031SOL    HW1 3992   4.770   5.254   0.887
 1031SOL    HW2 3993   4.748   5.096   0.849
 1032SOL     OW 3994   2.061   1.584   4.759
 1032SOL    HW1 3995   2.138   1.571   4.820
 1032SOL    HW2 3996   2.029   1.679   4.765
 1033SOL     OW 3997   1.336   6.101   0.535
 1033SOL    HW1 3998   1.269   6.030   0.558
 1033SOL    HW2 3999   1.400   6.113   0.611
 1034SOL     OW 4000   0.226   5.606   5.406
 1034SOL    HW1 4001   0.142   5.553   5.406
 1034SOL    HW2 4002   0.212   5.691   5.456
 1035SOL     OW 4003   1.304   1.426   4.344
 1035SOL    HW1 4004   1.224   1.467   4.300
 1035SOL    HW2 4005   1.384   1.439   4.287
 1036SOL     OW 4006   2.734   1.135   2.157
 1036SOL    HW1 4007   2.702   1.136   2.062
 1036SOL    HW2 4008   2.767   1.043   2.179
 1037SOL     OW 4009   1.408   0.480   1.850
 1037SOL    HW1 4010   1.351   0.439   1.921
 1037SOL    HW2 4011   1.492   0.427   1.841
 1038SOL     OW 4012   1.634   0.108   5.914
 1038SOL    HW1 4013   1.604   0.020   5.878
 1038SOL    HW2 4014   1.692   0.153   5.846
 1039SOL     OW 4015   3.448   3.197   5.805
 1039SOL    HW1 4016   3.425   3.217   5.900
 1039SOL    HW2 4017   3.365   3.197   5.750
 1040SOL     OW 4018   4.774   2.850   2.582
 1040SOL    HW1 4019   4.776   2.919   2.654
 1040SOL    HW2 4020   4.761   2.895   2.493
 1041SOL     OW 4021   6.333   0.085   4.438
 1041SOL    HW1 4022   6.240   0.058   4.414
 1041SOL    HW2 4023   6.383   0.004   4.471
 1042SOL     OW 4024   3.868   5.154   2.559
 1042SOL    HW1 4025   3.814   5.140   2.476
 1042SOL    HW2 4026   3.821   5.218   2.619
 1043SOL     OW 4027   3.783   1.381   4.359
 1043SOL    HW1 4028   3.871   1.388   4.405
 1043SOL    HW2 4029   3.733   1.467   4.369
 1044SOL     OW 4030   4.934   4.359   2.152
 1044SOL    HW1 4031   5.004   4.367   2.082
 1044SOL    HW2 4032   4.872   4.283   2.130
 1045SOL     OW 4033   3.788   6.291   2.189
 1045SOL    HW1 4034   3.728   6.223   2.148
 1045SOL    HW2 4035   3.880   6.282   2.151
 1046SOL     OW 4036   1.000   0.442   0.387
 1046SOL    HW1 4037   1.056   0.365   0.356
 1046SOL    HW2 4038   1.025   0.524   0.335
 1047SOL     OW 4039   1.537   0.195   3.239
 1047SOL    HW1 4040   1.562   0.101   3.218
 1047SOL    HW2 4041   1.594   0.230   3.313
 1048SOL     OW 4042   5.639   6.608   4.873
 1048SOL    HW1 4043   5.550   6.598   4.827
 1048SOL    HW2 4044   5.685   6.689   4.838
 1049SOL     OW 4045   5.884   5.480   4.039
 1049SOL    HW1 4046   5.816   5.445   3.976
 1049SOL    HW2 4047   5.956   5.528   3.988
 1050SOL     OW 4048   4.278   5.364   1.114
 1050SOL    HW1 4049   4.254   5.272   1.145
 1050SOL    HW2 4050   4.341   5.358   1.037
 1051SOL     OW 4051   2.363   5.955   0.802
 1051SOL    HW1 4052   2.346   5.869   0.754
 1051SOL    HW2 4053   2.459   5.980   0.792
 1052SOL     OW 4054   3.567   0.347   4.889
 1052SOL    HW1 4055   3.616   0.432   4.904
 1052SOL    HW2 4056   3.632   0.276   4.862
 1053SOL     OW 4057   5.442   5.347   3.356
 1053SOL    HW1 4058   5.364   5.316   3.301
 1053SOL    HW2 4059   5.498   5.409   3.301
 1054SOL     OW 4060   2.210   3.646   5.688
 1054SOL    HW1 4061   2.221   3.731   5.740
 1054SOL    HW2 4062   2.300   3.612   5.660
 1055SOL     OW 4063   5.251   6.685   3.576
 1055SOL    HW1 4064   5.210   6.776   3.578
 1055SOL    HW2 4065   5.348   6.692   3.602
 1056SOL     OW 4066   1.833   4.776   5.916
 1056SOL    HW1 4067   1.844   4.683   5.881
 1056SOL    HW2 4068   1.917   4.804   5.962
 1057SOL     OW 4069   3.491   3.258   2.680
 1057SOL    HW1 4070   3.486   3.235   2.582
 1057SOL    HW2 4071   3.536   3.183   2.729
 1058SOL     OW 4072   5.173   1.546   3.025
 1058SOL    HW1 4073   5.269   1.572   3.013
 1058SOL    HW2 4074   5.119   1.583   2.949
 1059SOL     OW 4075   2.381   0.521   1.579
 1059SOL    HW1 4076   2.458   0.526   1.642
 1059SOL    HW2 4077   2.371   0.427   1.546
 1060SOL     OW 4078   0.095   4.540   4.530
 1060SOL    HW1 4079   0.080   4.607   4.602
 1060SOL    HW2 4080   0.054   4.453   4.557
 1061SOL     OW 4081   5.685   3.819   1.528
 1061SOL    HW1 4082   5.625   3.742   1.507
 1061SOL    HW2 4083   5.779   3.794   1.507
 1062SOL     OW 4084   5.694   4.054   5.869
 1062SOL    HW1 4085   5.780   4.067   5.917
 1062SOL    HW2 4086   5.672   4.136   5.816
 1063SOL     OW 4087   2.001   4.698   1.480
 1063SOL    HW1 4088   2.081   4.687   1.422
 1063SOL    HW2 4089   1.954   4.784   1.457
 1064SOL     OW 4090   1.918   4.587   2.051
 1064SOL    HW1 4091   1.945   4.640   2.131
 1064SOL    HW2 4092   1.824   4.555   2.062
 1065SOL     OW 4093   4.399   6.919   4.316
 1065SOL    HW1 4094   4.393   6.826   4.354
 1065SOL    HW2 4095   4.307   6.949   4.289
 1066SOL     OW 4096   4.826   0.562   4.029
 1066SOL    HW1 4097   4.726   0.563   4.020
 1066SOL    HW2 4098   4.852   0.598   4.118
 1067SOL     OW 4099   0.939   3.504   0.563
 1067SOL    HW1 4100   0.988   3.584   0.526
 1067SOL    HW2 4101   0.956   3.425   0.505
 1068SOL     OW 4102   4.921   4.961   2.563
 1068SOL    HW1 4103   5.016   4.984   2.543
 1068SOL    HW2 4104   4.900   4.870   2.526
 1069SOL     OW 4105   4.891   4.709   0.608
 1069SOL    HW1 4106   4.832   4.711   0.689
 1069SOL    HW2 4107   4.842   4.664   0.533
 1070SOL     OW 4108   0.757   0.146   2.137
 1070SOL    HW1 4109   0.677   0.137   2.196
 1070SOL    HW2 4110   0.733   0.203   2.058
 1071SOL     OW 4111   2.175   0.346   3.267
 1071SOL    HW1 4112   2.187   0.338   3.168
 1071SOL    HW2 4113   2.265   0.359   3.310
 1072SOL     OW 4114   1.793   6.889   1.291
 1072SOL    HW1 4115   1.756   6.968   1.242
 1072SOL    HW2 4116   1.851   6.921   1.366
 1073SOL     OW 4117   4.285   6.812   1.869
 1073SOL    HW1 4118   4.185   6.820   1.866
 1073SOL    HW2 4119   4.323   6.889   1.919
 1074SOL     OW 4120   2.683   5.544   0.391
 1074SOL    HW1 4121   2.719   5.637   0.393
 1074SOL    HW2 4122   2.758   5.480   0.372
 1075SOL     OW 4123   4.148   6.638   3.845
 1075SOL    HW1 4124   4.193   6.713   3.796
 1075SOL    HW2 4125   4.166   6.646   3.943
 1076SOL     OW 4126   6.465   3.945   5.320
 1076SOL    HW1 4127   6.481   3.935   5.222
 1076SOL    HW2 4128   6.376   3.987   5.336
 1077SOL     OW 4129   5.623   0.086   0.977
 1077SOL    HW1 4130   5.576   0.164   0.935
 1077SOL    HW2 4131   5.612   0.005   0.920
 1078SOL     OW 4132   0.862   1.575   2.495
 1078SOL    HW1 4133   0.869   1.484   2.453
 1078SOL    HW2 4134   0.766   1.597   2.512
 1079SOL     OW 4135   1.997   5.988   1.934
 1079SOL    HW1 4136   2.029   6.047   2.008
 1079SOL    HW2 4137   2.062   5.991   1.858
 1080SOL     OW 4138   1.607   4.548   3.479
 1080SOL    HW1 4139   1.525   4.603   3.486
 1080SOL    HW2 4140   1.682   4.593   3.527
 1081SOL     OW 4141   0.207   6.354   6.197
 1081SOL    HW1 4142   0.173   6.302   6.275
 1081SOL    HW2 4143   0.134   6.364   6.129
 1082SOL     OW 4144   3.805   1.899   6.110
 1082SOL    HW1 4145   3.843   1.814   6.144
 1082SOL    HW2 4146   3.835   1.914   6.016
 1083SOL     OW 4147   4.056   3.827   0.921
 1083SOL    HW1 4148   4.150   3.856   0.906
 1083SOL    HW2 4149   4.055   3.736   0.963
 1084SOL     OW 4150   6.642   5.492   0.719
 1084SOL    HW1 4151   6.591   5.461   0.639
 1084SOL    HW2 4152   6.735   5.456   0.715
 1085SOL     OW 4153   1.424   4.066   3.810
 1085SOL    HW1 4154   1.389   3.980   3.775
 1085SOL    HW2 4155   1.514   4.085   3.771
 1086SOL     OW 4156   6.553   5.836   1.739
 1086SOL    HW1 4157   6.632   5.835   1.677
 1086SOL    HW2 4158   6.571   5.774   1.815
 1087SOL     OW 4159   6.104   3.191   5.619
 1087SOL    HW1 4160   6.172   3.157   5.554
 1087SOL    HW2 4161   6.035   3.120   5.635
 1088SOL     OW 4162   6.262   4.365   3.404
 1088SOL    HW1 4163   6.197   4.334   3.473
 1088SOL    HW2 4164   6.214   4.377   3.317
 1089SOL     OW 4165   1.514   6.770   4.769
 1089SOL    HW1 4166   1.450   6.707   4.724
 1089SOL    HW2 4167   1.463   6.828   4.833
 1090SOL     OW 4168   2.487   1.335   3.409
 1090SOL    HW1 4169   2.393   1.331   3.443
 1090SOL    HW2 4170   2.550   1.321   3.485
 1091SOL     OW 4171   2.364   2.910   5.527
 1091SOL    HW1 4172   2.360   3.009   5.539
 1091SOL    HW2 4173   2.451   2.885   5.485
 1092SOL     OW 4174   1.709   3.795   0.606
 1092SOL    HW1 4175   1.759   3.882   0.614
 1092SOL    HW2 4176   1.682   3.781   0.511
 1093SOL     OW 4177   1.274   1.608   2.090
 1093SOL    HW1 4178   1.295   1.524   2.039
 1093SOL    HW2 4179   1.284   1.591   2.188
 1094SOL     OW 4180   0.784   6.056   4.072
 1094SOL    HW1 4181   0.741   6.037   3.984
 1094SOL    HW2 4182   0.790   6.154   4.086
 1095SOL     OW 4183   0.688   2.632   5.993
 1095SOL    HW1 4184   0.732   2.636   6.083
 1095SOL    HW2 4185   0.707   2.717   5.943
 1096SOL     OW 4186   3.320   4.570   1.687
 1096SOL    HW1 4187   3.407   4.593   1.730
 1096SOL    HW2 4188   3.251   4.556   1.759
 1097SOL     OW 4189   1.810   4.166   4.097
 1097SOL    HW1 4190   1.805   4.069   4.120
 1097SOL    HW2 4191   1.756   4.219   4.162
 1098SOL     OW 4192   4.474   3.202   1.004
 1098SOL    HW1 4193   4.417   3.219   0.924
 1098SOL    HW2 4194   4.569   3.190   0.976
 1099SOL     OW 4195   4.273   1.745   5.375
 1099SOL    HW1 4196   4.297   1.683   5.300
 1099SOL    HW2 4197   4.270   1.693   5.461
 1100SOL     OW 4198   3.300   2.184   6.020
 1100SOL    HW1 4199   3.386   2.144   6.053
 1100SOL    HW2 4200   3.244   2.113   5.978
 1101SOL     OW 4201   6.073   2.469   0.254
 1101SOL    HW1 4202   6.114   2.557   0.279
 1101SOL    HW2 4203   5.976   2.469   0.280
 1102SOL     OW 4204   0.637   5.719   4.390
 1102SOL    HW1 4205   0.712   5.779   4.416
 1102SOL    HW2 4206   0.633   5.712   4.290
 1103SOL     OW 4207   3.571   1.664   0.936
 1103SOL    HW1 4208   3.548   1.568   0.920
 1103SOL    HW2 4209   3.510   1.702   1.006
 1104SOL     OW 4210   2.143   3.446   5.207
 1104SOL    HW1 4211   2.198   3.388   5.267
 1104SOL    HW2 4212   2.147   3.541   5.240
 1105SOL     OW 4213   6.009   4.037   4.905
 1105SOL    HW1 4214   6.021   3.944   4.941
 1105SOL    HW2 4215   6.072   4.099   4.952
 1106SOL     OW 4216   0.963   1.975   0.845
 1106SOL    HW1 4217   0.904   1.968   0.764
 1106SOL    HW2 4218   0.939   1.903   0.909
 1107SOL     OW 4219   1.924   0.102   6.580
 1107SOL    HW1 4220   1.964   0.012   6.601
 1107SOL    HW2 4221   1.998   0.169   6.573
 1108SOL     OW 4222   3.064   1.380   6.134
 1108SOL    HW1 4223   2.989   1.321   6.163
 1108SOL    HW2 4224   3.092   1.439   6.210
 1109SOL     OW 4225   4.567   6.956   4.692
 1109SOL    HW1 4226   4.570   6.912   4.782
 1109SOL    HW2 4227   4.647   7.015   4.681
 1110SOL     OW 4228   2.776   1.963   3.178
 1110SOL    HW1 4229   2.782   1.975   3.277
 1110SOL    HW2 4230   2.832   2.032   3.133
 1111SOL     OW 4231   5.113   4.860   6.878
 1111SOL    HW1 4232   5.094   4.797   6.803
 1111SOL    HW2 4233   5.196   4.830   6.926
 1112SOL     OW 4234   5.330   1.492   2.400
 1112SOL    HW1 4235   5.328   1.393   2.415
 1112SOL    HW2 4236   5.386   1.535   2.471
 1113SOL     OW 4237   0.261   3.370   3.082
 1113SOL    HW1 4238   0.230   3.424   3.160
 1113SOL    HW2 4239   0.334   3.307   3.111
 1114SOL     OW 4240   4.166   1.665   6.519
 1114SOL    HW1 4241   4.142   1.568   6.516
 1114SOL    HW2 4242   4.082   1.720   6.511
 1115SOL     OW 4243   4.467   2.872   0.186
 1115SOL    HW1 4244   4.524   2.948   0.218
 1115SOL    HW2 4245   4.459   2.804   0.259
 1116SOL     OW 4246   5.488   6.116   5.341
 1116SOL    HW1 4247   5.542   6.167   5.409
 1116SOL    HW2 4248   5.550   6.065   5.281
 1117SOL     OW 4249   1.694   2.261   1.452
 1117SOL    HW1 4250   1.687   2.254   1.552
 1117SOL    HW2 4251   1.628   2.199   1.410
 1118SOL     OW 4252   2.619   4.148   1.694
 1118SOL    HW1 4253   2.651   4.240   1.672
 1118SOL    HW2 4254   2.684   4.080   1.661
 1119SOL     OW 4255   4.666   4.338   0.600
 1119SOL    HW1 4256   4.576   4.371   0.571
 1119SOL    HW2 4257   4.662   4.312   0.697
 1120SOL     OW 4258   5.952   0.135   5.056
 1120SOL    HW1 4259   5.963   0.235   5.049
 1120SOL    HW2 4260   5.857   0.113   5.077
 1121SOL     OW 4261   5.180   5.303   2.576
 1121SOL    HW1 4262   5.111   5.355   2.626
 1121SOL    HW2 4263   5.181   5.209   2.609
 1122SOL     OW 4264   4.338   3.547   0.265
 1122SOL    HW1 4265   4.393   3.490   0.326
 1122SOL    HW2 4266   4.306   3.628   0.314
 1123SOL     OW 4267   5.619   1.450   3.549
 1123SOL    HW1 4268   5.676   1.445   3.631
 1123SOL    HW2 4269   5.677   1.448   3.468
 1124SOL     OW 4270   6.307   4.294   5.146
 1124SOL    HW1 4271   6.368   4.253   5.214
 1124SOL    HW2 4272   6.333   4.389   5.130
 1125SOL     OW 4273   3.024   1.426   4.840
 1125SOL    HW1 4274   3.101   1.462   4.787
 1125SOL    HW2 4275   2.958   1.384   4.779
 1126SOL     OW 4276   5.221   5.616   6.821
 1126SOL    HW1 4277   5.190   5.700   6.865
 1126SOL    HW2 4278   5.144   5.569   6.779
 1127SOL     OW 4279   4.562   4.914   5.144
 1127SOL    HW1 4280   4.494   4.967   5.093
 1127SOL    HW2 4281   4.638   4.890   5.083
 1128SOL     OW 4282   5.157   2.051   5.469
 1128SOL    HW1 4283   5.197   1.972   5.515
 1128SOL    HW2 4284   5.062   2.061   5.497
 1129SOL     OW 4285   3.285   0.643   6.711
 1129SOL    HW1 4286   3.249   0.553   6.738
 1129SOL    HW2 4287   3.232   0.678   6.634
 1130SOL     OW 4288   1.551   4.505   0.994
 1130SOL    HW1 4289   1.574   4.585   1.050
 1130SOL    HW2 4290   1.605   4.506   0.911
 1131SOL     OW 4291   0.116   6.170   6.380
 1131SOL    HW1 4292   0.052   6.105   6.421
 1131SOL    HW2 4293   0.209   6.148   6.408
 1132SOL     OW 4294   4.887   6.869   1.530
 1132SOL    HW1 4295   4.984   6.868   1.554
 1132SOL    HW2 4296   4.848   6.958   1.555
 1133SOL     OW 4297   0.864   0.683   1.056
 1133SOL    HW1 4298   0.829   0.647   0.970
 1133SOL    HW2 4299   0.810   0.763   1.083
 1134SOL     OW 4300   4.879   1.694   1.549
 1134SOL    HW1 4301   4.795   1.716   1.598
 1134SOL    HW2 4302   4.888   1.756   1.470
 1135SOL     OW 4303   2.084   1.210   2.558
 1135SOL    HW1 4304   2.036   1.290   2.596
 1135SOL    HW2 4305   2.031   1.128   2.576
 1136SOL     OW 4306   3.211   5.102   4.824
 1136SOL    HW1 4307   3.237   5.184   4.772
 1136SOL    HW2 4308   3.204   5.024   4.762
 1137SOL     OW 4309   1.115   1.821   5.897
 1137SOL    HW1 4310   1.178   1.815   5.820
 1137SOL    HW2 4311   1.049   1.895   5.881
 1138SOL     OW 4312   0.473   1.445   6.530
 1138SOL    HW1 4313   0.452   1.374   6.463
 1138SOL    HW2 4314   0.388   1.485   6.565
 1139SOL     OW 4315   3.182   5.496   1.362
 1139SOL    HW1 4316   3.234   5.444   1.295
 1139SOL    HW2 4317   3.110   5.548   1.316
 1140SOL     OW 4318   3.494   1.138   2.014
 1140SOL    HW1 4319   3.463   1.059   2.066
 1140SOL    HW2 4320   3.506   1.113   1.918
 1141SOL     OW 4321   0.191   6.847   6.447
 1141SOL    HW1 4322   0.273   6.893   6.479
 1141SOL    HW2 4323   0.215   6.782   6.375
 1142SOL     OW 4324   3.064   0.327   4.152
 1142SOL    HW1 4325   2.982   0.295   4.106
 1142SOL    HW2 4326   3.042   0.405   4.210
 1143SOL     OW 4327   1.755   3.580   1.446
 1143SOL    HW1 4328   1.842   3.615   1.480
 1143SOL    HW2 4329   1.716   3.517   1.514
 1144SOL     OW 4330   6.195   4.921   5.424
 1144SOL    HW1 4331   6.222   4.870   5.506
 1144SOL    HW2 4332   6.185   5.018   5.448
 1145SOL     OW 4333   0.124   3.898   2.361
 1145SOL    HW1 4334   0.097   3.913   2.265
 1145SOL    HW2 4335   0.203   3.837   2.364
 1146SOL     OW 4336   6.241   0.969   1.656
 1146SOL    HW1 4337   6.316   0.961   1.590
 1146SOL    HW2 4338   6.254   1.050   1.712
 1147SOL     OW 4339   1.535   4.774   1.166
 1147SOL    HW1 4340   1.548   4.855   1.223
 1147SOL    HW2 4341   1.437   4.757   1.154
 1148SOL     OW 4342   4.883   6.810   6.595
 1148SOL    HW1 4343   4.808   6.839   6.535
 1148SOL    HW2 4344   4.853   6.818   6.690
 1149SOL     OW 4345   6.551   4.230   2.899
 1149SOL    HW1 4346   6.611   4.270   2.968
 1149SOL    HW2 4347   6.606   4.201   2.821
 1150SOL     OW 4348   2.874   3.903   0.862
 1150SOL    HW1 4349   2.803   3.954   0.813
 1150SOL    HW2 4350   2.865   3.920   0.960
 1151SOL     OW 4351   4.750   5.094   6.580
 1151SOL    HW1 4352   4.792   5.088   6.671
 1151SOL    HW2 4353   4.717   5.003   6.553
 1152SOL     OW 4354   6.783   5.873   5.899
 1152SOL    HW1 4355   6.744   5.784   5.924
 1152SOL    HW2 4356   6.725   5.946   5.935
 1153SOL     OW 4357   2.458   0.171   2.141
 1153SOL    HW1 4358   2.465   0.261   2.185
 1153SOL    HW2 4359   2.378   0.170   2.081
 1154SOL     OW 4360   0.636   4.082   1.954
 1154SOL    HW1 4361   0.718   4.051   2.002
 1154SOL    HW2 4362   0.653   4.082   1.855
 1155SOL     OW 4363   2.392   5.150   0.055
 1155SOL    HW1 4364   2.362   5.240   0.024
 1155SOL    HW2 4365   2.315   5.086   0.052
 1156SOL     OW 4366   2.555   1.285   4.759
 1156SOL    HW1 4367   2.529   1.312   4.852
 1156SOL    HW2 4368   2.488   1.319   4.694
 1157SOL     OW 4369   6.022   0.405   4.982
 1157SOL    HW1 4370   6.082   0.443   5.052
 1157SOL    HW2 4371   6.065   0.416   4.892
 1158SOL     OW 4372   6.794   6.012   5.381
 1158SOL    HW1 4373   6.844   5.926   5.396
 1158SOL    HW2 4374   6.837   6.062   5.306
 1159SOL     OW 4375   5.712   6.711   3.853
 1159SOL    HW1 4376   5.647   6.639   3.829
 1159SOL    HW2 4377   5.667   6.800   3.844
 1160SOL     OW 4378   3.643   3.154   0.972
 1160SOL    HW1 4379   3.561   3.202   0.943
 1160SOL    HW2 4380   3.618   3.067   1.014
 1161SOL     OW 4381   5.685   0.538   6.498
 1161SOL    HW1 4382   5.591   0.510   6.516
 1161SOL    HW2 4383   5.748   0.469   6.532
 1162SOL     OW 4384   2.959   2.199   6.772
 1162SOL    HW1 4385   2.906   2.181   6.690
 1162SOL    HW2 4386   2.897   2.218   6.848
 1163SOL     OW 4387   6.990   3.272   1.595
 1163SOL    HW1 4388   6.959   3.209   1.524
 1163SOL    HW2 4389   7.016   3.220   1.676
 1164SOL     OW 4390   5.575   2.443   4.695
 1164SOL    HW1 4391   5.563   2.438   4.596
 1164SOL    HW2 4392   5.489   2.471   4.738
 1165SOL     OW 4393   2.345   4.618   4.173
 1165SOL    HW1 4394   2.433   4.628   4.128
 1165SOL    HW2 4395   2.342   4.677   4.254
 1166SOL     OW 4396   3.801   6.724   0.285
 1166SOL    HW1 4397   3.723   6.762   0.336
 1166SOL    HW2 4398   3.874   6.792   0.280
 1167SOL     OW 4399   4.095   6.357   6.374
 1167SOL    HW1 4400   4.146   6.443   6.371
 1167SOL    HW2 4401   3.998   6.376   6.393
 1168SOL     OW 4402   5.660   2.031   3.344
 1168SOL    HW1 4403   5.686   2.031   3.440
 1168SOL    HW2 4404   5.571   1.986   3.333
 1169SOL     OW 4405   5.353   2.497   6.326
 1169SOL    HW1 4406   5.407   2.554   6.264
 1169SOL    HW2 4407   5.258   2.496   6.296
 1170SOL     OW 4408   5.424   1.227   2.454
 1170SOL    HW1 4409   5.413   1.133   2.420
 1170SOL    HW2 4410   5.391   1.232   2.549
 1171SOL     OW 4411   2.741   6.756   0.159
 1171SOL    HW1 4412   2.669   6.691   0.185
 1171SOL    HW2 4413   2.702   6.848   0.157
 1172SOL     OW 4414   3.361   3.673   1.979
 1172SOL    HW1 4415   3.290   3.639   2.039
 1172SOL    HW2 4416   3.409   3.750   2.023
 1173SOL     OW 4417   3.367   0.039   5.863
 1173SOL    HW1 4418   3.423   0.036   5.946
 1173SOL    HW2 4419   3.329   0.131   5.852
 1174SOL     OW 4420   2.925   4.313   0.272
 1174SOL    HW1 4421   3.005   4.255   0.287
 1174SOL    HW2 4422   2.934   4.396   0.327
 1175SOL     OW 4423   4.307   2.937   6.673
 1175SOL    HW1 4424   4.209   2.917   6.674
 1175SOL    HW2 4425   4.323   3.032   6.700
 1176SOL     OW 4426   5.910   4.393   0.363
 1176SOL    HW1 4427   5.971   4.367   0.437
 1176SOL    HW2 4428   5.899   4.316   0.300
 1177SOL     OW 4429   6.898   1.264   5.914
 1177SOL    HW1 4430   6.812   1.219   5.891
 1177SOL    HW2 4431   6.883   1.363   5.919
 1178SOL     OW 4432   3.586   3.756   1.039
 1178SOL    HW1 4433   3.537   3.818   1.101
 1178SOL    HW2 4434   3.534   3.746   0.955
 1179SOL     OW 4435   3.408   6.035   0.623
 1179SOL    HW1 4436   3.423   5.984   0.707
 1179SOL    HW2 4437   3.430   6.131   0.639
 1180SOL     OW 4438   2.457   6.427   3.674
 1180SOL    HW1 4439   2.486   6.505   3.729
 1180SOL    HW2 4440   2.530   6.403   3.609
 1181SOL     OW 4441   6.666   2.626   4.927
 1181SOL    HW1 4442   6.751   2.666   4.964
 1181SOL    HW2 4443   6.596   2.624   4.998
 1182SOL     OW 4444   2.908   5.145   3.854
 1182SOL    HW1 4445   2.930   5.180   3.945
 1182SOL    HW2 4446   2.936   5.049   3.848
 1183SOL     OW 4447   3.784   6.255   1.837
 1183SOL    HW1 4448   3.732   6.264   1.752
 1183SOL    HW2 4449   3.853   6.328   1.841
 1184SOL     OW 4450   4.558   6.650   6.473
 1184SOL    HW1 4451   4.654   6.637   6.446
 1184SOL    HW2 4452   4.544   6.746   6.497
 1185SOL     OW 4453   1.656   0.513   0.733
 1185SOL    HW1 4454   1.589   0.544   0.665
 1185SOL    HW2 4455   1.613   0.448   0.796
 1186SOL     OW 4456   6.089   6.042   6.369
 1186SOL    HW1 4457   6.103   6.139   6.387
 1186SOL    HW2 4458   6.163   6.007   6.312
 1187SOL     OW 4459   5.640   0.208   5.270
 1187SOL    HW1 4460   5.725   0.176   5.313
 1187SOL    HW2 4461   5.571   0.136   5.275
 1188SOL     OW 4462   3.412   6.246   6.460
 1188SOL    HW1 4463   3.343   6.177   6.481
 1188SOL    HW2 4464   3.473   6.256   6.538
 1189SOL     OW 4465   6.156   0.991   2.244
 1189SOL    HW1 4466   6.172   0.934   2.163
 1189SOL    HW2 4467   6.243   1.023   2.281
 1190SOL     OW 4468   3.550   4.987   3.997
 1190SOL    HW1 4469   3.480   5.056   4.016
 1190SOL    HW2 4470   3.611   4.979   4.076
 1191SOL     OW 4471   2.898   6.819   4.640
 1191SOL    HW1 4472   2.903   6.780   4.732
 1191SOL    HW2 4473   2.983   6.868   4.620
 1192SOL     OW 4474   5.586   6.416   3.007
 1192SOL    HW1 4475   5.616   6.508   2.979
 1192SOL    HW2 4476   5.557   6.365   2.926
 1193SOL     OW 4477   0.623   0.828   5.343
 1193SOL    HW1 4478   0.621   0.873   5.432
 1193SOL    HW2 4479   0.708   0.775   5.335
 1194SOL     OW 4480   0.282   1.404   1.398
 1194SOL    HW1 4481   0.247   1.376   1.310
 1194SOL    HW2 4482   0.246   1.345   1.470
 1195SOL     OW 4483   6.762   3.410   1.333
 1195SOL    HW1 4484   6.782   3.493   1.283
 1195SOL    HW2 4485   6.664   3.406   1.354
 1196SOL     OW 4486   6.249   4.945   2.322
 1196SOL    HW1 4487   6.267   4.975   2.416
 1196SOL    HW2 4488   6.151   4.952   2.303
 1197SOL     OW 4489   4.542   6.391   3.932
 1197SOL    HW1 4490   4.616   6.424   3.874
 1197SOL    HW2 4491   4.580   6.349   4.015
 1198SOL     OW 4492   1.569   3.674   2.418
 1198SOL    HW1 4493   1.541   3.660   2.323
 1198SOL    HW2 4494   1.633   3.603   2.445
 1199SOL     OW 4495   3.645   3.444   2.813
 1199SOL    HW1 4496   3.580   3.407   2.747
 1199SOL    HW2 4497   3.597   3.506   2.875
 1200SOL     OW 4498   4.025   3.829   4.414
 1200SOL    HW1 4499   4.079   3.888   4.473
 1200SOL    HW2 4500   4.070   3.740   4.405
 1201SOL     OW 4501   6.777   0.950   4.141
 1201SOL    HW1 4502   6.725   0.963   4.056
 1201SOL    HW2 4503   6.822   0.861   4.139
 1202SOL     OW 4504   5.971   0.774   5.801
 1202SOL    HW1 4505   6.026   0.812   5.727
 1202SOL    HW2 4506   5.970   0.674   5.795
 1203SOL     OW 4507   0.197   6.764   1.296
 1203SOL    HW1 4508   0.127   6.832   1.275
 1203SOL    HW2 4509   0.286   6.810   1.306
 1204SOL     OW 4510   4.371   1.942   1.942
 1204SOL    HW1 4511   4.396   1.855   1.899
 1204SOL    HW2 4512   4.320   1.924   2.026
 1205SOL     OW 4513   3.943   3.064   0.216
 1205SOL    HW1 4514   3.977   3.119   0.140
 1205SOL    HW2 4515   3.843   3.067   0.217
 1206SOL     OW 4516   1.376   2.390   4.418
 1206SOL    HW1 4517   1.278   2.381   4.438
 1206SOL    HW2 4518   1.413   2.470   4.464
 1207SOL     OW 4519   0.265   0.463   0.094
 1207SOL    HW1 4520   0.316   0.533   0.044
 1207SOL    HW2 4521   0.183   0.504   0.133
 1208SOL     OW 4522   3.512   3.681   1.414
 1208SOL    HW1 4523   3.476   3.634   1.333
 1208SOL    HW2 4524   3.439   3.695   1.480
 1209SOL     OW 4525   5.529   0.528   4.171
 1209SOL    HW1 4526   5.561   0.442   4.130
 1209SOL    HW2 4527   5.436   0.516   4.204
 1210SOL     OW 4528   4.935   0.143   3.621
 1210SOL    HW1 4529   4.874   0.135   3.542
 1210SOL    HW2 4530   4.996   0.064   3.624
 1211SOL     OW 4531   1.187   3.677   3.201
 1211SOL    HW1 4532   1.135   3.599   3.167
 1211SOL    HW2 4533   1.125   3.754   3.218
 1212SOL     OW 4534   6.300   0.778   6.305
 1212SOL    HW1 4535   6.301   0.878   6.301
 1212SOL    HW2 4536   6.394   0.744   6.319
 1213SOL     OW 4537   5.741   2.297   2.471
 1213SOL    HW1 4538   5.656   2.288   2.523
 1213SOL    HW2 4539   5.791   2.211   2.475
 1214SOL     OW 4540   0.648   2.376   6.185
 1214SOL    HW1 4541   0.684   2.464   6.216
 1214SOL    HW2 4542   0.647   2.312   6.262
 1215SOL     OW 4543   2.440   5.164   2.876
 1215SOL    HW1 4544   2.403   5.252   2.847
 1215SOL    HW2 4545   2.539   5.171   2.888
 1216SOL     OW 4546   0.219   0.887   0.336
 1216SOL    HW1 4547   0.158   0.866   0.413
 1216SOL    HW2 4548   0.291   0.818   0.332
 1217SOL     OW 4549   2.806   5.064   0.789
 1217SOL    HW1 4550   2.783   4.978   0.745
 1217SOL    HW2 4551   2.723   5.120   0.797
 1218SOL     OW 4552   1.436   4.109   5.612
 1218SOL    HW1 4553   1.393   4.172   5.677
 1218SOL    HW2 4554   1.412   4.015   5.637
 1219SOL     OW 4555   5.345   5.389   1.592
 1219SOL    HW1 4556   5.314   5.308   1.543
 1219SOL    HW2 4557   5.440   5.376   1.621
 1220SOL     OW 4558   6.752   4.101   2.728
 1220SOL    HW1 4559   6.716   4.012   2.700
 1220SOL    HW2 4560   6.840   4.089   2.774
 1221SOL     OW 4561   5.605   3.701   6.345
 1221SOL    HW1 4562   5.556   3.659   6.269
 1221SOL    HW2 4563   5.650   3.785   6.314
 1222SOL     OW 4564   0.687   0.496   0.286
 1222SOL    HW1 4565   0.755   0.495   0.359
 1222SOL    HW2 4566   0.702   0.575   0.227
 1223SOL     OW 4567   3.591   1.525   0.062
 1223SOL    HW1 4568   3.649   1.508   7.004
 1223SOL    HW2 4569   3.559   1.438   0.099
 1224SOL     OW 4570   2.878   5.940   7.005
 1224SOL    HW1 4571   2.917   5.887   6.929
 1224SOL    HW2 4572   2.782   5.961   6.986
 1225SOL     OW 4573   4.339   2.473   0.566
 1225SOL    HW1 4574   4.294   2.457   0.478
 1225SOL    HW2 4575   4.270   2.500   0.633
 1226SOL     OW 4576   4.468   6.148   0.985
 1226SOL    HW1 4577   4.465   6.057   0.944
 1226SOL    HW2 4578   4.401   6.207   0.940
 1227SOL     OW 4579   5.232   5.362   6.101
 1227SOL    HW1 4580   5.152   5.353   6.042
 1227SOL    HW2 4581   5.234   5.454   6.141
 1228SOL     OW 4582   3.236   2.614   0.271
 1228SOL    HW1 4583   3.225   2.564   0.184
 1228SOL    HW2 4584   3.233   2.712   0.253
 1229SOL     OW 4585   1.943   5.474   0.415
 1229SOL    HW1 4586   1.911   5.539   0.347
 1229SOL    HW2 4587   1.966   5.387   0.370
 1230SOL     OW 4588   5.993   5.541   2.420
 1230SOL    HW1 4589   6.026   5.584   2.504
 1230SOL    HW2 4590   6.063   5.479   2.385
 1231SOL     OW 4591   1.720   1.727   5.484
 1231SOL    HW1 4592   1.645   1.770   5.433
 1231SOL    HW2 4593   1.698   1.631   5.500
 1232SOL     OW 4594   5.967   1.558   4.863
 1232SOL    HW1 4595   5.986   1.464   4.890
 1232SOL    HW2 4596   6.038   1.619   4.900
 1233SOL     OW 4597   0.551   5.916   4.856
 1233SOL    HW1 4598   0.460   5.887   4.888
 1233SOL    HW2 4599   0.590   5.980   4.922
 1234SOL     OW 4600   6.130   2.153   5.357
 1234SOL    HW1 4601   6.046   2.099   5.368
 1234SOL    HW2 4602   6.183   2.149   5.441
 1235SOL     OW 4603   6.298   4.848   1.320
 1235SOL    HW1 4604   6.213   4.847   1.373
 1235SOL    HW2 4605   6.290   4.913   1.245
 1236SOL     OW 4606   3.753   0.996   2.218
 1236SOL    HW1 4607   3.657   0.971   2.200
 1236SOL    HW2 4608   3.758   1.048   2.303
 1237SOL     OW 4609   0.772   5.055   5.271
 1237SOL    HW1 4610   0.855   5.101   5.240
 1237SOL    HW2 4611   0.794   4.997   5.350
 1238SOL     OW 4612   1.237   0.433   5.641
 1238SOL    HW1 4613   1.141   0.405   5.645
 1238SOL    HW2 4614   1.242   0.531   5.618
 1239SOL     OW 4615   0.162   0.179   5.703
 1239SOL    HW1 4616   0.257   0.188   5.672
 1239SOL    HW2 4617   0.144   0.083   5.727
 1240SOL     OW 4618   5.913   5.601   1.070
 1240SOL    HW1 4619   5.903   5.596   1.169
 1240SOL    HW2 4620   5.943   5.693   1.044
 1241SOL     OW 4621   5.754   4.594   5.692
 1241SOL    HW1 4622   5.724   4.615   5.599
 1241SOL    HW2 4623   5.720   4.503   5.718
 1242SOL     OW 4624   2.113   4.058   0.531
 1242SOL    HW1 4625   2.146   4.105   0.449
 1242SOL    HW2 4626   2.177   3.985   0.555
 1243SOL     OW 4627   0.375   1.376   4.861
 1243SOL    HW1 4628   0.439   1.452   4.872
 1243SOL    HW2 4629   0.344   1.345   4.951
 1244SOL     OW 4630   5.345   5.769   5.041
 1244SOL    HW1 4631   5.421   5.744   5.101
 1244SOL    HW2 4632   5.278   5.694   5.039
 1245SOL     OW 4633   5.648   4.423   6.620
 1245SOL    HW1 4634   5.722   4.469   6.571
 1245SOL    HW2 4635   5.642   4.459   6.713
 1246SOL     OW 4636   3.065   1.708   2.631
 1246SOL    HW1 4637   3.004   1.783   2.657
 1246SOL    HW2 4638   3.117   1.733   2.549
 1247SOL     OW 4639   6.369   0.038   6.338
 1247SOL    HW1 4640   6.277   0.078   6.334
 1247SOL    HW2 4641   6.437   0.110   6.328
 1248SOL     OW 4642   1.738   6.032   3.847
 1248SOL    HW1 4643   1.761   6.089   3.768
 1248SOL    HW2 4644   1.697   6.089   3.918
 1249SOL     OW 4645   0.521   3.196   1.434
 1249SOL    HW1 4646   0.516   3.293   1.411
 1249SOL    HW2 4647   0.611   3.175   1.473
 1250SOL     OW 4648   5.455   4.904   3.281
 1250SOL    HW1 4649   5.464   4.864   3.190
 1250SOL    HW2 4650   5.530   4.968   3.298
 1251SOL     OW 4651   1.868   0.939   3.003
 1251SOL    HW1 4652   1.806   0.951   2.925
 1251SOL    HW2 4653   1.882   1.028   3.048
 1252SOL     OW 4654   3.546   4.598   6.336
 1252SOL    HW1 4655   3.499   4.685   6.320
 1252SOL    HW2 4656   3.479   4.524   6.338
 1253SOL     OW 4657   3.050   7.016   2.903
 1253SOL    HW1 4658   3.089   6.927   2.879
 1253SOL    HW2 4659   3.045   0.052   2.822
 1254SOL     OW 4660   0.314   2.466   4.140
 1254SOL    HW1 4661   0.265   2.492   4.224
 1254SOL    HW2 4662   0.273   2.513   4.062
 1255SOL     OW 4663   5.568   1.639   6.196
 1255SOL    HW1 4664   5.618   1.621   6.111
 1255SOL    HW2 4665   5.565   1.737   6.213
 1256SOL     OW 4666   0.490   6.388   3.808
 1256SOL    HW1 4667   0.522   6.384   3.713
 1256SOL    HW2 4668   0.394   6.416   3.809
 1257SOL     OW 4669   6.944   4.816   4.435
 1257SOL    HW1 4670   6.901   4.752   4.499
 1257SOL    HW2 4671   0.013   4.780   4.408
 1258SOL     OW 4672   2.026   4.968   2.812
 1258SOL    HW1 4673   1.977   5.043   2.858
 1258SOL    HW2 4674   2.113   4.951   2.859
 1259SOL     OW 4675   3.561   6.754   4.960
 1259SOL    HW1 4676   3.660   6.761   4.969
 1259SOL    HW2 4677   3.524   6.842   4.930
 1260SOL     OW 4678   3.133   1.582   0.799
 1260SOL    HW1 4679   3.184   1.566   0.714
 1260SOL    HW2 4680   3.143   1.678   0.825
 1261SOL     OW 4681   6.793   5.091   6.559
 1261SOL    HW1 4682   6.838   5.093   6.469
 1261SOL    HW2 4683   6.739   5.007   6.567
 1262SOL     OW 4684   5.152   5.171   1.529
 1262SOL    HW1 4685   5.156   5.076   1.559
 1262SOL    HW2 4686   5.168   5.176   1.430
 1263SOL     OW 4687   7.007   1.661   1.524
 1263SOL    HW1 4688   6.994   1.757   1.549
 1263SOL    HW2 4689   6.929   1.629   1.470
 1264SOL     OW 4690   0.071   3.813   1.680
 1264SOL    HW1 4691   0.143   3.751   1.710
 1264SOL    HW2 4692   7.003   3.769   1.689
 1265SOL     OW 4693   5.436   5.321   3.749
 1265SOL    HW1 4694   5.420   5.238   3.695
 1265SOL    HW2 4695   5.526   5.317   3.790
 1266SOL     OW 4696   0.763   1.117   3.998
 1266SOL    HW1 4697   0.750   1.075   3.908
 1266SOL    HW2 4698   0.790   1.047   4.064
 1267SOL     OW 4699   5.698   6.357   1.284
 1267SOL    HW1 4700   5.623   6.419   1.262
 1267SOL    HW2 4701   5.772   6.368   1.217
 1268SOL     OW 4702   4.440   2.674   0.380
 1268SOL    HW1 4703   4.448   2.582   0.420
 1268SOL    HW2 4704   4.490   2.739   0.437
 1269SOL     OW 4705   5.705   6.447   6.027
 1269SOL    HW1 4706   5.640   6.382   6.065
 1269SOL    HW2 4707   5.789   6.446   6.082
 1270SOL     OW 4708   2.134   3.885   4.103
 1270SOL    HW1 4709   2.034   3.886   4.111
 1270SOL    HW2 4710   2.173   3.844   4.185
 1271SOL     OW 4711   3.475   1.865   3.712
 1271SOL    HW1 4712   3.461   1.805   3.634
 1271SOL    HW2 4713   3.395   1.924   3.724
 1272SOL     OW 4714   5.662   5.544   0.283
 1272SOL    HW1 4715   5.595   5.513   0.215
 1272SOL    HW2 4716   5.752   5.506   0.261
 1273SOL     OW 4717   0.996   4.624   6.751
 1273SOL    HW1 4718   0.965   4.549   6.810
 1273SOL    HW2 4719   1.053   4.587   6.678
 1274SOL     OW 4720   6.214   3.223   1.639
 1274SOL    HW1 4721   6.130   3.188   1.681
 1274SOL    HW2 4722   6.261   3.283   1.704
 1275SOL     OW 4723   3.195   1.093   4.443
 1275SOL    HW1 4724   3.228   1.020   4.502
 1275SOL    HW2 4725   3.256   1.102   4.364
 1276SOL     OW 4726   6.888   0.537   4.689
 1276SOL    HW1 4727   6.851   0.478   4.761
 1276SOL    HW2 4728   6.988   0.524   4.685
 1277SOL     OW 4729   1.089   6.632   5.943
 1277SOL    HW1 4730   1.139   6.597   6.022
 1277SOL    HW2 4731   1.021   6.698   5.972
 1278SOL     OW 4732   1.272   0.220   5.292
 1278SOL    HW1 4733   1.327   0.264   5.221
 1278SOL    HW2 4734   1.235   0.290   5.354
 1279SOL     OW 4735   3.725   5.920   0.820
 1279SOL    HW1 4736   3.800   5.895   0.759
 1279SOL    HW2 4737   3.749   6.004   0.869
 1280SOL     OW 4738   2.917   6.511   4.501
 1280SOL    HW1 4739   2.831   6.558   4.484
 1280SOL    HW2 4740   2.957   6.543   4.587
 1281SOL     OW 4741   1.732   5.919   3.061
 1281SOL    HW1 4742   1.820   5.941   3.018
 1281SOL    HW2 4743   1.702   5.829   3.031
 1282SOL     OW 4744   0.683   1.459   6.023
 1282SOL    HW1 4745   0.713   1.370   5.987
 1282SOL    HW2 4746   0.755   1.497   6.081
 1283SOL     OW 4747   6.563   2.740   5.309
 1283SOL    HW1 4748   6.640   2.722   5.370
 1283SOL    HW2 4749   6.480   2.756   5.362
 1284SOL     OW 4750   4.810   1.078   2.611
 1284SOL    HW1 4751   4.783   1.096   2.705
 1284SOL    HW2 4752   4.736   1.106   2.549
 1285SOL     OW 4753   4.542   2.337   6.643
 1285SOL    HW1 4754   4.515   2.298   6.555
 1285SOL    HW2 4755   4.577   2.429   6.629
 1286SOL     OW 4756   4.964   3.711   2.113
 1286SOL    HW1 4757   4.909   3.788   2.143
 1286SOL    HW2 4758   4.938   3.686   2.019
 1287SOL     OW 4759   5.361   4.606   5.407
 1287SOL    HW1 4760   5.317   4.693   5.385
 1287SOL    HW2 4761   5.376   4.601   5.506
 1288SOL     OW 4762   4.566   3.476   0.090
 1288SOL    HW1 4763   4.543   3.382   0.063
 1288SOL    HW2 4764   4.519   3.498   0.175
 1289SOL     OW 4765   1.242   5.965   2.086
 1289SOL    HW1 4766   1.144   5.949   2.074
 1289SOL    HW2 4767   1.283   5.992   1.999
 1290SOL     OW 4768   1.024   0.137   0.087
 1290SOL    HW1 4769   1.020   0.221   0.142
 1290SOL    HW2 4770   1.087   0.150   0.011
 1291SOL     OW 4771   0.168   4.046   5.453
 1291SOL    HW1 4772   0.261   4.015   5.432
 1291SOL    HW2 4773   0.137   4.108   5.381
 1292SOL     OW 4774   0.384   5.927   2.437
 1292SOL    HW1 4775   0.385   5.993   2.362
 1292SOL    HW2 4776   0.406   5.975   2.523
 1293SOL     OW 4777   1.057   1.625   0.117
 1293SOL    HW1 4778   1.133   1.681   0.086
 1293SOL    HW2 4779   1.091   1.540   0.157
 1294SOL     OW 4780   1.343   3.855   6.890
 1294SOL    HW1 4781   1.395   3.906   6.821
 1294SOL    HW2 4782   1.250   3.840   6.856
 1295SOL     OW 4783   6.988   3.579   2.697
 1295SOL    HW1 4784   0.046   3.639   2.706
 1295SOL    HW2 4785   6.976   3.555   2.600
 1296SOL     OW 4786   3.350   0.618   5.522
 1296SOL    HW1 4787   3.382   0.611   5.617
 1296SOL    HW2 4788   3.366   0.711   5.489
 1297SOL     OW 4789   5.879   0.997   1.255
 1297SOL    HW1 4790   5.911   1.042   1.339
 1297SOL    HW2 4791   5.790   0.955   1.272
 1298SOL     OW 4792   6.189   4.794   2.634
 1298SOL    HW1 4793   6.214   4.885   2.602
 1298SOL    HW2 4794   6.258   4.759   2.697
 1299SOL     OW 4795   0.778   3.664   3.205
 1299SOL    HW1 4796   0.818   3.575   3.182
 1299SOL    HW2 4797   0.740   3.705   3.123
 1300SOL     OW 4798   3.309   2.971   1.670
 1300SOL    HW1 4799   3.335   2.876   1.652
 1300SOL    HW2 4800   3.389   3.022   1.703
 1301SOL     OW 4801   0.676   5.556   1.514
 1301SOL    HW1 4802   0.617   5.577   1.436
 1301SOL    HW2 4803   0.659   5.462   1.545
 1302SOL     OW 4804   4.466   0.282   5.298
 1302SOL    HW1 4805   4.542   0.346   5.288
 1302SOL    HW2 4806   4.455   0.257   5.394
 1303SOL     OW 4807   4.569   1.531   2.314
 1303SOL    HW1 4808   4.472   1.552   2.302
 1303SOL    HW2 4809   4.593   1.538   2.410
 1304SOL     OW 4810   1.406   0.725   6.947
 1304SOL    HW1 4811   1.319   0.704   6.902
 1304SOL    HW2 4812   1.412   0.823   6.965
 1305SOL     OW 4813   5.038   3.052   6.932
 1305SOL    HW1 4814   5.049   2.956   6.906
 1305SOL    HW2 4815   5.109   3.107   6.888
 1306SOL     OW 4816   0.402   4.190   4.972
 1306SOL    HW1 4817   0.338   4.135   5.026
 1306SOL    HW2 4818   0.463   4.240   5.034
 1307SOL     OW 4819   1.094   3.614   4.846
 1307SOL    HW1 4820   1.148   3.558   4.908
 1307SOL    HW2 4821   1.025   3.557   4.801
 1308SOL     OW 4822   5.537   6.390   4.236
 1308SOL    HW1 4823   5.500   6.483   4.233
 1308SOL    HW2 4824   5.626   6.389   4.189
 1309SOL     OW 4825   4.700   3.149   5.387
 1309SOL    HW1 4826   4.679   3.247   5.390
 1309SOL    HW2 4827   4.656   3.103   5.464
 1310SOL     OW 4828   0.546   3.946   4.835
 1310SOL    HW1 4829   0.538   3.848   4.854
 1310SOL    HW2 4830   0.500   3.998   4.906
 1311SOL     OW 4831   0.523   0.498   4.583
 1311SOL    HW1 4832   0.452   0.564   4.560
 1311SOL    HW2 4833   0.581   0.482   4.503
 1312SOL     OW 4834   1.628   0.479   6.522
 1312SOL    HW1 4835   1.603   0.390   6.484
 1312SOL    HW2 4836   1.587   0.489   6.613
 1313SOL     OW 4837   1.011   4.171   3.868
 1313SOL    HW1 4838   0.967   4.173   3.958
 1313SOL    HW2 4839   0.977   4.248   3.813
 1314SOL     OW 4840   3.943   0.714   5.701
 1314SOL    HW1 4841   3.946   0.805   5.658
 1314SOL    HW2 4842   3.854   0.673   5.685
 1315SOL     OW 4843   6.934   0.843   0.873
 1315SOL    HW1 4844   0.003   0.812   0.846
 1315SOL    HW2 4845   6.941   0.902   0.954
 1316SOL     OW 4846   1.985   6.659   4.638
 1316SOL    HW1 4847   1.959   6.717   4.561
 1316SOL    HW2 4848   1.912   6.660   4.706
 1317SOL     OW 4849   1.987   3.919   5.644
 1317SOL    HW1 4850   1.987   3.830   5.599
 1317SOL    HW2 4851   2.066   3.972   5.612
 1318SOL     OW 4852   1.092   0.795   0.793
 1318SOL    HW1 4853   1.133   0.842   0.870
 1318SOL    HW2 4854   1.018   0.735   0.824
 1319SOL     OW 4855   0.167   1.069   6.379
 1319SOL    HW1 4856   0.244   1.027   6.427
 1319SOL    HW2 4857   0.195   1.156   6.340
 1320SOL     OW 4858   5.324   3.613   0.244
 1320SOL    HW1 4859   5.312   3.516   0.225
 1320SOL    HW2 4860   5.243   3.647   0.293
 1321SOL     OW 4861   5.018   1.862   5.903
 1321SOL    HW1 4862   4.949   1.933   5.912
 1321SOL    HW2 4863   5.050   1.835   5.994
 1322SOL     OW 4864   3.976   0.586   3.980
 1322SOL    HW1 4865   3.924   0.547   4.055
 1322SOL    HW2 4866   3.967   0.528   3.899
 1323SOL     OW 4867   4.651   1.518   5.750
 1323SOL    HW1 4868   4.715   1.451   5.788
 1323SOL    HW2 4869   4.564   1.513   5.799
 1324SOL     OW 4870   1.202   3.078   0.072
 1324SOL    HW1 4871   1.273   3.041   0.012
 1324SOL    HW2 4872   1.240   3.153   0.126
 1325SOL     OW 4873   2.060   6.675   2.066
 1325SOL    HW1 4874   2.113   6.595   2.094
 1325SOL    HW2 4875   2.007   6.653   1.984
 1326SOL     OW 4876   4.844   3.292   5.152
 1326SOL    HW1 4877   4.788   3.373   5.132
 1326SOL    HW2 4878   4.788   3.224   5.200
 1327SOL     OW 4879   1.682   4.832   1.719
 1327SOL    HW1 4880   1.778   4.848   1.695
 1327SOL    HW2 4881   1.650   4.904   1.780
 1328SOL     OW 4882   1.730   2.956   0.976
 1328SOL    HW1 4883   1.678   3.039   0.957
 1328SOL    HW2 4884   1.828   2.978   0.978
 1329SOL     OW 4885   1.022   2.671   1.266
 1329SOL    HW1 4886   0.991   2.688   1.172
 1329SOL    HW2 4887   0.962   2.604   1.310
 1330SOL     OW 4888   0.120   0.761   1.797
 1330SOL    HW1 4889   0.065   0.685   1.830
 1330SOL    HW2 4890   0.109   0.840   1.857
 1331SOL     OW 4891   5.033   2.752   3.373
 1331SOL    HW1 4892   5.083   2.819   3.318
 1331SOL    HW2 4893   5.010   2.793   3.461
 1332SOL     OW 4894   2.807   7.013   0.329
 1332SOL    HW1 4895   2.755   0.076   0.345
 1332SOL    HW2 4896   2.846   7.014   0.237
 1333SOL     OW 4897   3.478   3.331   5.219
 1333SOL    HW1 4898   3.515   3.363   5.131
 1333SOL    HW2 4899   3.531   3.371   5.294
 1334SOL     OW 4900   6.146   2.076   4.301
 1334SOL    HW1 4901   6.055   2.051   4.334
 1334SOL    HW2 4902   6.185   2.148   4.358
 1335SOL     OW 4903   2.838   1.334   3.180
 1335SOL    HW1 4904   2.751   1.375   3.208
 1335SOL    HW2 4905   2.868   1.374   3.094
 1336SOL     OW 4906   1.855   2.075   5.692
 1336SOL    HW1 4907   1.876   1.977   5.695
 1336SOL    HW2 4908   1.841   2.109   5.785
 1337SOL     OW 4909   1.974   2.018   5.261
 1337SOL    HW1 4910   1.913   2.094   5.241
 1337SOL    HW2 4911   2.045   2.013   5.191
 1338SOL     OW 4912   5.643   1.914   6.247
 1338SOL    HW1 4913   5.683   1.974   6.177
 1338SOL    HW2 4914   5.717   1.869   6.297
 1339SOL     OW 4915   0.727   1.202   6.251
 1339SOL    HW1 4916   0.699   1.224   6.158
 1339SOL    HW2 4917   0.826   1.207   6.258
 1340SOL     OW 4918   0.723   2.058   2.282
 1340SOL    HW1 4919   0.758   2.068   2.375
 1340SOL    HW2 4920   0.668   2.138   2.257
 1341SOL     OW 4921   5.057   0.164   5.906
 1341SOL    HW1 4922   5.094   0.171   5.999
 1341SOL    HW2 4923   5.061   0.253   5.861
 1342SOL     OW 4924   1.825   5.018   6.115
 1342SOL    HW1 4925   1.775   4.959   6.179
 1342SOL    HW2 4926   1.875   5.088   6.167
 1343SOL     OW 4927   4.630   6.142   2.518
 1343SOL    HW1 4928   4.623   6.135   2.618
 1343SOL    HW2 4929   4.727   6.144   2.492
 1344SOL     OW 4930   6.657   4.578   4.086
 1344SOL    HW1 4931   6.628   4.582   3.990
 1344SOL    HW2 4932   6.715   4.657   4.107
 1345SOL     OW 4933   1.948   0.986   2.605
 1345SOL    HW1 4934   1.891   0.933   2.542
 1345SOL    HW2 4935   1.969   0.931   2.686
 1346SOL     OW 4936   0.786   6.431   4.411
 1346SOL    HW1 4937   0.783   6.385   4.500
 1346SOL    HW2 4938   0.725   6.511   4.413
 1347SOL     OW 4939   6.527   5.614   4.495
 1347SOL    HW1 4940   6.583   5.633   4.414
 1347SOL    HW2 4941   6.447   5.560   4.467
 1348SOL     OW 4942   5.149   5.035   2.402
 1348SOL    HW1 4943   5.221   5.018   2.335
 1348SOL    HW2 4944   5.070   5.076   2.355
 1349SOL     OW 4945   4.613   2.141   5.964
 1349SOL    HW1 4946   4.585   2.213   5.902
 1349SOL    HW2 4947   4.688   2.088   5.923
 1350SOL     OW 4948   4.738   4.308   6.651
 1350SOL    HW1 4949   4.687   4.226   6.625
 1350SOL    HW2 4950   4.813   4.322   6.586
 1351SOL     OW 4951   6.690   1.517   3.562
 1351SOL    HW1 4952   6.654   1.469   3.642
 1351SOL    HW2 4953   6.627   1.591   3.536
 1352SOL     OW 4954   6.531   0.032   3.051
 1352SOL    HW1 4955   6.494   0.114   3.095
 1352SOL    HW2 4956   6.480   0.014   2.967
 1353SOL     OW 4957   6.644   3.887   6.150
 1353SOL    HW1 4958   6.686   3.830   6.220
 1353SOL    HW2 4959   6.691   3.873   6.063
 1354SOL     OW 4960   0.646   2.470   0.483
 1354SOL    HW1 4961   0.584   2.404   0.441
 1354SOL    HW2 4962   0.602   2.512   0.562
 1355SOL     OW 4963   0.114   2.928   5.532
 1355SOL    HW1 4964   0.065   2.880   5.605
 1355SOL    HW2 4965   0.054   2.997   5.491
 1356SOL     OW 4966   2.927   3.724   2.878
 1356SOL    HW1 4967   2.999   3.735   2.810
 1356SOL    HW2 4968   2.904   3.627   2.888
 1357SOL     OW 4969   1.366   3.828   4.978
 1357SOL    HW1 4970   1.349   3.783   5.066
 1357SOL    HW2 4971   1.453   3.877   4.982
 1358SOL     OW 4972   4.141   1.018   6.014
 1358SOL    HW1 4973   4.233   1.006   5.977
 1358SOL    HW2 4974   4.142   1.004   6.113
 1359SOL     OW 4975   6.080   4.922   1.831
 1359SOL    HW1 4976   6.145   4.861   1.786
 1359SOL    HW2 4977   6.125   4.965   1.910
 1360SOL     OW 4978   3.977   2.853   0.919
 1360SOL    HW1 4979   4.010   2.946   0.933
 1360SOL    HW2 4980   3.927   2.823   1.001
 1361SOL     OW 4981   0.268   5.916   5.764
 1361SOL    HW1 4982   0.238   5.972   5.686
 1361SOL    HW2 4983   0.307   5.976   5.834
 1362SOL     OW 4984   3.087   3.928   4.483
 1362SOL    HW1 4985   3.124   3.995   4.418
 1362SOL    HW2 4986   3.079   3.970   4.573
 1363SOL     OW 4987   6.605   5.860   3.573
 1363SOL    HW1 4988   6.646   5.933   3.519
 1363SOL    HW2 4989   6.587   5.893   3.666
 1364SOL     OW 4990   6.450   2.215   1.051
 1364SOL    HW1 4991   6.463   2.312   1.029
 1364SOL    HW2 4992   6.517   2.161   1.000
 1365SOL     OW 4993   1.149   2.915   5.607
 1365SOL    HW1 4994   1.159   2.829   5.657
 1365SOL    HW2 4995   1.199   2.987   5.655
 1366SOL     OW 4996   0.282   4.402   0.276
 1366SOL    HW1 4997   0.372   4.400   0.232
 1366SOL    HW2 4998   0.293   4.389   0.374
 1367SOL     OW 4999   1.698   6.044   2.714
 1367SOL    HW1 5000   1.648   6.108   2.773
 1367SOL    HW2 5001   1.746   6.095   2.643
 1368SOL     OW 5002   6.896   0.187   4.074
 1368SOL    HW1 5003   6.939   0.240   4.001
 1368SOL    HW2 5004   6.966   0.152   4.136
 1369SOL     OW 5005   2.632   0.123   2.547
 1369SOL    HW1 5006   2.606   0.215   2.517
 1369SOL    HW2 5007   2.650   0.067   2.466
 1370SOL     OW 5008   4.298   1.574   2.292
 1370SOL    HW1 5009   4.243   1.608   2.368
 1370SOL    HW2 5010   4.262   1.611   2.206
 1371SOL     OW 5011   6.238   1.782   4.815
 1371SOL    HW1 5012   6.150   1.794   4.770
 1371SOL    HW2 5013   6.298   1.859   4.793
 1372SOL     OW 5014   1.176   2.866   0.572
 1372SOL    HW1 5015   1.219   2.942   0.620
 1372SOL    HW2 5016   1.238   2.831   0.502
 1373SOL     OW 5017   4.393   2.590   0.080
 1373SOL    HW1 5018   4.449   2.665   0.045
 1373SOL    HW2 5019   4.414   2.575   0.176
 1374SOL     OW 5020   4.409   2.296   1.095
 1374SOL    HW1 5021   4.326   2.293   1.040
 1374SOL    HW2 5022   4.392   2.350   1.177
 1375SOL     OW 5023   0.235   5.770   6.442
 1375SOL    HW1 5024   0.300   5.809   6.376
 1375SOL    HW2 5025   0.276   5.689   6.484
 1376SOL     OW 5026   4.475   4.734   5.339
 1376SOL    HW1 5027   4.513   4.793   5.268
 1376SOL    HW2 5028   4.523   4.749   5.425
 1377SOL     OW 5029   0.964   3.258   5.451
 1377SOL    HW1 5030   0.949   3.336   5.511
 1377SOL    HW2 5031   0.916   3.272   5.364
 1378SOL     OW 5032   5.908   1.547   4.603
 1378SOL    HW1 5033   5.809   1.560   4.598
 1378SOL    HW2 5034   5.938   1.549   4.698
 1379SOL     OW 5035   4.382   6.248   3.221
 1379SOL    HW1 5036   4.425   6.320   3.275
 1379SOL    HW2 5037   4.426   6.245   3.131
 1380SOL     OW 5038   0.350   6.973   3.694
 1380SOL    HW1 5039   0.420   0.000   3.747
 1380SOL    HW2 5040   0.361   6.875   3.706
 1381SOL     OW 5041   5.792   1.784   0.339
 1381SOL    HW1 5042   5.778   1.713   0.270
 1381SOL    HW2 5043   5.862   1.848   0.308
 1382SOL     OW 5044   5.019   3.220   0.835
 1382SOL    HW1 5045   5.093   3.197   0.771
 1382SOL    HW2 5046   4.983   3.136   0.875
 1383SOL     OW 5047   0.575   0.421   2.393
 1383SOL    HW1 5048   0.624   0.480   2.329
 1383SOL    HW2 5049   0.633   0.403   2.473
 1384SOL     OW 5050   4.537   0.665   2.196
 1384SOL    HW1 5051   4.625   0.678   2.149
 1384SOL    HW2 5052   4.464   0.707   2.143
 1385SOL     OW 5053   2.474   4.524   3.404
 1385SOL    HW1 5054   2.552   4.585   3.391
 1385SOL    HW2 5055   2.472   4.494   3.500
 1386SOL     OW 5056   2.782   0.819   3.957
 1386SOL    HW1 5057   2.733   0.734   3.935
 1386SOL    HW2 5058   2.785   0.831   4.056
 1387SOL     OW 5059   3.218   5.791   2.628
 1387SOL    HW1 5060   3.167   5.851   2.567
 1387SOL    HW2 5061   3.316   5.796   2.606
 1388SOL     OW 5062   0.441   0.632   2.993
 1388SOL    HW1 5063   0.354   0.631   3.043
 1388SOL    HW2 5064   0.512   0.676   3.049
 1389SOL     OW 5065   0.015   1.643   3.888
 1389SOL    HW1 5066   7.012   1.610   3.797
 1389SOL    HW2 5067   0.079   1.720   3.880
 1390SOL     OW 5068   6.132   3.001   6.365
 1390SOL    HW1 5069   6.168   2.959   6.448
 1390SOL    HW2 5070   6.183   3.085   6.346
 1391SOL     OW 5071   6.193   0.092   5.549
 1391SOL    HW1 5072   6.193   0.008   5.603
 1391SOL    HW2 5073   6.102   0.108   5.511
 1392SOL     OW 5074   6.031   6.537   5.627
 1392SOL    HW1 5075   6.041   6.463   5.561
 1392SOL    HW2 5076   5.937   6.539   5.661
 1393SOL     OW 5077   6.636   4.276   6.179
 1393SOL    HW1 5078   6.729   4.256   6.212
 1393SOL    HW2 5079   6.620   4.226   6.094
 1394SOL     OW 5080   3.112   5.998   5.678
 1394SOL    HW1 5081   3.026   5.948   5.669
 1394SOL    HW2 5082   3.155   5.977   5.766
 1395SOL     OW 5083   1.604   4.550   4.873
 1395SOL    HW1 5084   1.518   4.597   4.893
 1395SOL    HW2 5085   1.678   4.617   4.871
 1396SOL     OW 5086   0.081   1.330   5.111
 1396SOL    HW1 5087   0.101   1.344   5.014
 1396SOL    HW2 5088   7.009   1.362   5.130
 1397SOL     OW 5089   0.394   6.331   4.923
 1397SOL    HW1 5090   0.398   6.309   4.826
 1397SOL    HW2 5091   0.318   6.281   4.965
 1398SOL     OW 5092   2.766   0.794   6.475
 1398SOL    HW1 5093   2.771   0.698   6.446
 1398SOL    HW2 5094   2.857   0.826   6.499
 1399SOL     OW 5095   4.119   5.646   0.596
 1399SOL    HW1 5096   4.106   5.689   0.507
 1399SOL    HW2 5097   4.072   5.698   0.666
 1400SOL     OW 5098   0.572   1.714   4.113
 1400SOL    HW1 5099   0.577   1.676   4.021
 1400SOL    HW2 5100   0.648   1.678   4.168
 1401SOL     OW 5101   6.060   0.217   4.205
 1401SOL    HW1 5102   6.145   0.164   4.214
 1401SOL    HW2 5103   5.985   0.167   4.249
 1402SOL     OW 5104   5.190   4.060   6.183
 1402SOL    HW1 5105   5.230   4.113   6.108
 1402SOL    HW2 5106   5.103   4.021   6.153
 1403SOL     OW 5107   2.649   1.914   0.658
 1403SOL    HW1 5108   2.637   1.952   0.567
 1403SOL    HW2 5109   2.602   1.972   0.725
 1404SOL     OW 5110   6.625   0.355   6.645
 1404SOL    HW1 5111   6.635   0.315   6.736
 1404SOL    HW2 5112   6.709   0.404   6.621
 1405SOL     OW 5113   2.965   3.180   0.869
 1405SOL    HW1 5114   2.970   3.168   0.770
 1405SOL    HW2 5115   2.901   3.113   0.908
 1406SOL     OW 5116   1.297   5.802   0.895
 1406SOL    HW1 5117   1.309   5.863   0.973
 1406SOL    HW2 5118   1.202   5.805   0.865
 1407SOL     OW 5119   0.329   3.354   4.043
 1407SOL    HW1 5120   0.247   3.314   4.084
 1407SOL    HW2 5121   0.409   3.329   4.097
 1408SOL     OW 5122   4.708   1.194   6.260
 1408SOL    HW1 5123   4.628   1.144   6.292
 1408SOL    HW2 5124   4.702   1.289   6.292
 1409SOL     OW 5125   0.232   0.601   5.121
 1409SOL    HW1 5126   0.271   0.629   5.208
 1409SOL    HW2 5127   0.288   0.638   5.046
 1410SOL     OW 5128   1.285   4.139   5.995
 1410SOL    HW1 5129   1.327   4.173   6.079
 1410SOL    HW2 5130   1.335   4.173   5.915
 1411SOL     OW 5131   2.982   6.597   0.244
 1411SOL    HW1 5132   2.898   6.650   0.230
 1411SOL    HW2 5133   3.053   6.656   0.282
 1412SOL     OW 5134   1.309   3.530   1.132
 1412SOL    HW1 5135   1.299   3.629   1.129
 1412SOL    HW2 5136   1.370   3.500   1.058
 1413SOL     OW 5137   2.217   1.135   4.469
 1413SOL    HW1 5138   2.315   1.116   4.467
 1413SOL    HW2 5139   2.196   1.190   4.550
 1414SOL     OW 5140   2.119   1.629   2.040
 1414SOL    HW1 5141   2.060   1.556   2.074
 1414SOL    HW2 5142   2.212   1.594   2.030
 1415SOL     OW 5143   2.004   1.333   4.314
 1415SOL    HW1 5144   2.005   1.419   4.365
 1415SOL    HW2 5145   2.058   1.265   4.365
 1416SOL     OW 5146   4.385   6.052   4.772
 1416SOL    HW1 5147   4.451   6.117   4.809
 1416SOL    HW2 5148   4.349   6.086   4.685
 1417SOL     OW 5149   2.931   2.798   0.507
 1417SOL    HW1 5150   3.000   2.833   0.570
 1417SOL    HW2 5151   2.929   2.854   0.424
 1418SOL     OW 5152   3.182   3.483   2.115
 1418SOL    HW1 5153   3.211   3.497   2.210
 1418SOL    HW2 5154   3.237   3.410   2.074
 1419SOL     OW 5155   3.303   6.162   4.281
 1419SOL    HW1 5156   3.277   6.219   4.359
 1419SOL    HW2 5157   3.297   6.214   4.197
 1420SOL     OW 5158   3.146   6.039   2.517
 1420SOL    HW1 5159   3.081   6.023   2.442
 1420SOL    HW2 5160   3.235   6.064   2.479
 1421SOL     OW 5161   1.886   4.623   4.111
 1421SOL    HW1 5162   1.899   4.717   4.078
 1421SOL    HW2 5163   1.821   4.622   4.186
 1422SOL     OW 5164   1.541   4.433   6.255
 1422SOL    HW1 5165   1.493   4.516   6.226
 1422SOL    HW2 5166   1.477   4.357   6.259
 1423SOL     OW 5167   4.594   6.741   4.549
 1423SOL    HW1 5168   4.520   6.721   4.484
 1423SOL    HW2 5169   4.574   6.826   4.598
 1424SOL     OW 5170   6.654   3.467   6.610
 1424SOL    HW1 5171   6.723   3.500   6.674
 1424SOL    HW2 5172   6.645   3.533   6.535
 1425SOL     OW 5173   1.901   5.573   5.978
 1425SOL    HW1 5174   1.824   5.608   6.032
 1425SOL    HW2 5175   1.939   5.492   6.022
 1426SOL     OW 5176   2.788   2.441   0.034
 1426SOL    HW1 5177   2.785   2.516   6.990
 1426SOL    HW2 5178   2.816   2.475   0.123
 1427SOL     OW 5179   6.827   6.721   4.511
 1427SOL    HW1 5180   6.908   6.705   4.567
 1427SOL    HW2 5181   6.834   6.666   4.427
 1428SOL     OW 5182   0.566   1.878   0.229
 1428SOL    HW1 5183   0.561   1.818   0.310
 1428SOL    HW2 5184   0.611   1.829   0.155
 1429SOL     OW 5185   4.580   1.533   0.402
 1429SOL    HW1 5186   4.507   1.470   0.428
 1429SOL    HW2 5187   4.664   1.480   0.384
 1430SOL     OW 5188   1.878   5.108   3.994
 1430SOL    HW1 5189   1.928   5.076   4.075
 1430SOL    HW2 5190   1.792   5.150   4.023
 1431SOL     OW 5191   2.460   2.405   6.594
 1431SOL    HW1 5192   2.391   2.362   6.652
 1431SOL    HW2 5193   2.429   2.496   6.568
 1432SOL     OW 5194   2.801   1.443   1.177
 1432SOL    HW1 5195   2.742   1.366   1.198
 1432SOL    HW2 5196   2.847   1.475   1.260
 1433SOL     OW 5197   5.190   0.342   5.103
 1433SOL    HW1 5198   5.201   0.246   5.078
 1433SOL    HW2 5199   5.098   0.356   5.140
 1434SOL     OW 5200   0.969   0.448   5.912
 1434SOL    HW1 5201   1.012   0.495   5.835
 1434SOL    HW2 5202   0.912   0.373   5.878
 1435SOL     OW 5203   6.833   6.821   3.081
 1435SOL    HW1 5204   6.852   6.883   3.005
 1435SOL    HW2 5205   6.735   6.799   3.082
 1436SOL     OW 5206   4.975   4.482   6.505
 1436SOL    HW1 5207   5.048   4.523   6.559
 1436SOL    HW2 5208   4.914   4.554   6.472
 1437SOL     OW 5209   3.323   1.970   5.430
 1437SOL    HW1 5210   3.365   2.036   5.492
 1437SOL    HW2 5211   3.250   2.014   5.378
 1438SOL     OW 5212   3.012   6.942   1.821
 1438SOL    HW1 5213   2.935   6.882   1.799
 1438SOL    HW2 5214   2.979   0.014   1.835
 1439SOL     OW 5215   6.828   4.639   0.912
 1439SOL    HW1 5216   6.865   4.730   0.930
 1439SOL    HW2 5217   6.868   4.574   0.977
 1440SOL     OW 5218   3.363   2.967   6.167
 1440SOL    HW1 5219   3.385   2.943   6.262
 1440SOL    HW2 5220   3.423   2.915   6.106
 1441SOL     OW 5221   6.089   1.898   3.949
 1441SOL    HW1 5222   6.144   1.956   3.889
 1441SOL    HW2 5223   6.031   1.956   4.007
 1442SOL     OW 5224   6.398   5.286   6.568
 1442SOL    HW1 5225   6.449   5.371   6.583
 1442SOL    HW2 5226   6.444   5.231   6.499
 1443SOL     OW 5227   0.901   3.200   4.251
 1443SOL    HW1 5228   0.872   3.197   4.156
 1443SOL    HW2 5229   0.832   3.248   4.306
 1444SOL     OW 5230   4.143   5.982   0.915
 1444SOL    HW1 5231   4.122   6.080   0.920
 1444SOL    HW2 5232   4.205   5.959   0.990
 1445SOL     OW 5233   0.697   3.274   2.405
 1445SOL    HW1 5234   0.650   3.328   2.475
 1445SOL    HW2 5235   0.709   3.330   2.323
 1446SOL     OW 5236   4.793   2.270   0.340
 1446SOL    HW1 5237   4.866   2.330   0.373
 1446SOL    HW2 5238   4.765   2.208   0.414
 1447SOL     OW 5239   6.122   6.866   5.666
 1447SOL    HW1 5240   6.126   6.831   5.760
 1447SOL    HW2 5241   6.147   6.793   5.603
 1448SOL     OW 5242   6.335   2.328   6.413
 1448SOL    HW1 5243   6.359   2.392   6.340
 1448SOL    HW2 5244   6.408   2.327   6.482
 1449SOL     OW 5245   0.627   0.856   0.610
 1449SOL    HW1 5246   0.600   0.888   0.701
 1449SOL    HW2 5247   0.727   0.851   0.604
 1450SOL     OW 5248   0.826   2.254   1.202
 1450SOL    HW1 5249   0.790   2.165   1.230
 1450SOL    HW2 5250   0.863   2.248   1.109
 1451SOL     OW 5251   2.225   0.320   2.355
 1451SOL    HW1 5252   2.226   0.402   2.413
 1451SOL    HW2 5253   2.186   0.343   2.266
 1452SOL     OW 5254   4.632   0.675   4.694
 1452SOL    HW1 5255   4.702   0.629   4.748
 1452SOL    HW2 5256   4.545   0.627   4.704
 1453SOL     OW 5257   0.272   3.506   5.272
 1453SOL    HW1 5258   0.269   3.439   5.198
 1453SOL    HW2 5259   0.194   3.569   5.262
 1454SOL     OW 5260   0.180   3.315   2.566
 1454SOL    HW1 5261   0.112   3.362   2.510
 1454SOL    HW2 5262   0.162   3.333   2.663
 1455SOL     OW 5263   0.986   0.800   1.663
 1455SOL    HW1 5264   0.891   0.769   1.659
 1455SOL    HW2 5265   1.030   0.762   1.745
 1456SOL     OW 5266   6.693   6.333   5.129
 1456SOL    HW1 5267   6.694   6.325   5.229
 1456SOL    HW2 5268   6.765   6.395   5.100
 1457SOL     OW 5269   1.234   6.626   1.534
 1457SOL    HW1 5270   1.178   6.583   1.464
 1457SOL    HW2 5271   1.294   6.559   1.576
 1458SOL     OW 5272   5.805   5.322   3.547
 1458SOL    HW1 5273   5.725   5.375   3.573
 1458SOL    HW2 5274   5.885   5.355   3.597
 1459SOL     OW 5275   2.743   5.220   5.919
 1459SOL    HW1 5276   2.775   5.139   5.870
 1459SOL    HW2 5277   2.742   5.298   5.856
 1460SOL     OW 5278   0.531   5.575   5.536
 1460SOL    HW1 5279   0.433   5.588   5.523
 1460SOL    HW2 5280   0.582   5.632   5.471
 1461SOL     OW 5281   6.761   5.055   3.864
 1461SOL    HW1 5282   6.683   4.992   3.866
 1461SOL    HW2 5283   6.807   5.053   3.953
 1462SOL     OW 5284   1.283   0.506   6.429
 1462SOL    HW1 5285   1.295   0.471   6.521
 1462SOL    HW2 5286   1.268   0.430   6.365
 1463SOL     OW 5287   7.000   5.780   6.934
 1463SOL    HW1 5288   0.005   5.831   7.016
 1463SOL    HW2 5289   0.037   5.699   6.925
 1464SOL     OW 5290   6.327   0.191   1.167
 1464SOL    HW1 5291   6.262   0.135   1.218
 1464SOL    HW2 5292   6.285   0.222   1.082
 1465SOL     OW 5293   1.809   1.145   3.411
 1465SOL    HW1 5294   1.756   1.084   3.353
 1465SOL    HW2 5295   1.792   1.123   3.507
 1466SOL     OW 5296   0.865   1.549   2.143
 1466SOL    HW1 5297   0.931   1.496   2.090
 1466SOL    HW2 5298   0.912   1.589   2.222
 1467SOL     OW 5299   1.592   2.164   2.952
 1467SOL    HW1 5300   1.685   2.191   2.930
 1467SOL    HW2 5301   1.549   2.123   2.872
 1468SOL     OW 5302   5.019   5.983   2.631
 1468SOL    HW1 5303   4.953   5.909   2.648
 1468SOL    HW2 5304   4.978   6.050   2.569
 1469SOL     OW 5305   0.739   1.074   1.812
 1469SOL    HW1 5306   0.662   1.061   1.750
 1469SOL    HW2 5307   0.781   1.164   1.795
 1470SOL     OW 5308   1.596   1.895   2.411
 1470SOL    HW1 5309   1.591   1.980   2.464
 1470SOL    HW2 5310   1.508   1.879   2.366
 1471SOL     OW 5311   0.714   0.032   0.875
 1471SOL    HW1 5312   0.745   6.959   0.860
 1471SOL    HW2 5313   0.634   0.050   0.818
 1472SOL     OW 5314   3.917   6.489   5.673
 1472SOL    HW1 5315   3.932   6.582   5.705
 1472SOL    HW2 5316   3.969   6.425   5.730
 1473SOL     OW 5317   5.203   6.388   4.774
 1473SOL    HW1 5318   5.145   6.416   4.850
 1473SOL    HW2 5319   5.237   6.295   4.791
 1474SOL     OW 5320   5.752   5.548   2.552
 1474SOL    HW1 5321   5.751   5.636   2.600
 1474SOL    HW2 5322   5.834   5.543   2.494
 1475SOL     OW 5323   6.459   6.695   2.071
 1475SOL    HW1 5324   6.400   6.724   2.147
 1475SOL    HW2 5325   6.402   6.654   1.999
 1476SOL     OW 5326   2.624   1.262   1.281
 1476SOL    HW1 5327   2.685   1.213   1.343
 1476SOL    HW2 5328   2.552   1.199   1.249
 1477SOL     OW 5329   3.450   0.453   6.609
 1477SOL    HW1 5330   3.494   0.392   6.675
 1477SOL    HW2 5331   3.406   0.528   6.657
 1478SOL     OW 5332   6.340   5.232   0.207
 1478SOL    HW1 5333   6.268   5.213   0.140
 1478SOL    HW2 5334   6.429   5.224   0.163
 1479SOL     OW 5335   1.582   2.964   6.866
 1479SOL    HW1 5336   1.649   3.006   6.803
 1479SOL    HW2 5337   1.613   2.873   6.891
 1480SOL     OW 5338   3.392   0.751   5.771
 1480SOL    HW1 5339   3.353   0.811   5.841
 1480SOL    HW2 5340   3.473   0.794   5.731
 1481SOL     OW 5341   6.505   2.372   5.664
 1481SOL    HW1 5342   6.581   2.368   5.600
 1481SOL    HW2 5343   6.418   2.363   5.614
 1482SOL     OW 5344   4.977   2.558   1.515
 1482SOL    HW1 5345   4.888   2.585   1.479
 1482SOL    HW2 5346   4.967   2.474   1.569
 1483SOL     OW 5347   5.014   2.151   6.575
 1483SOL    HW1 5348   5.087   2.151   6.507
 1483SOL    HW2 5349   5.041   2.096   6.654
 1484SOL     OW 5350   6.034   4.708   4.201
 1484SOL    HW1 5351   5.970   4.702   4.278
 1484SOL    HW2 5352   6.027   4.625   4.146
 1485SOL     OW 5353   3.826   1.421   3.201
 1485SOL    HW1 5354   3.731   1.434   3.228
 1485SOL    HW2 5355   3.878   1.505   3.219
 1486SOL     OW 5356   5.432   1.663   3.002
 1486SOL    HW1 5357   5.392   1.754   2.990
 1486SOL    HW2 5358   5.531   1.671   3.008
 1487SOL     OW 5359   6.332   2.489   6.181
 1487SOL    HW1 5360   6.250   2.545   6.192
 1487SOL    HW2 5361   6.334   2.450   6.088
 1488SOL     OW 5362   5.270   1.738   3.952
 1488SOL    HW1 5363   5.347   1.790   3.914
 1488SOL    HW2 5364   5.298   1.643   3.968
 1489SOL     OW 5365   3.736   5.348   4.457
 1489SOL    HW1 5366   3.797   5.428   4.454
 1489SOL    HW2 5367   3.735   5.303   4.368
 1490SOL     OW 5368   1.243   2.820   1.799
 1490SOL    HW1 5369   1.198   2.885   1.861
 1490SOL    HW2 5370   1.231   2.727   1.834
 1491SOL     OW 5371   6.003   3.812   3.525
 1491SOL    HW1 5372   6.074   3.846   3.586
 1491SOL    HW2 5373   6.043   3.790   3.436
 1492SOL     OW 5374   5.438   0.944   2.428
 1492SOL    HW1 5375   5.448   0.849   2.459
 1492SOL    HW2 5376   5.493   0.959   2.346
 1493SOL     OW 5377   4.277   6.513   4.564
 1493SOL    HW1 5378   4.372   6.489   4.581
 1493SOL    HW2 5379   4.220   6.481   4.639
 1494SOL     OW 5380   5.785   1.773   6.428
 1494SOL    HW1 5381   5.873   1.734   6.456
 1494SOL    HW2 5382   5.712   1.735   6.485
 1495SOL     OW 5383   6.723   2.515   4.347
 1495SOL    HW1 5384   6.658   2.514   4.424
 1495SOL    HW2 5385   6.794   2.583   4.364
 1496SOL     OW 5386   0.608   1.170   1.573
 1496SOL    HW1 5387   0.545   1.093   1.585
 1496SOL    HW2 5388   0.582   1.245   1.634
 1497SOL     OW 5389   6.371   2.931   3.034
 1497SOL    HW1 5390   6.403   3.002   3.096
 1497SOL    HW2 5391   6.442   2.911   2.966
 1498SOL     OW 5392   1.804   5.180   6.514
 1498SOL    HW1 5393   1.720   5.191   6.567
 1498SOL    HW2 5394   1.824   5.083   6.501
 1499SOL     OW 5395   1.017   3.311   6.877
 1499SOL    HW1 5396   1.094   3.267   6.830
 1499SOL    HW2 5397   1.042   3.329   6.972
 1500SOL     OW 5398   6.507   6.351   0.037
 1500SOL    HW1 5399   6.432   6.381   0.097
 1500SOL    HW2 5400   6.559   6.431   0.006
 1501SOL     OW 5401   5.644   2.116   6.477
 1501SOL    HW1 5402   5.578   2.184   6.445
 1501SOL    HW2 5403   5.615   2.025   6.444
 1502SOL     OW 5404   4.699   0.248   0.682
 1502SOL    HW1 5405   4.747   0.227   0.597
 1502SOL    HW2 5406   4.601   0.255   0.664
 1503SOL     OW 5407   0.888   3.705   1.321
 1503SOL    HW1 5408   0.865   3.631   1.258
 1503SOL    HW2 5409   0.836   3.693   1.406
 1504SOL     OW 5410   0.900   0.471   5.400
 1504SOL    HW1 5411   0.863   0.378   5.408
 1504SOL    HW2 5412   0.876   0.508   5.310
 1505SOL     OW 5413   5.675   0.792   5.745
 1505SOL    HW1 5414   5.704   0.854   5.673
 1505SOL    HW2 5415   5.755   0.756   5.793
 1506SOL     OW 5416   0.881   5.719   0.903
 1506SOL    HW1 5417   0.897   5.643   0.840
 1506SOL    HW2 5418   0.837   5.794   0.854
 1507SOL     OW 5419   0.874   1.988   5.865
 1507SOL    HW1 5420   0.822   2.073   5.876
 1507SOL    HW2 5421   0.845   1.942   5.781
 1508SOL     OW 5422   6.712   0.826   2.199
 1508SOL    HW1 5423   6.730   0.922   2.219
 1508SOL    HW2 5424   6.645   0.790   2.263
 1509SOL     OW 5425   4.358   1.850   6.343
 1509SOL    HW1 5426   4.347   1.806   6.432
 1509SOL    HW2 5427   4.285   1.918   6.331
 1510SOL     OW 5428   4.547   2.156   4.936
 1510SOL    HW1 5429   4.487   2.078   4.952
 1510SOL    HW2 5430   4.616   2.160   5.009
 1511SOL     OW 5431   3.546   3.111   1.683
 1511SOL    HW1 5432   3.555   3.109   1.783
 1511SOL    HW2 5433   3.624   3.065   1.642
 1512SOL     OW 5434   0.360   4.928   1.465
 1512SOL    HW1 5435   0.319   4.870   1.535
 1512SOL    HW2 5436   0.375   5.019   1.502
 1513SOL     OW 5437   3.529   0.684   3.968
 1513SOL    HW1 5438   3.584   0.665   4.049
 1513SOL    HW2 5439   3.582   0.741   3.905
 1514SOL     OW 5440   4.325   1.933   6.060
 1514SOL    HW1 5441   4.294   1.922   5.965
 1514SOL    HW2 5442   4.305   2.026   6.091
 1515SOL     OW 5443   5.441   2.370   3.709
 1515SOL    HW1 5444   5.434   2.396   3.805
 1515SOL    HW2 5445   5.486   2.282   3.701
 1516SOL     OW 5446   6.260   0.157   0.411
 1516SOL    HW1 5447   6.302   0.145   0.501
 1516SOL    HW2 5448   6.162   0.137   0.418
 1517SOL     OW 5449   4.806   6.237   3.657
 1517SOL    HW1 5450   4.868   6.191   3.720
 1517SOL    HW2 5451   4.857   6.269   3.577
 1518SOL     OW 5452   1.049   3.335   0.384
 1518SOL    HW1 5453   1.050   3.362   0.288
 1518SOL    HW2 5454   1.143   3.314   0.413
 1519SOL     OW 5455   6.080   4.788   1.531
 1519SOL    HW1 5456   5.991   4.782   1.576
 1519SOL    HW2 5457   6.100   4.702   1.484
 1520SOL     OW 5458   0.514   3.810   2.394
 1520SOL    HW1 5459   0.464   3.727   2.369
 1520SOL    HW2 5460   0.521   3.870   2.314
 1521SOL     OW 5461   1.693   3.940   6.529
 1521SOL    HW1 5462   1.744   4.018   6.564
 1521SOL    HW2 5463   1.755   3.863   6.516
 1522SOL     OW 5464   6.444   0.055   5.462
 1522SOL    HW1 5465   6.360   0.093   5.501
 1522SOL    HW2 5466   6.522   0.083   5.518
 1523SOL     OW 5467   5.606   5.144   1.329
 1523SOL    HW1 5468   5.521   5.093   1.345
 1523SOL    HW2 5469   5.611   5.221   1.394
 1524SOL     OW 5470   1.630   2.252   1.924
 1524SOL    HW1 5471   1.679   2.205   1.850
 1524SOL    HW2 5472   1.691   2.262   2.003
 1525SOL     OW 5473   6.582   2.552   6.855
 1525SOL    HW1 5474   6.521   2.490   6.904
 1525SOL    HW2 5475   6.607   2.628   6.915
 1526SOL     OW 5476   6.912   0.007   6.846
 1526SOL    HW1 5477   6.833   6.967   6.844
 1526SOL    HW2 5478   6.904   0.070   6.922
 1527SOL     OW 5479   3.383   1.538   5.136
 1527SOL    HW1 5480   3.293   1.515   5.099
 1527SOL    HW2 5481   3.372   1.589   5.221
 1528SOL     OW 5482   5.053   6.220   2.787
 1528SOL    HW1 5483   5.000   6.295   2.748
 1528SOL    HW2 5484   5.030   6.135   2.740
 1529SOL     OW 5485   3.717   0.568   0.407
 1529SOL    HW1 5486   3.712   0.580   0.506
 1529SOL    HW2 5487   3.793   0.623   0.371
 1530SOL     OW 5488   3.364   1.721   2.157
 1530SOL    HW1 5489   3.345   1.807   2.204
 1530SOL    HW2 5490   3.348   1.645   2.219
 1531SOL     OW 5491   4.493   1.064   4.953
 1531SOL    HW1 5492   4.476   1.151   4.907
 1531SOL    HW2 5493   4.525   1.080   5.046
 1532SOL     OW 5494   2.566   3.694   6.137
 1532SOL    HW1 5495   2.625   3.631   6.188
 1532SOL    HW2 5496   2.500   3.642   6.084
 1533SOL     OW 5497   6.789   3.144   0.082
 1533SOL    HW1 5498   6.884   3.140   0.113
 1533SOL    HW2 5499   6.787   3.161   7.005
 1534SOL     OW 5500   1.872   4.878   6.545
 1534SOL    HW1 5501   1.867   4.810   6.619
 1534SOL    HW2 5502   1.945   4.853   6.482
 1535SOL     OW 5503   5.110   6.446   3.618
 1535SOL    HW1 5504   5.053   6.455   3.700
 1535SOL    HW2 5505   5.151   6.534   3.597
 1536SOL     OW 5506   3.964   4.337   5.282
 1536SOL    HW1 5507   4.019   4.254   5.274
 1536SOL    HW2 5508   4.020   4.417   5.262
 1537SOL     OW 5509   4.659   6.314   3.154
 1537SOL    HW1 5510   4.700   6.404   3.144
 1537SOL    HW2 5511   4.685   6.256   3.077
 1538SOL     OW 5512   3.995   6.235   5.804
 1538SOL    HW1 5513   3.969   6.279   5.891
 1538SOL    HW2 5514   3.914   6.222   5.748
 1539SOL     OW 5515   4.140   3.869   1.803
 1539SOL    HW1 5516   4.056   3.885   1.752
 1539SOL    HW2 5517   4.210   3.933   1.773
 1540SOL     OW 5518   1.785   6.077   5.853
 1540SOL    HW1 5519   1.844   6.154   5.829
 1540SOL    HW2 5520   1.839   6.008   5.902
 1541SOL     OW 5521   3.693   2.922   2.522
 1541SOL    HW1 5522   3.604   2.892   2.557
 1541SOL    HW2 5523   3.688   2.935   2.423
 1542SOL     OW 5524   6.359   5.781   1.973
 1542SOL    HW1 5525   6.416   5.821   2.044
 1542SOL    HW2 5526   6.287   5.846   1.947
 1543SOL     OW 5527   3.490   4.413   5.466
 1543SOL    HW1 5528   3.524   4.372   5.551
 1543SOL    HW2 5529   3.548   4.384   5.390
 1544SOL     OW 5530   3.228   3.723   3.024
 1544SOL    HW1 5531   3.143   3.775   3.034
 1544SOL    HW2 5532   3.296   3.758   3.089
 1545SOL     OW 5533   4.892   1.090   4.016
 1545SOL    HW1 5534   4.944   1.010   4.047
 1545SOL    HW2 5535   4.808   1.060   3.971
 1546SOL     OW 5536   3.691   6.392   5.963
 1546SOL    HW1 5537   3.715   6.486   5.939
 1546SOL    HW2 5538   3.622   6.358   5.898
 1547SOL     OW 5539   1.383   3.750   3.037
 1547SOL    HW1 5540   1.472   3.723   3.073
 1547SOL    HW2 5541   1.311   3.716   3.098
 1548SOL     OW 5542   4.768   4.078   5.704
 1548SOL    HW1 5543   4.781   3.982   5.730
 1548SOL    HW2 5544   4.818   4.137   5.769
 1549SOL     OW 5545   4.435   1.094   3.301
 1549SOL    HW1 5546   4.390   1.112   3.213
 1549SOL    HW2 5547   4.506   1.025   3.288
 1550SOL     OW 5548   2.909   4.653   6.914
 1550SOL    HW1 5549   2.811   4.668   6.901
 1550SOL    HW2 5550   2.956   4.741   6.918
 1551SOL     OW 5551   2.177   4.180   6.242
 1551SOL    HW1 5552   2.248   4.161   6.310
 1551SOL    HW2 5553   2.210   4.153   6.151
 1552SOL     OW 5554   6.661   6.580   7.013
 1552SOL    HW1 5555   6.624   6.662   0.035
 1552SOL    HW2 5556   6.731   6.606   6.947
 1553SOL     OW 5557   0.186   0.999   5.506
 1553SOL    HW1 5558   0.174   1.062   5.430
 1553SOL    HW2 5559   0.110   1.008   5.570
 1554SOL     OW 5560   4.553   1.451   3.309
 1554SOL    HW1 5561   4.458   1.452   3.278
 1554SOL    HW2 5562   4.614   1.465   3.231
 1555SOL     OW 5563   4.931   2.072   0.559
 1555SOL    HW1 5564   4.833   2.052   0.564
 1555SOL    HW2 5565   4.973   2.017   0.486
 1556SOL     OW 5566   2.460   0.994   0.670
 1556SOL    HW1 5567   2.541   0.936   0.677
 1556SOL    HW2 5568   2.441   1.036   0.760
 1557SOL     OW 5569   1.892   1.324   6.491
 1557SOL    HW1 5570   1.801   1.344   6.457
 1557SOL    HW2 5571   1.912   1.227   6.479
 1558SOL     OW 5572   5.569   0.877   4.711
 1558SOL    HW1 5573   5.663   0.848   4.691
 1558SOL    HW2 5574   5.568   0.973   4.736
 1559SOL     OW 5575   0.199   2.602   0.127
 1559SOL    HW1 5576   0.154   2.690   0.142
 1559SOL    HW2 5577   0.131   2.528   0.135
 1560SOL     OW 5578   2.862   2.083   6.080
 1560SOL    HW1 5579   2.792   2.137   6.034
 1560SOL    HW2 5580   2.836   1.986   6.077
 1561SOL     OW 5581   0.196   6.301   3.164
 1561SOL    HW1 5582   0.254   6.370   3.122
 1561SOL    HW2 5583   0.151   6.246   3.093
 1562SOL     OW 5584   3.918   5.543   2.549
 1562SOL    HW1 5585   3.829   5.539   2.504
 1562SOL    HW2 5586   3.979   5.604   2.499
 1563SOL     OW 5587   2.425   0.665   6.072
 1563SOL    HW1 5588   2.500   0.600   6.062
 1563SOL    HW2 5589   2.363   0.633   6.144
 1564SOL     OW 5590   1.122   3.150   2.940
 1564SOL    HW1 5591   1.164   3.088   2.874
 1564SOL    HW2 5592   1.102   3.099   3.024
 1565SOL     OW 5593   4.650   5.131   4.708
 1565SOL    HW1 5594   4.563   5.175   4.731
 1565SOL    HW2 5595   4.710   5.131   4.788
 1566SOL     OW 5596   5.300   4.800   4.111
 1566SOL    HW1 5597   5.225   4.750   4.069
 1566SOL    HW2 5598   5.316   4.765   4.203
 1567SOL     OW 5599   6.238   6.046   6.954
 1567SOL    HW1 5600   6.275   5.968   6.904
 1567SOL    HW2 5601   6.242   6.128   6.896
 1568SOL     OW 5602   2.069   5.503   1.268
 1568SOL    HW1 5603   1.989   5.445   1.288
 1568SOL    HW2 5604   2.047   5.598   1.290
 1569SOL     OW 5605   3.063   0.072   3.604
 1569SOL    HW1 5606   3.001   0.140   3.642
 1569SOL    HW2 5607   3.015   0.016   3.537
 1570SOL     OW 5608   2.179   6.842   0.594
 1570SOL    HW1 5609   2.103   6.794   0.639
 1570SOL    HW2 5610   2.240   6.881   0.664
 1571SOL     OW 5611   6.141   1.596   2.479
 1571SOL    HW1 5612   6.210   1.537   2.520
 1571SOL    HW2 5613   6.107   1.554   2.395
 1572SOL     OW 5614   0.684   6.248   0.497
 1572SOL    HW1 5615   0.589   6.231   0.521
 1572SOL    HW2 5616   0.696   6.239   0.398
 1573SOL     OW 5617   6.295   3.393   1.855
 1573SOL    HW1 5618   6.205   3.415   1.891
 1573SOL    HW2 5619   6.356   3.369   1.931
 1574SOL     OW 5620   0.001   1.334   3.017
 1574SOL    HW1 5621   0.090   1.363   3.052
 1574SOL    HW2 5622   6.963   1.308   3.093
 1575SOL     OW 5623   2.481   2.122   1.207
 1575SOL    HW1 5624   2.445   2.090   1.119
 1575SOL    HW2 5625   2.556   2.064   1.236
 1576SOL     OW 5626   0.779   1.049   3.037
 1576SOL    HW1 5627   0.686   1.085   3.025
 1576SOL    HW2 5628   0.814   1.018   2.949
 1577SOL     OW 5629   2.603   0.707   5.465
 1577SOL    HW1 5630   2.601   0.749   5.374
 1577SOL    HW2 5631   2.545   0.759   5.527
 1578SOL     OW 5632   5.489   2.732   6.247
 1578SOL    HW1 5633   5.473   2.818   6.295
 1578SOL    HW2 5634   5.439   2.733   6.160
 1579SOL     OW 5635   0.890   2.028   2.553
 1579SOL    HW1 5636   0.965   2.088   2.526
 1579SOL    HW2 5637   0.910   1.990   2.644
 1580SOL     OW 5638   3.218   4.054   4.005
 1580SOL    HW1 5639   3.287   3.981   4.003
 1580SOL    HW2 5640   3.129   4.014   4.024
 1581SOL     OW 5641   6.559   4.325   5.391
 1581SOL    HW1 5642   6.502   4.267   5.450
 1581SOL    HW2 5643   6.654   4.296   5.398
 1582SOL     OW 5644   2.596   0.115   4.031
 1582SOL    HW1 5645   2.544   0.067   4.101
 1582SOL    HW2 5646   2.635   0.049   3.967
 1583SOL     OW 5647   0.783   5.496   3.393
 1583SOL    HW1 5648   0.850   5.435   3.436
 1583SOL    HW2 5649   0.818   5.526   3.304
 1584SOL     OW 5650   0.652   6.082   6.352
 1584SOL    HW1 5651   0.748   6.060   6.337
 1584SOL    HW2 5652   0.632   6.174   6.318
 1585SOL     OW 5653   4.929   1.420   3.485
 1585SOL    HW1 5654   4.882   1.432   3.573
 1585SOL    HW2 5655   4.949   1.323   3.471
 1586SOL     OW 5656   3.342   4.861   1.875
 1586SOL    HW1 5657   3.434   4.825   1.896
 1586SOL    HW2 5658   3.280   4.840   1.950
 1587SOL     OW 5659   3.154   5.744   6.410
 1587SOL    HW1 5660   3.119   5.828   6.367
 1587SOL    HW2 5661   3.229   5.707   6.355
 1588SOL     OW 5662   3.906   0.525   2.869
 1588SOL    HW1 5663   3.870   0.605   2.820
 1588SOL    HW2 5664   3.928   0.552   2.963
 1589SOL     OW 5665   6.553   3.121   2.319
 1589SOL    HW1 5666   6.496   3.041   2.301
 1589SOL    HW2 5667   6.585   3.160   2.233
 1590SOL     OW 5668   4.093   6.663   5.307
 1590SOL    HW1 5669   4.141   6.749   5.289
 1590SOL    HW2 5670   4.158   6.595   5.340
 1591SOL     OW 5671   6.826   5.200   1.963
 1591SOL    HW1 5672   6.831   5.128   1.895
 1591SOL    HW2 5673   6.868   5.169   2.048
 1592SOL     OW 5674   1.786   4.003   0.049
 1592SOL    HW1 5675   1.823   3.992   0.142
 1592SOL    HW2 5676   1.730   4.086   0.045
 1593SOL     OW 5677   1.269   6.179   5.545
 1593SOL    HW1 5678   1.324   6.246   5.596
 1593SOL    HW2 5679   1.254   6.098   5.601
 1594SOL     OW 5680   0.419   6.180   1.746
 1594SOL    HW1 5681   0.379   6.251   1.803
 1594SOL    HW2 5682   0.364   6.167   1.664
 1595SOL     OW 5683   1.523   5.210   0.305
 1595SOL    HW1 5684   1.507   5.308   0.314
 1595SOL    HW2 5685   1.574   5.177   0.384
 1596SOL     OW 5686   0.339   2.698   3.696
 1596SOL    HW1 5687   0.352   2.663   3.603
 1596SOL    HW2 5688   0.251   2.746   3.701
 1597SOL     OW 5689   1.262   6.271   6.878
 1597SOL    HW1 5690   1.352   6.236   6.902
 1597SOL    HW2 5691   1.269   6.367   6.852
 1598SOL     OW 5692   6.833   4.147   5.695
 1598SOL    HW1 5693   6.930   4.121   5.693
 1598SOL    HW2 5694   6.809   4.193   5.610
 1599SOL     OW 5695   4.755   5.119   4.946
 1599SOL    HW1 5696   4.719   5.151   5.034
 1599SOL    HW2 5697   4.822   5.047   4.962
 1600SOL     OW 5698   4.301   1.058   3.025
 1600SOL    HW1 5699   4.313   1.094   2.932
 1600SOL    HW2 5700   4.223   1.104   3.068
 1601SOL     OW 5701   6.936   5.724   4.704
 1601SOL    HW1 5702   6.993   5.682   4.775
 1601SOL    HW2 5703   6.859   5.664   4.683
 1602SOL     OW 5704   4.141   5.920   3.158
 1602SOL    HW1 5705   4.054   5.881   3.187
 1602SOL    HW2 5706   4.215   5.857   3.182
 1603SOL     OW 5707   1.123   6.194   3.411
 1603SOL    HW1 5708   1.101   6.262   3.341
 1603SOL    HW2 5709   1.068   6.112   3.396
 1604SOL     OW 5710   6.147   4.422   1.603
 1604SOL    HW1 5711   6.168   4.501   1.546
 1604SOL    HW2 5712   6.095   4.451   1.683
 1605SOL     OW 5713   6.472   5.392   1.390
 1605SOL    HW1 5714   6.571   5.379   1.389
 1605SOL    HW2 5715   6.441   5.406   1.485
 1606SOL     OW 5716   3.615   0.894   5.703
 1606SOL    HW1 5717   3.611   0.917   5.800
 1606SOL    HW2 5718   3.630   0.978   5.650
 1607SOL     OW 5719   4.214   1.255   1.001
 1607SOL    HW1 5720   4.136   1.281   1.058
 1607SOL    HW2 5721   4.299   1.269   1.053
 1608SOL     OW 5722   1.025   0.854   3.454
 1608SOL    HW1 5723   1.062   0.840   3.362
 1608SOL    HW2 5724   1.031   0.951   3.477
 1609SOL     OW 5725   4.341   0.012   0.246
 1609SOL    HW1 5726   4.294   0.020   0.334
 1609SOL    HW2 5727   4.355   6.937   0.224
 1610SOL     OW 5728   6.144   4.779   6.284
 1610SOL    HW1 5729   6.118   4.783   6.381
 1610SOL    HW2 5730   6.061   4.778   6.228
 1611SOL     OW 5731   2.523   3.821   0.855
 1611SOL    HW1 5732   2.550   3.913   0.824
 1611SOL    HW2 5733   2.582   3.793   0.930
 1612SOL     OW 5734   2.864   6.849   6.444
 1612SOL    HW1 5735   2.943   6.803   6.405
 1612SOL    HW2 5736   2.781   6.802   6.417
 1613SOL     OW 5737   1.592   5.397   2.081
 1613SOL    HW1 5738   1.596   5.482   2.134
 1613SOL    HW2 5739   1.614   5.416   1.986
 1614SOL     OW 5740   5.562   3.301   6.999
 1614SOL    HW1 5741   5.574   3.223   6.937
 1614SOL    HW2 5742   5.540   3.383   6.947
 1615SOL     OW 5743   5.575   5.019   0.914
 1615SOL    HW1 5744   5.510   5.055   0.981
 1615SOL    HW2 5745   5.563   5.066   0.827
 1616SOL     OW 5746   3.119   1.448   5.115
 1616SOL    HW1 5747   3.089   1.435   5.021
 1616SOL    HW2 5748   3.040   1.466   5.174
 1617SOL     OW 5749   6.273   6.814   2.689
 1617SOL    HW1 5750   6.264   6.725   2.646
 1617SOL    HW2 5751   6.184   6.859   2.691
 1618SOL     OW 5752   1.665   4.415   2.028
 1618SOL    HW1 5753   1.702   4.357   1.955
 1618SOL    HW2 5754   1.568   4.396   2.041
 1619SOL     OW 5755   1.557   3.775   2.125
 1619SOL    HW1 5756   1.583   3.868   2.150
 1619SOL    HW2 5757   1.458   3.769   2.115
 1620SOL     OW 5758   2.734   4.809   1.771
 1620SOL    HW1 5759   2.804   4.880   1.781
 1620SOL    HW2 5760   2.754   4.734   1.835
 1621SOL     OW 5761   0.195   0.938   0.730
 1621SOL    HW1 5762   0.184   1.015   0.668
 1621SOL    HW2 5763   0.182   0.968   0.825
 1622SOL     OW 5764   0.613   3.122   4.916
 1622SOL    HW1 5765   0.578   3.091   4.828
 1622SOL    HW2 5766   0.632   3.043   4.974
 1623SOL     OW 5767   2.132   3.198   5.000
 1623SOL    HW1 5768   2.138   3.284   5.050
 1623SOL    HW2 5769   2.221   3.177   4.959
 1624SOL     OW 5770   2.966   1.018   5.011
 1624SOL    HW1 5771   3.016   1.063   5.084
 1624SOL    HW2 5772   2.880   1.067   4.994
 1625SOL     OW 5773   0.821   5.191   0.185
 1625SOL    HW1 5774   0.890   5.135   0.232
 1625SOL    HW2 5775   0.730   5.154   0.203
 1626SOL     OW 5776   4.129   2.183   0.231
 1626SOL    HW1 5777   4.200   2.193   0.161
 1626SOL    HW2 5778   4.047   2.143   0.191
 1627SOL     OW 5779   5.948   3.508   3.181
 1627SOL    HW1 5780   5.968   3.464   3.094
 1627SOL    HW2 5781   5.985   3.452   3.256
 1628SOL     OW 5782   4.914   4.181   6.843
 1628SOL    HW1 5783   4.931   4.271   6.883
 1628SOL    HW2 5784   4.932   4.184   6.745
 1629SOL     OW 5785   2.844   0.891   4.200
 1629SOL    HW1 5786   2.882   0.982   4.185
 1629SOL    HW2 5787   2.916   0.831   4.238
 1630SOL     OW 5788   1.201   4.985   5.451
 1630SOL    HW1 5789   1.289   5.027   5.476
 1630SOL    HW2 5790   1.196   4.976   5.351
 1631SOL     OW 5791   1.336   3.027   6.787
 1631SOL    HW1 5792   1.327   2.962   6.711
 1631SOL    HW2 5793   1.424   3.012   6.833
 1632SOL     OW 5794   6.746   2.146   0.354
 1632SOL    HW1 5795   6.681   2.210   0.314
 1632SOL    HW2 5796   6.839   2.177   0.334
 1633SOL     OW 5797   5.447   3.615   4.325
 1633SOL    HW1 5798   5.397   3.542   4.371
 1633SOL    HW2 5799   5.436   3.700   4.375
 1634SOL     OW 5800   4.217   5.534   4.760
 1634SOL    HW1 5801   4.273   5.566   4.836
 1634SOL    HW2 5802   4.169   5.612   4.718
 1635SOL     OW 5803   0.353   4.850   6.192
 1635SOL    HW1 5804   0.331   4.882   6.284
 1635SOL    HW2 5805   0.313   4.760   6.177
 1636SOL     OW 5806   3.046   4.323   1.712
 1636SOL    HW1 5807   2.973   4.386   1.740
 1636SOL    HW2 5808   3.015   4.229   1.729
 1637SOL     OW 5809   0.991   0.348   2.609
 1637SOL    HW1 5810   1.055   0.401   2.553
 1637SOL    HW2 5811   1.037   0.317   2.692
 1638SOL     OW 5812   0.210   4.459   3.407
 1638SOL    HW1 5813   0.200   4.365   3.439
 1638SOL    HW2 5814   0.264   4.460   3.323
 1639SOL     OW 5815   4.854   6.914   2.291
 1639SOL    HW1 5816   4.938   6.870   2.324
 1639SOL    HW2 5817   4.779   6.893   2.353
 1640SOL     OW 5818   5.998   0.816   0.437
 1640SOL    HW1 5819   6.003   0.837   0.340
 1640SOL    HW2 5820   6.065   0.745   0.460
 1641SOL     OW 5821   4.864   2.506   3.414
 1641SOL    HW1 5822   4.852   2.596   3.373
 1641SOL    HW2 5823   4.814   2.438   3.361
 1642SOL     OW 5824   5.921   3.688   6.319
 1642SOL    HW1 5825   5.928   3.594   6.285
 1642SOL    HW2 5826   5.905   3.686   6.418
 1643SOL     OW 5827   3.012   4.820   5.160
 1643SOL    HW1 5828   3.092   4.789   5.212
 1643SOL    HW2 5829   2.946   4.745   5.152
 1644SOL     OW 5830   6.220   3.673   0.545
 1644SOL    HW1 5831   6.280   3.664   0.624
 1644SOL    HW2 5832   6.276   3.682   0.462
 1645SOL     OW 5833   3.062   5.338   5.619
 1645SOL    HW1 5834   3.116   5.394   5.682
 1645SOL    HW2 5835   2.971   5.377   5.609
 1646SOL     OW 5836   3.077   6.044   0.429
 1646SOL    HW1 5837   3.088   5.981   0.353
 1646SOL    HW2 5838   3.055   6.135   0.394
 1647SOL     OW 5839   5.583   2.892   4.648
 1647SOL    HW1 5840   5.664   2.861   4.599
 1647SOL    HW2 5841   5.503   2.890   4.587
 1648SOL     OW 5842   5.538   5.128   0.672
 1648SOL    HW1 5843   5.439   5.144   0.676
 1648SOL    HW2 5844   5.585   5.214   0.652
 1649SOL     OW 5845   3.076   0.630   4.683
 1649SOL    HW1 5846   3.019   0.547   4.686
 1649SOL    HW2 5847   3.161   0.614   4.732
 1650SOL     OW 5848   1.724   6.118   5.570
 1650SOL    HW1 5849   1.751   6.074   5.656
 1650SOL    HW2 5850   1.708   6.047   5.501
 1651SOL     OW 5851   0.769   1.996   1.301
 1651SOL    HW1 5852   0.725   1.980   1.389
 1651SOL    HW2 5853   0.808   1.910   1.267
 1652SOL     OW 5854   1.124   4.028   2.542
 1652SOL    HW1 5855   1.130   4.050   2.444
 1652SOL    HW2 5856   1.028   4.017   2.568
 1653SOL     OW 5857   1.067   6.903   0.995
 1653SOL    HW1 5858   1.088   6.862   1.084
 1653SOL    HW2 5859   1.146   6.895   0.935
 1654SOL     OW 5860   0.618   3.842   1.254
 1654SOL    HW1 5861   0.592   3.789   1.173
 1654SOL    HW2 5862   0.627   3.938   1.228
 1655SOL     OW 5863   0.149   2.501   5.316
 1655SOL    HW1 5864   0.242   2.540   5.314
 1655SOL    HW2 5865   0.150   2.412   5.270
 1656SOL     OW 5866   2.650   4.660   2.233
 1656SOL    HW1 5867   2.567   4.693   2.187
 1656SOL    HW2 5868   2.726   4.660   2.169
 1657SOL     OW 5869   0.172   1.085   3.357
 1657SOL    HW1 5870   0.164   1.049   3.264
 1657SOL    HW2 5871   0.081   1.109   3.392
 1658SOL     OW 5872   0.548   6.113   1.241
 1658SOL    HW1 5873   0.497   6.056   1.306
 1658SOL    HW2 5874   0.490   6.133   1.162
 1659SOL     OW 5875   3.921   0.335   6.113
 1659SOL    HW1 5876   3.915   0.248   6.162
 1659SOL    HW2 5877   3.967   0.321   6.026
 1660SOL     OW 5878   1.030   5.304   3.983
 1660SOL    HW1 5879   1.031   5.329   4.080
 1660SOL    HW2 5880   1.048   5.206   3.973
 1661SOL     OW 5881   2.611   0.408   1.696
 1661SOL    HW1 5882   2.642   0.376   1.785
 1661SOL    HW2 5883   2.687   0.408   1.631
 1662SOL     OW 5884   6.678   0.720   4.345
 1662SOL    HW1 5885   6.660   0.706   4.442
 1662SOL    HW2 5886   6.598   0.760   4.301
 1663SOL     OW 5887   4.505   5.966   2.347
 1663SOL    HW1 5888   4.500   5.880   2.398
 1663SOL    HW2 5889   4.549   6.036   2.404
 1664SOL     OW 5890   2.190   0.450   4.425
 1664SOL    HW1 5891   2.225   0.534   4.383
 1664SOL    HW2 5892   2.092   0.442   4.406
 1665SOL     OW 5893   6.967   1.764   3.016
 1665SOL    HW1 5894   7.007   1.707   2.945
 1665SOL    HW2 5895   7.021   1.848   3.026
 1666SOL     OW 5896   5.310   2.657   6.892
 1666SOL    HW1 5897   5.276   2.607   6.971
 1666SOL    HW2 5898   5.370   2.599   6.838
 1667SOL     OW 5899   6.726   5.526   1.641
 1667SOL    HW1 5900   6.742   5.428   1.653
 1667SOL    HW2 5901   6.705   5.544   1.545
 1668SOL     OW 5902   5.178   6.394   5.621
 1668SOL    HW1 5903   5.265   6.370   5.665
 1668SOL    HW2 5904   5.109   6.325   5.643
 1669SOL     OW 5905   6.970   5.553   6.400
 1669SOL    HW1 5906   6.918   5.494   6.462
 1669SOL    HW2 5907   0.034   5.581   6.445
 1670SOL     OW 5908   7.015   3.762   5.403
 1670SOL    HW1 5909   0.034   3.716   5.483
 1670SOL    HW2 5910   0.031   3.855   5.397
 1671SOL     OW 5911   5.176   1.375   1.518
 1671SOL    HW1 5912   5.224   1.456   1.485
 1671SOL    HW2 5913   5.193   1.364   1.616
 1672SOL     OW 5914   2.071   2.930   1.042
 1672SOL    HW1 5915   2.039   2.956   1.133
 1672SOL    HW2 5916   2.170   2.917   1.044
 1673SOL     OW 5917   0.765   1.733   4.376
 1673SOL    HW1 5918   0.857   1.766   4.355
 1673SOL    HW2 5919   0.744   1.654   4.318
 1674SOL     OW 5920   0.898   3.828   2.262
 1674SOL    HW1 5921   0.904   3.873   2.173
 1674SOL    HW2 5922   0.877   3.731   2.249
 1675SOL     OW 5923   4.773   0.080   6.587
 1675SOL    HW1 5924   4.779   0.009   6.517
 1675SOL    HW2 5925   4.839   0.153   6.567
 1676SOL     OW 5926   1.950   2.681   1.894
 1676SOL    HW1 5927   2.039   2.638   1.876
 1676SOL    HW2 5928   1.916   2.724   1.810
 1677SOL     OW 5929   2.942   3.797   4.879
 1677SOL    HW1 5930   2.913   3.778   4.785
 1677SOL    HW2 5931   2.965   3.711   4.925
 1678SOL     OW 5932   4.813   3.957   4.405
 1678SOL    HW1 5933   4.882   3.967   4.334
 1678SOL    HW2 5934   4.737   3.903   4.370
 1679SOL     OW 5935   2.103   2.387   4.133
 1679SOL    HW1 5936   2.027   2.439   4.094
 1679SOL    HW2 5937   2.181   2.393   4.070
 1680SOL     OW 5938   0.119   2.989   4.533
 1680SOL    HW1 5939   0.209   2.979   4.490
 1680SOL    HW2 5940   0.101   2.907   4.588
 1681SOL     OW 5941   6.712   5.884   0.358
 1681SOL    HW1 5942   6.677   5.901   0.265
 1681SOL    HW2 5943   6.802   5.927   0.367
 1682SOL     OW 5944   1.215   0.881   4.362
 1682SOL    HW1 5945   1.217   0.979   4.345
 1682SOL    HW2 5946   1.213   0.832   4.275
 1683SOL     OW 5947   4.717   5.290   1.487
 1683SOL    HW1 5948   4.705   5.191   1.491
 1683SOL    HW2 5949   4.655   5.334   1.553
 1684SOL     OW 5950   1.671   5.857   2.354
 1684SOL    HW1 5951   1.754   5.806   2.377
 1684SOL    HW2 5952   1.686   5.911   2.271
 1685SOL     OW 5953   2.589   0.925   5.159
 1685SOL    HW1 5954   2.608   0.989   5.084
 1685SOL    HW2 5955   2.493   0.896   5.154
 1686SOL     OW 5956   2.892   5.706   5.132
 1686SOL    HW1 5957   2.813   5.644   5.128
 1686SOL    HW2 5958   2.930   5.718   5.041
 1687SOL     OW 5959   2.059   3.874   1.312
 1687SOL    HW1 5960   2.090   3.909   1.400
 1687SOL    HW2 5961   2.134   3.827   1.266
 1688SOL     OW 5962   1.985   2.543   4.353
 1688SOL    HW1 5963   2.082   2.562   4.342
 1688SOL    HW2 5964   1.933   2.594   4.283
 1689SOL     OW 5965   6.055   1.690   2.714
 1689SOL    HW1 5966   6.090   1.649   2.630
 1689SOL    HW2 5967   6.116   1.763   2.744
 1690SOL     OW 5968   1.499   2.877   3.460
 1690SOL    HW1 5969   1.410   2.832   3.463
 1690SOL    HW2 5970   1.520   2.914   3.550
 1691SOL     OW 5971   5.733   3.832   3.432
 1691SOL    HW1 5972   5.833   3.832   3.432
 1691SOL    HW2 5973   5.700   3.778   3.510
 1692SOL     OW 5974   5.362   6.850   1.414
 1692SOL    HW1 5975   5.328   6.938   1.449
 1692SOL    HW2 5976   5.401   6.862   1.323
 1693SOL     OW 5977   0.387   2.170   1.822
 1693SOL    HW1 5978   0.322   2.212   1.886
 1693SOL    HW2 5979   0.480   2.193   1.849
 1694SOL     OW 5980   5.480   0.627   2.550
 1694SOL    HW1 5981   5.489   0.533   2.582
 1694SOL    HW2 5982   5.566   0.676   2.566
 1695SOL     OW 5983   3.286   1.083   5.680
 1695SOL    HW1 5984   3.297   1.146   5.756
 1695SOL    HW2 5985   3.197   1.039   5.686
 1696SOL     OW 5986   4.537   4.353   0.863
 1696SOL    HW1 5987   4.486   4.291   0.923
 1696SOL    HW2 5988   4.474   4.419   0.822
 1697SOL     OW 5989   5.585   6.846   0.849
 1697SOL    HW1 5990   5.514   6.780   0.875
 1697SOL    HW2 5991   5.605   6.838   0.752
 1698SOL     OW 5992   4.118   0.374   0.220
 1698SOL    HW1 5993   4.019   0.362   0.215
 1698SOL    HW2 5994   4.158   0.366   0.128
 1699SOL     OW 5995   1.549   0.694   0.999
 1699SOL    HW1 5996   1.566   0.680   1.096
 1699SOL    HW2 5997   1.529   0.607   0.955
 1700SOL     OW 5998   5.491   2.535   3.265
 1700SOL    HW1 5999   5.460   2.472   3.194
 1700SOL    HW2 6000   5.412   2.570   3.316
 1701SOL     OW 6001   4.489   4.558   6.287
 1701SOL    HW1 6002   4.419   4.614   6.332
 1701SOL    HW2 6003   4.452   4.466   6.270
 1702SOL     OW 6004   6.828   2.530   0.325
 1702SOL    HW1 6005   6.841   2.437   0.289
 1702SOL    HW2 6006   6.738   2.563   0.299
 1703SOL     OW 6007   3.012   2.721   1.773
 1703SOL    HW1 6008   2.979   2.634   1.809
 1703SOL    HW2 6009   3.052   2.707   1.682
 1704SOL     OW 6010   1.063   2.391   0.610
 1704SOL    HW1 6011   1.034   2.445   0.531
 1704SOL    HW2 6012   1.031   2.435   0.694
 1705SOL     OW 6013   3.465   1.836   1.624
 1705SOL    HW1 6014   3.416   1.783   1.554
 1705SOL    HW2 6015   3.418   1.828   1.711
 1706SOL     OW 6016   4.630   1.099   2.066
 1706SOL    HW1 6017   4.610   1.197   2.069
 1706SOL    HW2 6018   4.544   1.048   2.062
 1707SOL     OW 6019   5.490   2.082   1.964
 1707SOL    HW1 6020   5.559   2.115   1.899
 1707SOL    HW2 6021   5.534   2.061   2.052
 1708SOL     OW 6022   5.080   5.226   1.804
 1708SOL    HW1 6023   5.068   5.127   1.807
 1708SOL    HW2 6024   5.139   5.250   1.726
 1709SOL     OW 6025   3.330   5.471   2.339
 1709SOL    HW1 6026   3.414   5.415   2.344
 1709SOL    HW2 6027   3.266   5.428   2.276
 1710SOL     OW 6028   5.245   5.549   4.118
 1710SOL    HW1 6029   5.228   5.613   4.043
 1710SOL    HW2 6030   5.165   5.544   4.178
 1711SOL     OW 6031   0.984   4.787   4.174
 1711SOL    HW1 6032   1.068   4.751   4.133
 1711SOL    HW2 6033   0.924   4.711   4.199
 1712SOL     OW 6034   7.001   2.519   5.532
 1712SOL    HW1 6035   7.021   2.609   5.571
 1712SOL    HW2 6036   0.043   2.501   5.457
 1713SOL     OW 6037   5.043   2.742   1.718
 1713SOL    HW1 6038   5.101   2.712   1.794
 1713SOL    HW2 6039   5.037   2.669   1.650
 1714SOL     OW 6040   3.158   1.834   5.612
 1714SOL    HW1 6041   3.233   1.868   5.556
 1714SOL    HW2 6042   3.077   1.890   5.596
 1715SOL     OW 6043   7.008   5.887   2.858
 1715SOL    HW1 6044   7.018   5.984   2.837
 1715SOL    HW2 6045   6.982   5.876   2.954
 1716SOL     OW 6046   5.033   6.824   2.948
 1716SOL    HW1 6047   5.023   6.746   3.010
 1716SOL    HW2 6048   4.951   6.881   2.953
 1717SOL     OW 6049   2.413   6.435   5.798
 1717SOL    HW1 6050   2.334   6.495   5.810
 1717SOL    HW2 6051   2.397   6.349   5.847
 1718SOL     OW 6052   2.018   1.978   1.010
 1718SOL    HW1 6053   2.031   2.072   0.977
 1718SOL    HW2 6054   1.935   1.940   0.971
 1719SOL     OW 6055   1.758   3.306   0.567
 1719SOL    HW1 6056   1.690   3.368   0.606
 1719SOL    HW2 6057   1.802   3.254   0.641
 1720SOL     OW 6058   0.304   2.691   6.893
 1720SOL    HW1 6059   0.338   2.785   6.895
 1720SOL    HW2 6060   0.268   2.667   6.983
 1721SOL     OW 6061   1.567   6.289   1.410
 1721SOL    HW1 6062   1.547   6.353   1.336
 1721SOL    HW2 6063   1.646   6.233   1.385
 1722SOL     OW 6064   3.860   1.626   3.871
 1722SOL    HW1 6065   3.866   1.691   3.946
 1722SOL    HW2 6066   3.864   1.533   3.907
 1723SOL     OW 6067   6.015   2.543   2.919
 1723SOL    HW1 6068   5.950   2.535   2.994
 1723SOL    HW2 6069   5.971   2.516   2.833
 1724SOL     OW 6070   6.885   2.728   1.366
 1724SOL    HW1 6071   6.822   2.652   1.352
 1724SOL    HW2 6072   6.972   2.693   1.401
 1725SOL     OW 6073   1.612   4.745   6.374
 1725SOL    HW1 6074   1.704   4.726   6.408
 1725SOL    HW2 6075   1.579   4.832   6.411
 1726SOL     OW 6076   5.634   4.675   5.416
 1726SOL    HW1 6077   5.593   4.764   5.435
 1726SOL    HW2 6078   5.574   4.623   5.355
 1727SOL     OW 6079   3.353   3.318   3.994
 1727SOL    HW1 6080   3.299   3.402   3.984
 1727SOL    HW2 6081   3.303   3.241   3.956
 1728SOL     OW 6082   4.581   4.769   5.595
 1728SOL    HW1 6083   4.550   4.799   5.685
 1728SOL    HW2 6084   4.673   4.729   5.602
 1729SOL     OW 6085   2.431   4.421   3.159
 1729SOL    HW1 6086   2.446   4.446   3.255
 1729SOL    HW2 6087   2.368   4.487   3.117
 1730SOL     OW 6088   0.894   6.997   5.679
 1730SOL    HW1 6089   0.959   6.929   5.714
 1730SOL    HW2 6090   0.886   6.987   5.580
 1731SOL     OW 6091   6.763   3.674   2.820
 1731SOL    HW1 6092   6.750   3.658   2.918
 1731SOL    HW2 6093   6.861   3.670   2.798
 1732SOL     OW 6094   2.165   5.188   5.742
 1732SOL    HW1 6095   2.244   5.141   5.703
 1732SOL    HW2 6096   2.119   5.240   5.671
 1733SOL     OW 6097   1.614   4.476   1.401
 1733SOL    HW1 6098   1.654   4.532   1.329
 1733SOL    HW2 6099   1.648   4.507   1.490
 1734SOL     OW 6100   4.275   3.096   1.161
 1734SOL    HW1 6101   4.297   3.030   1.233
 1734SOL    HW2 6102   4.358   3.142   1.131
 1735SOL     OW 6103   5.160   6.053   0.744
 1735SOL    HW1 6104   5.190   6.033   0.837
 1735SOL    HW2 6105   5.099   6.132   0.745
 1736SOL     OW 6106   3.255   2.891   0.244
 1736SOL    HW1 6107   3.160   2.912   0.222
 1736SOL    HW2 6108   3.290   2.959   0.310
 1737SOL     OW 6109   2.728   1.356   4.291
 1737SOL    HW1 6110   2.778   1.411   4.359
 1737SOL    HW2 6111   2.784   1.278   4.264
 1738SOL     OW 6112   2.118   2.125   3.891
 1738SOL    HW1 6113   2.049   2.174   3.944
 1738SOL    HW2 6114   2.076   2.088   3.808
 1739SOL     OW 6115   0.277   2.080   5.480
 1739SOL    HW1 6116   0.330   2.016   5.535
 1739SOL    HW2 6117   0.339   2.139   5.429
 1740SOL     OW 6118   6.816   1.760   5.442
 1740SOL    HW1 6119   6.901   1.811   5.431
 1740SOL    HW2 6120   6.798   1.746   5.540
 1741SOL     OW 6121   2.439   1.110   3.779
 1741SOL    HW1 6122   2.486   1.119   3.691
 1741SOL    HW2 6123   2.507   1.093   3.850
 1742SOL     OW 6124   5.581   0.743   6.004
 1742SOL    HW1 6125   5.599   0.744   5.906
 1742SOL    HW2 6126   5.657   0.786   6.053
 1743SOL     OW 6127   1.373   2.464   1.072
 1743SOL    HW1 6128   1.278   2.434   1.061
 1743SOL    HW2 6129   1.374   2.558   1.107
 1744SOL     OW 6130   6.875   1.815   2.511
 1744SOL    HW1 6131   6.780   1.802   2.483
 1744SOL    HW2 6132   6.908   1.733   2.558
 1745SOL     OW 6133   6.303   6.244   2.744
 1745SOL    HW1 6134   6.283   6.170   2.680
 1745SOL    HW2 6135   6.358   6.314   2.699
 1746SOL     OW 6136   1.416   4.679   4.601
 1746SOL    HW1 6137   1.337   4.638   4.647
 1746SOL    HW2 6138   1.469   4.731   4.668
 1747SOL     OW 6139   5.785   1.852   2.525
 1747SOL    HW1 6140   5.710   1.876   2.586
 1747SOL    HW2 6141   5.826   1.766   2.555
 1748SOL     OW 6142   1.028   0.614   4.906
 1748SOL    HW1 6143   0.989   0.560   4.832
 1748SOL    HW2 6144   1.057   0.554   4.980
 1749SOL     OW 6145   2.736   0.692   5.145
 1749SOL    HW1 6146   2.690   0.620   5.093
 1749SOL    HW2 6147   2.697   0.781   5.120
 1750SOL     OW 6148   5.249   6.859   4.291
 1750SOL    HW1 6149   5.177   6.871   4.360
 1750SOL    HW2 6150   5.310   6.938   4.294
 1751SOL     OW 6151   4.128   6.535   5.011
 1751SOL    HW1 6152   4.198   6.523   5.081
 1751SOL    HW2 6153   4.038   6.518   5.051
 1752SOL     OW 6154   0.097   2.041   1.297
 1752SOL    HW1 6155   0.139   2.107   1.234
 1752SOL    HW2 6156   0.137   2.052   1.388
 1753SOL     OW 6157   0.150   1.095   0.957
 1753SOL    HW1 6158   0.150   1.195   0.947
 1753SOL    HW2 6159   0.070   1.067   1.010
 1754SOL     OW 6160   2.192   4.211   0.324
 1754SOL    HW1 6161   2.228   4.302   0.343
 1754SOL    HW2 6162   2.200   4.191   0.227
 1755SOL     OW 6163   0.170   6.031   2.143
 1755SOL    HW1 6164   0.092   6.090   2.165
 1755SOL    HW2 6165   0.149   5.937   2.171
 1756SOL     OW 6166   4.257   5.781   5.728
 1756SOL    HW1 6167   4.196   5.770   5.649
 1756SOL    HW2 6168   4.342   5.731   5.711
 1757SOL     OW 6169   3.018   5.409   4.957
 1757SOL    HW1 6170   3.062   5.320   4.966
 1757SOL    HW2 6171   3.069   5.477   5.009
 1758SOL     OW 6172   2.029   0.130   4.171
 1758SOL    HW1 6173   2.076   0.149   4.085
 1758SOL    HW2 6174   2.022   0.214   4.225
 1759SOL     OW 6175   1.820   5.646   6.436
 1759SOL    HW1 6176   1.738   5.593   6.452
 1759SOL    HW2 6177   1.898   5.603   6.480
 1760SOL     OW 6178   5.702   1.676   3.060
 1760SOL    HW1 6179   5.713   1.691   3.158
 1760SOL    HW2 6180   5.789   1.694   3.013
 1761SOL     OW 6181   6.921   0.130   0.974
 1761SOL    HW1 6182   6.966   0.216   1.000
 1761SOL    HW2 6183   6.942   0.109   0.878
 1762SOL     OW 6184   0.201   1.140   5.271
 1762SOL    HW1 6185   0.185   1.225   5.220
 1762SOL    HW2 6186   0.212   1.064   5.206
 1763SOL     OW 6187   1.053   3.498   3.629
 1763SOL    HW1 6188   1.101   3.584   3.648
 1763SOL    HW2 6189   1.082   3.463   3.540
 1764SOL     OW 6190   2.009   3.738   2.609
 1764SOL    HW1 6191   1.915   3.773   2.609
 1764SOL    HW2 6192   2.048   3.747   2.700
 1765SOL     OW 6193   3.554   1.110   0.901
 1765SOL    HW1 6194   3.633   1.166   0.928
 1765SOL    HW2 6195   3.530   1.049   0.975
 1766SOL     OW 6196   4.758   4.178   2.669
 1766SOL    HW1 6197   4.773   4.102   2.606
 1766SOL    HW2 6198   4.829   4.179   2.739
 1767SOL     OW 6199   0.143   3.329   2.854
 1767SOL    HW1 6200   0.043   3.335   2.851
 1767SOL    HW2 6201   0.173   3.329   2.949
 1768SOL     OW 6202   4.149   1.383   5.956
 1768SOL    HW1 6203   4.178   1.290   5.933
 1768SOL    HW2 6204   4.053   1.382   5.983
 1769SOL     OW 6205   4.245   2.180   6.194
 1769SOL    HW1 6206   4.269   2.118   6.269
 1769SOL    HW2 6207   4.169   2.238   6.223
 1770SOL     OW 6208   6.770   4.248   4.418
 1770SOL    HW1 6209   6.764   4.259   4.319
 1770SOL    HW2 6210   6.863   4.269   4.448
 1771SOL     OW 6211   1.686   5.027   0.133
 1771SOL    HW1 6212   1.642   4.969   0.065
 1771SOL    HW2 6213   1.616   5.076   0.185
 1772SOL     OW 6214   3.280   0.201   3.677
 1772SOL    HW1 6215   3.197   0.156   3.644
 1772SOL    HW2 6216   3.342   0.217   3.599
 1773SOL     OW 6217   3.102   3.892   6.894
 1773SOL    HW1 6218   3.119   3.935   6.983
 1773SOL    HW2 6219   3.115   3.793   6.902
 1774SOL     OW 6220   4.596   0.747   1.804
 1774SOL    HW1 6221   4.668   0.750   1.736
 1774SOL    HW2 6222   4.635   0.727   1.894
 1775SOL     OW 6223   2.009   5.888   4.415
 1775SOL    HW1 6224   1.916   5.896   4.449
 1775SOL    HW2 6225   2.071   5.936   4.477
 1776SOL     OW 6226   4.306   0.921   5.695
 1776SOL    HW1 6227   4.316   0.853   5.768
 1776SOL    HW2 6228   4.351   0.888   5.612
 1777SOL     OW 6229   3.169   5.592   5.625
 1777SOL    HW1 6230   3.240   5.597   5.555
 1777SOL    HW2 6231   3.082   5.626   5.588
 1778SOL     OW 6232   4.203   2.159   4.686
 1778SOL    HW1 6233   4.151   2.138   4.603
 1778SOL    HW2 6234   4.296   2.187   4.661
 1779SOL     OW 6235   4.340   1.975   4.168
 1779SOL    HW1 6236   4.252   1.928   4.173
 1779SOL    HW2 6237   4.392   1.938   4.091
 1780SOL     OW 6238   2.289   4.449   5.579
 1780SOL    HW1 6239   2.216   4.395   5.538
 1780SOL    HW2 6240   2.344   4.390   5.639
 1781SOL     OW 6241   4.851   5.539   3.548
 1781SOL    HW1 6242   4.761   5.505   3.576
 1781SOL    HW2 6243   4.841   5.619   3.489
 1782SOL     OW 6244   3.109   1.636   3.274
 1782SOL    HW1 6245   3.108   1.735   3.262
 1782SOL    HW2 6246   3.040   1.610   3.342
 1783SOL     OW 6247   2.173   2.846   6.393
 1783SOL    HW1 6248   2.116   2.927   6.407
 1783SOL    HW2 6249   2.153   2.807   6.303
 1784SOL     OW 6250   3.035   0.733   2.773
 1784SOL    HW1 6251   2.953   0.683   2.802
 1784SOL    HW2 6252   3.100   0.738   2.849
 1785SOL     OW 6253   5.233   5.513   3.761
 1785SOL    HW1 6254   5.331   5.496   3.754
 1785SOL    HW2 6255   5.192   5.450   3.827
 1786SOL     OW 6256   1.438   3.113   0.629
 1786SOL    HW1 6257   1.532   3.079   0.630
 1786SOL    HW2 6258   1.382   3.058   0.691
 1787SOL     OW 6259   1.947   0.635   4.877
 1787SOL    HW1 6260   1.851   0.664   4.876
 1787SOL    HW2 6261   1.951   0.535   4.872
 1788SOL     OW 6262   2.913   3.754   0.149
 1788SOL    HW1 6263   3.010   3.733   0.144
 1788SOL    HW2 6264   2.864   3.703   0.078
 1789SOL     OW 6265   6.534   2.367   1.991
 1789SOL    HW1 6266   6.564   2.458   2.020
 1789SOL    HW2 6267   6.494   2.318   2.069
 1790SOL     OW 6268   3.901   6.458   4.690
 1790SOL    HW1 6269   3.984   6.405   4.708
 1790SOL    HW2 6270   3.821   6.399   4.699
 1791SOL     OW 6271   0.511   1.971   4.675
 1791SOL    HW1 6272   0.416   1.998   4.658
 1791SOL    HW2 6273   0.531   1.977   4.773
 1792SOL     OW 6274   0.599   1.469   4.524
 1792SOL    HW1 6275   0.606   1.473   4.425
 1792SOL    HW2 6276   0.606   1.561   4.562
 1793SOL     OW 6277   6.900   0.240   3.479
 1793SOL    HW1 6278   6.922   0.221   3.383
 1793SOL    HW2 6279   6.836   0.316   3.484
 1794SOL     OW 6280   5.284   6.537   6.604
 1794SOL    HW1 6281   5.194   6.579   6.592
 1794SOL    HW2 6282   5.293   6.505   6.698
 1795SOL     OW 6283   0.323   4.858   2.623
 1795SOL    HW1 6284   0.357   4.924   2.690
 1795SOL    HW2 6285   0.386   4.854   2.545
 1796SOL     OW 6286   1.796   1.483   4.205
 1796SOL    HW1 6287   1.785   1.546   4.282
 1796SOL    HW2 6288   1.877   1.427   4.221
 1797SOL     OW 6289   1.640   0.334   6.068
 1797SOL    HW1 6290   1.668   0.252   6.018
 1797SOL    HW2 6291   1.561   0.376   6.023
 1798SOL     OW 6292   4.763   2.736   5.395
 1798SOL    HW1 6293   4.818   2.724   5.312
 1798SOL    HW2 6294   4.667   2.748   5.370
 1799SOL     OW 6295   6.122   1.857   6.684
 1799SOL    HW1 6296   6.155   1.849   6.779
 1799SOL    HW2 6297   6.069   1.776   6.660
 1800SOL     OW 6298   5.141   4.679   3.878
 1800SOL    HW1 6299   5.043   4.662   3.870
 1800SOL    HW2 6300   5.182   4.682   3.787
 1801SOL     OW 6301   1.313   1.365   2.544
 1801SOL    HW1 6302   1.266   1.442   2.587
 1801SOL    HW2 6303   1.256   1.282   2.553
 1802SOL     OW 6304   5.441   5.312   2.563
 1802SOL    HW1 6305   5.342   5.312   2.557
 1802SOL    HW2 6306   5.470   5.355   2.648
 1803SOL     OW 6307   6.556   6.158   0.973
 1803SOL    HW1 6308   6.632   6.209   1.014
 1803SOL    HW2 6309   6.589   6.069   0.942
 1804SOL     OW 6310   3.098   3.123   5.477
 1804SOL    HW1 6311   3.006   3.087   5.462
 1804SOL    HW2 6312   3.144   3.133   5.389
 1805SOL     OW 6313   0.535   3.880   5.847
 1805SOL    HW1 6314   0.593   3.913   5.773
 1805SOL    HW2 6315   0.579   3.900   5.935
 1806SOL     OW 6316   1.698   2.086   1.694
 1806SOL    HW1 6317   1.796   2.101   1.702
 1806SOL    HW2 6318   1.681   2.009   1.631
 1807SOL     OW 6319   6.151   2.155   6.779
 1807SOL    HW1 6320   6.250   2.162   6.773
 1807SOL    HW2 6321   6.112   2.155   6.687
 1808SOL     OW 6322   6.302   4.343   4.752
 1808SOL    HW1 6323   6.235   4.328   4.824
 1808SOL    HW2 6324   6.275   4.422   4.697
 1809SOL     OW 6325   2.237   2.381   4.650
 1809SOL    HW1 6326   2.252   2.409   4.555
 1809SOL    HW2 6327   2.266   2.455   4.711
 1810SOL     OW 6328   2.192   0.393   5.203
 1810SOL    HW1 6329   2.190   0.437   5.292
 1810SOL    HW2 6330   2.214   0.296   5.214
 1811SOL     OW 6331   4.332   4.732   3.284
 1811SOL    HW1 6332   4.249   4.741   3.338
 1811SOL    HW2 6333   4.327   4.791   3.204
 1812SOL     OW 6334   4.745   0.274   5.706
 1812SOL    HW1 6335   4.819   0.276   5.640
 1812SOL    HW2 6336   4.767   0.209   5.779
 1813SOL     OW 6337   4.214   4.956   1.402
 1813SOL    HW1 6338   4.308   4.944   1.436
 1813SOL    HW2 6339   4.183   5.049   1.424
 1814SOL     OW 6340   6.550   1.005   0.568
 1814SOL    HW1 6341   6.609   1.079   0.535
 1814SOL    HW2 6342   6.454   1.028   0.552
 1815SOL     OW 6343   6.231   1.277   2.204
 1815SOL    HW1 6344   6.229   1.181   2.231
 1815SOL    HW2 6345   6.325   1.308   2.196
 1816SOL     OW 6346   1.703   4.820   0.978
 1816SOL    HW1 6347   1.794   4.827   1.018
 1816SOL    HW2 6348   1.640   4.781   1.045
 1817SOL     OW 6349   3.829   6.718   3.432
 1817SOL    HW1 6350   3.735   6.716   3.397
 1817SOL    HW2 6351   3.839   6.794   3.496
 1818SOL     OW 6352   2.377   5.965   1.325
 1818SOL    HW1 6353   2.376   6.062   1.304
 1818SOL    HW2 6354   2.337   5.914   1.249
 1819SOL     OW 6355   1.105   5.970   1.673
 1819SOL    HW1 6356   1.157   5.886   1.664
 1819SOL    HW2 6357   1.059   5.990   1.586
 1820SOL     OW 6358   3.151   0.270   2.144
 1820SOL    HW1 6359   3.073   0.216   2.114
 1820SOL    HW2 6360   3.148   0.280   2.244
 1821SOL     OW 6361   2.401   1.073   1.891
 1821SOL    HW1 6362   2.370   1.029   1.808
 1821SOL    HW2 6363   2.323   1.110   1.941
 1822SOL     OW 6364   1.199   3.088   1.071
 1822SOL    HW1 6365   1.152   3.175   1.080
 1822SOL    HW2 6366   1.184   3.032   1.152
 1823SOL     OW 6367   3.073   5.944   3.161
 1823SOL    HW1 6368   2.973   5.955   3.155
 1823SOL    HW2 6369   3.104   5.883   3.088
 1824SOL     OW 6370   3.639   3.308   0.343
 1824SOL    HW1 6371   3.583   3.390   0.352
 1824SOL    HW2 6372   3.678   3.305   0.251
 1825SOL     OW 6373   1.828   1.972   4.543
 1825SOL    HW1 6374   1.779   1.946   4.461
 1825SOL    HW2 6375   1.804   2.066   4.569
 1826SOL     OW 6376   3.275   1.455   1.450
 1826SOL    HW1 6377   3.289   1.420   1.357
 1826SOL    HW2 6378   3.312   1.389   1.516
 1827SOL     OW 6379   6.858   5.753   1.195
 1827SOL    HW1 6380   6.835   5.686   1.125
 1827SOL    HW2 6381   6.952   5.786   1.180
 1828SOL     OW 6382   1.757   2.338   0.447
 1828SOL    HW1 6383   1.802   2.406   0.505
 1828SOL    HW2 6384   1.688   2.384   0.390
 1829SOL     OW 6385   3.205   0.764   2.986
 1829SOL    HW1 6386   3.294   0.737   3.024
 1829SOL    HW2 6387   3.183   0.857   3.015
 1830SOL     OW 6388   5.786   6.399   4.145
 1830SOL    HW1 6389   5.855   6.328   4.150
 1830SOL    HW2 6390   5.827   6.484   4.112
 1831SOL     OW 6391   5.824   6.941   1.553
 1831SOL    HW1 6392   5.882   6.878   1.501
 1831SOL    HW2 6393   5.803   7.021   1.498
 1832SOL     OW 6394   4.322   2.063   1.572
 1832SOL    HW1 6395   4.290   1.974   1.605
 1832SOL    HW2 6396   4.326   2.127   1.648
 1833SOL     OW 6397   5.407   1.003   0.925
 1833SOL    HW1 6398   5.453   1.087   0.897
 1833SOL    HW2 6399   5.323   1.026   0.974
 1834SOL     OW 6400   2.417   3.588   0.681
 1834SOL    HW1 6401   2.500   3.626   0.641
 1834SOL    HW2 6402   2.382   3.650   0.751
 1835SOL     OW 6403   0.532   4.930   2.426
 1835SOL    HW1 6404   0.508   5.015   2.380
 1835SOL    HW2 6405   0.573   4.950   2.515
 1836SOL     OW 6406   5.343   2.177   1.339
 1836SOL    HW1 6407   5.328   2.212   1.432
 1836SOL    HW2 6408   5.255   2.156   1.297
 1837SOL     OW 6409   0.967   0.262   4.479
 1837SOL    HW1 6410   0.891   0.269   4.414
 1837SOL    HW2 6411   1.052   0.284   4.431
 1838SOL     OW 6412   6.640   1.204   5.836
 1838SOL    HW1 6413   6.684   1.280   5.790
 1838SOL    HW2 6414   6.616   1.133   5.769
 1839SOL     OW 6415   0.010   2.031   5.121
 1839SOL    HW1 6416   0.037   1.934   5.118
 1839SOL    HW2 6417   6.933   2.038   5.138
 1840SOL     OW 6418   3.782   0.366   1.537
 1840SOL    HW1 6419   3.693   0.352   1.582
 1840SOL    HW2 6420   3.838   0.284   1.547
 1841SOL     OW 6421   2.034   1.376   3.747
 1841SOL    HW1 6422   2.102   1.362   3.819
 1841SOL    HW2 6423   1.945   1.393   3.788
 1842SOL     OW 6424   1.230   5.700   0.139
 1842SOL    HW1 6425   1.204   5.697   0.236
 1842SOL    HW2 6426   1.319   5.745   0.130
 1843SOL     OW 6427   6.089   1.542   3.743
 1843SOL    HW1 6428   6.179   1.579   3.769
 1843SOL    HW2 6429   6.101   1.467   3.678
 1844SOL     OW 6430   3.137   6.361   5.323
 1844SOL    HW1 6431   3.172   6.274   5.357
 1844SOL    HW2 6432   3.037   6.355   5.311
 1845SOL     OW 6433   3.162   6.870   4.764
 1845SOL    HW1 6434   3.222   6.890   4.686
 1845SOL    HW2 6435   3.145   6.955   4.814
 1846SOL     OW 6436   3.235   1.515   1.904
 1846SOL    HW1 6437   3.181   1.431   1.916
 1846SOL    HW2 6438   3.331   1.491   1.894
 1847SOL     OW 6439   1.428   0.749   6.540
 1847SOL    HW1 6440   1.408   0.747   6.638
 1847SOL    HW2 6441   1.384   0.672   6.495
 1848SOL     OW 6442   2.020   6.109   3.586
 1848SOL    HW1 6443   1.923   6.118   3.610
 1848SOL    HW2 6444   2.028   6.077   3.491
 1849SOL     OW 6445   4.324   2.721   1.588
 1849SOL    HW1 6446   4.393   2.658   1.623
 1849SOL    HW2 6447   4.255   2.670   1.536
 1850SOL     OW 6448   0.648   2.778   2.366
 1850SOL    HW1 6449   0.590   2.720   2.308
 1850SOL    HW2 6450   0.657   2.868   2.324
 1851SOL     OW 6451   0.364   3.243   0.328
 1851SOL    HW1 6452   0.345   3.329   0.280
 1851SOL    HW2 6453   0.318   3.168   0.281
 1852SOL     OW 6454   6.793   4.123   2.271
 1852SOL    HW1 6455   6.728   4.051   2.296
 1852SOL    HW2 6456   6.839   4.156   2.354
 1853SOL     OW 6457   0.590   2.555   3.388
 1853SOL    HW1 6458   0.505   2.592   3.426
 1853SOL    HW2 6459   0.596   2.457   3.410
 1854SOL     OW 6460   2.477   5.437   2.996
 1854SOL    HW1 6461   2.378   5.427   2.999
 1854SOL    HW2 6462   2.517   5.403   3.082
 1855SOL     OW 6463   5.178   3.139   5.476
 1855SOL    HW1 6464   5.191   3.121   5.573
 1855SOL    HW2 6465   5.265   3.162   5.434
 1856SOL     OW 6466   5.366   4.126   5.977
 1856SOL    HW1 6467   5.441   4.104   6.039
 1856SOL    HW2 6468   5.328   4.042   5.939
 1857SOL     OW 6469   4.180   2.061   6.430
 1857SOL    HW1 6470   4.234   2.062   6.515
 1857SOL    HW2 6471   4.110   1.990   6.436
 1858SOL     OW 6472   5.458   3.668   2.870
 1858SOL    HW1 6473   5.383   3.733   2.883
 1858SOL    HW2 6474   5.421   3.575   2.869
 1859SOL     OW 6475   4.693   1.928   4.126
 1859SOL    HW1 6476   4.674   1.972   4.214
 1859SOL    HW2 6477   4.609   1.921   4.073
 1860SOL     OW 6478   0.462   1.122   5.404
 1860SOL    HW1 6479   0.507   1.069   5.476
 1860SOL    HW2 6480   0.370   1.085   5.388
 1861SOL     OW 6481   6.640   6.520   1.927
 1861SOL    HW1 6482   6.714   6.473   1.976
 1861SOL    HW2 6483   6.584   6.570   1.993
 1862SOL     OW 6484   3.306   0.107   6.845
 1862SOL    HW1 6485   3.274   0.122   6.751
 1862SOL    HW2 6486   3.227   0.091   6.904
 1863SOL     OW 6487   0.482   2.776   3.223
 1863SOL    HW1 6488   0.553   2.722   3.268
 1863SOL    HW2 6489   0.502   2.873   3.235
 1864SOL     OW 6490   1.682   6.500   5.139
 1864SOL    HW1 6491   1.724   6.591   5.146
 1864SOL    HW2 6492   1.697   6.449   5.224
 1865SOL     OW 6493   4.125   6.734   0.119
 1865SOL    HW1 6494   4.053   6.693   0.063
 1865SOL    HW2 6495   4.093   6.821   0.157
 1866SOL     OW 6496   5.889   5.048   3.534
 1866SOL    HW1 6497   5.968   5.036   3.474
 1866SOL    HW2 6498   5.861   5.144   3.533
 1867SOL     OW 6499   0.640   4.091   0.123
 1867SOL    HW1 6500   0.650   3.995   0.148
 1867SOL    HW2 6501   0.543   4.113   0.116
 1868SOL     OW 6502   4.693   3.447   6.634
 1868SOL    HW1 6503   4.676   3.349   6.622
 1868SOL    HW2 6504   4.641   3.480   6.713
 1869SOL     OW 6505   6.790   3.173   4.775
 1869SOL    HW1 6506   6.851   3.251   4.764
 1869SOL    HW2 6507   6.695   3.205   4.769
 1870SOL     OW 6508   1.816   2.857   4.945
 1870SOL    HW1 6509   1.840   2.951   4.923
 1870SOL    HW2 6510   1.772   2.814   4.866
 1871SOL     OW 6511   0.711   0.786   0.067
 1871SOL    HW1 6512   0.645   0.840   0.119
 1871SOL    HW2 6513   0.758   0.845   0.001
 1872SOL     OW 6514   4.498   1.883   0.192
 1872SOL    HW1 6515   4.508   1.970   0.145
 1872SOL    HW2 6516   4.564   1.877   0.267
 1873SOL     OW 6517   5.793   1.418   5.897
 1873SOL    HW1 6518   5.749   1.507   5.885
 1873SOL    HW2 6519   5.869   1.427   5.962
 1874SOL     OW 6520   2.159   1.075   0.237
 1874SOL    HW1 6521   2.161   1.077   0.137
 1874SOL    HW2 6522   2.252   1.085   0.272
 1875SOL     OW 6523   0.114   0.608   0.630
 1875SOL    HW1 6524   0.200   0.649   0.601
 1875SOL    HW2 6525   0.097   0.630   0.726
 1876SOL     OW 6526   3.089   6.267   5.791
 1876SOL    HW1 6527   3.071   6.174   5.758
 1876SOL    HW2 6528   3.174   6.301   5.749
 1877SOL     OW 6529   0.296   1.728   3.122
 1877SOL    HW1 6530   0.229   1.767   3.059
 1877SOL    HW2 6531   0.386   1.768   3.105
 1878SOL     OW 6532   6.165   3.173   3.961
 1878SOL    HW1 6533   6.251   3.132   3.991
 1878SOL    HW2 6534   6.130   3.232   4.034
 1879SOL     OW 6535   1.950   5.425   3.450
 1879SOL    HW1 6536   1.916   5.382   3.534
 1879SOL    HW2 6537   2.046   5.449   3.461
 1880SOL     OW 6538   0.095   1.749   4.344
 1880SOL    HW1 6539   0.038   1.670   4.322
 1880SOL    HW2 6540   0.165   1.761   4.274
 1881SOL     OW 6541   1.040   2.781   2.791
 1881SOL    HW1 6542   0.955   2.813   2.832
 1881SOL    HW2 6543   1.030   2.778   2.691
 1882SOL     OW 6544   0.982   3.832   6.986
 1882SOL    HW1 6545   0.981   3.754   6.924
 1882SOL    HW2 6546   0.990   3.917   6.933
 1883SOL     OW 6547   1.312   3.178   3.677
 1883SOL    HW1 6548   1.263   3.091   3.687
 1883SOL    HW2 6549   1.340   3.189   3.581
 1884SOL     OW 6550   5.900   2.597   6.777
 1884SOL    HW1 6551   5.848   2.545   6.708
 1884SOL    HW2 6552   5.988   2.552   6.793
 1885SOL     OW 6553   0.467   2.513   6.490
 1885SOL    HW1 6554   0.420   2.513   6.401
 1885SOL    HW2 6555   0.448   2.427   6.537
 1886SOL     OW 6556   2.049   1.235   1.555
 1886SOL    HW1 6557   2.139   1.219   1.595
 1886SOL    HW2 6558   2.053   1.219   1.456
 1887SOL     OW 6559   1.070   5.823   6.280
 1887SOL    HW1 6560   0.997   5.801   6.216
 1887SOL    HW2 6561   1.100   5.917   6.264
 1888SOL     OW 6562   2.891   2.338   6.500
 1888SOL    HW1 6563   2.820   2.353   6.569
 1888SOL    HW2 6564   2.976   2.381   6.530
 1889SOL     OW 6565   5.559   2.870   6.576
 1889SOL    HW1 6566   5.636   2.872   6.513
 1889SOL    HW2 6567   5.493   2.802   6.546
 1890SOL     OW 6568   1.396   5.623   5.174
 1890SOL    HW1 6569   1.307   5.639   5.130
 1890SOL    HW2 6570   1.405   5.526   5.196
 1891SOL     OW 6571   5.506   2.277   3.117
 1891SOL    HW1 6572   5.443   2.262   3.193
 1891SOL    HW2 6573   5.600   2.274   3.150
 1892SOL     OW 6574   3.797   0.604   0.670
 1892SOL    HW1 6575   3.783   0.699   0.698
 1892SOL    HW2 6576   3.863   0.561   0.732
 1893SOL     OW 6577   3.441   2.822   6.439
 1893SOL    HW1 6578   3.527   2.872   6.424
 1893SOL    HW2 6579   3.461   2.726   6.458
 1894SOL     OW 6580   3.769   3.564   3.171
 1894SOL    HW1 6581   3.727   3.629   3.108
 1894SOL    HW2 6582   3.775   3.475   3.127
 1895SOL     OW 6583   5.953   0.953   2.432
 1895SOL    HW1 6584   5.885   0.889   2.396
 1895SOL    HW2 6585   6.015   0.980   2.359
 1896SOL     OW 6586   0.334   0.579   2.305
 1896SOL    HW1 6587   0.252   0.528   2.281
 1896SOL    HW2 6588   0.397   0.519   2.355
 1897SOL     OW 6589   1.190   4.612   2.520
 1897SOL    HW1 6590   1.153   4.591   2.429
 1897SOL    HW2 6591   1.221   4.528   2.564
 1898SOL     OW 6592   3.437   4.881   2.535
 1898SOL    HW1 6593   3.360   4.845   2.588
 1898SOL    HW2 6594   3.406   4.961   2.483
 1899SOL     OW 6595   1.048   1.717   2.358
 1899SOL    HW1 6596   0.985   1.794   2.345
 1899SOL    HW2 6597   1.009   1.651   2.422
 1900SOL     OW 6598   1.256   0.104   5.866
 1900SOL    HW1 6599   1.311   0.118   5.783
 1900SOL    HW2 6600   1.282   0.172   5.935
 1901SOL     OW 6601   2.310   1.625   1.727
 1901SOL    HW1 6602   2.249   1.658   1.799
 1901SOL    HW2 6603   2.255   1.598   1.647
 1902SOL     OW 6604   2.344   2.515   4.923
 1902SOL    HW1 6605   2.435   2.499   4.885
 1902SOL    HW2 6606   2.327   2.613   4.929
 1903SOL     OW 6607   6.446   3.062   3.292
 1903SOL    HW1 6608   6.382   2.997   3.332
 1903SOL    HW2 6609   6.407   3.154   3.295
 1904SOL     OW 6610   5.790   6.821   4.779
 1904SOL    HW1 6611   5.748   6.883   4.712
 1904SOL    HW2 6612   5.886   6.845   4.790
 1905SOL     OW 6613   2.045   1.013   3.972
 1905SOL    HW1 6614   2.041   1.071   3.890
 1905SOL    HW2 6615   1.964   0.954   3.974
 1906SOL     OW 6616   2.473   0.131   5.267
 1906SOL    HW1 6617   2.512   0.043   5.239
 1906SOL    HW2 6618   2.542   0.184   5.317
 1907SOL     OW 6619   3.578   6.524   3.116
 1907SOL    HW1 6620   3.592   6.519   3.017
 1907SOL    HW2 6621   3.651   6.476   3.163
 1908SOL     OW 6622   3.916   0.397   5.361
 1908SOL    HW1 6623   3.834   0.359   5.318
 1908SOL    HW2 6624   3.992   0.393   5.296
 1909SOL     OW 6625   0.718   4.229   2.779
 1909SOL    HW1 6626   0.809   4.267   2.794
 1909SOL    HW2 6627   0.719   4.131   2.798
 1910SOL     OW 6628   6.921   3.048   6.366
 1910SOL    HW1 6629   6.897   3.144   6.378
 1910SOL    HW2 6630   6.849   3.001   6.315
 1911SOL     OW 6631   5.504   3.616   5.116
 1911SOL    HW1 6632   5.423   3.594   5.062
 1911SOL    HW2 6633   5.480   3.687   5.183
 1912SOL     OW 6634   2.832   0.034   0.923
 1912SOL    HW1 6635   2.927   0.007   0.905
 1912SOL    HW2 6636   2.770   6.993   0.876
 1913SOL     OW 6637   1.017   5.942   5.316
 1913SOL    HW1 6638   1.112   5.974   5.319
 1913SOL    HW2 6639   0.980   5.938   5.408
 1914SOL     OW 6640   4.047   2.897   6.660
 1914SOL    HW1 6641   3.996   2.826   6.708
 1914SOL    HW2 6642   4.019   2.987   6.694
 1915SOL     OW 6643   3.693   2.165   5.088
 1915SOL    HW1 6644   3.680   2.143   5.185
 1915SOL    HW2 6645   3.614   2.134   5.036
 1916SOL     OW 6646   3.462   5.736   1.085
 1916SOL    HW1 6647   3.431   5.646   1.053
 1916SOL    HW2 6648   3.477   5.733   1.183
 1917SOL     OW 6649   2.932   3.198   4.803
 1917SOL    HW1 6650   2.835   3.217   4.819
 1917SOL    HW2 6651   2.979   3.193   4.891
 1918SOL     OW 6652   0.729   1.181   5.939
 1918SOL    HW1 6653   0.653   1.117   5.949
 1918SOL    HW2 6654   0.753   1.188   5.842
 1919SOL     OW 6655   2.556   0.817   1.675
 1919SOL    HW1 6656   2.579   0.762   1.756
 1919SOL    HW2 6657   2.459   0.839   1.676
 1920SOL     OW 6658   1.885   4.765   2.519
 1920SOL    HW1 6659   1.862   4.743   2.614
 1920SOL    HW2 6660   1.881   4.864   2.506
 1921SOL     OW 6661   1.135   4.808   0.183
 1921SOL    HW1 6662   1.129   4.898   0.225
 1921SOL    HW2 6663   1.153   4.818   0.085
 1922SOL     OW 6664   2.621   4.562   0.688
 1922SOL    HW1 6665   2.688   4.488   0.684
 1922SOL    HW2 6666   2.541   4.533   0.740
 1923SOL     OW 6667   2.909   0.596   5.794
 1923SOL    HW1 6668   2.915   0.550   5.705
 1923SOL    HW2 6669   2.840   0.668   5.789
 1924SOL     OW 6670   4.390   5.405   1.489
 1924SOL    HW1 6671   4.406   5.504   1.494
 1924SOL    HW2 6672   4.450   5.359   1.554
 1925SOL     OW 6673   1.797   4.485   0.472
 1925SOL    HW1 6674   1.802   4.386   0.460
 1925SOL    HW2 6675   1.871   4.528   0.420
 1926SOL     OW 6676   2.163   6.757   3.317
 1926SOL    HW1 6677   2.195   6.793   3.405
 1926SOL    HW2 6678   2.191   6.819   3.244
 1927SOL     OW 6679   3.323   3.991   6.331
 1927SOL    HW1 6680   3.298   4.084   6.358
 1927SOL    HW2 6681   3.388   3.994   6.255
 1928SOL     OW 6682   6.451   4.546   5.999
 1928SOL    HW1 6683   6.389   4.476   5.964
 1928SOL    HW2 6684   6.490   4.598   5.922
 1929SOL     OW 6685   0.837   5.231   1.261
 1929SOL    HW1 6686   0.782   5.177   1.325
 1929SOL    HW2 6687   0.930   5.239   1.295
 1930SOL     OW 6688   3.375   3.893   6.591
 1930SOL    HW1 6689   3.324   3.941   6.521
 1930SOL    HW2 6690   3.361   3.795   6.583
 1931SOL     OW 6691   0.536   3.457   2.851
 1931SOL    HW1 6692   0.461   3.518   2.825
 1931SOL    HW2 6693   0.499   3.371   2.884
 1932SOL     OW 6694   4.912   3.706   3.396
 1932SOL    HW1 6695   4.944   3.714   3.490
 1932SOL    HW2 6696   4.900   3.609   3.373
 1933SOL     OW 6697   2.081   4.330   0.671
 1933SOL    HW1 6698   2.073   4.283   0.583
 1933SOL    HW2 6699   2.177   4.341   0.695
 1934SOL     OW 6700   0.450   6.944   5.339
 1934SOL    HW1 6701   0.477   6.848   5.331
 1934SOL    HW2 6702   0.356   6.955   5.305
 1935SOL     OW 6703   4.504   5.986   3.809
 1935SOL    HW1 6704   4.473   5.933   3.730
 1935SOL    HW2 6705   4.593   5.952   3.840
 1936SOL     OW 6706   5.977   3.845   3.956
 1936SOL    HW1 6707   6.001   3.915   3.888
 1936SOL    HW2 6708   5.891   3.802   3.930
 1937SOL     OW 6709   3.787   0.059   1.165
 1937SOL    HW1 6710   3.885   0.040   1.177
 1937SOL    HW2 6711   3.738   0.033   1.248
 1938SOL     OW 6712   1.732   1.932   1.324
 1938SOL    HW1 6713   1.755   2.001   1.255
 1938SOL    HW2 6714   1.792   1.853   1.312
 1939SOL     OW 6715   6.763   0.124   4.909
 1939SOL    HW1 6716   6.734   0.081   4.994
 1939SOL    HW2 6717   6.763   0.223   4.920
 1940SOL     OW 6718   5.178   4.792   0.745
 1940SOL    HW1 6719   5.166   4.802   0.646
 1940SOL    HW2 6720   5.117   4.721   0.779
 1941SOL     OW 6721   0.447   3.954   3.622
 1941SOL    HW1 6722   0.535   3.956   3.670
 1941SOL    HW2 6723   0.446   3.876   3.559
 1942SOL     OW 6724   5.414   1.304   1.086
 1942SOL    HW1 6725   5.421   1.401   1.109
 1942SOL    HW2 6726   5.465   1.250   1.152
 1943SOL     OW 6727   2.590   6.098   3.152
 1943SOL    HW1 6728   2.597   6.181   3.207
 1943SOL    HW2 6729   2.546   6.120   3.064
 1944SOL     OW 6730   6.353   2.775   0.060
 1944SOL    HW1 6731   6.406   2.789   6.997
 1944SOL    HW2 6732   6.391   2.833   0.133
 1945SOL     OW 6733   4.050   5.486   1.020
 1945SOL    HW1 6734   4.005   5.512   1.105
 1945SOL    HW2 6735   4.147   5.467   1.038
 1946SOL     OW 6736   6.424   7.002   0.973
 1946SOL    HW1 6737   6.515   7.019   0.935
 1946SOL    HW2 6738   6.404   0.048   1.045
 1947SOL     OW 6739   5.123   6.226   5.135
 1947SOL    HW1 6740   5.156   6.313   5.100
 1947SOL    HW2 6741   5.197   6.159   5.135
 1948SOL     OW 6742   5.643   5.585   4.137
 1948SOL    HW1 6743   5.711   5.513   4.144
 1948SOL    HW2 6744   5.679   5.661   4.083
 1949SOL     OW 6745   3.341   4.409   6.326
 1949SOL    HW1 6746   3.274   4.478   6.354
 1949SOL    HW2 6747   3.344   4.336   6.395
 1950SOL     OW 6748   3.817   4.257   6.959
 1950SOL    HW1 6749   3.732   4.308   6.945
 1950SOL    HW2 6750   3.834   4.200   6.879
 1951SOL     OW 6751   6.303   3.149   0.061
 1951SOL    HW1 6752   6.267   3.093   0.136
 1951SOL    HW2 6753   6.235   3.156   7.010
 1952SOL     OW 6754   4.724   3.240   0.918
 1952SOL    HW1 6755   4.777   3.317   0.954
 1952SOL    HW2 6756   4.762   3.154   0.951
 1953SOL     OW 6757   6.666   1.446   5.634
 1953SOL    HW1 6758   6.573   1.441   5.671
 1953SOL    HW2 6759   6.712   1.526   5.674
 1954SOL     OW 6760   6.172   0.536   2.982
 1954SOL    HW1 6761   6.141   0.629   2.963
 1954SOL    HW2 6762   6.170   0.521   3.081
 1955SOL     OW 6763   0.547   1.069   2.829
 1955SOL    HW1 6764   0.633   1.047   2.784
 1955SOL    HW2 6765   0.475   1.080   2.760
 1956SOL     OW 6766   5.279   6.984   2.649
 1956SOL    HW1 6767   5.289   6.963   2.746
 1956SOL    HW2 6768   5.365   7.020   2.612
 1957SOL     OW 6769   5.695   4.451   4.230
 1957SOL    HW1 6770   5.677   4.417   4.138
 1957SOL    HW2 6771   5.741   4.380   4.284
 1958SOL     OW 6772   5.016   2.087   2.267
 1958SOL    HW1 6773   5.094   2.090   2.331
 1958SOL    HW2 6774   5.050   2.094   2.174
 1959SOL     OW 6775   1.048   0.589   4.471
 1959SOL    HW1 6776   1.131   0.598   4.525
 1959SOL    HW2 6777   1.071   0.586   4.374
 1960SOL     OW 6778   6.728   4.557   2.388
 1960SOL    HW1 6779   6.669   4.540   2.467
 1960SOL    HW2 6780   6.740   4.656   2.376
 1961SOL     OW 6781   5.968   4.107   3.430
 1961SOL    HW1 6782   6.026   4.176   3.475
 1961SOL    HW2 6783   5.987   4.017   3.470
 1962SOL     OW 6784   1.476   6.618   3.659
 1962SOL    HW1 6785   1.415   6.560   3.713
 1962SOL    HW2 6786   1.565   6.624   3.704
 1963SOL     OW 6787   0.866   2.216   0.929
 1963SOL    HW1 6788   0.927   2.143   0.898
 1963SOL    HW2 6789   0.817   2.254   0.851
 1964SOL     OW 6790   4.510   4.641   0.723
 1964SOL    HW1 6791   4.440   4.708   0.746
 1964SOL    HW2 6792   4.554   4.608   0.806
 1965SOL     OW 6793   1.896   3.019   4.468
 1965SOL    HW1 6794   1.930   3.031   4.561
 1965SOL    HW2 6795   1.958   3.064   4.404
 1966SOL     OW 6796   0.161   6.451   0.960
 1966SOL    HW1 6797   0.165   6.540   0.916
 1966SOL    HW2 6798   0.132   6.382   0.894
 1967SOL     OW 6799   5.775   2.743   5.992
 1967SOL    HW1 6800   5.819   2.703   6.073
 1967SOL    HW2 6801   5.688   2.696   5.975
 1968SOL     OW 6802   1.759   6.381   6.032
 1968SOL    HW1 6803   1.833   6.362   5.968
 1968SOL    HW2 6804   1.791   6.447   6.101
 1969SOL     OW 6805   0.527   1.471   1.352
 1969SOL    HW1 6806   0.433   1.448   1.376
 1969SOL    HW2 6807   0.561   1.542   1.413
 1970SOL     OW 6808   2.834   6.279   5.948
 1970SOL    HW1 6809   2.929   6.298   5.922
 1970SOL    HW2 6810   2.788   6.365   5.972
 1971SOL     OW 6811   0.481   0.023   5.714
 1971SOL    HW1 6812   0.520   6.975   5.654
 1971SOL    HW2 6813   0.485   7.012   5.809
 1972SOL     OW 6814   5.941   2.189   2.022
 1972SOL    HW1 6815   5.892   2.102   2.015
 1972SOL    HW2 6816   6.026   2.183   1.970
 1973SOL     OW 6817   3.430   3.003   0.040
 1973SOL    HW1 6818   3.424   3.032   6.966
 1973SOL    HW2 6819   3.361   2.934   0.058
 1974SOL     OW 6820   6.049   6.901   5.330
 1974SOL    HW1 6821   6.101   6.980   5.297
 1974SOL    HW2 6822   6.102   6.817   5.314
 1975SOL     OW 6823   1.795   1.420   3.917
 1975SOL    HW1 6824   1.764   1.509   3.884
 1975SOL    HW2 6825   1.784   1.414   4.016
 1976SOL     OW 6826   0.113   0.036   0.073
 1976SOL    HW1 6827   0.044   0.101   0.041
 1976SOL    HW2 6828   0.082   6.964   0.056
 1977SOL     OW 6829   1.154   3.105   4.967
 1977SOL    HW1 6830   1.228   3.148   5.019
 1977SOL    HW2 6831   1.158   3.134   4.872
 1978SOL     OW 6832   2.104   6.260   2.958
 1978SOL    HW1 6833   2.067   6.348   2.987
 1978SOL    HW2 6834   2.188   6.241   3.009
 1979SOL     OW 6835   6.104   4.093   6.253
 1979SOL    HW1 6836   6.074   4.000   6.233
 1979SOL    HW2 6837   6.145   4.097   6.344
 1980SOL     OW 6838   3.377   0.217   4.671
 1980SOL    HW1 6839   3.392   0.254   4.763
 1980SOL    HW2 6840   3.458   0.236   4.615
 1981SOL     OW 6841   0.230   2.437   2.646
 1981SOL    HW1 6842   0.298   2.476   2.585
 1981SOL    HW2 6843   0.275   2.374   2.710
 1982SOL     OW 6844   0.271   4.332   4.412
 1982SOL    HW1 6845   0.312   4.394   4.345
 1982SOL    HW2 6846   0.239   4.384   4.491
 1983SOL     OW 6847   1.168   0.760   2.915
 1983SOL    HW1 6848   1.082   0.727   2.876
 1983SOL    HW2 6849   1.235   0.686   2.918
 1984SOL     OW 6850   5.025   1.646   5.204
 1984SOL    HW1 6851   5.071   1.661   5.291
 1984SOL    HW2 6852   4.927   1.666   5.214
 1985SOL     OW 6853   1.344   6.229   2.452
 1985SOL    HW1 6854   1.253   6.253   2.417
 1985SOL    HW2 6855   1.335   6.197   2.547
 1986SOL     OW 6856   2.221   1.327   6.586
 1986SOL    HW1 6857   2.151   1.365   6.647
 1986SOL    HW2 6858   2.184   1.318   6.493
 1987SOL     OW 6859   1.911   2.478   2.530
 1987SOL    HW1 6860   1.839   2.545   2.512
 1987SOL    HW2 6861   1.870   2.388   2.547
 1988SOL     OW 6862   6.484   3.897   1.050
 1988SOL    HW1 6863   6.540   3.979   1.039
 1988SOL    HW2 6864   6.494   3.839   0.969
 1989SOL     OW 6865   2.074   5.529   5.194
 1989SOL    HW1 6866   2.153   5.527   5.132
 1989SOL    HW2 6867   2.086   5.603   5.260
 1990SOL     OW 6868   3.751   6.104   0.572
 1990SOL    HW1 6869   3.731   6.091   0.474
 1990SOL    HW2 6870   3.672   6.077   0.626
 1991SOL     OW 6871   3.508   5.446   6.675
 1991SOL    HW1 6872   3.549   5.356   6.663
 1991SOL    HW2 6873   3.445   5.444   6.753
 1992SOL     OW 6874   0.351   0.759   0.606
 1992SOL    HW1 6875   0.315   0.830   0.666
 1992SOL    HW2 6876   0.447   0.778   0.585
 1993SOL     OW 6877   3.439   2.279   5.337
 1993SOL    HW1 6878   3.485   2.358   5.378
 1993SOL    HW2 6879   3.398   2.306   5.250
 1994SOL     OW 6880   0.846   1.374   0.364
 1994SOL    HW1 6881   0.825   1.303   0.431
 1994SOL    HW2 6882   0.783   1.452   0.377
 1995SOL     OW 6883   4.969   2.533   3.667
 1995SOL    HW1 6884   5.052   2.478   3.664
 1995SOL    HW2 6885   4.935   2.548   3.574
 1996SOL     OW 6886   2.108   3.010   0.504
 1996SOL    HW1 6887   2.133   3.053   0.591
 1996SOL    HW2 6888   2.103   3.081   0.433
 1997SOL     OW 6889   3.317   1.541   4.769
 1997SOL    HW1 6890   3.363   1.621   4.732
 1997SOL    HW2 6891   3.376   1.460   4.758
 1998SOL     OW 6892   2.626   4.636   6.849
 1998SOL    HW1 6893   2.543   4.689   6.830
 1998SOL    HW2 6894   2.611   4.578   6.929
 1999SOL     OW 6895   2.183   6.071   6.573
 1999SOL    HW1 6896   2.228   6.053   6.486
 1999SOL    HW2 6897   2.104   6.011   6.583
 2000SOL     OW 6898   4.300   2.564   5.443
 2000SOL    HW1 6899   4.295   2.587   5.345
 2000SOL    HW2 6900   4.211   2.532   5.474
 2001SOL     OW 6901   2.903   0.182   1.252
 2001SOL    HW1 6902   2.904   0.242   1.333
 2001SOL    HW2 6903   2.908   0.238   1.170
 2002SOL     OW 6904   0.526   4.515   7.015
 2002SOL    HW1 6905   0.562   4.608   7.015
 2002SOL    HW2 6906   0.537   4.474   0.084
 2003SOL     OW 6907   6.181   5.593   2.600
 2003SOL    HW1 6908   6.194   5.633   2.691
 2003SOL    HW2 6909   6.270   5.564   2.563
 2004SOL     OW 6910   4.609   1.819   5.015
 2004SOL    HW1 6911   4.663   1.747   5.057
 2004SOL    HW2 6912   4.667   1.874   4.954
 2005SOL     OW 6913   0.257   5.218   0.153
 2005SOL    HW1 6914   0.342   5.217   0.207
 2005SOL    HW2 6915   0.212   5.306   0.163
 2006SOL     OW 6916   5.801   0.266   3.315
 2006SOL    HW1 6917   5.866   0.249   3.241
 2006SOL    HW2 6918   5.821   0.354   3.358
 2007SOL     OW 6919   4.760   4.694   0.877
 2007SOL    HW1 6920   4.859   4.695   0.871
 2007SOL    HW2 6921   4.732   4.649   0.962
 2008SOL     OW 6922   2.308   4.668   3.722
 2008SOL    HW1 6923   2.321   4.754   3.771
 2008SOL    HW2 6924   2.237   4.614   3.766
 2009SOL     OW 6925   5.035   0.775   2.702
 2009SOL    HW1 6926   4.960   0.769   2.636
 2009SOL    HW2 6927   5.119   0.739   2.662
 2010SOL     OW 6928   1.971   2.104   1.747
 2010SOL    HW1 6929   2.025   2.027   1.780
 2010SOL    HW2 6930   2.005   2.189   1.789
 2011SOL     OW 6931   6.645   6.409   4.762
 2011SOL    HW1 6932   6.642   6.452   4.852
 2011SOL    HW2 6933   6.617   6.476   4.693
 2012SOL     OW 6934   1.537   4.119   2.546
 2012SOL    HW1 6935   1.451   4.074   2.572
 2012SOL    HW2 6936   1.589   4.058   2.486
 2013SOL     OW 6937   5.875   2.594   3.507
 2013SOL    HW1 6938   5.874   2.645   3.593
 2013SOL    HW2 6939   5.805   2.522   3.509
 2014SOL     OW 6940   2.699   5.917   3.660
 2014SOL    HW1 6941   2.624   5.967   3.705
 2014SOL    HW2 6942   2.784   5.967   3.672
 2015SOL     OW 6943   2.030   0.457   0.023
 2015SOL    HW1 6944   2.032   0.473   0.122
 2015SOL    HW2 6945   1.980   0.532   7.000
 2016SOL     OW 6946   1.843   5.788   6.194
 2016SOL    HW1 6947   1.750   5.822   6.210
 2016SOL    HW2 6948   1.874   5.734   6.272
 2017SOL     OW 6949   3.549   6.836   4.517
 2017SOL    HW1 6950   3.595   6.749   4.535
 2017SOL    HW2 6951   3.528   6.843   4.420
 2018SOL     OW 6952   5.121   1.148   5.533
 2018SOL    HW1 6953   5.072   1.062   5.518
 2018SOL    HW2 6954   5.147   1.156   5.629
 2019SOL     OW 6955   5.343   3.224   6.372
 2019SOL    HW1 6956   5.375   3.197   6.463
 2019SOL    HW2 6957   5.365   3.320   6.356
 2020SOL     OW 6958   1.779   6.946   5.399
 2020SOL    HW1 6959   1.706   6.954   5.331
 2020SOL    HW2 6960   1.758   6.872   5.462
 2021SOL     OW 6961   0.625   6.175   5.017
 2021SOL    HW1 6962   0.553   6.242   4.995
 2021SOL    HW2 6963   0.713   6.208   4.983
 2022SOL     OW 6964   1.208   3.726   3.671
 2022SOL    HW1 6965   1.306   3.742   3.658
 2022SOL    HW2 6966   1.159   3.812   3.662
 2023SOL     OW 6967   6.748   0.652   6.759
 2023SOL    HW1 6968   6.783   0.605   6.677
 2023SOL    HW2 6969   6.705   0.738   6.732
 2024SOL     OW 6970   6.958   6.578   3.713
 2024SOL    HW1 6971   6.996   6.669   3.730
 2024SOL    HW2 6972   6.988   6.515   3.784
 2025SOL     OW 6973   3.017   1.279   3.365
 2025SOL    HW1 6974   2.938   1.297   3.307
 2025SOL    HW2 6975   3.088   1.234   3.312
 2026SOL     OW 6976   6.923   3.092   5.424
 2026SOL    HW1 6977   6.974   3.178   5.425
 2026SOL    HW2 6978   6.834   3.106   5.467
 2027SOL     OW 6979   1.433   0.220   0.544
 2027SOL    HW1 6980   1.523   0.188   0.574
 2027SOL    HW2 6981   1.390   0.273   0.618
 2028SOL     OW 6982   2.920   5.955   4.996
 2028SOL    HW1 6983   2.829   5.935   5.031
 2028SOL    HW2 6984   2.929   6.053   4.979
 2029SOL     OW 6985   6.857   0.947   0.219
 2029SOL    HW1 6986   6.789   0.889   0.263
 2029SOL    HW2 6987   6.895   0.900   0.140
 2030SOL     OW 6988   2.897   0.790   3.151
 2030SOL    HW1 6989   2.930   0.696   3.164
 2030SOL    HW2 6990   2.816   0.788   3.093
 2031SOL     OW 6991   6.414   5.715   1.360
 2031SOL    HW1 6992   6.369   5.743   1.445
 2031SOL    HW2 6993   6.435   5.796   1.305
 2032SOL     OW 6994   4.928   0.665   2.261
 2032SOL    HW1 6995   4.958   0.749   2.306
 2032SOL    HW2 6996   4.867   0.687   2.185
 2033SOL     OW 6997   3.193   3.255   5.693
 2033SOL    HW1 6998   3.160   3.207   5.611
 2033SOL    HW2 6999   3.174   3.353   5.683
 2034SOL     OW 7000   2.341   5.348   5.888
 2034SOL    HW1 7001   2.333   5.440   5.927
 2034SOL    HW2 7002   2.261   5.329   5.831
 2035SOL     OW 7003   6.866   6.249   3.994
 2035SOL    HW1 7004   6.812   6.292   4.066
 2035SOL    HW2 7005   6.808   6.190   3.939
 2036SOL     OW 7006   1.299   4.459   2.819
 2036SOL    HW1 7007   1.220   4.453   2.879
 2036SOL    HW2 7008   1.380   4.424   2.866
 2037SOL     OW 7009   6.441   3.109   5.794
 2037SOL    HW1 7010   6.509   3.125   5.722
 2037SOL    HW2 7011   6.390   3.026   5.773
 2038SOL     OW 7012   1.792   2.253   0.140
 2038SOL    HW1 7013   1.745   2.225   0.224
 2038SOL    HW2 7014   1.788   2.353   0.132
 2039SOL     OW 7015   0.111   5.228   4.186
 2039SOL    HW1 7016   0.196   5.279   4.175
 2039SOL    HW2 7017   0.091   5.178   4.101
 2040SOL     OW 7018   2.692   3.384   5.673
 2040SOL    HW1 7019   2.723   3.411   5.582
 2040SOL    HW2 7020   2.642   3.459   5.715
 2041SOL     OW 7021   1.188   6.233   5.853
 2041SOL    HW1 7022   1.202   6.139   5.884
 2041SOL    HW2 7023   1.094   6.243   5.819
 2042SOL     OW 7024   4.466   6.476   7.010
 2042SOL    HW1 7025   4.390   6.453   0.050
 2042SOL    HW2 7026   4.548   6.427   0.018
 2043SOL     OW 7027   6.085   3.950   3.030
 2043SOL    HW1 7028   6.163   4.012   3.036
 2043SOL    HW2 7029   6.105   3.878   2.963
 2044SOL     OW 7030   6.867   0.483   2.275
 2044SOL    HW1 7031   6.888   0.559   2.213
 2044SOL    HW2 7032   6.934   0.410   2.262
 2045SOL     OW 7033   1.382   5.367   4.079
 2045SOL    HW1 7034   1.332   5.372   4.165
 2045SOL    HW2 7035   1.465   5.421   4.085
 2046SOL     OW 7036   6.993   2.185   4.046
 2046SOL    HW1 7037   6.940   2.194   4.130
 2046SOL    HW2 7038   0.064   2.222   4.061
 2047SOL     OW 7039   6.878   2.569   6.897
 2047SOL    HW1 7040   6.779   2.569   6.907
 2047SOL    HW2 7041   6.915   2.657   6.929
 2048SOL     OW 7042   1.979   6.759   5.788
 2048SOL    HW1 7043   2.027   6.847   5.795
 2048SOL    HW2 7044   2.046   6.685   5.784
 2049SOL     OW 7045   5.801   1.848   4.837
 2049SOL    HW1 7046   5.702   1.841   4.823
 2049SOL    HW2 7047   5.824   1.809   4.926
 2050SOL     OW 7048   6.380   2.193   4.026
 2050SOL    HW1 7049   6.478   2.191   4.010
 2050SOL    HW2 7050   6.347   2.099   4.043
 2051SOL     OW 7051   0.742   5.911   0.110
 2051SOL    HW1 7052   0.785   5.908   0.020
 2051SOL    HW2 7053   0.681   5.989   0.116
 2052SOL     OW 7054   1.479   3.168   1.006
 2052SOL    HW1 7055   1.463   3.167   1.104
 2052SOL    HW2 7056   1.413   3.108   0.961
 2053SOL     OW 7057   6.522   6.037   4.074
 2053SOL    HW1 7058   6.511   5.961   4.010
 2053SOL    HW2 7059   6.594   6.098   4.040
 2054SOL     OW 7060   3.379   4.144   3.138
 2054SOL    HW1 7061   3.401   4.178   3.230
 2054SOL    HW2 7062   3.458   4.159   3.078
 2055SOL     OW 7063   5.674   3.588   4.170
 2055SOL    HW1 7064   5.578   3.608   4.190
 2055SOL    HW2 7065   5.680   3.502   4.119
 2056SOL     OW 7066   4.393   5.521   2.193
 2056SOL    HW1 7067   4.331   5.442   2.194
 2056SOL    HW2 7068   4.349   5.598   2.238
 2057SOL     OW 7069   5.206   4.358   5.905
 2057SOL    HW1 7070   5.266   4.284   5.934
 2057SOL    HW2 7071   5.119   4.352   5.954
 2058SOL     OW 7072   0.175   0.661   3.124
 2058SOL    HW1 7073   0.157   0.621   3.213
 2058SOL    HW2 7074   0.167   0.760   3.129
 2059SOL     OW 7075   1.945   6.020   6.791
 2059SOL    HW1 7076   1.950   6.000   6.693
 2059SOL    HW2 7077   1.877   6.091   6.807
 2060SOL     OW 7078   0.397   4.187   1.353
 2060SOL    HW1 7079   0.355   4.190   1.444
 2060SOL    HW2 7080   0.474   4.123   1.355
 2061SOL     OW 7081   1.350   1.868   2.333
 2061SOL    HW1 7082   1.284   1.909   2.270
 2061SOL    HW2 7083   1.304   1.843   2.418
 2062SOL     OW 7084   6.481   5.737   4.769
 2062SOL    HW1 7085   6.496   5.719   4.671
 2062SOL    HW2 7086   6.542   5.809   4.799
 2063SOL     OW 7087   1.463   6.587   5.614
 2063SOL    HW1 7088   1.492   6.494   5.636
 2063SOL    HW2 7089   1.387   6.614   5.673
 2064SOL     OW 7090   0.722   2.657   5.154
 2064SOL    HW1 7091   0.821   2.651   5.165
 2064SOL    HW2 7092   0.698   2.748   5.119
 2065SOL     OW 7093   5.788   2.252   5.652
 2065SOL    HW1 7094   5.825   2.187   5.585
 2065SOL    HW2 7095   5.862   2.288   5.708
 2066SOL     OW 7096   0.442   4.449   4.215
 2066SOL    HW1 7097   0.395   4.441   4.127
 2066SOL    HW2 7098   0.541   4.447   4.201
 2067SOL     OW 7099   6.779   5.513   1.076
 2067SOL    HW1 7100   6.796   5.430   1.130
 2067SOL    HW2 7101   6.823   5.505   0.987
 2068SOL     OW 7102   2.371   0.235   4.326
 2068SOL    HW1 7103   2.356   0.264   4.232
 2068SOL    HW2 7104   2.338   0.306   4.389
 2069SOL     OW 7105   6.174   2.711   3.796
 2069SOL    HW1 7106   6.219   2.770   3.863
 2069SOL    HW2 7107   6.219   2.622   3.794
 2070SOL     OW 7108   1.098   0.916   1.244
 2070SOL    HW1 7109   1.096   0.835   1.302
 2070SOL    HW2 7110   1.152   0.897   1.162
 2071SOL     OW 7111   6.216   0.235   6.057
 2071SOL    HW1 7112   6.156   0.192   5.989
 2071SOL    HW2 7113   6.190   0.203   6.149
 2072SOL     OW 7114   4.281   5.006   3.958
 2072SOL    HW1 7115   4.321   5.054   4.036
 2072SOL    HW2 7116   4.352   4.956   3.908
 2073SOL     OW 7117   4.508   6.567   4.865
 2073SOL    HW1 7118   4.602   6.590   4.889
 2073SOL    HW2 7119   4.494   6.578   4.767
 2074SOL     OW 7120   2.050   2.282   6.307
 2074SOL    HW1 7121   2.033   2.350   6.235
 2074SOL    HW2 7122   2.106   2.208   6.270
 2075SOL     OW 7123   6.687   2.637   3.470
 2075SOL    HW1 7124   6.708   2.549   3.512
 2075SOL    HW2 7125   6.771   2.681   3.439
 2076SOL     OW 7126   5.556   0.126   6.079
 2076SOL    HW1 7127   5.556   0.138   6.178
 2076SOL    HW2 7128   5.494   0.192   6.037
 2077SOL     OW 7129   6.134   2.125   3.162
 2077SOL    HW1 7130   6.159   2.049   3.221
 2077SOL    HW2 7131   6.077   2.091   3.087
 2078SOL     OW 7132   1.458   5.685   5.985
 2078SOL    HW1 7133   1.484   5.603   5.935
 2078SOL    HW2 7134   1.363   5.708   5.963
 2079SOL     OW 7135   6.360   2.141   3.012
 2079SOL    HW1 7136   6.411   2.101   3.088
 2079SOL    HW2 7137   6.268   2.165   3.042
 2080SOL     OW 7138   1.910   0.331   4.844
 2080SOL    HW1 7139   1.931   0.263   4.915
 2080SOL    HW2 7140   1.859   0.288   4.770
 2081SOL     OW 7141   0.841   6.391   4.694
 2081SOL    HW1 7142   0.832   6.358   4.788
 2081SOL    HW2 7143   0.938   6.408   4.674
 2082SOL     OW 7144   0.399   6.605   3.174
 2082SOL    HW1 7145   0.434   6.695   3.198
 2082SOL    HW2 7146   0.418   6.541   3.248
 2083SOL     OW 7147   0.749   4.568   5.756
 2083SOL    HW1 7148   0.789   4.602   5.841
 2083SOL    HW2 7149   0.801   4.489   5.724
 2084SOL     OW 7150   0.698   4.578   3.201
 2084SOL    HW1 7151   0.646   4.616   3.124
 2084SOL    HW2 7152   0.694   4.642   3.278
 2085SOL     OW 7153   5.228   1.167   0.594
 2085SOL    HW1 7154   5.311   1.187   0.646
 2085SOL    HW2 7155   5.150   1.164   0.656
 2086SOL     OW 7156   3.881   0.175   6.462
 2086SOL    HW1 7157   3.813   0.196   6.392
 2086SOL    HW2 7158   3.914   0.081   6.450
 2087SOL     OW 7159   4.847   1.179   1.551
 2087SOL    HW1 7160   4.935   1.199   1.510
 2087SOL    HW2 7161   4.853   1.190   1.650
 2088SOL     OW 7162   1.027   6.018   6.780
 2088SOL    HW1 7163   0.968   6.080   6.831
 2088SOL    HW2 7164   0.997   5.924   6.795
 2089SOL     OW 7165   4.898   2.898   5.965
 2089SOL    HW1 7166   4.815   2.855   6.000
 2089SOL    HW2 7167   4.905   2.992   5.999
 2090SOL     OW 7168   4.112   3.539   6.197
 2090SOL    HW1 7169   4.146   3.490   6.117
 2090SOL    HW2 7170   4.014   3.525   6.206
 2091SOL     OW 7171   7.017   5.079   0.584
 2091SOL    HW1 7172   0.013   5.014   0.511
 2091SOL    HW2 7173   0.080   5.128   0.606
 2092SOL     OW 7174   5.071   3.732   0.307
 2092SOL    HW1 7175   5.062   3.693   0.216
 2092SOL    HW2 7176   5.007   3.807   0.318
 2093SOL     OW 7177   2.971   2.050   1.112
 2093SOL    HW1 7178   3.047   1.994   1.146
 2093SOL    HW2 7179   3.005   2.141   1.088
 2094SOL     OW 7180   5.738   1.710   2.055
 2094SOL    HW1 7181   5.832   1.712   2.090
 2094SOL    HW2 7182   5.685   1.643   2.107
 2095SOL     OW 7183   6.901   6.703   5.096
 2095SOL    HW1 7184   6.972   6.773   5.091
 2095SOL    HW2 7185   6.937   6.616   5.064
 2096SOL     OW 7186   4.963   4.556   3.130
 2096SOL    HW1 7187   4.870   4.567   3.095
 2096SOL    HW2 7188   4.976   4.461   3.161
 2097SOL     OW 7189   3.029   2.752   6.290
 2097SOL    HW1 7190   2.952   2.810   6.266
 2097SOL    HW2 7191   3.009   2.657   6.265
 2098SOL     OW 7192   4.695   5.901   1.913
 2098SOL    HW1 7193   4.604   5.913   1.952
 2098SOL    HW2 7194   4.742   5.990   1.911
 2099SOL     OW 7195   3.684   1.866   6.357
 2099SOL    HW1 7196   3.679   1.948   6.414
 2099SOL    HW2 7197   3.733   1.887   6.272
 2100SOL     OW 7198   5.133   1.984   0.373
 2100SOL    HW1 7199   5.187   1.934   0.441
 2100SOL    HW2 7200   5.193   2.041   0.317
 2101SOL     OW 7201   0.303   6.430   1.306
 2101SOL    HW1 7202   0.377   6.473   1.254
 2101SOL    HW2 7203   0.216   6.445   1.259
 2102SOL     OW 7204   4.972   4.265   2.448
 2102SOL    HW1 7205   5.033   4.288   2.525
 2102SOL    HW2 7206   5.027   4.233   2.371
 2103SOL     OW 7207   3.592   3.850   6.760
 2103SOL    HW1 7208   3.507   3.877   6.715
 2103SOL    HW2 7209   3.670   3.869   6.699
 2104SOL     OW 7210   1.787   4.410   2.466
 2104SOL    HW1 7211   1.777   4.509   2.454
 2104SOL    HW2 7212   1.778   4.388   2.563
 2105SOL     OW 7213   4.862   4.632   6.911
 2105SOL    HW1 7214   4.808   4.565   6.962
 2105SOL    HW2 7215   4.955   4.595   6.897
 2106SOL     OW 7216   5.890   3.486   1.223
 2106SOL    HW1 7217   5.902   3.404   1.167
 2106SOL    HW2 7218   5.938   3.563   1.180
 2107SOL     OW 7219   6.653   2.241   5.399
 2107SOL    HW1 7220   6.740   2.242   5.349
 2107SOL    HW2 7221   6.632   2.148   5.428
 2108SOL     OW 7222   5.980   5.429   5.213
 2108SOL    HW1 7223   5.946   5.429   5.118
 2108SOL    HW2 7224   6.035   5.511   5.227
 2109SOL     OW 7225   4.175   5.970   2.340
 2109SOL    HW1 7226   4.256   5.957   2.396
 2109SOL    HW2 7227   4.142   6.064   2.349
 2110SOL     OW 7228   3.019   0.613   0.489
 2110SOL    HW1 7229   3.047   0.627   0.394
 2110SOL    HW2 7230   2.946   0.677   0.512
 2111SOL     OW 7231   2.096   3.022   0.001
 2111SOL    HW1 7232   2.155   3.102   0.011
 2111SOL    HW2 7233   2.013   3.035   0.056
 2112SOL     OW 7234   5.338   2.248   0.921
 2112SOL    HW1 7235   5.241   2.245   0.946
 2112SOL    HW2 7236   5.392   2.199   0.989
 2113SOL     OW 7237   2.382   1.393   4.569
 2113SOL    HW1 7238   2.398   1.458   4.495
 2113SOL    HW2 7239   2.284   1.377   4.579
 2114SOL     OW 7240   2.424   1.810   6.608
 2114SOL    HW1 7241   2.500   1.773   6.555
 2114SOL    HW2 7242   2.415   1.760   6.694
 2115SOL     OW 7243   0.539   4.453   2.822
 2115SOL    HW1 7244   0.617   4.391   2.826
 2115SOL    HW2 7245   0.527   4.496   2.912
 2116SOL     OW 7246   0.857   4.012   2.475
 2116SOL    HW1 7247   0.884   3.945   2.406
 2116SOL    HW2 7248   0.764   4.045   2.454
 2117SOL     OW 7249   6.445   4.485   1.383
 2117SOL    HW1 7250   6.459   4.387   1.368
 2117SOL    HW2 7251   6.497   4.536   1.315
 2118SOL     OW 7252   5.929   3.147   3.148
 2118SOL    HW1 7253   5.955   3.117   3.056
 2118SOL    HW2 7254   5.928   3.068   3.210
 2119SOL     OW 7255   1.265   0.278   1.565
 2119SOL    HW1 7256   1.312   0.195   1.538
 2119SOL    HW2 7257   1.251   0.277   1.664
 2120SOL     OW 7258   0.674   4.318   3.284
 2120SOL    HW1 7259   0.684   4.414   3.258
 2120SOL    HW2 7260   0.577   4.296   3.293
 2121SOL     OW 7261   1.487   3.135   5.432
 2121SOL    HW1 7262   1.451   3.044   5.455
 2121SOL    HW2 7263   1.554   3.163   5.500
 2122SOL     OW 7264   6.110   5.547   6.713
 2122SOL    HW1 7265   6.049   5.622   6.737
 2122SOL    HW2 7266   6.095   5.521   6.618
 2123SOL     OW 7267   6.573   5.272   2.034
 2123SOL    HW1 7268   6.666   5.294   2.065
 2123SOL    HW2 7269   6.510   5.343   2.067
 2124SOL     OW 7270   3.170   1.739   1.088
 2124SOL    HW1 7271   3.184   1.790   1.003
 2124SOL    HW2 7272   3.146   1.803   1.161
 2125SOL     OW 7273   1.738   6.448   2.055
 2125SOL    HW1 7274   1.711   6.392   2.133
 2125SOL    HW2 7275   1.790   6.527   2.086
 2126SOL     OW 7276   4.038   2.886   6.392
 2126SOL    HW1 7277   4.006   2.798   6.358
 2126SOL    HW2 7278   4.046   2.883   6.492
 2127SOL     OW 7279   0.922   1.844   6.116
 2127SOL    HW1 7280   0.843   1.905   6.112
 2127SOL    HW2 7281   0.960   1.832   6.024
 2128SOL     OW 7282   6.230   2.703   3.184
 2128SOL    HW1 7283   6.262   2.785   3.137
 2128SOL    HW2 7284   6.306   2.664   3.237
 2129SOL     OW 7285   5.040   3.496   5.142
 2129SOL    HW1 7286   5.030   3.402   5.175
 2129SOL    HW2 7287   4.950   3.540   5.139
 2130SOL     OW 7288   3.034   6.800   3.138
 2130SOL    HW1 7289   3.131   6.823   3.142
 2130SOL    HW2 7290   2.987   6.862   3.075
 2131SOL     OW 7291   4.896   1.909   0.769
 2131SOL    HW1 7292   4.809   1.912   0.818
 2131SOL    HW2 7293   4.913   1.998   0.726
 2132SOL     OW 7294   3.219   1.225   0.386
 2132SOL    HW1 7295   3.123   1.231   0.361
 2132SOL    HW2 7296   3.254   1.134   0.364
 2133SOL     OW 7297   3.334   2.384   1.256
 2133SOL    HW1 7298   3.276   2.303   1.254
 2133SOL    HW2 7299   3.389   2.384   1.339
 2134SOL     OW 7300   0.902   0.922   4.149
 2134SOL    HW1 7301   1.001   0.933   4.149
 2134SOL    HW2 7302   0.876   0.855   4.219
 2135SOL     OW 7303   0.778   1.946   4.111
 2135SOL    HW1 7304   0.788   2.038   4.149
 2135SOL    HW2 7305   0.682   1.930   4.086
 2136SOL     OW 7306   1.005   4.188   4.421
 2136SOL    HW1 7307   1.027   4.228   4.509
 2136SOL    HW2 7308   1.041   4.095   4.416
 2137SOL     OW 7309   0.170   5.958   4.228
 2137SOL    HW1 7310   0.265   5.967   4.257
 2137SOL    HW2 7311   0.145   6.036   4.171
 2138SOL     OW 7312   6.872   0.923   1.433
 2138SOL    HW1 7313   6.914   0.853   1.491
 2138SOL    HW2 7314   6.801   0.880   1.377
 2139SOL     OW 7315   3.529   0.764   2.924
 2139SOL    HW1 7316   3.484   0.842   2.879
 2139SOL    HW2 7317   3.576   0.794   3.006
 2140SOL     OW 7318   3.298   5.890   3.310
 2140SOL    HW1 7319   3.380   5.932   3.270
 2140SOL    HW2 7320   3.217   5.922   3.260
 2141SOL     OW 7321   6.489   4.555   1.076
 2141SOL    HW1 7322   6.429   4.480   1.046
 2141SOL    HW2 7323   6.581   4.519   1.092
 2142SOL     OW 7324   1.345   2.005   3.001
 2142SOL    HW1 7325   1.382   2.000   2.908
 2142SOL    HW2 7326   1.245   2.007   2.997
 2143SOL     OW 7327   3.243   4.656   1.345
 2143SOL    HW1 7328   3.173   4.639   1.276
 2143SOL    HW2 7329   3.281   4.569   1.375
 2144SOL     OW 7330   1.724   5.621   3.026
 2144SOL    HW1 7331   1.630   5.586   3.021
 2144SOL    HW2 7332   1.758   5.611   3.120
 2145SOL     OW 7333   3.534   6.449   4.317
 2145SOL    HW1 7334   3.438   6.431   4.340
 2145SOL    HW2 7335   3.538   6.506   4.235
 2146SOL     OW 7336   2.600   3.613   1.729
 2146SOL    HW1 7337   2.552   3.700   1.717
 2146SOL    HW2 7338   2.542   3.550   1.781
 2147SOL     OW 7339   0.398   1.073   6.539
 2147SOL    HW1 7340   0.370   1.105   6.629
 2147SOL    HW2 7341   0.420   1.151   6.480
 2148SOL     OW 7342   5.238   2.423   4.339
 2148SOL    HW1 7343   5.193   2.479   4.409
 2148SOL    HW2 7344   5.228   2.467   4.250
 2149SOL     OW 7345   3.702   1.485   1.161
 2149SOL    HW1 7346   3.764   1.563   1.152
 2149SOL    HW2 7347   3.692   1.461   1.257
 2150SOL     OW 7348   2.513   2.391   2.233
 2150SOL    HW1 7349   2.497   2.465   2.299
 2150SOL    HW2 7350   2.526   2.305   2.281
 2151SOL     OW 7351   1.753   1.159   3.896
 2151SOL    HW1 7352   1.716   1.129   3.984
 2151SOL    HW2 7353   1.739   1.257   3.885
 2152SOL     OW 7354   3.817   6.708   1.273
 2152SOL    HW1 7355   3.756   6.630   1.290
 2152SOL    HW2 7356   3.799   6.746   1.182
 2153SOL     OW 7357   3.724   0.140   3.123
 2153SOL    HW1 7358   3.809   0.175   3.086
 2153SOL    HW2 7359   3.721   0.041   3.113
 2154SOL     OW 7360   5.034   0.501   4.684
 2154SOL    HW1 7361   5.103   0.489   4.755
 2154SOL    HW2 7362   5.078   0.529   4.599
 2155SOL     OW 7363   2.000   5.256   0.290
 2155SOL    HW1 7364   1.978   5.163   0.260
 2155SOL    HW2 7365   2.042   5.306   0.214
 2156SOL     OW 7366   2.444   0.621   2.619
 2156SOL    HW1 7367   2.440   0.696   2.684
 2156SOL    HW2 7368   2.352   0.584   2.605
 2157SOL     OW 7369   5.845   0.869   3.238
 2157SOL    HW1 7370   5.937   0.879   3.201
 2157SOL    HW2 7371   5.795   0.955   3.226
 2158SOL     OW 7372   3.788   6.597   0.911
 2158SOL    HW1 7373   3.770   6.516   0.854
 2158SOL    HW2 7374   3.886   6.609   0.921
 2159SOL     OW 7375   2.451   6.345   5.540
 2159SOL    HW1 7376   2.476   6.248   5.537
 2159SOL    HW2 7377   2.470   6.382   5.631
 2160SOL     OW 7378   4.572   3.425   1.155
 2160SOL    HW1 7379   4.526   3.338   1.140
 2160SOL    HW2 7380   4.670   3.413   1.146
 2161SOL     OW 7381   5.210   3.792   3.700
 2161SOL    HW1 7382   5.233   3.826   3.609
 2161SOL    HW2 7383   5.272   3.716   3.723
 2162SOL     OW 7384   2.821   0.827   0.475
 2162SOL    HW1 7385   2.800   0.923   0.461
 2162SOL    HW2 7386   2.757   0.770   0.424
 2163SOL     OW 7387   6.907   4.557   6.304
 2163SOL    HW1 7388   7.005   4.578   6.294
 2163SOL    HW2 7389   6.859   4.580   6.219
 2164SOL     OW 7390   1.579   2.495   0.320
 2164SOL    HW1 7391   1.484   2.468   0.335
 2164SOL    HW2 7392   1.594   2.586   0.359
 2165SOL     OW 7393   1.247   1.847   2.577
 2165SOL    HW1 7394   1.206   1.908   2.646
 2165SOL    HW2 7395   1.218   1.753   2.594
 2166SOL     OW 7396   1.775   2.336   5.320
 2166SOL    HW1 7397   1.856   2.394   5.332
 2166SOL    HW2 7398   1.760   2.322   5.222
 2167SOL     OW 7399   1.396   0.800   3.581
 2167SOL    HW1 7400   1.366   0.708   3.558
 2167SOL    HW2 7401   1.369   0.863   3.508
 2168SOL     OW 7402   0.613   1.585   3.552
 2168SOL    HW1 7403   0.558   1.582   3.468
 2168SOL    HW2 7404   0.645   1.493   3.574
 2169SOL     OW 7405   5.502   2.116   5.596
 2169SOL    HW1 7406   5.522   2.128   5.499
 2169SOL    HW2 7407   5.426   2.176   5.621
 2170SOL     OW 7408   5.903   4.863   5.823
 2170SOL    HW1 7409   5.935   4.769   5.809
 2170SOL    HW2 7410   5.838   4.887   5.751
 2171SOL     OW 7411   6.506   3.162   1.688
 2171SOL    HW1 7412   6.495   3.253   1.648
 2171SOL    HW2 7413   6.442   3.098   1.646
 2172SOL     OW 7414   2.794   1.854   0.346
 2172SOL    HW1 7415   2.815   1.944   0.385
 2172SOL    HW2 7416   2.784   1.863   0.247
 2173SOL     OW 7417   4.279   0.072   5.621
 2173SOL    HW1 7418   4.271   0.063   5.720
 2173SOL    HW2 7419   4.375   0.088   5.597
 2174SOL     OW 7420   5.726   5.353   5.926
 2174SOL    HW1 7421   5.753   5.424   5.862
 2174SOL    HW2 7422   5.646   5.383   5.977
 2175SOL     OW 7423   3.202   1.975   3.614
 2175SOL    HW1 7424   3.123   2.036   3.617
 2175SOL    HW2 7425   3.173   1.881   3.633
 2176SOL     OW 7426   0.636   3.313   6.993
 2176SOL    HW1 7427   0.651   3.223   6.952
 2176SOL    HW2 7428   0.697   3.325   0.049
 2177SOL     OW 7429   6.710   1.036   3.599
 2177SOL    HW1 7430   6.729   0.942   3.569
 2177SOL    HW2 7431   6.759   1.053   3.685
 2178SOL     OW 7432   1.527   4.087   0.351
 2178SOL    HW1 7433   1.480   4.045   0.429
 2178SOL    HW2 7434   1.505   4.036   0.268
 2179SOL     OW 7435   1.602   5.701   4.808
 2179SOL    HW1 7436   1.568   5.792   4.785
 2179SOL    HW2 7437   1.554   5.633   4.754
 2180SOL     OW 7438   2.843   3.581   1.847
 2180SOL    HW1 7439   2.918   3.532   1.803
 2180SOL    HW2 7440   2.764   3.584   1.786
 2181SOL     OW 7441   4.902   4.349   5.421
 2181SOL    HW1 7442   4.900   4.249   5.417
 2181SOL    HW2 7443   4.981   4.383   5.370
 2182SOL     OW 7444   6.571   2.837   4.755
 2182SOL    HW1 7445   6.613   2.850   4.664
 2182SOL    HW2 7446   6.603   2.750   4.793
 2183SOL     OW 7447   3.503   3.198   6.508
 2183SOL    HW1 7448   3.539   3.289   6.532
 2183SOL    HW2 7449   3.543   3.130   6.570
 2184SOL     OW 7450   4.063   1.484   5.532
 2184SOL    HW1 7451   4.059   1.570   5.583
 2184SOL    HW2 7452   4.152   1.441   5.546
 2185SOL     OW 7453   1.506   2.132   0.422
 2185SOL    HW1 7454   1.452   2.156   0.342
 2185SOL    HW2 7455   1.444   2.113   0.499
 2186SOL     OW 7456   6.924   4.831   2.390
 2186SOL    HW1 7457   6.977   4.833   2.305
 2186SOL    HW2 7458   6.969   4.771   2.456
 2187SOL     OW 7459   0.582   2.015   2.008
 2187SOL    HW1 7460   0.664   2.049   2.054
 2187SOL    HW2 7461   0.520   1.976   2.076
 2188SOL     OW 7462   5.268   6.330   4.156
 2188SOL    HW1 7463   5.347   6.314   4.215
 2188SOL    HW2 7464   5.195   6.373   4.209
 2189SOL     OW 7465   1.700   6.650   6.965
 2189SOL    HW1 7466   1.605   6.651   6.996
 2189SOL    HW2 7467   1.740   6.741   6.980
 2190SOL     OW 7468   0.632   3.041   2.271
 2190SOL    HW1 7469   0.627   3.131   2.314
 2190SOL    HW2 7470   0.553   3.028   2.211
 2191SOL     OW 7471   3.097   1.600   6.626
 2191SOL    HW1 7472   3.086   1.534   6.551
 2191SOL    HW2 7473   3.194   1.610   6.648
 2192SOL     OW 7474   3.834   6.988   3.547
 2192SOL    HW1 7475   3.821   0.038   3.479
 2192SOL    HW2 7476   3.746   6.963   3.587
 2193SOL     OW 7477   0.349   6.075   6.504
 2193SOL    HW1 7478   0.444   6.061   6.476
 2193SOL    HW2 7479   0.314   5.992   6.548
 2194SOL     OW 7480   2.400   4.817   6.827
 2194SOL    HW1 7481   2.467   4.889   6.841
 2194SOL    HW2 7482   2.308   4.854   6.841
 2195SOL     OW 7483   6.982   6.904   3.529
 2195SOL    HW1 7484   6.920   6.885   3.604
 2195SOL    HW2 7485   6.932   6.948   3.454
 2196SOL     OW 7486   3.609   6.980   5.646
 2196SOL    HW1 7487   3.512   6.955   5.645
 2196SOL    HW2 7488   3.619   0.055   5.619
 2197SOL     OW 7489   3.797   3.721   1.401
 2197SOL    HW1 7490   3.701   3.692   1.411
 2197SOL    HW2 7491   3.813   3.748   1.306
 2198SOL     OW 7492   6.537   1.264   6.857
 2198SOL    HW1 7493   6.561   1.173   6.891
 2198SOL    HW2 7494   6.614   1.302   6.806
 2199SOL     OW 7495   4.728   0.711   2.800
 2199SOL    HW1 7496   4.741   0.755   2.711
 2199SOL    HW2 7497   4.816   0.704   2.847
 2200SOL     OW 7498   3.701   0.106   4.802
 2200SOL    HW1 7499   3.783   0.079   4.853
 2200SOL    HW2 7500   3.711   0.080   4.706
 2201SOL     OW 7501   6.643   2.733   2.551
 2201SOL    HW1 7502   6.681   2.707   2.640
 2201SOL    HW2 7503   6.546   2.756   2.562
 2202SOL     OW 7504   3.441   4.933   3.482
 2202SOL    HW1 7505   3.364   4.950   3.543
 2202SOL    HW2 7506   3.523   4.914   3.535
 2203SOL     OW 7507   2.021   2.565   1.594
 2203SOL    HW1 7508   2.064   2.477   1.574
 2203SOL    HW2 7509   2.037   2.627   1.517
 2204SOL     OW 7510   3.829   1.870   6.705
 2204SOL    HW1 7511   3.901   1.893   6.771
 2204SOL    HW2 7512   3.779   1.952   6.680
 2205SOL     OW 7513   1.790   6.937   6.391
 2205SOL    HW1 7514   1.846   7.000   6.445
 2205SOL    HW2 7515   1.729   6.989   6.331
 2206SOL     OW 7516   2.587   3.863   5.597
 2206SOL    HW1 7517   2.657   3.858   5.526
 2206SOL    HW2 7518   2.528   3.942   5.580
 2207SOL     OW 7519   2.191   3.903   6.855
 2207SOL    HW1 7520   2.192   3.834   6.782
 2207SOL    HW2 7521   2.112   3.962   6.844
 2208SOL     OW 7522   1.909   5.334   2.548
 2208SOL    HW1 7523   1.897   5.367   2.641
 2208SOL    HW2 7524   1.820   5.327   2.503
 2209SOL     OW 7525   1.466   5.415   5.832
 2209SOL    HW1 7526   1.377   5.371   5.841
 2209SOL    HW2 7527   1.499   5.405   5.738
 2210SOL     OW 7528   6.670   4.306   3.857
 2210SOL    HW1 7529   6.635   4.293   3.950
 2210SOL    HW2 7530   6.597   4.342   3.799
 2211SOL     OW 7531   5.061   0.644   6.914
 2211SOL    HW1 7532   5.103   0.574   6.972
 2211SOL    HW2 7533   5.041   0.606   6.824
 2212SOL     OW 7534   1.838   6.417   0.228
 2212SOL    HW1 7535   1.859   6.514   0.221
 2212SOL    HW2 7536   1.923   6.365   0.244
 2213SOL     OW 7537   4.009   2.700   5.338
 2213SOL    HW1 7538   4.057   2.630   5.286
 2213SOL    HW2 7539   3.941   2.745   5.279
 2214SOL     OW 7540   4.782   2.435   5.689
 2214SOL    HW1 7541   4.862   2.375   5.689
 2214SOL    HW2 7542   4.729   2.420   5.772
 2215SOL     OW 7543   6.512   1.852   0.282
 2215SOL    HW1 7544   6.536   1.756   0.265
 2215SOL    HW2 7545   6.539   1.878   0.374
 2216SOL     OW 7546   1.773   0.930   6.319
 2216SOL    HW1 7547   1.734   0.964   6.404
 2216SOL    HW2 7548   1.733   0.841   6.297
 2217SOL     OW 7549   3.450   0.319   1.202
 2217SOL    HW1 7550   3.543   0.347   1.179
 2217SOL    HW2 7551   3.413   0.261   1.129
 2218SOL     OW 7552   0.844   6.816   0.841
 2218SOL    HW1 7553   0.891   6.778   0.762
 2218SOL    HW2 7554   0.912   6.850   0.907
 2219SOL     OW 7555   0.643   3.469   2.587
 2219SOL    HW1 7556   0.739   3.481   2.559
 2219SOL    HW2 7557   0.635   3.487   2.684
 2220SOL     OW 7558   0.442   0.972   4.718
 2220SOL    HW1 7559   0.489   1.022   4.790
 2220SOL    HW2 7560   0.389   1.035   4.661
 2221SOL     OW 7561   6.422   1.010   6.170
 2221SOL    HW1 7562   6.412   0.921   6.125
 2221SOL    HW2 7563   6.423   1.082   6.101
 2222SOL     OW 7564   3.763   0.860   1.132
 2222SOL    HW1 7565   3.827   0.843   1.058
 2222SOL    HW2 7566   3.735   0.773   1.173
 2223SOL     OW 7567   6.132   6.753   4.032
 2223SOL    HW1 7568   6.212   6.765   4.089
 2223SOL    HW2 7569   6.158   6.763   3.936
 2224SOL     OW 7570   2.094   4.381   2.004
 2224SOL    HW1 7571   2.020   4.449   2.004
 2224SOL    HW2 7572   2.081   4.319   1.926
 2225SOL     OW 7573   6.387   5.757   3.136
 2225SOL    HW1 7574   6.486   5.752   3.122
 2225SOL    HW2 7575   6.346   5.668   3.115
 2226SOL     OW 7576   4.137   4.055   0.342
 2226SOL    HW1 7577   4.156   4.049   0.244
 2226SOL    HW2 7578   4.143   4.150   0.372
 2227SOL     OW 7579   5.034   3.510   0.065
 2227SOL    HW1 7580   5.023   3.460   7.000
 2227SOL    HW2 7581   5.093   3.457   0.127
 2228SOL     OW 7582   2.893   5.513   1.288
 2228SOL    HW1 7583   2.879   5.600   1.336
 2228SOL    HW2 7584   2.849   5.439   1.339
 2229SOL     OW 7585   4.075   1.321   4.786
 2229SOL    HW1 7586   4.029   1.330   4.698
 2229SOL    HW2 7587   4.013   1.349   4.859
 2230SOL     OW 7588   6.943   5.765   5.659
 2230SOL    HW1 7589   6.968   5.671   5.634
 2230SOL    HW2 7590   6.867   5.763   5.722
 2231SOL     OW 7591   1.891   0.935   1.475
 2231SOL    HW1 7592   1.853   1.022   1.443
 2231SOL    HW2 7593   1.872   0.864   1.408
 2232SOL     OW 7594   1.463   2.018   3.965
 2232SOL    HW1 7595   1.374   2.006   4.010
 2232SOL    HW2 7596   1.462   1.975   3.875
 2233SOL     OW 7597   2.472   4.436   1.477
 2233SOL    HW1 7598   2.418   4.400   1.401
 2233SOL    HW2 7599   2.411   4.477   1.545
 2234SOL     OW 7600   5.097   2.147   1.917
 2234SOL    HW1 7601   5.008   2.107   1.939
 2234SOL    HW2 7602   5.084   2.242   1.887
 2235SOL     OW 7603   1.894   0.147   0.948
 2235SOL    HW1 7604   1.888   0.090   0.866
 2235SOL    HW2 7605   1.926   0.092   1.025
 2236SOL     OW 7606   0.582   4.414   6.749
 2236SOL    HW1 7607   0.587   4.459   6.839
 2236SOL    HW2 7608   0.543   4.478   6.683
 2237SOL     OW 7609   5.220   4.340   4.853
 2237SOL    HW1 7610   5.163   4.263   4.883
 2237SOL    HW2 7611   5.302   4.304   4.807
 2238SOL     OW 7612   5.740   5.654   1.931
 2238SOL    HW1 7613   5.783   5.681   2.017
 2238SOL    HW2 7614   5.645   5.629   1.948
 2239SOL     OW 7615   3.528   5.371   3.512
 2239SOL    HW1 7616   3.447   5.317   3.491
 2239SOL    HW2 7617   3.531   5.392   3.609
 2240SOL     OW 7618   5.478   5.883   3.995
 2240SOL    HW1 7619   5.487   5.956   3.927
 2240SOL    HW2 7620   5.464   5.795   3.949
 2241SOL     OW 7621   0.470   6.704   2.434
 2241SOL    HW1 7622   0.384   6.661   2.460
 2241SOL    HW2 7623   0.513   6.745   2.514
 2242SOL     OW 7624   5.002   2.612   2.814
 2242SOL    HW1 7625   4.919   2.660   2.784
 2242SOL    HW2 7626   5.064   2.602   2.736
 2243SOL     OW 7627   2.846   6.248   5.257
 2243SOL    HW1 7628   2.885   6.195   5.332
 2243SOL    HW2 7629   2.762   6.293   5.289
 2244SOL     OW 7630   3.371   0.522   3.106
 2244SOL    HW1 7631   3.287   0.473   3.082
 2244SOL    HW2 7632   3.440   0.506   3.036
 2245SOL     OW 7633   0.733   2.136   1.762
 2245SOL    HW1 7634   0.805   2.078   1.724
 2245SOL    HW2 7635   0.719   2.113   1.858
 2246SOL     OW 7636   1.159   1.308   4.764
 2246SOL    HW1 7637   1.127   1.244   4.694
 2246SOL    HW2 7638   1.138   1.401   4.734
 2247SOL     OW 7639   2.932   2.861   5.876
 2247SOL    HW1 7640   2.977   2.950   5.886
 2247SOL    HW2 7641   2.910   2.846   5.779
 2248SOL     OW 7642   4.060   3.975   6.630
 2248SOL    HW1 7643   4.073   3.978   6.729
 2248SOL    HW2 7644   4.131   4.029   6.585
 2249SOL     OW 7645   6.440   6.189   2.395
 2249SOL    HW1 7646   6.450   6.094   2.426
 2249SOL    HW2 7647   6.344   6.208   2.375
 2250SOL     OW 7648   5.319   3.565   0.613
 2250SOL    HW1 7649   5.296   3.487   0.555
 2250SOL    HW2 7650   5.270   3.646   0.581
 2251SOL     OW 7651   5.294   1.620   0.233
 2251SOL    HW1 7652   5.225   1.577   0.291
 2251SOL    HW2 7653   5.317   1.559   0.157
 2252SOL     OW 7654   6.540   2.334   3.673
 2252SOL    HW1 7655   6.640   2.330   3.669
 2252SOL    HW2 7656   6.504   2.358   3.583
 2253SOL     OW 7657   0.780   3.279   0.196
 2253SOL    HW1 7658   0.876   3.299   0.213
 2253SOL    HW2 7659   0.724   3.313   0.272
 2254SOL     OW 7660   2.109   2.890   5.851
 2254SOL    HW1 7661   2.146   2.802   5.880
 2254SOL    HW2 7662   2.059   2.879   5.765
 2255SOL     OW 7663   4.999   2.476   0.456
 2255SOL    HW1 7664   5.015   2.404   0.523
 2255SOL    HW2 7665   5.086   2.500   0.412
 2256SOL     OW 7666   4.079   6.723   1.609
 2256SOL    HW1 7667   4.114   6.629   1.609
 2256SOL    HW2 7668   4.028   6.739   1.694
 2257SOL     OW 7669   0.234   2.864   3.962
 2257SOL    HW1 7670   0.309   2.800   3.948
 2257SOL    HW2 7671   0.247   2.944   3.904
 2258SOL     OW 7672   0.870   5.397   5.378
 2258SOL    HW1 7673   0.794   5.372   5.437
 2258SOL    HW2 7674   0.913   5.315   5.342
 2259SOL     OW 7675   4.603   3.826   6.811
 2259SOL    HW1 7676   4.638   3.834   6.905
 2259SOL    HW2 7677   4.601   3.730   6.785
 2260SOL     OW 7678   5.405   4.559   2.872
 2260SOL    HW1 7679   5.312   4.524   2.872
 2260SOL    HW2 7680   5.469   4.486   2.896
 2261SOL     OW 7681   6.252   6.598   0.880
 2261SOL    HW1 7682   6.344   6.631   0.859
 2261SOL    HW2 7683   6.204   6.665   0.937
 2262SOL     OW 7684   5.877   2.586   2.401
 2262SOL    HW1 7685   5.895   2.491   2.374
 2262SOL    HW2 7686   5.827   2.632   2.328
 2263SOL     OW 7687   2.746   5.661   5.964
 2263SOL    HW1 7688   2.672   5.655   6.031
 2263SOL    HW2 7689   2.826   5.612   5.998
 2264SOL     OW 7690   3.516   3.374   1.626
 2264SOL    HW1 7691   3.547   3.291   1.673
 2264SOL    HW2 7692   3.457   3.349   1.550
 2265SOL     OW 7693   0.457   0.506   4.118
 2265SOL    HW1 7694   0.384   0.529   4.182
 2265SOL    HW2 7695   0.473   0.407   4.120
 2266SOL     OW 7696   6.004   1.624   1.407
 2266SOL    HW1 7697   5.959   1.545   1.367
 2266SOL    HW2 7698   6.018   1.694   1.337
 2267SOL     OW 7699   5.136   2.231   5.251
 2267SOL    HW1 7700   5.128   2.133   5.236
 2267SOL    HW2 7701   5.225   2.252   5.293
 2268SOL     OW 7702   6.389   3.876   6.568
 2268SOL    HW1 7703   6.325   3.932   6.515
 2268SOL    HW2 7704   6.338   3.804   6.615
 2269SOL     OW 7705   5.779   5.857   4.820
 2269SOL    HW1 7706   5.756   5.954   4.831
 2269SOL    HW2 7707   5.778   5.812   4.910
 2270SOL     OW 7708   3.424   3.008   6.748
 2270SOL    HW1 7709   3.332   2.974   6.766
 2270SOL    HW2 7710   3.473   2.943   6.690
 2271SOL     OW 7711   6.156   3.973   0.517
 2271SOL    HW1 7712   6.214   3.984   0.597
 2271SOL    HW2 7713   6.060   3.964   0.546
 2272SOL     OW 7714   5.536   2.109   5.333
 2272SOL    HW1 7715   5.454   2.051   5.333
 2272SOL    HW2 7716   5.601   2.075   5.265
 2273SOL     OW 7717   1.541   0.873   1.664
 2273SOL    HW1 7718   1.590   0.785   1.669
 2273SOL    HW2 7719   1.585   0.939   1.725
 2274SOL     OW 7720   1.360   2.537   5.984
 2274SOL    HW1 7721   1.360   2.581   6.074
 2274SOL    HW2 7722   1.309   2.451   5.990
 2275SOL     OW 7723   5.588   0.365   4.504
 2275SOL    HW1 7724   5.688   0.367   4.499
 2275SOL    HW2 7725   5.559   0.332   4.594
 2276SOL     OW 7726   3.082   4.932   1.163
 2276SOL    HW1 7727   3.088   5.002   1.092
 2276SOL    HW2 7728   3.022   4.859   1.132
 2277SOL     OW 7729   3.479   4.109   4.451
 2277SOL    HW1 7730   3.490   4.023   4.500
 2277SOL    HW2 7731   3.541   4.178   4.490
 2278SOL     OW 7732   5.489   6.351   4.543
 2278SOL    HW1 7733   5.526   6.387   4.457
 2278SOL    HW2 7734   5.429   6.420   4.584
 2279SOL     OW 7735   4.781   5.733   4.607
 2279SOL    HW1 7736   4.752   5.805   4.671
 2279SOL    HW2 7737   4.878   5.745   4.587
 2280SOL     OW 7738   6.892   6.309   4.736
 2280SOL    HW1 7739   6.804   6.355   4.746
 2280SOL    HW2 7740   6.877   6.215   4.705
 2281SOL     OW 7741   3.267   1.042   1.728
 2281SOL    HW1 7742   3.194   1.048   1.661
 2281SOL    HW2 7743   3.229   1.041   1.820
 2282SOL     OW 7744   5.470   0.346   4.755
 2282SOL    HW1 7745   5.388   0.398   4.780
 2282SOL    HW2 7746   5.512   0.309   4.837
 2283SOL     OW 7747   6.716   4.407   1.147
 2283SOL    HW1 7748   6.709   4.333   1.080
 2283SOL    HW2 7749   6.812   4.432   1.159
 2284SOL     OW 7750   2.336   1.805   0.273
 2284SOL    HW1 7751   2.248   1.807   0.322
 2284SOL    HW2 7752   2.377   1.715   0.284
 2285SOL     OW 7753   1.493   3.008   0.248
 2285SOL    HW1 7754   1.584   3.016   0.288
 2285SOL    HW2 7755   1.452   3.099   0.241
 2286SOL     OW 7756   0.265   6.745   4.455
 2286SOL    HW1 7757   0.216   6.829   4.480
 2286SOL    HW2 7758   0.198   6.674   4.431
 2287SOL     OW 7759   2.174   2.867   1.960
 2287SOL    HW1 7760   2.259   2.820   1.985
 2287SOL    HW2 7761   2.128   2.816   1.888
 2288SOL     OW 7762   6.758   4.648   4.573
 2288SOL    HW1 7763   6.691   4.582   4.539
 2288SOL    HW2 7764   6.730   4.679   4.664
 2289SOL     OW 7765   6.410   4.391   2.629
 2289SOL    HW1 7766   6.348   4.394   2.708
 2289SOL    HW2 7767   6.407   4.300   2.588
 2290SOL     OW 7768   2.210   4.005   2.130
 2290SOL    HW1 7769   2.166   3.918   2.108
 2290SOL    HW2 7770   2.272   4.032   2.057
 2291SOL     OW 7771   2.138   2.095   0.214
 2291SOL    HW1 7772   2.203   2.020   0.222
 2291SOL    HW2 7773   2.149   2.140   0.126
 2292SOL     OW 7774   5.207   2.178   2.983
 2292SOL    HW1 7775   5.162   2.161   3.070
 2292SOL    HW2 7776   5.254   2.266   2.985
 2293SOL     OW 7777   6.672   0.062   0.840
 2293SOL    HW1 7778   6.728   0.115   0.904
 2293SOL    HW2 7779   6.727   7.008   0.803
 2294SOL     OW 7780   3.390   1.572   6.300
 2294SOL    HW1 7781   3.470   1.515   6.281
 2294SOL    HW2 7782   3.342   1.590   6.214
 2295SOL     OW 7783   0.576   1.434   2.817
 2295SOL    HW1 7784   0.539   1.441   2.910
 2295SOL    HW2 7785   0.662   1.382   2.820
 2296SOL     OW 7786   3.507   5.246   2.546
 2296SOL    HW1 7787   3.436   5.212   2.485
 2296SOL    HW2 7788   3.551   5.169   2.592
 2297SOL     OW 7789   4.728   4.798   5.946
 2297SOL    HW1 7790   4.751   4.704   5.922
 2297SOL    HW2 7791   4.633   4.817   5.923
 2298SOL     OW 7792   3.932   3.421   2.748
 2298SOL    HW1 7793   3.835   3.434   2.769
 2298SOL    HW2 7794   3.967   3.344   2.802
 2299SOL     OW 7795   4.713   4.461   5.234
 2299SOL    HW1 7796   4.695   4.394   5.162
 2299SOL    HW2 7797   4.755   4.416   5.312
 2300SOL     OW 7798   3.024   6.443   3.338
 2300SOL    HW1 7799   3.086   6.490   3.276
 2300SOL    HW2 7800   3.014   6.497   3.422
 2301SOL     OW 7801   3.938   3.075   3.332
 2301SOL    HW1 7802   3.975   3.143   3.395
 2301SOL    HW2 7803   3.973   2.985   3.356
 2302SOL     OW 7804   3.663   0.644   1.239
 2302SOL    HW1 7805   3.709   0.556   1.243
 2302SOL    HW2 7806   3.602   0.653   1.318
 2303SOL     OW 7807   2.627   3.295   1.015
 2303SOL    HW1 7808   2.556   3.337   1.070
 2303SOL    HW2 7809   2.698   3.363   0.994
 2304SOL     OW 7810   5.751   6.108   4.390
 2304SOL    HW1 7811   5.697   6.076   4.312
 2304SOL    HW2 7812   5.697   6.173   4.443
 2305SOL     OW 7813   2.334   0.480   3.019
 2305SOL    HW1 7814   2.340   0.567   3.068
 2305SOL    HW2 7815   2.424   0.456   2.983
 2306SOL     OW 7816   2.258   5.198   1.571
 2306SOL    HW1 7817   2.209   5.178   1.656
 2306SOL    HW2 7818   2.243   5.294   1.546
 2307SOL     OW 7819   0.324   3.106   5.529
 2307SOL    HW1 7820   0.326   3.088   5.430
 2307SOL    HW2 7821   0.256   3.047   5.572
 2308SOL     OW 7822   3.019   4.619   1.177
 2308SOL    HW1 7823   2.952   4.645   1.246
 2308SOL    HW2 7824   3.020   4.519   1.166
 2309SOL     OW 7825   1.930   1.038   5.422
 2309SOL    HW1 7826   1.932   1.094   5.505
 2309SOL    HW2 7827   1.860   0.967   5.431
 2310SOL     OW 7828   6.054   5.769   1.856
 2310SOL    HW1 7829   5.960   5.752   1.826
 2310SOL    HW2 7830   6.113   5.695   1.823
 2311SOL     OW 7831   2.121   6.488   0.775
 2311SOL    HW1 7832   2.056   6.413   0.760
 2311SOL    HW2 7833   2.196   6.479   0.710
 2312SOL     OW 7834   4.807   5.458   3.188
 2312SOL    HW1 7835   4.828   5.379   3.247
 2312SOL    HW2 7836   4.892   5.508   3.169
 2313SOL     OW 7837   4.868   5.888   2.331
 2313SOL    HW1 7838   4.839   5.983   2.346
 2313SOL    HW2 7839   4.811   5.846   2.261
 2314SOL     OW 7840   4.823   6.116   3.017
 2314SOL    HW1 7841   4.791   6.027   2.985
 2314SOL    HW2 7842   4.904   6.143   2.964
 2315SOL     OW 7843   5.064   3.097   6.234
 2315SOL    HW1 7844   5.163   3.107   6.237
 2315SOL    HW2 7845   5.034   3.037   6.309
 2316SOL     OW 7846   4.482   1.836   3.958
 2316SOL    HW1 7847   4.494   1.743   3.992
 2316SOL    HW2 7848   4.544   1.851   3.881
 2317SOL     OW 7849   0.217   5.929   3.067
 2317SOL    HW1 7850   0.161   5.991   3.011
 2317SOL    HW2 7851   0.279   5.878   3.008
 2318SOL     OW 7852   0.804   2.724   3.372
 2318SOL    HW1 7853   0.734   2.652   3.365
 2318SOL    HW2 7854   0.855   2.712   3.458
 2319SOL     OW 7855   1.570   5.133   4.063
 2319SOL    HW1 7856   1.557   5.038   4.036
 2319SOL    HW2 7857   1.481   5.180   4.065
 2320SOL     OW 7858   0.809   2.461   3.710
 2320SOL    HW1 7859   0.815   2.363   3.729
 2320SOL    HW2 7860   0.716   2.493   3.729
 2321SOL     OW 7861   3.359   0.873   5.430
 2321SOL    HW1 7862   3.363   0.899   5.333
 2321SOL    HW2 7863   3.316   0.946   5.483
 2322SOL     OW 7864   2.473   1.846   5.192
 2322SOL    HW1 7865   2.503   1.886   5.105
 2322SOL    HW2 7866   2.502   1.905   5.267
 2323SOL     OW 7867   3.221   4.810   2.093
 2323SOL    HW1 7868   3.255   4.732   2.145
 2323SOL    HW2 7869   3.121   4.802   2.084
 2324SOL     OW 7870   0.373   6.144   2.861
 2324SOL    HW1 7871   0.445   6.116   2.924
 2324SOL    HW2 7872   0.404   6.133   2.767
 2325SOL     OW 7873   0.208   4.439   1.370
 2325SOL    HW1 7874   0.241   4.345   1.358
 2325SOL    HW2 7875   0.281   4.496   1.407
 2326SOL     OW 7876   3.492   4.069   6.063
 2326SOL    HW1 7877   3.484   4.165   6.090
 2326SOL    HW2 7878   3.571   4.028   6.108
 2327SOL     OW 7879   5.745   2.724   4.500
 2327SOL    HW1 7880   5.705   2.700   4.412
 2327SOL    HW2 7881   5.738   2.647   4.563
 2328SOL     OW 7882   4.492   1.934   3.402
 2328SOL    HW1 7883   4.495   2.018   3.456
 2328SOL    HW2 7884   4.539   1.860   3.451
 2329SOL     OW 7885   1.631   5.130   4.717
 2329SOL    HW1 7886   1.557   5.190   4.746
 2329SOL    HW2 7887   1.643   5.136   4.618
 2330SOL     OW 7888   6.908   4.176   2.519
 2330SOL    HW1 7889   6.843   4.180   2.594
 2330SOL    HW2 7890   6.936   4.268   2.493
 2331SOL     OW 7891   6.229   4.824   6.830
 2331SOL    HW1 7892   6.286   4.906   6.823
 2331SOL    HW2 7893   6.230   4.791   6.924
 2332SOL     OW 7894   4.056   1.874   5.282
 2332SOL    HW1 7895   4.146   1.833   5.293
 2332SOL    HW2 7896   4.064   1.954   5.221
 2333SOL     OW 7897   6.436   5.038   3.056
 2333SOL    HW1 7898   6.532   5.059   3.072
 2333SOL    HW2 7899   6.427   4.943   3.027
 2334SOL     OW 7900   2.869   0.506   0.257
 2334SOL    HW1 7901   2.844   0.589   0.208
 2334SOL    HW2 7902   2.806   0.492   0.333
 2335SOL     OW 7903   6.153   0.808   3.230
 2335SOL    HW1 7904   6.183   0.830   3.323
 2335SOL    HW2 7905   6.226   0.832   3.165
 2336SOL     OW 7906   4.315   1.953   5.577
 2336SOL    HW1 7907   4.331   1.867   5.530
 2336SOL    HW2 7908   4.374   1.959   5.657
 2337SOL     OW 7909   4.788   1.138   3.629
 2337SOL    HW1 7910   4.710   1.178   3.580
 2337SOL    HW2 7911   4.793   1.040   3.609
 2338SOL     OW 7912   0.644   0.340   6.951
 2338SOL    HW1 7913   0.634   0.321   0.027
 2338SOL    HW2 7914   0.699   0.422   6.938
 2339SOL     OW 7915   3.544   3.774   5.191
 2339SOL    HW1 7916   3.592   3.802   5.109
 2339SOL    HW2 7917   3.455   3.819   5.195
 2340SOL     OW 7918   4.910   6.566   5.664
 2340SOL    HW1 7919   4.968   6.516   5.600
 2340SOL    HW2 7920   4.818   6.527   5.665
 2341SOL     OW 7921   5.088   3.465   0.971
 2341SOL    HW1 7922   5.070   3.406   0.892
 2341SOL    HW2 7923   5.115   3.556   0.940
 2342SOL     OW 7924   0.935   6.286   5.785
 2342SOL    HW1 7925   0.848   6.324   5.818
 2342SOL    HW2 7926   0.953   6.319   5.693
 2343SOL     OW 7927   1.859   6.478   1.373
 2343SOL    HW1 7928   1.803   6.556   1.403
 2343SOL    HW2 7929   1.915   6.447   1.450
 2344SOL     OW 7930   1.739   0.961   1.170
 2344SOL    HW1 7931   1.673   0.940   1.097
 2344SOL    HW2 7932   1.800   0.883   1.184
 2345SOL     OW 7933   2.077   6.111   5.634
 2345SOL    HW1 7934   2.172   6.112   5.664
 2345SOL    HW2 7935   2.062   6.184   5.568
 2346SOL     OW 7936   5.019   3.209   4.955
 2346SOL    HW1 7937   4.961   3.247   5.027
 2346SOL    HW2 7938   4.989   3.117   4.931
 2347SOL     OW 7939   2.005   4.099   1.878
 2347SOL    HW1 7940   1.958   4.119   1.792
 2347SOL    HW2 7941   2.093   4.055   1.858
 2348SOL     OW 7942   3.044   6.031   3.740
 2348SOL    HW1 7943   2.999   6.115   3.768
 2348SOL    HW2 7944   3.061   6.033   3.642
 2349SOL     OW 7945   0.559   6.171   0.059
 2349SOL    HW1 7946   0.481   6.185   7.019
 2349SOL    HW2 7947   0.526   6.143   0.149
 2350SOL     OW 7948   4.646   6.921   6.082
 2350SOL    HW1 7949   4.587   6.919   6.001
 2350SOL    HW2 7950   4.594   6.957   6.159
 2351SOL     OW 7951   3.061   5.413   3.461
 2351SOL    HW1 7952   3.022   5.362   3.537
 2351SOL    HW2 7953   3.060   5.511   3.482
 2352SOL     OW 7954   0.703   4.757   2.808
 2352SOL    HW1 7955   0.768   4.743   2.883
 2352SOL    HW2 7956   0.714   4.685   2.740
 2353SOL     OW 7957   2.493   4.502   4.532
 2353SOL    HW1 7958   2.455   4.459   4.614
 2353SOL    HW2 7959   2.464   4.452   4.451
 2354SOL     OW 7960   3.873   2.659   6.359
 2354SOL    HW1 7961   3.917   2.590   6.302
 2354SOL    HW2 7962   3.779   2.631   6.380
 2355SOL     OW 7963   0.585   5.292   0.429
 2355SOL    HW1 7964   0.677   5.331   0.425
 2355SOL    HW2 7965   0.518   5.363   0.408
 2356SOL     OW 7966   2.486   4.237   1.106
 2356SOL    HW1 7967   2.483   4.170   1.181
 2356SOL    HW2 7968   2.431   4.317   1.131
 2357SOL     OW 7969   3.749   4.893   4.174
 2357SOL    HW1 7970   3.792   4.983   4.165
 2357SOL    HW2 7971   3.818   4.821   4.160
 2358SOL     OW 7972   3.060   5.931   4.352
 2358SOL    HW1 7973   3.118   5.961   4.276
 2358SOL    HW2 7974   2.976   5.891   4.316
 2359SOL     OW 7975   1.931   1.013   6.121
 2359SOL    HW1 7976   2.019   1.019   6.169
 2359SOL    HW2 7977   1.861   0.980   6.185
 2360SOL     OW 7978   4.889   5.872   5.604
 2360SOL    HW1 7979   4.792   5.848   5.606
 2360SOL    HW2 7980   4.911   5.915   5.516
 2361SOL     OW 7981   2.506   0.363   3.927
 2361SOL    HW1 7982   2.435   0.362   3.998
 2361SOL    HW2 7983   2.555   0.276   3.928
 2362SOL     OW 7984   4.812   6.888   4.930
 2362SOL    HW1 7985   4.820   6.979   4.889
 2362SOL    HW2 7986   4.722   6.880   4.974
 2363SOL     OW 7987   4.495   2.670   5.621
 2363SOL    HW1 7988   4.404   2.643   5.588
 2363SOL    HW2 7989   4.511   2.629   5.711
 2364SOL     OW 7990   5.987   1.733   2.159
 2364SOL    HW1 7991   5.998   1.817   2.211
 2364SOL    HW2 7992   6.018   1.655   2.214
 2365SOL     OW 7993   5.545   3.584   5.753
 2365SOL    HW1 7994   5.535   3.684   5.750
 2365SOL    HW2 7995   5.522   3.546   5.664
 2366SOL     OW 7996   1.232   4.053   5.312
 2366SOL    HW1 7997   1.176   4.040   5.231
 2366SOL    HW2 7998   1.226   3.972   5.370
 2367SOL     OW 7999   1.746   3.470   6.483
 2367SOL    HW1 8000   1.736   3.507   6.390
 2367SOL    HW2 8001   1.833   3.501   6.522
 2368SOL     OW 8002   4.792   1.066   4.985
 2368SOL    HW1 8003   4.747   1.025   4.905
 2368SOL    HW2 8004   4.759   1.160   4.996
 2369SOL     OW 8005   2.623   2.498   4.090
 2369SOL    HW1 8006   2.637   2.489   4.188
 2369SOL    HW2 8007   2.650   2.413   4.044
 2370SOL     OW 8008   4.332   3.859   6.918
 2370SOL    HW1 8009   4.336   3.785   6.985
 2370SOL    HW2 8010   4.398   3.841   6.845
 2371SOL     OW 8011   1.815   5.646   1.934
 2371SOL    HW1 8012   1.824   5.580   2.008
 2371SOL    HW2 8013   1.790   5.736   1.972
 2372SOL     OW 8014   0.618   1.563   0.119
 2372SOL    HW1 8015   0.662   1.565   0.029
 2372SOL    HW2 8016   0.520   1.549   0.108
 2373SOL     OW 8017   6.277   0.905   6.780
 2373SOL    HW1 8018   6.228   0.860   6.706
 2373SOL    HW2 8019   6.300   0.998   6.752
 2374SOL     OW 8020   6.034   5.398   3.679
 2374SOL    HW1 8021   6.095   5.408   3.600
 2374SOL    HW2 8022   6.075   5.444   3.758
 2375SOL     OW 8023   0.742   6.973   4.646
 2375SOL    HW1 8024   0.656   7.012   4.613
 2375SOL    HW2 8025   0.723   6.885   4.691
 2376SOL     OW 8026   5.683   2.767   3.332
 2376SOL    HW1 8027   5.698   2.670   3.315
 2376SOL    HW2 8028   5.625   2.778   3.413
 2377SOL     OW 8029   3.392   3.499   4.451
 2377SOL    HW1 8030   3.348   3.485   4.539
 2377SOL    HW2 8031   3.437   3.415   4.422
 2378SOL     OW 8032   5.512   2.109   0.284
 2378SOL    HW1 8033   5.492   2.012   0.278
 2378SOL    HW2 8034   5.430   2.162   0.257
 2379SOL     OW 8035   6.647   2.703   0.058
 2379SOL    HW1 8036   6.689   2.781   0.105
 2379SOL    HW2 8037   6.575   2.664   0.115
 2380SOL     OW 8038   0.009   0.720   5.300
 2380SOL    HW1 8039   0.089   0.721   5.360
 2380SOL    HW2 8040   6.993   0.627   5.294
 2381SOL     OW 8041   1.589   4.418   4.650
 2381SOL    HW1 8042   1.588   4.473   4.734
 2381SOL    HW2 8043   1.684   4.406   4.619
 2382SOL     OW 8044   2.143   5.476   2.560
 2382SOL    HW1 8045   2.220   5.465   2.497
 2382SOL    HW2 8046   2.057   5.476   2.508
 2383SOL     OW 8047   5.568   6.329   6.666
 2383SOL    HW1 8048   5.546   6.404   6.728
 2383SOL    HW2 8049   5.493   6.262   6.667
 2384SOL     OW 8050   1.065   1.625   1.620
 2384SOL    HW1 8051   0.972   1.611   1.584
 2384SOL    HW2 8052   1.095   1.541   1.666
 2385SOL     OW 8053   0.044   0.375   1.030
 2385SOL    HW1 8054   0.056   0.424   1.117
 2385SOL    HW2 8055   0.133   0.340   1.000
 2386SOL     OW 8056   3.079   5.221   4.574
 2386SOL    HW1 8057   2.998   5.233   4.632
 2386SOL    HW2 8058   3.157   5.264   4.619
 2387SOL     OW 8059   6.512   2.831   4.403
 2387SOL    HW1 8060   6.460   2.913   4.425
 2387SOL    HW2 8061   6.606   2.842   4.433
 2388SOL     OW 8062   1.312   1.660   5.410
 2388SOL    HW1 8063   1.370   1.740   5.425
 2388SOL    HW2 8064   1.298   1.647   5.312
 2389SOL     OW 8065   4.377   4.568   4.222
 2389SOL    HW1 8066   4.404   4.600   4.313
 2389SOL    HW2 8067   4.443   4.500   4.191
 2390SOL     OW 8068   3.704   3.859   5.004
 2390SOL    HW1 8069   3.748   3.949   4.999
 2390SOL    HW2 8070   3.773   3.788   4.990
 2391SOL     OW 8071   3.443   4.350   6.108
 2391SOL    HW1 8072   3.388   4.374   6.189
 2391SOL    HW2 8073   3.539   4.373   6.125
 2392SOL     OW 8074   3.006   4.787   6.499
 2392SOL    HW1 8075   2.962   4.815   6.414
 2392SOL    HW2 8076   2.939   4.790   6.574
 2393SOL     OW 8077   4.016   5.184   1.195
 2393SOL    HW1 8078   3.934   5.239   1.209
 2393SOL    HW2 8079   4.031   5.172   1.097
 2394SOL     OW 8080   1.127   3.935   4.442
 2394SOL    HW1 8081   1.085   3.879   4.370
 2394SOL    HW2 8082   1.219   3.961   4.414
 2395SOL     OW 8083   6.900   2.763   6.678
 2395SOL    HW1 8084   6.867   2.735   6.768
 2395SOL    HW2 8085   6.999   2.749   6.673
 2396SOL     OW 8086   6.102   6.108   0.578
 2396SOL    HW1 8087   6.003   6.118   0.576
 2396SOL    HW2 8088   6.126   6.025   0.629
 2397SOL     OW 8089   6.544   4.790   0.093
 2397SOL    HW1 8090   6.622   4.778   0.154
 2397SOL    HW2 8091   6.545   4.716   0.025
 2398SOL     OW 8092   2.441   4.801   4.860
 2398SOL    HW1 8093   2.532   4.810   4.901
 2398SOL    HW2 8094   2.402   4.712   4.883
 2399SOL     OW 8095   4.306   1.534   3.249
 2399SOL    HW1 8096   4.289   1.632   3.259
 2399SOL    HW2 8097   4.252   1.483   3.316
 2400SOL     OW 8098   2.789   3.669   0.761
 2400SOL    HW1 8099   2.722   3.676   0.687
 2400SOL    HW2 8100   2.825   3.760   0.782
 2401SOL     OW 8101   3.273   0.469   4.821
 2401SOL    HW1 8102   3.370   0.455   4.843
 2401SOL    HW2 8103   3.230   0.521   4.894
 2402SOL     OW 8104   0.189   1.867   3.932
 2402SOL    HW1 8105   0.287   1.882   3.917
 2402SOL    HW2 8106   0.139   1.952   3.912
 2403SOL     OW 8107   3.344   3.075   0.403
 2403SOL    HW1 8108   3.273   3.144   0.421
 2403SOL    HW2 8109   3.369   3.031   0.489
 2404SOL     OW 8110   5.534   1.799   1.883
 2404SOL    HW1 8111   5.448   1.822   1.927
 2404SOL    HW2 8112   5.590   1.743   1.946
 2405SOL     OW 8113   3.651   3.975   5.346
 2405SOL    HW1 8114   3.608   3.889   5.320
 2405SOL    HW2 8115   3.603   4.052   5.304
 2406SOL     OW 8116   2.096   0.853   2.787
 2406SOL    HW1 8117   2.172   0.857   2.722
 2406SOL    HW2 8118   2.109   0.775   2.848
 2407SOL     OW 8119   4.478   2.286   2.906
 2407SOL    HW1 8120   4.543   2.320   2.975
 2407SOL    HW2 8121   4.526   2.227   2.842
 2408SOL     OW 8122   3.495   5.029   3.247
 2408SOL    HW1 8123   3.465   4.991   3.335
 2408SOL    HW2 8124   3.543   4.959   3.195
 2409SOL     OW 8125   1.735   2.552   1.596
 2409SOL    HW1 8126   1.834   2.549   1.609
 2409SOL    HW2 8127   1.691   2.572   1.684
 2410SOL     OW 8128   6.707   3.407   5.338
 2410SOL    HW1 8129   6.793   3.382   5.293
 2410SOL    HW2 8130   6.662   3.480   5.288
 2411SOL     OW 8131   3.539   4.159   5.617
 2411SOL    HW1 8132   3.497   4.151   5.526
 2411SOL    HW2 8133   3.477   4.121   5.686
 2412SOL     OW 8134   2.823   3.611   0.379
 2412SOL    HW1 8135   2.848   3.656   0.294
 2412SOL    HW2 8136   2.731   3.573   0.372
 2413SOL     OW 8137   6.166   3.468   6.538
 2413SOL    HW1 8138   6.124   3.444   6.625
 2413SOL    HW2 8139   6.187   3.385   6.487
 2414SOL     OW 8140   5.717   3.609   2.712
 2414SOL    HW1 8141   5.734   3.612   2.810
 2414SOL    HW2 8142   5.651   3.679   2.687
 2415SOL     OW 8143   2.150   0.638   1.627
 2415SOL    HW1 8144   2.240   0.607   1.597
 2415SOL    HW2 8145   2.082   0.619   1.557
 2416SOL     OW 8146   1.591   1.710   4.662
 2416SOL    HW1 8147   1.533   1.637   4.700
 2416SOL    HW2 8148   1.599   1.784   4.728
 2417SOL     OW 8149   5.611   2.184   0.552
 2417SOL    HW1 8150   5.543   2.250   0.582
 2417SOL    HW2 8151   5.590   2.155   0.458
 2418SOL     OW 8152   3.247   3.890   5.170
 2418SOL    HW1 8153   3.200   3.969   5.130
 2418SOL    HW2 8154   3.227   3.886   5.268
 2419SOL     OW 8155   0.698   7.021   5.144
 2419SOL    HW1 8156   0.710   0.054   5.061
 2419SOL    HW2 8157   0.620   6.959   5.131
 2420SOL     OW 8158   3.821   6.957   2.243
 2420SOL    HW1 8159   3.919   6.977   2.236
 2420SOL    HW2 8160   3.777   0.008   2.296
 2421SOL     OW 8161   2.846   0.489   4.912
 2421SOL    HW1 8162   2.861   0.399   4.872
 2421SOL    HW2 8163   2.794   0.480   4.997
 2422SOL     OW 8164   4.778   0.905   0.806
 2422SOL    HW1 8165   4.846   0.879   0.874
 2422SOL    HW2 8166   4.755   1.002   0.818
 2423SOL     OW 8167   2.298   5.944   2.212
 2423SOL    HW1 8168   2.328   5.932   2.307
 2423SOL    HW2 8169   2.239   6.024   2.205
 2424SOL     OW 8170   5.366   6.150   6.704
 2424SOL    HW1 8171   5.395   6.055   6.702
 2424SOL    HW2 8172   5.290   6.161   6.769
 2425SOL     OW 8173   6.637   6.618   4.963
 2425SOL    HW1 8174   6.715   6.640   5.022
 2425SOL    HW2 8175   6.616   6.697   4.905
 2426SOL     OW 8176   0.877   5.993   4.787
 2426SOL    HW1 8177   0.964   6.026   4.752
 2426SOL    HW2 8178   0.879   5.991   4.887
 2427SOL     OW 8179   5.278   5.327   6.807
 2427SOL    HW1 8180   5.285   5.314   6.708
 2427SOL    HW2 8181   5.285   5.424   6.828
 2428SOL     OW 8182   0.411   0.398   3.632
 2428SOL    HW1 8183   0.474   0.421   3.706
 2428SOL    HW2 8184   0.346   0.473   3.620
 2429SOL     OW 8185   5.758   5.377   3.046
 2429SOL    HW1 8186   5.705   5.292   3.051
 2429SOL    HW2 8187   5.800   5.396   3.134
 2430SOL     OW 8188   5.242   3.016   0.771
 2430SOL    HW1 8189   5.214   2.927   0.737
 2430SOL    HW2 8190   5.273   3.073   0.694
 2431SOL     OW 8191   4.056   0.855   1.282
 2431SOL    HW1 8192   4.143   0.811   1.260
 2431SOL    HW2 8193   3.983   0.817   1.224
 2432SOL     OW 8194   4.101   6.697   2.790
 2432SOL    HW1 8195   4.028   6.749   2.746
 2432SOL    HW2 8196   4.114   6.729   2.884
 2433SOL     OW 8197   2.390   6.811   0.075
 2433SOL    HW1 8198   2.428   6.721   0.093
 2433SOL    HW2 8199   2.344   6.810   7.007
 2434SOL     OW 8200   5.183   1.501   3.342
 2434SOL    HW1 8201   5.158   1.538   3.252
 2434SOL    HW2 8202   5.101   1.479   3.394
 2435SOL     OW 8203   5.116   4.831   0.471
 2435SOL    HW1 8204   5.136   4.734   0.459
 2435SOL    HW2 8205   5.025   4.841   0.511
 2436SOL     OW 8206   1.661   6.664   1.424
 2436SOL    HW1 8207   1.615   6.698   1.506
 2436SOL    HW2 8208   1.697   6.742   1.372
 2437SOL     OW 8209   5.320   5.632   1.367
 2437SOL    HW1 8210   5.315   5.698   1.442
 2437SOL    HW2 8211   5.328   5.680   1.280
 2438SOL     OW 8212   4.173   0.736   4.773
 2438SOL    HW1 8213   4.221   0.812   4.730
 2438SOL    HW2 8214   4.087   0.769   4.813
 2439SOL     OW 8215   0.752   4.042   0.613
 2439SOL    HW1 8216   0.760   4.107   0.538
 2439SOL    HW2 8217   0.682   3.974   0.592
 2440SOL     OW 8218   3.810   6.702   5.312
 2440SOL    HW1 8219   3.770   6.642   5.381
 2440SOL    HW2 8220   3.909   6.688   5.308
 2441SOL     OW 8221   5.400   0.633   0.360
 2441SOL    HW1 8222   5.470   0.563   0.343
 2441SOL    HW2 8223   5.389   0.646   0.459
 2442SOL     OW 8224   5.828   5.374   2.796
 2442SOL    HW1 8225   5.806   5.382   2.894
 2442SOL    HW2 8226   5.926   5.362   2.785
 2443SOL     OW 8227   2.970   0.592   6.314
 2443SOL    HW1 8228   3.048   0.558   6.262
 2443SOL    HW2 8229   2.904   0.518   6.327
 2444SOL     OW 8230   3.407   3.935   7.015
 2444SOL    HW1 8231   3.459   4.011   0.032
 2444SOL    HW2 8232   3.469   3.858   6.999
 2445SOL     OW 8233   6.763   1.528   2.206
 2445SOL    HW1 8234   6.764   1.481   2.117
 2445SOL    HW2 8235   6.695   1.485   2.265
 2446SOL     OW 8236   0.690   2.780   4.693
 2446SOL    HW1 8237   0.607   2.804   4.743
 2446SOL    HW2 8238   0.696   2.835   4.609
 2447SOL     OW 8239   2.162   1.616   0.955
 2447SOL    HW1 8240   2.147   1.685   0.885
 2447SOL    HW2 8241   2.219   1.654   1.028
 2448SOL     OW 8242   6.601   1.218   4.176
 2448SOL    HW1 8243   6.521   1.159   4.187
 2448SOL    HW2 8244   6.674   1.186   4.236
 2449SOL     OW 8245   0.090   3.841   2.730
 2449SOL    HW1 8246   0.037   3.851   2.646
 2449SOL    HW2 8247   0.186   3.864   2.713
 2450SOL     OW 8248   3.187   5.357   5.906
 2450SOL    HW1 8249   3.147   5.266   5.892
 2450SOL    HW2 8250   3.185   5.381   6.003
 2451SOL     OW 8251   1.533   6.958   3.805
 2451SOL    HW1 8252   1.457   7.007   3.848
 2451SOL    HW2 8253   1.501   6.871   3.769
 2452SOL     OW 8254   3.405   1.548   4.006
 2452SOL    HW1 8255   3.459   1.507   3.932
 2452SOL    HW2 8256   3.315   1.574   3.970
 2453SOL     OW 8257   6.919   3.266   0.511
 2453SOL    HW1 8258   6.912   3.265   0.412
 2453SOL    HW2 8259   7.015   3.254   0.538
 2454SOL     OW 8260   3.433   0.410   6.330
 2454SOL    HW1 8261   3.429   0.440   6.425
 2454SOL    HW2 8262   3.388   0.477   6.271
 2455SOL     OW 8263   4.186   0.415   0.690
 2455SOL    HW1 8264   4.170   0.366   0.604
 2455SOL    HW2 8265   4.271   0.381   0.732
 2456SOL     OW 8266   6.252   2.514   0.058
 2456SOL    HW1 8267   6.277   2.611   0.067
 2456SOL    HW2 8268   6.189   2.489   0.131
 2457SOL     OW 8269   6.208   0.358   6.982
 2457SOL    HW1 8270   6.247   0.299   0.032
 2457SOL    HW2 8271   6.281   0.410   6.938
 2458SOL     OW 8272   1.693   6.163   4.106
 2458SOL    HW1 8273   1.694   6.154   4.205
 2458SOL    HW2 8274   1.684   6.259   4.081
 2459SOL     OW 8275   2.618   5.870   6.153
 2459SOL    HW1 8276   2.692   5.895   6.092
 2459SOL    HW2 8277   2.652   5.808   6.224
 2460SOL     OW 8278   1.497   1.457   1.275
 2460SOL    HW1 8279   1.468   1.365   1.300
 2460SOL    HW2 8280   1.597   1.463   1.281
 2461SOL     OW 8281   4.599   0.877   3.239
 2461SOL    HW1 8282   4.602   0.782   3.270
 2461SOL    HW2 8283   4.683   0.898   3.189
 2462SOL     OW 8284   1.580   5.212   6.679
 2462SOL    HW1 8285   1.581   5.307   6.648
 2462SOL    HW2 8286   1.646   5.201   6.753
 2463SOL     OW 8287   6.489   1.651   6.171
 2463SOL    HW1 8288   6.549   1.728   6.189
 2463SOL    HW2 8289   6.398   1.669   6.209
 2464SOL     OW 8290   2.249   4.163   2.504
 2464SOL    HW1 8291   2.319   4.152   2.574
 2464SOL    HW2 8292   2.237   4.077   2.455
 2465SOL     OW 8293   0.605   0.332   0.639
 2465SOL    HW1 8294   0.537   0.383   0.586
 2465SOL    HW2 8295   0.695   0.375   0.628
 2466SOL     OW 8296   2.634   1.683   3.066
 2466SOL    HW1 8297   2.662   1.681   2.970
 2466SOL    HW2 8298   2.705   1.729   3.120
 2467SOL     OW 8299   5.102   1.344   5.165
 2467SOL    HW1 8300   5.063   1.436   5.172
 2467SOL    HW2 8301   5.037   1.277   5.200
 2468SOL     OW 8302   4.391   6.585   1.704
 2468SOL    HW1 8303   4.365   6.664   1.760
 2468SOL    HW2 8304   4.309   6.545   1.663
 2469SOL     OW 8305   4.332   3.758   5.669
 2469SOL    HW1 8306   4.267   3.744   5.596
 2469SOL    HW2 8307   4.316   3.847   5.712
 2470SOL     OW 8308   4.318   4.338   6.319
 2470SOL    HW1 8309   4.227   4.380   6.311
 2470SOL    HW2 8310   4.333   4.278   6.241
 2471SOL     OW 8311   2.743   5.966   0.304
 2471SOL    HW1 8312   2.800   6.044   0.279
 2471SOL    HW2 8313   2.661   5.999   0.350
 2472SOL     OW 8314   4.882   2.684   4.162
 2472SOL    HW1 8315   4.878   2.630   4.078
 2472SOL    HW2 8316   4.861   2.625   4.240
 2473SOL     OW 8317   1.614   3.929   4.942
 2473SOL    HW1 8318   1.665   4.001   4.988
 2473SOL    HW2 8319   1.675   3.875   4.885
 2474SOL     OW 8320   0.419   5.330   1.117
 2474SOL    HW1 8321   0.430   5.255   1.182
 2474SOL    HW2 8322   0.497   5.391   1.122
 2475SOL     OW 8323   4.600   1.040   2.402
 2475SOL    HW1 8324   4.513   1.004   2.434
 2475SOL    HW2 8325   4.616   1.011   2.308
 2476SOL     OW 8326   0.018   1.590   3.231
 2476SOL    HW1 8327   6.998   1.649   3.162
 2476SOL    HW2 8328   0.100   1.547   3.194
 2477SOL     OW 8329   4.585   1.368   2.093
 2477SOL    HW1 8330   4.596   1.425   2.175
 2477SOL    HW2 8331   4.515   1.408   2.033
 2478SOL     OW 8332   6.254   0.872   2.001
 2478SOL    HW1 8333   6.342   0.833   1.976
 2478SOL    HW2 8334   6.190   0.860   1.925
 2479SOL     OW 8335   1.588   3.866   1.306
 2479SOL    HW1 8336   1.653   3.846   1.233
 2479SOL    HW2 8337   1.496   3.873   1.267
 2480SOL     OW 8338   4.770   4.287   1.024
 2480SOL    HW1 8339   4.702   4.360   1.022
 2480SOL    HW2 8340   4.724   4.199   1.027
 2481SOL     OW 8341   2.379   0.581   0.503
 2481SOL    HW1 8342   2.325   0.580   0.587
 2481SOL    HW2 8343   2.370   0.670   0.459
 2482SOL     OW 8344   5.030   3.405   6.248
 2482SOL    HW1 8345   5.055   3.394   6.344
 2482SOL    HW2 8346   4.944   3.358   6.230
 2483SOL     OW 8347   2.109   1.325   0.076
 2483SOL    HW1 8348   2.032   1.314   0.138
 2483SOL    HW2 8349   2.118   1.422   0.051
 2484SOL     OW 8350   3.391   1.068   0.164
 2484SOL    HW1 8351   3.388   1.048   0.262
 2484SOL    HW2 8352   3.431   0.990   0.116
 2485SOL     OW 8353   6.404   3.961   1.393
 2485SOL    HW1 8354   6.485   3.902   1.387
 2485SOL    HW2 8355   6.390   3.989   1.488
 2486SOL     OW 8356   2.054   4.824   4.347
 2486SOL    HW1 8357   2.020   4.731   4.360
 2486SOL    HW2 8358   2.138   4.836   4.401
 2487SOL     OW 8359   4.086   5.808   0.383
 2487SOL    HW1 8360   4.042   5.851   0.304
 2487SOL    HW2 8361   4.167   5.758   0.353
 2488SOL     OW 8362   2.186   4.484   2.765
 2488SOL    HW1 8363   2.139   4.466   2.679
 2488SOL    HW2 8364   2.279   4.447   2.761
 2489SOL     OW 8365   1.218   5.550   2.528
 2489SOL    HW1 8366   1.221   5.509   2.437
 2489SOL    HW2 8367   1.165   5.491   2.589
 2490SOL     OW 8368   6.419   4.840   1.579
 2490SOL    HW1 8369   6.420   4.746   1.613
 2490SOL    HW2 8370   6.372   4.843   1.491
 2491SOL     OW 8371   2.685   5.505   1.107
 2491SOL    HW1 8372   2.680   5.583   1.044
 2491SOL    HW2 8373   2.775   5.505   1.151
 2492SOL     OW 8374   4.258   2.328   1.347
 2492SOL    HW1 8375   4.243   2.286   1.436
 2492SOL    HW2 8376   4.181   2.308   1.287
 2493SOL     OW 8377   5.819   1.148   1.712
 2493SOL    HW1 8378   5.721   1.166   1.706
 2493SOL    HW2 8379   5.837   1.082   1.785
 2494SOL     OW 8380   5.825   3.721   2.006
 2494SOL    HW1 8381   5.831   3.663   2.087
 2494SOL    HW2 8382   5.730   3.731   1.979
 2495SOL     OW 8383   5.385   0.235   4.342
 2495SOL    HW1 8384   5.316   0.303   4.319
 2495SOL    HW2 8385   5.462   0.279   4.387
 2496SOL     OW 8386   0.065   3.555   5.624
 2496SOL    HW1 8387   0.107   3.488   5.686
 2496SOL    HW2 8388   7.003   3.591   5.667
 2497SOL     OW 8389   0.465   0.598   0.817
 2497SOL    HW1 8390   0.412   0.643   0.889
 2497SOL    HW2 8391   0.431   0.627   0.727
 2498SOL     OW 8392   3.001   1.054   4.643
 2498SOL    HW1 8393   2.934   1.127   4.654
 2498SOL    HW2 8394   3.075   1.086   4.583
 2499SOL     OW 8395   5.747   2.267   3.224
 2499SOL    HW1 8396   5.841   2.267   3.258
 2499SOL    HW2 8397   5.701   2.184   3.254
 2500SOL     OW 8398   4.785   2.725   0.280
 2500SOL    HW1 8399   4.814   2.710   0.375
 2500SOL    HW2 8400   4.740   2.643   0.246
 2501SOL     OW 8401   5.736   5.298   6.831
 2501SOL    HW1 8402   5.794   5.290   6.750
 2501SOL    HW2 8403   5.705   5.208   6.859
 2502SOL     OW 8404   1.826   5.161   3.366
 2502SOL    HW1 8405   1.856   5.249   3.328
 2502SOL    HW2 8406   1.905   5.103   3.382
 2503SOL     OW 8407   3.290   5.597   4.528
 2503SOL    HW1 8408   3.236   5.675   4.559
 2503SOL    HW2 8409   3.274   5.519   4.588
 2504SOL     OW 8410   3.600   5.260   4.824
 2504SOL    HW1 8411   3.688   5.306   4.832
 2504SOL    HW2 8412   3.526   5.326   4.833
 2505SOL     OW 8413   1.441   6.154   3.586
 2505SOL    HW1 8414   1.364   6.104   3.546
 2505SOL    HW2 8415   1.410   6.207   3.664
 2506SOL     OW 8416   6.765   3.697   5.306
 2506SOL    HW1 8417   6.674   3.705   5.345
 2506SOL    HW2 8418   6.833   3.723   5.375
 2507SOL     OW 8419   0.840   4.440   0.965
 2507SOL    HW1 8420   0.843   4.341   0.978
 2507SOL    HW2 8421   0.929   4.479   0.987
 2508SOL     OW 8422   2.209   1.631   2.470
 2508SOL    HW1 8423   2.274   1.566   2.431
 2508SOL    HW2 8424   2.195   1.707   2.407
 2509SOL     OW 8425   0.020   2.634   1.976
 2509SOL    HW1 8426   6.941   2.630   1.967
 2509SOL    HW2 8427   0.062   2.589   1.898
 2510SOL     OW 8428   3.362   4.420   1.427
 2510SOL    HW1 8429   3.330   4.325   1.425
 2510SOL    HW2 8430   3.354   4.457   1.520
 2511SOL     OW 8431   2.798   1.471   3.721
 2511SOL    HW1 8432   2.875   1.483   3.783
 2511SOL    HW2 8433   2.773   1.374   3.718
 2512SOL     OW 8434   4.902   4.646   5.168
 2512SOL    HW1 8435   4.831   4.584   5.201
 2512SOL    HW2 8436   4.948   4.606   5.089
 2513SOL     OW 8437   0.920   3.936   4.627
 2513SOL    HW1 8438   0.975   3.948   4.545
 2513SOL    HW2 8439   0.980   3.922   4.706
 2514SOL     OW 8440   6.493   3.515   4.095
 2514SOL    HW1 8441   6.440   3.466   4.163
 2514SOL    HW2 8442   6.467   3.611   4.095
 2515SOL     OW 8443   1.348   6.362   0.471
 2515SOL    HW1 8444   1.276   6.423   0.506
 2515SOL    HW2 8445   1.317   6.267   0.478
 2516SOL     OW 8446   6.395   0.835   2.958
 2516SOL    HW1 8447   6.452   0.850   2.877
 2516SOL    HW2 8448   6.299   0.841   2.932
 2517SOL     OW 8449   0.797   5.528   6.051
 2517SOL    HW1 8450   0.726   5.597   6.062
 2517SOL    HW2 8451   0.764   5.457   5.987
 2518SOL     OW 8452   1.283   4.166   0.089
 2518SOL    HW1 8453   1.220   4.157   0.167
 2518SOL    HW2 8454   1.353   4.095   0.095
 2519SOL     OW 8455   5.035   6.882   3.567
 2519SOL    HW1 8456   4.944   6.845   3.583
 2519SOL    HW2 8457   5.083   6.892   3.654
 2520SOL     OW 8458   2.276   2.249   6.751
 2520SOL    HW1 8459   2.334   2.181   6.708
 2520SOL    HW2 8460   2.227   2.301   6.680
 2521SOL     OW 8461   1.103   0.131   4.953
 2521SOL    HW1 8462   1.083   0.114   4.856
 2521SOL    HW2 8463   1.168   0.063   4.986
 2522SOL     OW 8464   0.613   3.150   5.570
 2522SOL    HW1 8465   0.620   3.248   5.549
 2522SOL    HW2 8466   0.516   3.125   5.575
 2523SOL     OW 8467   0.568   2.741   1.666
 2523SOL    HW1 8468   0.638   2.698   1.723
 2523SOL    HW2 8469   0.481   2.692   1.677
 2524SOL     OW 8470   0.933   5.913   5.573
 2524SOL    HW1 8471   0.867   5.928   5.646
 2524SOL    HW2 8472   0.927   5.818   5.542
 2525SOL     OW 8473   0.990   2.353   4.669
 2525SOL    HW1 8474   0.895   2.320   4.671
 2525SOL    HW2 8475   1.010   2.391   4.579
 2526SOL     OW 8476   1.469   4.444   5.389
 2526SOL    HW1 8477   1.547   4.408   5.440
 2526SOL    HW2 8478   1.462   4.542   5.404
 2527SOL     OW 8479   5.243   5.810   4.748
 2527SOL    HW1 8480   5.311   5.795   4.676
 2527SOL    HW2 8481   5.287   5.803   4.837
 2528SOL     OW 8482   5.459   4.674   1.178
 2528SOL    HW1 8483   5.545   4.709   1.140
 2528SOL    HW2 8484   5.477   4.624   1.262
 2529SOL     OW 8485   6.510   6.803   6.350
 2529SOL    HW1 8486   6.445   6.878   6.338
 2529SOL    HW2 8487   6.599   6.839   6.376
 2530SOL     OW 8488   2.305   0.081   4.828
 2530SOL    HW1 8489   2.314   0.088   4.728
 2530SOL    HW2 8490   2.213   0.049   4.850
 2531SOL     OW 8491   4.958   5.797   4.180
 2531SOL    HW1 8492   4.971   5.707   4.222
 2531SOL    HW2 8493   5.017   5.863   4.226
 2532SOL     OW 8494   0.929   6.679   0.368
 2532SOL    HW1 8495   0.848   6.722   0.327
 2532SOL    HW2 8496   1.007   6.688   0.306
 2533SOL     OW 8497   2.776   0.264   3.051
 2533SOL    HW1 8498   2.750   0.358   3.072
 2533SOL    HW2 8499   2.815   0.259   2.959
 2534SOL     OW 8500   3.289   1.175   3.072
 2534SOL    HW1 8501   3.230   1.095   3.055
 2534SOL    HW2 8502   3.232   1.257   3.079
 2535SOL     OW 8503   3.280   2.594   5.937
 2535SOL    HW1 8504   3.289   2.633   6.029
 2535SOL    HW2 8505   3.184   2.573   5.919
 2536SOL     OW 8506   0.223   1.991   4.644
 2536SOL    HW1 8507   0.178   2.054   4.707
 2536SOL    HW2 8508   0.202   2.017   4.550
 2537SOL     OW 8509   4.532   0.168   6.191
 2537SOL    HW1 8510   4.470   0.218   6.131
 2537SOL    HW2 8511   4.489   0.156   6.281
 2538SOL     OW 8512   1.009   5.157   4.966
 2538SOL    HW1 8513   0.932   5.218   4.951
 2538SOL    HW2 8514   1.014   5.091   4.891
 2539SOL     OW 8515   4.964   0.957   5.649
 2539SOL    HW1 8516   4.884   1.002   5.688
 2539SOL    HW2 8517   4.934   0.881   5.591
 2540SOL     OW 8518   4.134   1.114   2.494
 2540SOL    HW1 8519   4.044   1.139   2.531
 2540SOL    HW2 8520   4.151   1.167   2.411
 2541SOL     OW 8521   2.107   6.868   5.094
 2541SOL    HW1 8522   2.173   6.800   5.062
 2541SOL    HW2 8523   2.061   6.833   5.176
 2542SOL     OW 8524   4.764   0.894   6.052
 2542SOL    HW1 8525   4.851   0.861   6.087
 2542SOL    HW2 8526   4.709   0.931   6.127
 2543SOL     OW 8527   1.633   1.718   2.789
 2543SOL    HW1 8528   1.732   1.713   2.778
 2543SOL    HW2 8529   1.595   1.625   2.793
 2544SOL     OW 8530   0.249   5.559   1.261
 2544SOL    HW1 8531   0.238   5.461   1.249
 2544SOL    HW2 8532   0.193   5.590   1.338
 2545SOL     OW 8533   2.086   0.777   1.830
 2545SOL    HW1 8534   2.051   0.867   1.803
 2545SOL    HW2 8535   2.109   0.724   1.749
 2546SOL     OW 8536   0.662   1.878   1.581
 2546SOL    HW1 8537   0.693   1.788   1.611
 2546SOL    HW2 8538   0.675   1.944   1.656
 2547SOL     OW 8539   5.934   3.663   0.467
 2547SOL    HW1 8540   5.984   3.626   0.546
 2547SOL    HW2 8541   5.977   3.631   0.383
 2548SOL     OW 8542   2.584   6.629   5.794
 2548SOL    HW1 8543   2.529   6.546   5.795
 2548SOL    HW2 8544   2.597   6.659   5.699
 2549SOL     OW 8545   1.809   0.308   1.292
 2549SOL    HW1 8546   1.786   0.211   1.276
 2549SOL    HW2 8547   1.894   0.330   1.244
 2550SOL     OW 8548   6.689   0.842   6.021
 2550SOL    HW1 8549   6.723   0.870   6.111
 2550SOL    HW2 8550   6.596   0.807   6.030
 2551SOL     OW 8551   3.454   5.191   0.118
 2551SOL    HW1 8552   3.539   5.200   0.169
 2551SOL    HW2 8553   3.408   5.106   0.144
 2552SOL     OW 8554   1.948   5.414   6.585
 2552SOL    HW1 8555   1.900   5.445   6.667
 2552SOL    HW2 8556   1.902   5.333   6.549
 2553SOL     OW 8557   4.201   3.186   6.893
 2553SOL    HW1 8558   4.244   3.148   6.975
 2553SOL    HW2 8559   4.270   3.195   6.821
 2554SOL     OW 8560   1.796   6.359   6.976
 2554SOL    HW1 8561   1.748   6.446   6.976
 2554SOL    HW2 8562   1.845   6.348   0.042
 2555SOL     OW 8563   5.997   6.495   6.888
 2555SOL    HW1 8564   5.927   6.423   6.887
 2555SOL    HW2 8565   6.023   6.516   6.793
 2556SOL     OW 8566   4.466   5.368   0.124
 2556SOL    HW1 8567   4.398   5.315   0.073
 2556SOL    HW2 8568   4.546   5.383   0.067
 2557SOL     OW 8569   2.759   2.702   6.474
 2557SOL    HW1 8570   2.816   2.771   6.520
 2557SOL    HW2 8571   2.815   2.652   6.409
 2558SOL     OW 8572   4.263   3.001   5.600
 2558SOL    HW1 8573   4.215   2.931   5.653
 2558SOL    HW2 8574   4.235   2.997   5.504
 2559SOL     OW 8575   6.275   3.505   4.305
 2559SOL    HW1 8576   6.243   3.566   4.233
 2559SOL    HW2 8577   6.289   3.556   4.389
 2560SOL     OW 8578   5.745   3.318   4.047
 2560SOL    HW1 8579   5.767   3.237   3.994
 2560SOL    HW2 8580   5.671   3.297   4.112
 2561SOL     OW 8581   2.473   0.018   4.243
 2561SOL    HW1 8582   2.545   7.004   4.302
 2561SOL    HW2 8583   2.443   0.107   4.276
 2562SOL     OW 8584   1.496   5.912   2.559
 2562SOL    HW1 8585   1.541   5.908   2.470
 2562SOL    HW2 8586   1.566   5.921   2.630
 2563SOL     OW 8587   3.925   2.225   6.788
 2563SOL    HW1 8588   3.998   2.159   6.774
 2563SOL    HW2 8589   3.960   2.302   6.842
 2564SOL     OW 8590   1.725   6.575   6.210
 2564SOL    HW1 8591   1.712   6.516   6.290
 2564SOL    HW2 8592   1.652   6.644   6.207
 2565SOL     OW 8593   6.878   0.430   0.686
 2565SOL    HW1 8594   6.859   0.362   0.615
 2565SOL    HW2 8595   6.940   0.500   0.650
 2566SOL     OW 8596   1.402   0.056   1.208
 2566SOL    HW1 8597   1.407   0.055   1.308
 2566SOL    HW2 8598   1.375   6.987   1.175
 2567SOL     OW 8599   0.977   1.304   1.668
 2567SOL    HW1 8600   0.953   1.365   1.743
 2567SOL    HW2 8601   1.021   1.221   1.704
 2568SOL     OW 8602   3.399   6.760   7.016
 2568SOL    HW1 8603   3.309   6.800   0.009
 2568SOL    HW2 8604   3.412   6.742   6.918
 2569SOL     OW 8605   2.677   1.140   1.857
 2569SOL    HW1 8606   2.587   1.097   1.846
 2569SOL    HW2 8607   2.667   1.239   1.851
 2570SOL     OW 8608   5.477   0.736   6.947
 2570SOL    HW1 8609   5.502   0.820   6.994
 2570SOL    HW2 8610   5.551   0.707   6.886
 2571SOL     OW 8611   1.938   4.220   5.600
 2571SOL    HW1 8612   1.964   4.312   5.570
 2571SOL    HW2 8613   1.890   4.173   5.526
 2572SOL     OW 8614   2.239   5.367   0.459
 2572SOL    HW1 8615   2.243   5.278   0.504
 2572SOL    HW2 8616   2.149   5.380   0.416
 2573SOL     OW 8617   6.554   1.738   1.831
 2573SOL    HW1 8618   6.468   1.788   1.839
 2573SOL    HW2 8619   6.628   1.802   1.810
 2574SOL     OW 8620   6.075   3.508   0.276
 2574SOL    HW1 8621   6.085   3.568   0.196
 2574SOL    HW2 8622   6.023   3.427   0.251
 2575SOL     OW 8623   4.893   5.312   6.885
 2575SOL    HW1 8624   4.969   5.332   6.947
 2575SOL    HW2 8625   4.878   5.213   6.881
 2576SOL     OW 8626   3.792   6.976   4.592
 2576SOL    HW1 8627   3.878   6.928   4.575
 2576SOL    HW2 8628   3.720   6.910   4.613
 2577SOL     OW 8629   3.635   6.780   1.630
 2577SOL    HW1 8630   3.640   6.828   1.543
 2577SOL    HW2 8631   3.574   6.702   1.623
 2578SOL     OW 8632   5.097   2.078   3.801
 2578SOL    HW1 8633   5.189   2.062   3.835
 2578SOL    HW2 8634   5.032   2.025   3.855
 2579SOL     OW 8635   1.531   6.231   2.840
 2579SOL    HW1 8636   1.526   6.207   2.937
 2579SOL    HW2 8637   1.544   6.330   2.830
 2580SOL     OW 8638   2.936   3.134   6.767
 2580SOL    HW1 8639   2.840   3.110   6.753
 2580SOL    HW2 8640   2.971   3.183   6.687
 2581SOL     OW 8641   0.322   3.992   1.018
 2581SOL    HW1 8642   0.369   4.063   1.070
 2581SOL    HW2 8643   0.379   3.962   0.942
 2582SOL     OW 8644   0.840   4.404   2.205
 2582SOL    HW1 8645   0.763   4.464   2.182
 2582SOL    HW2 8646   0.823   4.361   2.294
 2583SOL     OW 8647   0.478   1.568   1.120
 2583SOL    HW1 8648   0.481   1.541   1.217
 2583SOL    HW2 8649   0.429   1.498   1.068
 2584SOL     OW 8650   4.256   5.599   0.345
 2584SOL    HW1 8651   4.170   5.579   0.299
 2584SOL    HW2 8652   4.305   5.514   0.363
 2585SOL     OW 8653   5.070   2.497   1.100
 2585SOL    HW1 8654   5.118   2.566   1.045
 2585SOL    HW2 8655   5.112   2.492   1.191
 2586SOL     OW 8656   3.407   1.393   3.495
 2586SOL    HW1 8657   3.499   1.372   3.529
 2586SOL    HW2 8658   3.405   1.487   3.461
 2587SOL     OW 8659   0.562   0.868   3.510
 2587SOL    HW1 8660   0.594   0.796   3.448
 2587SOL    HW2 8661   0.635   0.894   3.573
 2588SOL     OW 8662   4.301   0.709   5.880
 2588SOL    HW1 8663   4.361   0.741   5.953
 2588SOL    HW2 8664   4.207   0.704   5.914
 2589SOL     OW 8665   0.015   6.071   6.746
 2589SOL    HW1 8666   6.969   6.122   6.800
 2589SOL    HW2 8667   0.086   6.035   6.807
 2590SOL     OW 8668   3.473   6.181   1.122
 2590SOL    HW1 8669   3.546   6.246   1.103
 2590SOL    HW2 8670   3.479   6.104   1.059
 2591SOL     OW 8671   7.006   5.872   2.373
 2591SOL    HW1 8672   7.013   5.968   2.346
 2591SOL    HW2 8673   6.909   5.848   2.382
 2592SOL     OW 8674   3.680   6.322   1.036
 2592SOL    HW1 8675   3.705   6.237   0.989
 2592SOL    HW2 8676   3.749   6.391   1.019
 2593SOL     OW 8677   3.069   5.777   0.937
 2593SOL    HW1 8678   3.092   5.871   0.910
 2593SOL    HW2 8679   3.145   5.716   0.912
 2594SOL     OW 8680   1.017   5.151   6.217
 2594SOL    HW1 8681   1.086   5.211   6.258
 2594SOL    HW2 8682   0.941   5.207   6.182
 2595SOL     OW 8683   6.468   1.698   4.082
 2595SOL    HW1 8684   6.393   1.763   4.088
 2595SOL    HW2 8685   6.536   1.732   4.017
 2596SOL     OW 8686   3.916   1.892   2.035
 2596SOL    HW1 8687   3.951   1.905   1.941
 2596SOL    HW2 8688   3.830   1.843   2.032
 2597SOL     OW 8689   1.448   4.291   5.840
 2597SOL    HW1 8690   1.544   4.310   5.818
 2597SOL    HW2 8691   1.390   4.365   5.805
 2598SOL     OW 8692   6.104   1.296   3.489
 2598SOL    HW1 8693   6.204   1.290   3.488
 2598SOL    HW2 8694   6.065   1.204   3.489
 2599SOL     OW 8695   1.913   6.769   1.076
 2599SOL    HW1 8696   1.889   6.826   1.155
 2599SOL    HW2 8697   1.831   6.721   1.045
 2600SOL     OW 8698   5.299   3.404   4.471
 2600SOL    HW1 8699   5.393   3.375   4.486
 2600SOL    HW2 8700   5.253   3.417   4.559
 2601SOL     OW 8701   1.821   2.087   0.650
 2601SOL    HW1 8702   1.730   2.126   0.634
 2601SOL    HW2 8703   1.883   2.117   0.578
 2602SOL     OW 8704   0.520   4.155   4.147
 2602SOL    HW1 8705   0.447   4.204   4.194
 2602SOL    HW2 8706   0.600   4.214   4.138
 2603SOL     OW 8707   2.591   1.277   2.842
 2603SOL    HW1 8708   2.541   1.309   2.922
 2603SOL    HW2 8709   2.576   1.179   2.829
 2604SOL     OW 8710   4.976   1.868   2.909
 2604SOL    HW1 8711   4.935   1.954   2.937
 2604SOL    HW2 8712   4.989   1.868   2.809
 2605SOL     OW 8713   1.944   4.138   2.886
 2605SOL    HW1 8714   2.014   4.077   2.849
 2605SOL    HW2 8715   1.932   4.120   2.983
 2606SOL     OW 8716   6.018   4.373   2.132
 2606SOL    HW1 8717   5.941   4.386   2.069
 2606SOL    HW2 8718   6.092   4.325   2.084
 2607SOL     OW 8719   1.400   1.143   1.098
 2607SOL    HW1 8720   1.382   1.196   1.181
 2607SOL    HW2 8721   1.476   1.080   1.115
 2608SOL     OW 8722   4.758   4.676   1.472
 2608SOL    HW1 8723   4.696   4.607   1.508
 2608SOL    HW2 8724   4.753   4.758   1.529
 2609SOL     OW 8725   6.767   1.729   0.602
 2609SOL    HW1 8726   6.694   1.747   0.668
 2609SOL    HW2 8727   6.815   1.645   0.628
 2610SOL     OW 8728   0.886   4.626   4.719
 2610SOL    HW1 8729   0.824   4.555   4.684
 2610SOL    HW2 8730   0.845   4.716   4.704
 2611SOL     OW 8731   4.642   6.527   1.103
 2611SOL    HW1 8732   4.704   6.545   1.179
 2611SOL    HW2 8733   4.549   6.516   1.138
 2612SOL     OW 8734   6.940   0.034   5.972
 2612SOL    HW1 8735   6.908   7.003   5.893
 2612SOL    HW2 8736   6.863   0.055   6.032
 2613SOL     OW 8737   2.496   6.041   6.479
 2613SOL    HW1 8738   2.536   6.078   6.563
 2613SOL    HW2 8739   2.430   6.106   6.442
 2614SOL     OW 8740   6.944   0.674   5.602
 2614SOL    HW1 8741   0.011   0.664   5.646
 2614SOL    HW2 8742   6.953   0.657   5.504
 2615SOL     OW 8743   0.065   2.628   3.037
 2615SOL    HW1 8744   0.163   2.619   3.021
 2615SOL    HW2 8745   0.049   2.704   3.101
 2616SOL     OW 8746   3.160   3.566   5.281
 2616SOL    HW1 8747   3.260   3.566   5.290
 2616SOL    HW2 8748   3.119   3.578   5.371
 2617SOL     OW 8749   3.622   6.480   0.498
 2617SOL    HW1 8750   3.582   6.533   0.423
 2617SOL    HW2 8751   3.719   6.465   0.479
 2618SOL     OW 8752   0.003   0.514   4.363
 2618SOL    HW1 8753   6.980   0.577   4.299
 2618SOL    HW2 8754   6.954   0.465   4.415
 2619SOL     OW 8755   4.375   1.990   3.109
 2619SOL    HW1 8756   4.473   1.988   3.129
 2619SOL    HW2 8757   4.343   1.898   3.086
 2620SOL     OW 8758   6.619   0.156   3.352
 2620SOL    HW1 8759   6.552   0.113   3.413
 2620SOL    HW2 8760   6.628   0.253   3.376
 2621SOL     OW 8761   1.417   5.754   2.959
 2621SOL    HW1 8762   1.368   5.801   2.886
 2621SOL    HW2 8763   1.390   5.657   2.960
 2622SOL     OW 8764   1.820   3.341   5.240
 2622SOL    HW1 8765   1.867   3.427   5.260
 2622SOL    HW2 8766   1.881   3.264   5.258
 2623SOL     OW 8767   1.580   0.823   5.616
 2623SOL    HW1 8768   1.493   0.788   5.649
 2623SOL    HW2 8769   1.654   0.763   5.646
 2624SOL     OW 8770   6.686   1.345   5.384
 2624SOL    HW1 8771   6.599   1.329   5.337
 2624SOL    HW2 8772   6.668   1.375   5.477
 2625SOL     OW 8773   2.007   3.040   5.185
 2625SOL    HW1 8774   2.083   2.977   5.201
 2625SOL    HW2 8775   2.022   3.089   5.099
 2626SOL     OW 8776   0.685   0.308   5.610
 2626SOL    HW1 8777   0.643   0.394   5.584
 2626SOL    HW2 8778   0.707   0.255   5.529
 2627SOL     OW 8779   1.401   0.924   5.883
 2627SOL    HW1 8780   1.357   0.981   5.813
 2627SOL    HW2 8781   1.346   0.841   5.897
 2628SOL     OW 8782   1.906   4.716   5.460
 2628SOL    HW1 8783   1.978   4.709   5.530
 2628SOL    HW2 8784   1.939   4.774   5.385
 2629SOL     OW 8785   3.123   3.128   1.531
 2629SOL    HW1 8786   3.216   3.107   1.563
 2629SOL    HW2 8787   3.062   3.052   1.553
 2630SOL     OW 8788   3.227   2.051   2.570
 2630SOL    HW1 8789   3.142   2.034   2.521
 2630SOL    HW2 8790   3.253   2.147   2.559
 2631SOL     OW 8791   5.767   0.891   5.491
 2631SOL    HW1 8792   5.843   0.921   5.434
 2631SOL    HW2 8793   5.696   0.962   5.491
 2632SOL     OW 8794   4.915   3.098   6.524
 2632SOL    HW1 8795   4.955   3.024   6.579
 2632SOL    HW2 8796   4.980   3.173   6.516
 2633SOL     OW 8797   0.370   2.242   4.829
 2633SOL    HW1 8798   0.302   2.172   4.852
 2633SOL    HW2 8799   0.372   2.255   4.730
 2634SOL     OW 8800   0.660   4.778   3.397
 2634SOL    HW1 8801   0.701   4.864   3.428
 2634SOL    HW2 8802   0.581   4.756   3.454
 2635SOL     OW 8803   6.703   5.459   5.578
 2635SOL    HW1 8804   6.802   5.473   5.578
 2635SOL    HW2 8805   6.678   5.399   5.502
 2636SOL     OW 8806   3.940   0.783   5.327
 2636SOL    HW1 8807   3.976   0.871   5.360
 2636SOL    HW2 8808   3.897   0.735   5.403
 2637SOL     OW 8809   4.896   1.668   3.319
 2637SOL    HW1 8810   4.889   1.733   3.394
 2637SOL    HW2 8811   4.895   1.575   3.355
 2638SOL     OW 8812   6.764   0.119   3.675
 2638SOL    HW1 8813   6.790   0.023   3.688
 2638SOL    HW2 8814   6.812   0.156   3.595
 2639SOL     OW 8815   0.353   5.494   0.850
 2639SOL    HW1 8816   0.377   5.449   0.936
 2639SOL    HW2 8817   0.433   5.542   0.814
 2640SOL     OW 8818   0.504   6.388   5.571
 2640SOL    HW1 8819   0.528   6.333   5.651
 2640SOL    HW2 8820   0.573   6.375   5.500
 2641SOL     OW 8821   5.493   3.131   2.357
 2641SOL    HW1 8822   5.546   3.065   2.411
 2641SOL    HW2 8823   5.554   3.179   2.294
 2642SOL     OW 8824   4.751   6.472   3.782
 2642SOL    HW1 8825   4.765   6.382   3.741
 2642SOL    HW2 8826   4.836   6.523   3.781
 2643SOL     OW 8827   0.275   3.544   3.517
 2643SOL    HW1 8828   0.328   3.625   3.495
 2643SOL    HW2 8829   0.337   3.466   3.530
 2644SOL     OW 8830   5.794   6.576   5.771
 2644SOL    HW1 8831   5.852   6.657   5.770
 2644SOL    HW2 8832   5.766   6.556   5.865
 2645SOL     OW 8833   4.171   5.921   4.211
 2645SOL    HW1 8834   4.230   5.926   4.130
 2645SOL    HW2 8835   4.194   5.839   4.264
 2646SOL     OW 8836   6.147   0.761   6.563
 2646SOL    HW1 8837   6.201   0.760   6.479
 2646SOL    HW2 8838   6.153   0.671   6.607
 2647SOL     OW 8839   6.117   0.160   1.903
 2647SOL    HW1 8840   6.211   0.130   1.887
 2647SOL    HW2 8841   6.115   0.258   1.921
 2648SOL     OW 8842   0.522   0.188   4.324
 2648SOL    HW1 8843   0.487   0.125   4.255
 2648SOL    HW2 8844   0.605   0.150   4.365
 2649SOL     OW 8845   5.654   3.069   6.828
 2649SOL    HW1 8846   5.597   2.988   6.832
 2649SOL    HW2 8847   5.733   3.052   6.769
 2650SOL     OW 8848   1.546   4.697   3.995
 2650SOL    HW1 8849   1.568   4.699   4.093
 2650SOL    HW2 8850   1.491   4.616   3.975
 2651SOL     OW 8851   1.640   1.644   0.967
 2651SOL    HW1 8852   1.724   1.602   1.002
 2651SOL    HW2 8853   1.580   1.666   1.044
 2652SOL     OW 8854   4.043   3.523   4.654
 2652SOL    HW1 8855   4.099   3.513   4.572
 2652SOL    HW2 8856   4.072   3.456   4.723
 2653SOL     OW 8857   5.080   6.487   4.999
 2653SOL    HW1 8858   4.987   6.495   5.035
 2653SOL    HW2 8859   5.122   6.577   4.994
 2654SOL     OW 8860   4.252   6.471   2.401
 2654SOL    HW1 8861   4.327   6.420   2.443
 2654SOL    HW2 8862   4.267   6.569   2.415
 2655SOL     OW 8863   4.388   6.011   4.355
 2655SOL    HW1 8864   4.425   6.095   4.316
 2655SOL    HW2 8865   4.303   5.987   4.310
 2656SOL     OW 8866   4.047   5.065   4.866
 2656SOL    HW1 8867   3.965   5.034   4.915
 2656SOL    HW2 8868   4.060   5.010   4.784
 2657SOL     OW 8869   1.033   4.262   6.472
 2657SOL    HW1 8870   1.026   4.204   6.391
 2657SOL    HW2 8871   0.953   4.321   6.478
 2658SOL     OW 8872   4.943   4.497   1.102
 2658SOL    HW1 8873   5.035   4.502   1.139
 2658SOL    HW2 8874   4.909   4.403   1.109
 2659SOL     OW 8875   5.264   3.100   4.487
 2659SOL    HW1 8876   5.176   3.149   4.486
 2659SOL    HW2 8877   5.312   3.120   4.573
 2660SOL     OW 8878   1.736   0.344   1.770
 2660SOL    HW1 8879   1.833   0.365   1.784
 2660SOL    HW2 8880   1.713   0.355   1.673
 2661SOL     OW 8881   2.531   0.425   1.297
 2661SOL    HW1 8882   2.448   0.408   1.351
 2661SOL    HW2 8883   2.509   0.421   1.200
 2662SOL     OW 8884   5.091   6.823   4.732
 2662SOL    HW1 8885   5.092   6.748   4.798
 2662SOL    HW2 8886   5.006   6.820   4.680
 2663SOL     OW 8887   2.892   3.864   6.740
 2663SOL    HW1 8888   2.973   3.879   6.797
 2663SOL    HW2 8889   2.811   3.895   6.788
 2664SOL     OW 8890   4.271   3.685   5.171
 2664SOL    HW1 8891   4.268   3.588   5.146
 2664SOL    HW2 8892   4.363   3.708   5.204
 2665SOL     OW 8893   2.619   2.865   5.388
 2665SOL    HW1 8894   2.616   2.767   5.370
 2665SOL    HW2 8895   2.582   2.915   5.310
 2666SOL     OW 8896   5.870   4.743   1.263
 2666SOL    HW1 8897   5.949   4.715   1.209
 2666SOL    HW2 8898   5.800   4.671   1.260
 2667SOL     OW 8899   0.121   5.944   4.527
 2667SOL    HW1 8900   0.140   5.965   4.432
 2667SOL    HW2 8901   0.192   5.884   4.564
 2668SOL     OW 8902   6.781   3.057   5.020
 2668SOL    HW1 8903   6.722   3.121   5.070
 2668SOL    HW2 8904   6.781   3.081   4.923
 2669SOL     OW 8905   2.766   4.367   5.371
 2669SOL    HW1 8906   2.836   4.405   5.311
 2669SOL    HW2 8907   2.795   4.278   5.405
 2670SOL     OW 8908   5.538   3.181   6.014
 2670SOL    HW1 8909   5.504   3.262   5.967
 2670SOL    HW2 8910   5.611   3.139   5.960
 2671SOL     OW 8911   4.391   5.391   6.101
 2671SOL    HW1 8912   4.338   5.460   6.150
 2671SOL    HW2 8913   4.465   5.358   6.159
 2672SOL     OW 8914   1.782   5.078   0.686
 2672SOL    HW1 8915   1.866   5.025   0.698
 2672SOL    HW2 8916   1.722   5.065   0.765
 2673SOL     OW 8917   5.923   1.222   2.459
 2673SOL    HW1 8918   5.880   1.247   2.373
 2673SOL    HW2 8919   5.914   1.124   2.474
 2674SOL     OW 8920   1.225   4.427   3.696
 2674SOL    HW1 8921   1.174   4.350   3.736
 2674SOL    HW2 8922   1.308   4.442   3.748
 2675SOL     OW 8923   6.255   5.171   3.982
 2675SOL    HW1 8924   6.193   5.134   4.052
 2675SOL    HW2 8925   6.213   5.161   3.892
 2676SOL     OW 8926   3.668   1.980   0.939
 2676SOL    HW1 8927   3.679   1.950   0.844
 2676SOL    HW2 8928   3.682   2.079   0.945
 2677SOL     OW 8929   2.608   3.743   0.531
 2677SOL    HW1 8930   2.678   3.703   0.472
 2677SOL    HW2 8931   2.554   3.810   0.479
 2678SOL     OW 8932   0.289   2.811   1.225
 2678SOL    HW1 8933   0.218   2.876   1.198
 2678SOL    HW2 8934   0.357   2.857   1.282
 2679SOL     OW 8935   2.348   4.115   1.613
 2679SOL    HW1 8936   2.441   4.137   1.640
 2679SOL    HW2 8937   2.297   4.200   1.596
 2680SOL     OW 8938   1.136   1.373   0.326
 2680SOL    HW1 8939   1.039   1.386   0.345
 2680SOL    HW2 8940   1.190   1.429   0.389
 2681SOL     OW 8941   1.319   2.878   4.197
 2681SOL    HW1 8942   1.229   2.863   4.155
 2681SOL    HW2 8943   1.319   2.840   4.289
 2682SOL     OW 8944   4.998   4.243   3.091
 2682SOL    HW1 8945   5.009   4.216   2.995
 2682SOL    HW2 8946   4.902   4.237   3.117
 2683SOL     OW 8947   2.790   5.318   1.433
 2683SOL    HW1 8948   2.769   5.241   1.374
 2683SOL    HW2 8949   2.771   5.295   1.529
 2684SOL     OW 8950   4.484   5.674   1.755
 2684SOL    HW1 8951   4.523   5.585   1.778
 2684SOL    HW2 8952   4.466   5.678   1.657
 2685SOL     OW 8953   5.606   6.422   6.413
 2685SOL    HW1 8954   5.542   6.497   6.429
 2685SOL    HW2 8955   5.607   6.362   6.493
 2686SOL     OW 8956   1.792   1.773   5.743
 2686SOL    HW1 8957   1.761   1.772   5.648
 2686SOL    HW2 8958   1.883   1.732   5.750
 2687SOL     OW 8959   4.951   5.028   1.336
 2687SOL    HW1 8960   5.001   5.038   1.421
 2687SOL    HW2 8961   4.853   5.036   1.354
 2688SOL     OW 8962   3.646   3.816   0.230
 2688SOL    HW1 8963   3.597   3.741   0.187
 2688SOL    HW2 8964   3.693   3.870   0.160
 2689SOL     OW 8965   1.567   4.335   3.667
 2689SOL    HW1 8966   1.604   4.417   3.623
 2689SOL    HW2 8967   1.529   4.274   3.598
 2690SOL     OW 8968   3.667   2.898   4.435
 2690SOL    HW1 8969   3.662   2.874   4.532
 2690SOL    HW2 8970   3.605   2.839   4.383
 2691SOL     OW 8971   1.835   5.407   2.827
 2691SOL    HW1 8972   1.861   5.326   2.879
 2691SOL    HW2 8973   1.773   5.464   2.881
 2692SOL     OW 8974   3.124   5.478   2.563
 2692SOL    HW1 8975   3.201   5.461   2.503
 2692SOL    HW2 8976   3.092   5.572   2.551
 2693SOL     OW 8977   2.215   5.266   3.576
 2693SOL    HW1 8978   2.220   5.217   3.488
 2693SOL    HW2 8979   2.233   5.364   3.560
 2694SOL     OW 8980   3.640   5.922   2.820
 2694SOL    HW1 8981   3.723   5.958   2.861
 2694SOL    HW2 8982   3.590   5.867   2.887
 2695SOL     OW 8983   5.541   0.452   1.809
 2695SOL    HW1 8984   5.564   0.419   1.717
 2695SOL    HW2 8985   5.609   0.520   1.837
 2696SOL     OW 8986   3.858   3.356   5.730
 2696SOL    HW1 8987   3.933   3.352   5.664
 2696SOL    HW2 8988   3.779   3.400   5.689
 2697SOL     OW 8989   3.353   1.281   2.652
 2697SOL    HW1 8990   3.381   1.305   2.744
 2697SOL    HW2 8991   3.263   1.321   2.633
 2698SOL     OW 8992   1.798   6.046   0.513
 2698SOL    HW1 8993   1.870   5.981   0.488
 2698SOL    HW2 8994   1.747   6.011   0.592
 2699SOL     OW 8995   2.435   6.038   0.323
 2699SOL    HW1 8996   2.392   6.005   0.239
 2699SOL    HW2 8997   2.373   6.024   0.400
 2700SOL     OW 8998   2.448   3.494   0.051
 2700SOL    HW1 8999   2.386   3.572   0.062
 2700SOL    HW2 9000   2.538   3.527   0.025
 2701SOL     OW 9001   5.530   1.581   5.704
 2701SOL    HW1 9002   5.534   1.666   5.651
 2701SOL    HW2 9003   5.570   1.596   5.794
 2702SOL     OW 9004   0.625   3.007   3.302
 2702SOL    HW1 9005   0.592   3.071   3.372
 2702SOL    HW2 9006   0.671   2.930   3.347
 2703SOL     OW 9007   1.090   6.849   1.280
 2703SOL    HW1 9008   1.117   6.881   1.371
 2703SOL    HW2 9009   1.054   6.756   1.287
 2704SOL     OW 9010   6.728   5.275   1.685
 2704SOL    HW1 9011   6.726   5.226   1.773
 2704SOL    HW2 9012   6.696   5.214   1.613
 2705SOL     OW 9013   0.052   5.579   4.883
 2705SOL    HW1 9014   0.145   5.585   4.921
 2705SOL    HW2 9015   7.020   5.513   4.935
 2706SOL     OW 9016   6.876   5.066   2.578
 2706SOL    HW1 9017   6.817   5.033   2.504
 2706SOL    HW2 9018   6.968   5.028   2.565
 2707SOL     OW 9019   3.998   6.979   3.958
 2707SOL    HW1 9020   3.944   0.019   3.900
 2707SOL    HW2 9021   4.083   6.954   3.911
 2708SOL     OW 9022   0.366   2.573   0.497
 2708SOL    HW1 9023   0.430   2.581   0.573
 2708SOL    HW2 9024   0.305   2.494   0.512
 2709SOL     OW 9025   5.469   0.182   6.953
 2709SOL    HW1 9026   5.493   0.197   0.028
 2709SOL    HW2 9027   5.525   0.109   6.915
 2710SOL     OW 9028   0.574   3.758   4.030
 2710SOL    HW1 9029   0.528   3.681   3.985
 2710SOL    HW2 9030   0.542   3.844   3.989
 2711SOL     OW 9031   2.264   0.944   3.359
 2711SOL    HW1 9032   2.210   1.013   3.311
 2711SOL    HW2 9033   2.238   0.942   3.456
 2712SOL     OW 9034   3.079   4.369   1.220
 2712SOL    HW1 9035   3.107   4.288   1.168
 2712SOL    HW2 9036   3.108   4.359   1.315
 2713SOL     OW 9037   2.618   2.503   4.838
 2713SOL    HW1 9038   2.625   2.586   4.782
 2713SOL    HW2 9039   2.694   2.442   4.817
 2714SOL     OW 9040   3.497   2.674   0.145
 2714SOL    HW1 9041   3.502   2.610   0.221
 2714SOL    HW2 9042   3.457   2.760   0.176
 2715SOL     OW 9043   4.909   1.567   1.055
 2715SOL    HW1 9044   4.809   1.571   1.068
 2715SOL    HW2 9045   4.952   1.532   1.139
 2716SOL     OW 9046   5.257   3.940   2.424
 2716SOL    HW1 9047   5.194   4.001   2.377
 2716SOL    HW2 9048   5.226   3.845   2.413
 2717SOL     OW 9049   0.997   6.706   2.727
 2717SOL    HW1 9050   1.022   6.786   2.671
 2717SOL    HW2 9051   1.072   6.640   2.725
 2718SOL     OW 9052   1.261   1.588   5.134
 2718SOL    HW1 9053   1.288   1.624   5.045
 2718SOL    HW2 9054   1.238   1.491   5.126
 2719SOL     OW 9055   0.460   4.843   1.828
 2719SOL    HW1 9056   0.536   4.874   1.771
 2719SOL    HW2 9057   0.466   4.886   1.918
 2720SOL     OW 9058   2.118   5.460   1.953
 2720SOL    HW1 9059   2.058   5.457   2.032
 2720SOL    HW2 9060   2.108   5.548   1.907
 2721SOL     OW 9061   2.706   0.255   3.550
 2721SOL    HW1 9062   2.717   0.186   3.478
 2721SOL    HW2 9063   2.711   0.346   3.509
 2722SOL     OW 9064   6.922   5.340   0.607
 2722SOL    HW1 9065   6.876   5.351   0.519
 2722SOL    HW2 9066   6.930   5.243   0.629
 2723SOL     OW 9067   0.541   0.208   6.561
 2723SOL    HW1 9068   0.477   0.162   6.500
 2723SOL    HW2 9069   0.635   0.191   6.530
 2724SOL     OW 9070   2.032   6.867   0.063
 2724SOL    HW1 9071   1.951   6.918   0.034
 2724SOL    HW2 9072   2.050   6.793   7.019
 2725SOL     OW 9073   5.075   4.275   4.420
 2725SOL    HW1 9074   5.046   4.284   4.515
 2725SOL    HW2 9075   5.020   4.335   4.362
 2726SOL     OW 9076   0.507   2.171   0.809
 2726SOL    HW1 9077   0.428   2.135   0.759
 2726SOL    HW2 9078   0.553   2.097   0.858
 2727SOL     OW 9079   0.270   4.972   3.327
 2727SOL    HW1 9080   0.171   4.985   3.336
 2727SOL    HW2 9081   0.317   5.034   3.390
 2728SOL     OW 9082   4.680   6.600   6.008
 2728SOL    HW1 9083   4.641   6.647   5.929
 2728SOL    HW2 9084   4.771   6.635   6.027
 2729SOL     OW 9085   0.106   6.311   0.750
 2729SOL    HW1 9086   0.148   6.220   0.753
 2729SOL    HW2 9087   0.008   6.304   0.768
 2730SOL     OW 9088   1.800   6.036   1.648
 2730SOL    HW1 9089   1.714   5.985   1.658
 2730SOL    HW2 9090   1.867   6.003   1.714
 2731SOL     OW 9091   3.620   4.139   3.004
 2731SOL    HW1 9092   3.702   4.193   3.019
 2731SOL    HW2 9093   3.623   4.097   2.913
 2732SOL     OW 9094   5.522   2.870   1.637
 2732SOL    HW1 9095   5.621   2.882   1.633
 2732SOL    HW2 9096   5.489   2.843   1.546
 2733SOL     OW 9097   6.641   1.621   4.532
 2733SOL    HW1 9098   6.631   1.587   4.439
 2733SOL    HW2 9099   6.556   1.666   4.560
 2734SOL     OW 9100   3.098   5.740   1.203
 2734SOL    HW1 9101   3.090   5.765   1.107
 2734SOL    HW2 9102   3.019   5.774   1.253
 2735SOL     OW 9103   1.067   3.538   1.619
 2735SOL    HW1 9104   1.114   3.623   1.591
 2735SOL    HW2 9105   1.106   3.461   1.568
 2736SOL     OW 9106   6.053   6.520   4.826
 2736SOL    HW1 9107   6.020   6.559   4.912
 2736SOL    HW2 9108   6.133   6.462   4.844
 2737SOL     OW 9109   2.904   3.726   5.868
 2737SOL    HW1 9110   2.943   3.656   5.928
 2737SOL    HW2 9111   2.839   3.782   5.919
 2738SOL     OW 9112   4.894   6.488   1.991
 2738SOL    HW1 9113   4.801   6.471   1.957
 2738SOL    HW2 9114   4.957   6.495   1.914
 2739SOL     OW 9115   0.785   4.259   1.594
 2739SOL    HW1 9116   0.748   4.302   1.676
 2739SOL    HW2 9117   0.882   4.238   1.609
 2740SOL     OW 9118   6.935   3.907   2.530
 2740SOL    HW1 9119   6.998   3.886   2.455
 2740SOL    HW2 9120   6.906   4.003   2.523
 2741SOL     OW 9121   6.288   0.755   4.807
 2741SOL    HW1 9122   6.255   0.818   4.737
 2741SOL    HW2 9123   6.325   0.673   4.764
 2742SOL     OW 9124   2.253   5.105   0.544
 2742SOL    HW1 9125   2.160   5.111   0.582
 2742SOL    HW2 9126   2.277   5.008   0.532
 2743SOL     OW 9127   6.451   4.821   2.517
 2743SOL    HW1 9128   6.379   4.767   2.473
 2743SOL    HW2 9129   6.411   4.907   2.551
 2744SOL     OW 9130   4.790   2.200   6.701
 2744SOL    HW1 9131   4.844   2.168   6.623
 2744SOL    HW2 9132   4.716   2.259   6.669
 2745SOL     OW 9133   7.006   0.323   5.557
 2745SOL    HW1 9134   6.915   0.281   5.561
 2745SOL    HW2 9135   0.047   0.273   5.617
 2746SOL     OW 9136   2.417   1.659   4.366
 2746SOL    HW1 9137   2.335   1.706   4.333
 2746SOL    HW2 9138   2.498   1.706   4.332
 2747SOL     OW 9139   5.935   3.640   6.635
 2747SOL    HW1 9140   5.906   3.595   6.719
 2747SOL    HW2 9141   6.003   3.584   6.589
 2748SOL     OW 9142   5.009   1.501   1.743
 2748SOL    HW1 9143   5.098   1.546   1.753
 2748SOL    HW2 9144   4.959   1.541   1.666
 2749SOL     OW 9145   0.319   4.586   2.396
 2749SOL    HW1 9146   0.317   4.525   2.475
 2749SOL    HW2 9147   0.405   4.636   2.394
 2750SOL     OW 9148   0.706   4.606   1.360
 2750SOL    HW1 9149   0.622   4.624   1.309
 2750SOL    HW2 9150   0.686   4.541   1.434
 2751SOL     OW 9151   0.992   4.578   1.340
 2751SOL    HW1 9152   1.020   4.576   1.436
 2751SOL    HW2 9153   0.892   4.586   1.334
 2752SOL     OW 9154   3.865   5.589   5.538
 2752SOL    HW1 9155   3.816   5.675   5.524
 2752SOL    HW2 9156   3.833   5.545   5.623
 2753SOL     OW 9157   0.377   6.656   5.554
 2753SOL    HW1 9158   0.350   6.583   5.616
 2753SOL    HW2 9159   0.316   6.735   5.567
 2754SOL     OW 9160   0.673   0.321   1.952
 2754SOL    HW1 9161   0.585   0.363   1.929
 2754SOL    HW2 9162   0.747   0.370   1.905
 2755SOL     OW 9163   2.259   6.693   2.819
 2755SOL    HW1 9164   2.280   6.789   2.800
 2755SOL    HW2 9165   2.332   6.653   2.874
 2756SOL     OW 9166   5.889   5.066   6.280
 2756SOL    HW1 9167   5.935   5.072   6.369
 2756SOL    HW2 9168   5.806   5.010   6.289
 2757SOL     OW 9169   2.704   0.356   0.080
 2757SOL    HW1 9170   2.777   0.394   0.137
 2757SOL    HW2 9171   2.714   0.390   7.007
 2758SOL     OW 9172   3.980   6.419   3.886
 2758SOL    HW1 9173   4.035   6.491   3.844
 2758SOL    HW2 9174   3.958   6.349   3.817
 2759SOL     OW 9175   5.804   6.775   5.329
 2759SOL    HW1 9176   5.776   6.692   5.281
 2759SOL    HW2 9177   5.901   6.793   5.312
 2760SOL     OW 9178   0.950   5.880   2.116
 2760SOL    HW1 9179   0.927   5.933   2.198
 2760SOL    HW2 9180   0.868   5.871   2.059
 2761SOL     OW 9181   1.874   5.338   5.225
 2761SOL    HW1 9182   1.905   5.243   5.222
 2761SOL    HW2 9183   1.950   5.399   5.206
 2762SOL     OW 9184   1.595   0.560   4.749
 2762SOL    HW1 9185   1.613   0.627   4.821
 2762SOL    HW2 9186   1.678   0.548   4.694
 2763SOL     OW 9187   4.605   2.050   3.631
 2763SOL    HW1 9188   4.674   2.121   3.618
 2763SOL    HW2 9189   4.649   1.965   3.657
 2764SOL     OW 9190   5.974   0.980   1.556
 2764SOL    HW1 9191   5.910   1.050   1.588
 2764SOL    HW2 9192   6.063   0.994   1.599
 2765SOL     OW 9193   6.000   0.116   0.493
 2765SOL    HW1 9194   5.988   0.062   0.576
 2765SOL    HW2 9195   5.927   0.093   0.428
 2766SOL     OW 9196   4.911   2.996   0.965
 2766SOL    HW1 9197   4.888   2.928   0.895
 2766SOL    HW2 9198   4.992   2.966   1.015
 2767SOL     OW 9199   6.900   5.400   6.822
 2767SOL    HW1 9200   6.910   5.480   6.764
 2767SOL    HW2 9201   6.818   5.349   6.796
 2768SOL     OW 9202   4.341   0.731   1.185
 2768SOL    HW1 9203   4.321   0.727   1.088
 2768SOL    HW2 9204   4.375   0.642   1.216
 2769SOL     OW 9205   2.121   4.773   4.760
 2769SOL    HW1 9206   2.074   4.861   4.763
 2769SOL    HW2 9207   2.213   4.785   4.722
 2770SOL     OW 9208   4.330   5.992   6.234
 2770SOL    HW1 9209   4.336   5.894   6.252
 2770SOL    HW2 9210   4.268   6.008   6.157
 2771SOL     OW 9211   6.219   0.879   3.495
 2771SOL    HW1 9212   6.288   0.913   3.559
 2771SOL    HW2 9213   6.198   0.783   3.517
 2772SOL     OW 9214   3.852   1.926   1.137
 2772SOL    HW1 9215   3.793   1.921   1.057
 2772SOL    HW2 9216   3.935   1.977   1.115
 2773SOL     OW 9217   6.294   2.155   5.153
 2773SOL    HW1 9218   6.340   2.244   5.152
 2773SOL    HW2 9219   6.223   2.156   5.224
 2774SOL     OW 9220   5.759   2.797   2.834
 2774SOL    HW1 9221   5.856   2.808   2.857
 2774SOL    HW2 9222   5.746   2.813   2.736
 2775SOL     OW 9223   6.281   4.891   5.761
 2775SOL    HW1 9224   6.249   4.824   5.694
 2775SOL    HW2 9225   6.244   4.868   5.851
 2776SOL     OW 9226   4.486   4.897   5.802
 2776SOL    HW1 9227   4.419   4.823   5.816
 2776SOL    HW2 9228   4.440   4.985   5.813
 2777SOL     OW 9229   3.066   1.820   1.362
 2777SOL    HW1 9230   3.026   1.905   1.396
 2777SOL    HW2 9231   2.996   1.748   1.360
 2778SOL     OW 9232   1.681   0.270   5.403
 2778SOL    HW1 9233   1.754   0.306   5.461
 2778SOL    HW2 9234   1.611   0.340   5.390
 2779SOL     OW 9235   5.000   6.512   1.731
 2779SOL    HW1 9236   4.916   6.553   1.696
 2779SOL    HW2 9237   5.074   6.579   1.730
 2780SOL     OW 9238   6.864   6.661   6.780
 2780SOL    HW1 9239   6.852   6.660   6.681
 2780SOL    HW2 9240   6.961   6.654   6.802
 2781SOL     OW 9241   5.202   6.686   1.771
 2781SOL    HW1 9242   5.267   6.612   1.754
 2781SOL    HW2 9243   5.252   6.767   1.802
 2782SOL     OW 9244   4.881   2.084   5.952
 2782SOL    HW1 9245   4.939   2.121   6.025
 2782SOL    HW2 9246   4.887   2.142   5.871
 2783SOL     OW 9247   5.193   4.390   2.893
 2783SOL    HW1 9248   5.258   4.315   2.909
 2783SOL    HW2 9249   5.136   4.402   2.974
 2784SOL     OW 9250   3.332   1.511   2.356
 2784SOL    HW1 9251   3.355   1.441   2.289
 2784SOL    HW2 9252   3.257   1.479   2.414
 2785SOL     OW 9253   5.174   2.686   0.949
 2785SOL    HW1 9254   5.134   2.767   0.991
 2785SOL    HW2 9255   5.162   2.690   0.850
 2786SOL     OW 9256   5.173   0.175   2.869
 2786SOL    HW1 9257   5.198   0.202   2.777
 2786SOL    HW2 9258   5.215   0.087   2.891
 2787SOL     OW 9259   5.154   0.777   6.095
 2787SOL    HW1 9260   5.097   0.819   6.166
 2787SOL    HW2 9261   5.141   0.826   6.009
 2788SOL     OW 9262   2.075   5.356   6.114
 2788SOL    HW1 9263   2.150   5.290   6.122
 2788SOL    HW2 9264   1.999   5.325   6.172
 2789SOL     OW 9265   1.497   2.558   3.573
 2789SOL    HW1 9266   1.404   2.520   3.573
 2789SOL    HW2 9267   1.514   2.604   3.486
 2790SOL     OW 9268   3.740   5.782   2.252
 2790SOL    HW1 9269   3.730   5.869   2.203
 2790SOL    HW2 9270   3.682   5.713   2.208
 2791SOL     OW 9271   0.174   3.037   3.368
 2791SOL    HW1 9272   0.123   3.056   3.452
 2791SOL    HW2 9273   0.239   2.963   3.386
 2792SOL     OW 9274   1.675   6.857   4.231
 2792SOL    HW1 9275   1.751   6.876   4.168
 2792SOL    HW2 9276   1.634   6.769   4.207
 2793SOL     OW 9277   5.947   4.208   1.593
 2793SOL    HW1 9278   6.015   4.267   1.550
 2793SOL    HW2 9279   5.884   4.264   1.648
 2794SOL     OW 9280   0.168   2.690   6.635
 2794SOL    HW1 9281   0.220   2.649   6.710
 2794SOL    HW2 9282   0.223   2.692   6.552
 2795SOL     OW 9283   0.649   2.825   0.717
 2795SOL    HW1 9284   0.628   2.922   0.733
 2795SOL    HW2 9285   0.748   2.815   0.703
 2796SOL     OW 9286   0.220   6.430   3.686
 2796SOL    HW1 9287   0.152   6.443   3.758
 2796SOL    HW2 9288   0.174   6.405   3.601
 2797SOL     OW 9289   4.579   5.374   4.976
 2797SOL    HW1 9290   4.607   5.338   5.065
 2797SOL    HW2 9291   4.536   5.463   4.988
 2798SOL     OW 9292   0.256   5.397   1.991
 2798SOL    HW1 9293   0.239   5.306   2.027
 2798SOL    HW2 9294   0.277   5.391   1.893
 2799SOL     OW 9295   6.059   5.454   6.471
 2799SOL    HW1 9296   6.053   5.531   6.407
 2799SOL    HW2 9297   6.101   5.376   6.425
 2800SOL     OW 9298   4.559   6.407   0.361
 2800SOL    HW1 9299   4.606   6.352   0.429
 2800SOL    HW2 9300   4.582   6.375   0.269
 2801SOL     OW 9301   6.546   5.866   5.685
 2801SOL    HW1 9302   6.480   5.798   5.655
 2801SOL    HW2 9303   6.639   5.831   5.675
 2802SOL     OW 9304   5.256   0.504   4.877
 2802SOL    HW1 9305   5.215   0.464   4.959
 2802SOL    HW2 9306   5.329   0.567   4.904
 2803SOL     OW 9307   4.297   5.726   6.063
 2803SOL    HW1 9308   4.342   5.702   6.148
 2803SOL    HW2 9309   4.208   5.681   6.058
 2804SOL     OW 9310   0.335   4.400   5.462
 2804SOL    HW1 9311   0.384   4.486   5.450
 2804SOL    HW2 9312   0.389   4.325   5.424
 2805SOL     OW 9313   6.140   3.004   1.949
 2805SOL    HW1 9314   6.150   3.053   2.036
 2805SOL    HW2 9315   6.224   3.012   1.896
 2806SOL     OW 9316   0.355   3.726   6.046
 2806SOL    HW1 9317   0.291   3.775   5.988
 2806SOL    HW2 9318   0.446   3.767   6.039
 2807SOL     OW 9319   3.800   6.586   3.994
 2807SOL    HW1 9320   3.850   6.666   4.028
 2807SOL    HW2 9321   3.864   6.520   3.957
 2808SOL     OW 9322   6.450   4.808   2.020
 2808SOL    HW1 9323   6.510   4.877   2.060
 2808SOL    HW2 9324   6.450   4.726   2.077
 2809SOL     OW 9325   5.664   3.193   1.028
 2809SOL    HW1 9326   5.678   3.100   1.063
 2809SOL    HW2 9327   5.581   3.231   1.070
 2810SOL     OW 9328   3.083   5.315   3.712
 2810SOL    HW1 9329   3.090   5.395   3.772
 2810SOL    HW2 9330   3.018   5.250   3.751
 2811SOL     OW 9331   1.012   1.864   3.662
 2811SOL    HW1 9332   0.994   1.822   3.751
 2811SOL    HW2 9333   0.943   1.834   3.596
 2812SOL     OW 9334   5.492   2.838   6.837
 2812SOL    HW1 9335   5.511   2.836   6.739
 2812SOL    HW2 9336   5.423   2.769   6.860
 2813SOL     OW 9337   0.582   0.520   6.470
 2813SOL    HW1 9338   0.678   0.506   6.443
 2813SOL    HW2 9339   0.542   0.432   6.497
 2814SOL     OW 9340   3.790   3.643   5.357
 2814SOL    HW1 9341   3.736   3.699   5.294
 2814SOL    HW2 9342   3.882   3.631   5.321
 2815SOL     OW 9343   6.429   6.521   6.058
 2815SOL    HW1 9344   6.497   6.474   6.002
 2815SOL    HW2 9345   6.464   6.529   6.152
 2816SOL     OW 9346   6.187   4.854   3.728
 2816SOL    HW1 9347   6.132   4.937   3.738
 2816SOL    HW2 9348   6.279   4.879   3.698
 2817SOL     OW 9349   3.426   6.965   1.791
 2817SOL    HW1 9350   3.460   0.010   1.858
 2817SOL    HW2 9351   3.378   6.891   1.838
 2818SOL     OW 9352   0.548   0.468   1.740
 2818SOL    HW1 9353   0.535   0.374   1.708
 2818SOL    HW2 9354   0.464   0.520   1.725
 2819SOL     OW 9355   1.163   0.624   1.827
 2819SOL    HW1 9356   1.252   0.584   1.806
 2819SOL    HW2 9357   1.154   0.635   1.925
 2820SOL     OW 9358   0.713   2.418   3.086
 2820SOL    HW1 9359   0.754   2.503   3.119
 2820SOL    HW2 9360   0.671   2.433   2.996
 2821SOL     OW 9361   4.185   4.063   6.228
 2821SOL    HW1 9362   4.232   4.100   6.148
 2821SOL    HW2 9363   4.153   3.970   6.208
 2822SOL     OW 9364   3.960   2.231   0.734
 2822SOL    HW1 9365   4.009   2.226   0.647
 2822SOL    HW2 9366   3.907   2.316   0.736
 2823SOL     OW 9367   4.326   0.695   0.905
 2823SOL    HW1 9368   4.313   0.607   0.858
 2823SOL    HW2 9369   4.423   0.718   0.906
 2824SOL     OW 9370   1.949   1.609   3.290
 2824SOL    HW1 9371   1.920   1.693   3.337
 2824SOL    HW2 9372   1.917   1.530   3.342
 2825SOL     OW 9373   5.363   6.731   6.866
 2825SOL    HW1 9374   5.333   6.797   6.798
 2825SOL    HW2 9375   5.288   6.667   6.886
 2826SOL     OW 9376   4.940   1.173   0.188
 2826SOL    HW1 9377   4.972   1.119   0.266
 2826SOL    HW2 9378   4.862   1.229   0.215
 2827SOL     OW 9379   0.882   1.580   6.148
 2827SOL    HW1 9380   0.935   1.664   6.138
 2827SOL    HW2 9381   0.859   1.565   6.244
 2828SOL     OW 9382   2.434   1.678   0.748
 2828SOL    HW1 9383   2.359   1.722   0.798
 2828SOL    HW2 9384   2.484   1.747   0.696
 2829SOL     OW 9385   3.019   3.468   4.735
 2829SOL    HW1 9386   2.972   3.555   4.723
 2829SOL    HW2 9387   2.952   3.395   4.750
 2830SOL     OW 9388   2.243   3.607   6.076
 2830SOL    HW1 9389   2.310   3.577   6.008
 2830SOL    HW2 9390   2.220   3.703   6.061
 2831SOL     OW 9391   0.590   4.784   3.756
 2831SOL    HW1 9392   0.522   4.721   3.718
 2831SOL    HW2 9393   0.628   4.840   3.683
 2832SOL     OW 9394   1.304   3.546   2.163
 2832SOL    HW1 9395   1.361   3.467   2.189
 2832SOL    HW2 9396   1.209   3.517   2.156
 2833SOL     OW 9397   2.800   1.869   2.241
 2833SOL    HW1 9398   2.804   1.957   2.287
 2833SOL    HW2 9399   2.889   1.845   2.204
 2834SOL     OW 9400   4.403   5.966   5.891
 2834SOL    HW1 9401   4.370   5.908   5.966
 2834SOL    HW2 9402   4.411   5.911   5.808
 2835SOL     OW 9403   0.667   6.115   1.643
 2835SOL    HW1 9404   0.583   6.153   1.683
 2835SOL    HW2 9405   0.665   6.015   1.651
 2836SOL     OW 9406   0.278   6.349   2.466
 2836SOL    HW1 9407   0.323   6.391   2.387
 2836SOL    HW2 9408   0.283   6.411   2.544
 2837SOL     OW 9409   4.441   4.957   2.256
 2837SOL    HW1 9410   4.365   4.986   2.314
 2837SOL    HW2 9411   4.443   4.858   2.250
 2838SOL     OW 9412   3.495   3.542   0.425
 2838SOL    HW1 9413   3.483   3.500   0.514
 2838SOL    HW2 9414   3.569   3.610   0.429
 2839SOL     OW 9415   6.889   2.554   3.214
 2839SOL    HW1 9416   6.804   2.527   3.169
 2839SOL    HW2 9417   6.958   2.576   3.145
 2840SOL     OW 9418   1.333   0.566   2.909
 2840SOL    HW1 9419   1.417   0.618   2.891
 2840SOL    HW2 9420   1.350   0.470   2.888
 2841SOL     OW 9421   0.112   1.402   5.969
 2841SOL    HW1 9422   0.163   1.388   6.055
 2841SOL    HW2 9423   0.046   1.328   5.957
 2842SOL     OW 9424   0.285   4.194   3.751
 2842SOL    HW1 9425   0.327   4.269   3.701
 2842SOL    HW2 9426   0.300   4.108   3.702
 2843SOL     OW 9427   2.091   2.459   2.766
 2843SOL    HW1 9428   2.043   2.498   2.687
 2843SOL    HW2 9429   2.151   2.385   2.735
 2844SOL     OW 9430   6.677   5.282   6.717
 2844SOL    HW1 9431   6.721   5.201   6.677
 2844SOL    HW2 9432   6.661   5.350   6.645
 2845SOL     OW 9433   5.776   3.483   1.769
 2845SOL    HW1 9434   5.689   3.463   1.724
 2845SOL    HW2 9435   5.787   3.422   1.848
 2846SOL     OW 9436   4.235   1.152   0.206
 2846SOL    HW1 9437   4.151   1.124   0.253
 2846SOL    HW2 9438   4.252   1.249   0.223
 2847SOL     OW 9439   5.280   3.894   3.451
 2847SOL    HW1 9440   5.204   3.909   3.388
 2847SOL    HW2 9441   5.322   3.982   3.474
 2848SOL     OW 9442   1.793   2.986   5.375
 2848SOL    HW1 9443   1.759   2.893   5.361
 2848SOL    HW2 9444   1.880   2.997   5.326
 2849SOL     OW 9445   4.097   0.230   0.473
 2849SOL    HW1 9446   4.102   0.131   0.461
 2849SOL    HW2 9447   4.096   0.274   0.383
 2850SOL     OW 9448   1.972   6.933   2.491
 2850SOL    HW1 9449   1.937   6.986   2.414
 2850SOL    HW2 9450   1.948   6.836   2.479
 2851SOL     OW 9451   5.708   1.666   5.954
 2851SOL    HW1 9452   5.724   1.754   5.909
 2851SOL    HW2 9453   5.770   1.656   6.032
 2852SOL     OW 9454   6.499   3.807   6.850
 2852SOL    HW1 9455   6.475   3.807   6.753
 2852SOL    HW2 9456   6.474   3.720   6.892
 2853SOL     OW 9457   2.227   1.055   6.765
 2853SOL    HW1 9458   2.233   1.145   6.722
 2853SOL    HW2 9459   2.165   1.059   6.843
 2854SOL     OW 9460   4.863   0.574   5.080
 2854SOL    HW1 9461   4.839   0.510   5.154
 2854SOL    HW2 9462   4.870   0.666   5.117
 2855SOL     OW 9463   1.947   2.026   5.997
 2855SOL    HW1 9464   2.004   2.106   5.973
 2855SOL    HW2 9465   1.851   2.048   5.980
 2856SOL     OW 9466   0.546   3.604   5.356
 2856SOL    HW1 9467   0.538   3.703   5.371
 2856SOL    HW2 9468   0.456   3.562   5.365
 2857SOL     OW 9469   2.209   3.143   1.856
 2857SOL    HW1 9470   2.187   3.067   1.919
 2857SOL    HW2 9471   2.232   3.106   1.766
 2858SOL     OW 9472   4.715   4.430   1.847
 2858SOL    HW1 9473   4.649   4.367   1.889
 2858SOL    HW2 9474   4.689   4.524   1.868
 2859SOL     OW 9475   5.277   0.749   6.681
 2859SOL    HW1 9476   5.257   0.827   6.740
 2859SOL    HW2 9477   5.325   0.678   6.733
 2860SOL     OW 9478   2.212   2.548   1.883
 2860SOL    HW1 9479   2.267   2.566   1.964
 2860SOL    HW2 9480   2.272   2.533   1.805
 2861SOL     OW 9481   3.678   5.133   5.478
 2861SOL    HW1 9482   3.701   5.204   5.412
 2861SOL    HW2 9483   3.583   5.105   5.465
 2862SOL     OW 9484   5.150   1.750   2.520
 2862SOL    HW1 9485   5.113   1.660   2.497
 2862SOL    HW2 9486   5.075   1.815   2.529
 2863SOL     OW 9487   4.414   1.574   6.863
 2863SOL    HW1 9488   4.500   1.555   6.816
 2863SOL    HW2 9489   4.363   1.645   6.813
 2864SOL     OW 9490   4.182   1.652   2.047
 2864SOL    HW1 9491   4.086   1.628   2.034
 2864SOL    HW2 9492   4.189   1.750   2.067
 2865SOL     OW 9493   3.746   6.171   5.696
 2865SOL    HW1 9494   3.713   6.142   5.785
 2865SOL    HW2 9495   3.690   6.129   5.624
 2866SOL     OW 9496   6.566   5.496   6.577
 2866SOL    HW1 9497   6.508   5.536   6.506
 2866SOL    HW2 9498   6.620   5.569   6.620
 2867SOL     OW 9499   6.872   6.237   3.402
 2867SOL    HW1 9500   6.830   6.244   3.312
 2867SOL    HW2 9501   6.853   6.321   3.453
 2868SOL     OW 9502   1.581   1.283   5.358
 2868SOL    HW1 9503   1.591   1.213   5.429
 2868SOL    HW2 9504   1.520   1.250   5.286
 2869SOL     OW 9505   6.919   1.144   3.430
 2869SOL    HW1 9506   6.833   1.100   3.457
 2869SOL    HW2 9507   6.902   1.239   3.407
 2870SOL     OW 9508   0.604   1.540   5.075
 2870SOL    HW1 9509   0.612   1.600   5.154
 2870SOL    HW2 9510   0.548   1.585   5.005
 2871SOL     OW 9511   6.983   1.607   6.215
 2871SOL    HW1 9512   6.973   1.583   6.119
 2871SOL    HW2 9513   6.893   1.601   6.260
 2872SOL     OW 9514   2.541   2.282   1.971
 2872SOL    HW1 9515   2.516   2.335   2.052
 2872SOL    HW2 9516   2.494   2.194   1.972
 2873SOL     OW 9517   6.659   5.760   3.019
 2873SOL    HW1 9518   6.681   5.694   3.090
 2873SOL    HW2 9519   6.725   5.836   3.022
 2874SOL     OW 9520   5.077   0.277   3.392
 2874SOL    HW1 9521   4.984   0.243   3.379
 2874SOL    HW2 9522   5.085   0.320   3.481
 2875SOL     OW 9523   5.068   0.589   1.371
 2875SOL    HW1 9524   5.163   0.602   1.341
 2875SOL    HW2 9525   5.057   0.495   1.405
 2876SOL     OW 9526   2.170   7.015   1.824
 2876SOL    HW1 9527   2.207   0.074   1.872
 2876SOL    HW2 9528   2.074   0.011   1.800
 2877SOL     OW 9529   2.567   1.775   5.699
 2877SOL    HW1 9530   2.634   1.849   5.703
 2877SOL    HW2 9531   2.560   1.742   5.605
 2878SOL     OW 9532   3.653   4.354   5.275
 2878SOL    HW1 9533   3.618   4.318   5.188
 2878SOL    HW2 9534   3.751   4.340   5.281
 2879SOL     OW 9535   5.098   5.069   0.334
 2879SOL    HW1 9536   5.015   5.081   0.280
 2879SOL    HW2 9537   5.087   4.989   0.394
 2880SOL     OW 9538   0.203   0.957   2.433
 2880SOL    HW1 9539   0.164   0.910   2.512
 2880SOL    HW2 9540   0.136   0.957   2.358
 2881SOL     OW 9541   4.501   5.505   6.731
 2881SOL    HW1 9542   4.414   5.553   6.739
 2881SOL    HW2 9543   4.542   5.524   6.642
 2882SOL     OW 9544   6.878   5.547   2.502
 2882SOL    HW1 9545   6.853   5.639   2.472
 2882SOL    HW2 9546   6.833   5.527   2.589
 2883SOL     OW 9547   5.960   0.187   3.111
 2883SOL    HW1 9548   5.953   0.096   3.070
 2883SOL    HW2 9549   5.942   0.256   3.042
 2884SOL     OW 9550   1.301   6.980   2.951
 2884SOL    HW1 9551   1.224   6.917   2.938
 2884SOL    HW2 9552   1.268   0.044   2.992
 2885SOL     OW 9553   1.474   3.813   3.686
 2885SOL    HW1 9554   1.513   3.865   3.610
 2885SOL    HW2 9555   1.531   3.825   3.768
 2886SOL     OW 9556   0.775   3.581   5.983
 2886SOL    HW1 9557   0.786   3.593   6.082
 2886SOL    HW2 9558   0.864   3.593   5.939
 2887SOL     OW 9559   0.596   0.954   5.601
 2887SOL    HW1 9560   0.688   0.945   5.638
 2887SOL    HW2 9561   0.539   1.008   5.664
 2888SOL     OW 9562   6.938   4.234   6.615
 2888SOL    HW1 9563   6.982   4.321   6.592
 2888SOL    HW2 9564   6.850   4.252   6.658
 2889SOL     OW 9565   2.863   6.542   2.423
 2889SOL    HW1 9566   2.770   6.569   2.449
 2889SOL    HW2 9567   2.862   6.501   2.332
 2890SOL     OW 9568   1.431   6.635   0.009
 2890SOL    HW1 9569   1.374   6.581   6.968
 2890SOL    HW2 9570   1.439   6.588   0.097
 2891SOL     OW 9571   1.178   4.944   3.397
 2891SOL    HW1 9572   1.237   4.962   3.319
 2891SOL    HW2 9573   1.193   5.014   3.467
 2892SOL     OW 9574   5.718   3.577   0.272
 2892SOL    HW1 9575   5.664   3.519   0.333
 2892SOL    HW2 9576   5.785   3.629   0.326
 2893SOL     OW 9577   6.690   5.215   4.301
 2893SOL    HW1 9578   6.596   5.210   4.266
 2893SOL    HW2 9579   6.730   5.302   4.275
 2894SOL     OW 9580   0.794   3.719   2.005
 2894SOL    HW1 9581   0.696   3.711   2.028
 2894SOL    HW2 9582   0.825   3.634   1.962
 2895SOL     OW 9583   5.208   2.360   5.901
 2895SOL    HW1 9584   5.202   2.323   5.808
 2895SOL    HW2 9585   5.185   2.457   5.900
 2896SOL     OW 9586   4.509   5.784   5.270
 2896SOL    HW1 9587   4.472   5.714   5.330
 2896SOL    HW2 9588   4.560   5.850   5.324
 2897SOL     OW 9589   3.915   5.179   3.285
 2897SOL    HW1 9590   3.850   5.167   3.360
 2897SOL    HW2 9591   3.967   5.095   3.271
 2898SOL     OW 9592   4.358   4.701   4.469
 2898SOL    HW1 9593   4.278   4.714   4.411
 2898SOL    HW2 9594   4.330   4.685   4.563
 2899SOL     OW 9595   0.991   1.934   0.131
 2899SOL    HW1 9596   1.079   1.945   0.085
 2899SOL    HW2 9597   0.956   1.842   0.114
 2900SOL     OW 9598   2.001   3.449   6.128
 2900SOL    HW1 9599   2.001   3.376   6.059
 2900SOL    HW2 9600   2.081   3.508   6.115
 2901SOL     OW 9601   2.839   5.373   3.130
 2901SOL    HW1 9602   2.915   5.327   3.175
 2901SOL    HW2 9603   2.776   5.407   3.199
 2902SOL     OW 9604   5.705   5.840   3.057
 2902SOL    HW1 9605   5.672   5.846   2.963
 2902SOL    HW2 9606   5.628   5.848   3.120
 2903SOL     OW 9607   3.144   0.207   0.554
 2903SOL    HW1 9608   3.055   0.252   0.563
 2903SOL    HW2 9609   3.203   0.235   0.629
 2904SOL     OW 9610   2.377   4.797   4.373
 2904SOL    HW1 9611   2.453   4.852   4.339
 2904SOL    HW2 9612   2.377   4.800   4.473
 2905SOL     OW 9613   1.083   2.028   4.708
 2905SOL    HW1 9614   1.055   2.115   4.666
 2905SOL    HW2 9615   1.070   2.033   4.807
 2906SOL     OW 9616   4.551   5.270   1.971
 2906SOL    HW1 9617   4.630   5.308   2.020
 2906SOL    HW2 9618   4.561   5.171   1.964
 2907SOL     OW 9619   1.059   1.079   3.116
 2907SOL    HW1 9620   0.962   1.098   3.104
 2907SOL    HW2 9621   1.092   1.126   3.198
 2908SOL     OW 9622   5.599   6.769   3.563
 2908SOL    HW1 9623   5.622   6.674   3.583
 2908SOL    HW2 9624   5.605   6.823   3.647
 2909SOL     OW 9625   1.512   5.679   3.870
 2909SOL    HW1 9626   1.511   5.602   3.806
 2909SOL    HW2 9627   1.585   5.743   3.845
 2910SOL     OW 9628   4.550   0.869   4.479
 2910SOL    HW1 9629   4.537   0.790   4.420
 2910SOL    HW2 9630   4.615   0.847   4.551
 2911SOL     OW 9631   0.899   5.689   3.645
 2911SOL    HW1 9632   0.912   5.672   3.547
 2911SOL    HW2 9633   0.897   5.787   3.662
 2912SOL     OW 9634   5.458   0.338   6.626
 2912SOL    HW1 9635   5.389   0.275   6.591
 2912SOL    HW2 9636   5.415   0.401   6.691
 2913SOL     OW 9637   3.050   5.106   2.045
 2913SOL    HW1 9638   2.996   5.056   2.112
 2913SOL    HW2 9639   3.142   5.120   2.080
 2914SOL     OW 9640   6.583   6.216   6.432
 2914SOL    HW1 9641   6.563   6.311   6.457
 2914SOL    HW2 9642   6.664   6.213   6.374
 2915SOL     OW 9643   4.347   2.004   3.762
 2915SOL    HW1 9644   4.429   2.016   3.706
 2915SOL    HW2 9645   4.372   1.964   3.850
 2916SOL     OW 9646   0.658   6.504   0.941
 2916SOL    HW1 9647   0.737   6.544   0.893
 2916SOL    HW2 9648   0.687   6.422   0.990
 2917SOL     OW 9649   2.503   0.823   3.437
 2917SOL    HW1 9650   2.433   0.889   3.412
 2917SOL    HW2 9651   2.579   0.870   3.482
 2918SOL     OW 9652   5.763   4.763   4.907
 2918SOL    HW1 9653   5.697   4.690   4.886
 2918SOL    HW2 9654   5.805   4.746   4.996
 2919SOL     OW 9655   5.637   0.991   2.664
 2919SOL    HW1 9656   5.655   0.895   2.684
 2919SOL    HW2 9657   5.684   1.016   2.580
 2920SOL     OW 9658   2.868   1.483   1.472
 2920SOL    HW1 9659   2.905   1.418   1.538
 2920SOL    HW2 9660   2.769   1.473   1.466
 2921SOL     OW 9661   0.780   0.230   4.678
 2921SOL    HW1 9662   0.869   0.251   4.637
 2921SOL    HW2 9663   0.765   0.131   4.675
 2922SOL     OW 9664   4.602   0.732   0.882
 2922SOL    HW1 9665   4.658   0.649   0.885
 2922SOL    HW2 9666   4.643   0.797   0.818
 2923SOL     OW 9667   6.272   5.060   2.574
 2923SOL    HW1 9668   6.334   5.110   2.633
 2923SOL    HW2 9669   6.178   5.091   2.589
 2924SOL     OW 9670   6.856   2.249   6.100
 2924SOL    HW1 9671   6.915   2.219   6.025
 2924SOL    HW2 9672   6.879   2.342   6.125
 2925SOL     OW 9673   5.013   0.908   2.282
 2925SOL    HW1 9674   5.102   0.898   2.237
 2925SOL    HW2 9675   4.946   0.942   2.216
 2926SOL     OW 9676   6.850   1.814   4.209
 2926SOL    HW1 9677   6.845   1.732   4.153
 2926SOL    HW2 9678   6.937   1.816   4.258
 2927SOL     OW 9679   1.537   4.160   1.164
 2927SOL    HW1 9680   1.605   4.104   1.212
 2927SOL    HW2 9681   1.582   4.209   1.089
 2928SOL     OW 9682   6.986   1.023   6.567
 2928SOL    HW1 9683   0.044   1.025   6.506
 2928SOL    HW2 9684   6.991   0.942   6.625
 2929SOL     OW 9685   0.651   2.456   6.809
 2929SOL    HW1 9686   0.733   2.435   6.862
 2929SOL    HW2 9687   0.653   2.552   6.782
 2930SOL     OW 9688   4.792   0.482   4.825
 2930SOL    HW1 9689   4.832   0.511   4.913
 2930SOL    HW2 9690   4.863   0.484   4.755
 2931SOL     OW 9691   5.368   4.762   6.863
 2931SOL    HW1 9692   5.424   4.760   6.946
 2931SOL    HW2 9693   5.393   4.841   6.807
 2932SOL     OW 9694   0.957   5.405   1.894
 2932SOL    HW1 9695   1.040   5.396   1.949
 2932SOL    HW2 9696   0.945   5.500   1.868
 2933SOL     OW 9697   0.196   5.469   3.229
 2933SOL    HW1 9698   0.137   5.506   3.156
 2933SOL    HW2 9699   0.263   5.407   3.189
 2934SOL     OW 9700   4.674   1.812   0.389
 2934SOL    HW1 9701   4.650   1.716   0.403
 2934SOL    HW2 9702   4.769   1.819   0.358
 2935SOL     OW 9703   6.510   3.134   6.834
 2935SOL    HW1 9704   6.519   3.123   6.933
 2935SOL    HW2 9705   6.515   3.231   6.810
 2936SOL     OW 9706   4.031   6.777   0.577
 2936SOL    HW1 9707   3.997   6.845   0.643
 2936SOL    HW2 9708   3.954   6.738   0.527
 2937SOL     OW 9709   5.040   4.593   0.867
 2937SOL    HW1 9710   5.122   4.570   0.920
 2937SOL    HW2 9711   4.965   4.533   0.894
 2938SOL     OW 9712   4.633   5.190   6.273
 2938SOL    HW1 9713   4.561   5.232   6.329
 2938SOL    HW2 9714   4.700   5.147   6.334
 2939SOL     OW 9715   1.872   0.737   2.465
 2939SOL    HW1 9716   1.931   0.737   2.546
 2939SOL    HW2 9717   1.804   0.664   2.473
 2940SOL     OW 9718   5.628   5.026   5.825
 2940SOL    HW1 9719   5.561   5.095   5.852
 2940SOL    HW2 9720   5.675   5.055   5.742
 2941SOL     OW 9721   1.696   1.914   4.306
 2941SOL    HW1 9722   1.749   1.955   4.232
 2941SOL    HW2 9723   1.617   1.972   4.326
 2942SOL     OW 9724   2.605   2.398   0.358
 2942SOL    HW1 9725   2.592   2.491   0.323
 2942SOL    HW2 9726   2.677   2.399   0.428
 2943SOL     OW 9727   4.633   4.312   3.500
 2943SOL    HW1 9728   4.639   4.335   3.403
 2943SOL    HW2 9729   4.555   4.361   3.541
 2944SOL     OW 9730   2.960   6.261   4.369
 2944SOL    HW1 9731   2.938   6.353   4.403
 2944SOL    HW2 9732   3.023   6.216   4.432
 2945SOL     OW 9733   3.065   3.919   3.632
 2945SOL    HW1 9734   3.095   4.010   3.605
 2945SOL    HW2 9735   3.040   3.866   3.551
 2946SOL     OW 9736   0.850   4.675   5.990
 2946SOL    HW1 9737   0.935   4.646   5.945
 2946SOL    HW2 9738   0.854   4.650   6.086
 2947SOL     OW 9739   0.385   3.693   0.739
 2947SOL    HW1 9740   0.343   3.644   0.816
 2947SOL    HW2 9741   0.385   3.635   0.658
 2948SOL     OW 9742   0.955   4.319   5.247
 2948SOL    HW1 9743   0.921   4.409   5.219
 2948SOL    HW2 9744   0.974   4.264   5.165
 2949SOL     OW 9745   2.378   5.689   0.732
 2949SOL    HW1 9746   2.319   5.663   0.809
 2949SOL    HW2 9747   2.429   5.609   0.702
 2950SOL     OW 9748   5.183   4.658   4.355
 2950SOL    HW1 9749   5.123   4.700   4.423
 2950SOL    HW2 9750   5.244   4.593   4.400
 2951SOL     OW 9751   6.013   1.125   0.886
 2951SOL    HW1 9752   5.953   1.198   0.853
 2951SOL    HW2 9753   5.996   1.109   0.983
 2952SOL     OW 9754   0.089   4.363   5.037
 2952SOL    HW1 9755   0.067   4.293   4.969
 2952SOL    HW2 9756   0.016   4.367   5.105
 2953SOL     OW 9757   5.058   3.305   2.296
 2953SOL    HW1 9758   5.007   3.238   2.242
 2953SOL    HW2 9759   5.135   3.260   2.341
 2954SOL     OW 9760   0.939   5.693   1.804
 2954SOL    HW1 9761   0.936   5.718   1.707
 2954SOL    HW2 9762   0.864   5.739   1.853
 2955SOL     OW 9763   0.934   3.964   1.997
 2955SOL    HW1 9764   0.964   3.995   1.907
 2955SOL    HW2 9765   0.908   3.867   1.992
 2956SOL     OW 9766   5.193   5.869   3.208
 2956SOL    HW1 9767   5.249   5.950   3.190
 2956SOL    HW2 9768   5.103   5.880   3.167
 2957SOL     OW 9769   6.240   3.554   2.210
 2957SOL    HW1 9770   6.204   3.617   2.279
 2957SOL    HW2 9771   6.182   3.558   2.128
 2958SOL     OW 9772   2.708   4.659   4.197
 2958SOL    HW1 9773   2.667   4.639   4.108
 2958SOL    HW2 9774   2.726   4.574   4.246
 2959SOL     OW 9775   4.517   3.895   0.264
 2959SOL    HW1 9776   4.527   3.991   0.290
 2959SOL    HW2 9777   4.579   3.839   0.319
 2960SOL     OW 9778   3.271   1.073   6.924
 2960SOL    HW1 9779   3.236   0.980   6.941
 2960SOL    HW2 9780   3.313   1.109   7.007
 2961SOL     OW 9781   5.088   3.334   2.631
 2961SOL    HW1 9782   5.005   3.388   2.619
 2961SOL    HW2 9783   5.168   3.394   2.629
 2962SOL     OW 9784   5.282   6.953   2.919
 2962SOL    HW1 9785   5.201   6.894   2.922
 2962SOL    HW2 9786   5.328   6.951   3.007
 2963SOL     OW 9787   2.191   1.179   6.066
 2963SOL    HW1 9788   2.118   1.231   6.022
 2963SOL    HW2 9789   2.172   1.170   6.164
 2964SOL     OW 9790   0.538   0.154   3.749
 2964SOL    HW1 9791   0.524   0.252   3.759
 2964SOL    HW2 9792   0.630   0.137   3.712
 2965SOL     OW 9793   6.993   1.439   4.050
 2965SOL    HW1 9794   7.007   1.515   3.986
 2965SOL    HW2 9795   6.945   1.472   4.131
 2966SOL     OW 9796   4.831   5.890   3.468
 2966SOL    HW1 9797   4.788   5.860   3.554
 2966SOL    HW2 9798   4.764   5.940   3.413
 2967SOL     OW 9799   6.949   0.842   4.698
 2967SOL    HW1 9800   6.954   0.743   4.710
 2967SOL    HW2 9801   6.871   0.878   4.751
 2968SOL     OW 9802   1.029   3.025   6.467
 2968SOL    HW1 9803   0.990   2.985   6.550
 2968SOL    HW2 9804   1.128   3.013   6.468
 2969SOL     OW 9805   5.019   1.641   4.002
 2969SOL    HW1 9806   5.011   1.617   4.098
 2969SOL    HW2 9807   5.102   1.694   3.988
 2970SOL     OW 9808   1.690   4.090   5.979
 2970SOL    HW1 9809   1.698   4.184   6.013
 2970SOL    HW2 9810   1.617   4.043   6.028
 2971SOL     OW 9811   5.076   4.441   0.571
 2971SOL    HW1 9812   5.006   4.508   0.593
 2971SOL    HW2 9813   5.155   4.453   0.632
 2972SOL     OW 9814   6.332   4.641   6.437
 2972SOL    HW1 9815   6.391   4.568   6.403
 2972SOL    HW2 9816   6.259   4.658   6.370
 2973SOL     OW 9817   5.712   6.381   2.547
 2973SOL    HW1 9818   5.782   6.338   2.603
 2973SOL    HW2 9819   5.739   6.475   2.525
 2974SOL     OW 9820   1.001   4.768   3.530
 2974SOL    HW1 9821   1.059   4.833   3.480
 2974SOL    HW2 9822   0.955   4.708   3.465
 2975SOL     OW 9823   5.541   3.259   4.218
 2975SOL    HW1 9824   5.565   3.275   4.314
 2975SOL    HW2 9825   5.443   3.275   4.206
 2976SOL     OW 9826   4.699   1.788   2.852
 2976SOL    HW1 9827   4.640   1.742   2.918
 2976SOL    HW2 9828   4.772   1.836   2.900
 2977SOL     OW 9829   2.632   6.667   2.527
 2977SOL    HW1 9830   2.551   6.717   2.496
 2977SOL    HW2 9831   2.623   6.646   2.624
 2978SOL     OW 9832   5.234   4.304   0.386
 2978SOL    HW1 9833   5.181   4.339   0.464
 2978SOL    HW2 9834   5.253   4.379   0.322
 2979SOL     OW 9835   3.660   0.643   4.234
 2979SOL    HW1 9836   3.731   0.582   4.270
 2979SOL    HW2 9837   3.570   0.610   4.264
 2980SOL     OW 9838   1.544   5.859   5.119
 2980SOL    HW1 9839   1.476   5.790   5.144
 2980SOL    HW2 9840   1.578   5.840   5.027
 2981SOL     OW 9841   2.668   1.427   5.565
 2981SOL    HW1 9842   2.768   1.429   5.569
 2981SOL    HW2 9843   2.631   1.465   5.650
 2982SOL     OW 9844   3.633   4.884   3.060
 2982SOL    HW1 9845   3.553   4.911   3.006
 2982SOL    HW2 9846   3.716   4.895   3.006
 2983SOL     OW 9847   0.318   1.422   2.681
 2983SOL    HW1 9848   0.333   1.446   2.584
 2983SOL    HW2 9849   0.406   1.425   2.729
 2984SOL     OW 9850   5.301   5.096   1.290
 2984SOL    HW1 9851   5.255   5.007   1.283
 2984SOL    HW2 9852   5.346   5.117   1.203
 2985SOL     OW 9853   1.998   2.984   5.594
 2985SOL    HW1 9854   1.908   2.943   5.611
 2985SOL    HW2 9855   2.036   2.946   5.510
 2986SOL     OW 9856   3.551   4.176   3.664
 2986SOL    HW1 9857   3.650   4.178   3.659
 2986SOL    HW2 9858   3.522   4.182   3.759
 2987SOL     OW 9859   6.950   1.516   4.301
 2987SOL    HW1 9860   6.901   1.504   4.388
 2987SOL    HW2 9861   0.019   1.473   4.308
 2988SOL     OW 9862   1.559   5.548   2.543
 2988SOL    HW1 9863   1.642   5.591   2.578
 2988SOL    HW2 9864   1.506   5.615   2.492
 2989SOL     OW 9865   6.156   5.914   6.038
 2989SOL    HW1 9866   6.105   5.903   5.953
 2989SOL    HW2 9867   6.190   6.008   6.044
 2990SOL     OW 9868   3.604   1.858   4.919
 2990SOL    HW1 9869   3.516   1.884   4.958
 2990SOL    HW2 9870   3.651   1.795   4.981
 2991SOL     OW 9871   6.721   4.035   5.125
 2991SOL    HW1 9872   6.798   3.973   5.112
 2991SOL    HW2 9873   6.733   4.115   5.066
 2992SOL     OW 9874   2.528   6.407   5.102
 2992SOL    HW1 9875   2.584   6.403   5.019
 2992SOL    HW2 9876   2.584   6.441   5.177
 2993SOL     OW 9877   0.632   4.612   1.650
 2993SOL    HW1 9878   0.704   4.675   1.680
 2993SOL    HW2 9879   0.607   4.552   1.726
 2994SOL     OW 9880   4.301   6.032   0.401
 2994SOL    HW1 9881   4.290   6.077   0.313
 2994SOL    HW2 9882   4.212   6.027   0.447
 2995SOL     OW 9883   3.113   2.045   5.900
 2995SOL    HW1 9884   3.040   2.087   5.955
 2995SOL    HW2 9885   3.108   1.945   5.910
 2996SOL     OW 9886   1.440   1.557   3.450
 2996SOL    HW1 9887   1.513   1.512   3.399
 2996SOL    HW2 9888   1.477   1.593   3.536
 2997SOL     OW 9889   6.088   6.969   2.990
 2997SOL    HW1 9890   6.181   6.998   2.972
 2997SOL    HW2 9891   6.051   6.920   2.911
 2998SOL     OW 9892   4.487   6.952   3.870
 2998SOL    HW1 9893   4.495   6.852   3.873
 2998SOL    HW2 9894   4.486   6.988   3.963
 2999SOL     OW 9895   2.417   5.150   5.018
 2999SOL    HW1 9896   2.376   5.071   5.064
 2999SOL    HW2 9897   2.496   5.182   5.070
 3000SOL     OW 9898   2.841   3.718   6.363
 3000SOL    HW1 9899   2.864   3.806   6.321
 3000SOL    HW2 9900   2.851   3.724   6.462
 3001SOL     OW 9901   5.919   0.522   6.201
 3001SOL    HW1 9902   5.925   0.603   6.259
 3001SOL    HW2 9903   5.980   0.451   6.235
 3002SOL     OW 9904   3.335   1.403   6.749
 3002SOL    HW1 9905   3.363   1.358   6.664
 3002SOL    HW2 9906   3.354   1.501   6.743
 3003SOL     OW 9907   1.671   6.730   0.583
 3003SOL    HW1 9908   1.712   6.640   0.568
 3003SOL    HW2 9909   1.573   6.726   0.561
 3004SOL     OW 9910   0.949   4.615   3.281
 3004SOL    HW1 9911   1.026   4.572   3.234
 3004SOL    HW2 9912   0.868   4.612   3.222
 3005SOL     OW 9913   2.144   1.837   0.784
 3005SOL    HW1 9914   2.192   1.890   0.714
 3005SOL    HW2 9915   2.088   1.899   0.839
 3006SOL     OW 9916   5.409   1.534   5.286
 3006SOL    HW1 9917   5.431   1.506   5.192
 3006SOL    HW2 9918   5.380   1.455   5.339
 3007SOL     OW 9919   5.206   4.479   1.246
 3007SOL    HW1 9920   5.261   4.456   1.165
 3007SOL    HW2 9921   5.265   4.485   1.326
 3008SOL     OW 9922   3.662   2.337   6.067
 3008SOL    HW1 9923   3.747   2.341   6.120
 3008SOL    HW2 9924   3.613   2.424   6.077
 3009SOL     OW 9925   0.133   1.627   2.779
 3009SOL    HW1 9926   0.175   1.537   2.769
 3009SOL    HW2 9927   0.175   1.691   2.716
 3010SOL     OW 9928   3.798   6.043   3.190
 3010SOL    HW1 9929   3.888   6.068   3.225
 3010SOL    HW2 9930   3.805   6.022   3.092
 3011SOL     OW 9931   5.810   1.348   2.188
 3011SOL    HW1 9932   5.792   1.336   2.090
 3011SOL    HW2 9933   5.732   1.393   2.231
 3012SOL     OW 9934   1.862   3.656   6.270
 3012SOL    HW1 9935   1.904   3.571   6.238
 3012SOL    HW2 9936   1.924   3.733   6.254
 3013SOL     OW 9937   5.765   5.800   4.316
 3013SOL    HW1 9938   5.670   5.829   4.306
 3013SOL    HW2 9939   5.814   5.812   4.230
 3014SOL     OW 9940   4.521   2.467   4.589
 3014SOL    HW1 9941   4.532   2.561   4.557
 3014SOL    HW2 9942   4.453   2.465   4.663
 3015SOL     OW 9943   3.158   1.765   0.546
 3015SOL    HW1 9944   3.067   1.773   0.588
 3015SOL    HW2 9945   3.228   1.783   0.615
 3016SOL     OW 9946   2.116   6.391   4.164
 3016SOL    HW1 9947   2.163   6.368   4.249
 3016SOL    HW2 9948   2.085   6.307   4.119
 3017SOL     OW 9949   6.666   4.911   2.366
 3017SOL    HW1 9950   6.757   4.881   2.392
 3017SOL    HW2 9951   6.597   4.862   2.420
 3018SOL     OW 9952   2.996   6.632   6.004
 3018SOL    HW1 9953   2.980   6.703   5.936
 3018SOL    HW2 9954   3.088   6.595   5.993
 3019SOL     OW 9955   0.811   0.026   0.200
 3019SOL    HW1 9956   0.896   0.071   0.174
 3019SOL    HW2 9957   0.734   0.086   0.177
 3020SOL     OW 9958   3.891   2.797   1.724
 3020SOL    HW1 9959   3.847   2.830   1.640
 3020SOL    HW2 9960   3.961   2.730   1.700
 3021SOL     OW 9961   3.157   0.012   6.241
 3021SOL    HW1 9962   3.073   7.016   6.189
 3021SOL    HW2 9963   3.160   0.108   6.267
 3022SOL     OW 9964   3.289   5.343   4.700
 3022SOL    HW1 9965   3.363   5.320   4.636
 3022SOL    HW2 9966   3.325   5.403   4.772
 3023SOL     OW 9967   3.452   6.881   2.958
 3023SOL    HW1 9968   3.546   6.886   2.992
 3023SOL    HW2 9969   3.440   6.798   2.903
 3024SOL     OW 9970   4.825   0.069   4.695
 3024SOL    HW1 9971   4.767   0.150   4.686
 3024SOL    HW2 9972   4.920   0.095   4.680
 3025SOL     OW 9973   3.035   6.980   0.556
 3025SOL    HW1 9974   2.946   6.987   0.511
 3025SOL    HW2 9975   3.092   0.037   0.530
 3026SOL     OW 9976   1.335   0.371   6.698
 3026SOL    HW1 9977   1.382   0.287   6.672
 3026SOL    HW2 9978   1.400   0.435   6.739
 3027SOL     OW 9979   4.208   0.528   3.175
 3027SOL    HW1 9980   4.243   0.447   3.127
 3027SOL    HW2 9981   4.241   0.610   3.129
 3028SOL     OW 9982   1.086   3.563   5.888
 3028SOL    HW1 9983   1.108   3.611   5.973
 3028SOL    HW2 9984   1.084   3.464   5.905
 3029SOL     OW 9985   7.016   2.745   5.302
 3029SOL    HW1 9986   0.038   2.655   5.298
 3029SOL    HW2 9987   0.060   2.812   5.337
 3030SOL     OW 9988   0.291   3.436   0.136
 3030SOL    HW1 9989   0.352   3.391   0.071
 3030SOL    HW2 9990   0.209   3.469   0.088
 3031SOL     OW 9991   0.399   4.014   0.314
 3031SOL    HW1 9992   0.357   3.931   0.350
 3031SOL    HW2 9993   0.449   4.060   0.388
 3032SOL     OW 9994   3.080   6.714   0.741
 3032SOL    HW1 9995   3.137   6.709   0.659
 3032SOL    HW2 9996   3.087   6.806   0.780
 3033SOL     OW 9997   5.960   1.872   1.286
 3033SOL    HW1 9998   5.895   1.886   1.361
 3033SOL    HW2 9999   5.933   1.928   1.208
 3034SOL     OW10000   2.119   5.684   2.738
 3034SOL    HW110001   2.041   5.746   2.732
 3034SOL    HW210002   2.116   5.619   2.662
 3035SOL     OW10003   6.956   3.138   6.791
 3035SOL    HW110004   6.873   3.099   6.752
 3035SOL    HW210005   0.014   3.098   6.746
 3036SOL     OW10006   2.158   1.623   6.375
 3036SOL    HW110007   2.182   1.660   6.465
 3036SOL    HW210008   2.097   1.686   6.328
 3037SOL     OW10009   6.260   6.065   5.252
 3037SOL    HW110010   6.339   6.119   5.223
 3037SOL    HW210011   6.289   5.973   5.277
 3038SOL     OW10012   5.127   6.229   5.969
 3038SOL    HW110013   5.193   6.242   6.043
 3038SOL    HW210014   5.074   6.313   5.956
 3039SOL     OW10015   6.519   3.183   0.340
 3039SOL    HW110016   6.453   3.258   0.352
 3039SOL    HW210017   6.561   3.190   0.250
 3040SOL     OW10018   3.966   3.832   5.837
 3040SOL    HW110019   3.942   3.781   5.755
 3040SOL    HW210020   4.061   3.862   5.832
 3041SOL     OW10021   1.836   2.695   4.137
 3041SOL    HW110022   1.879   2.702   4.047
 3041SOL    HW210023   1.767   2.767   4.147
 3042SOL     OW10024   4.972   5.859   1.973
 3042SOL    HW110025   4.944   5.939   1.920
 3042SOL    HW210026   5.041   5.886   2.040
 3043SOL     OW10027   2.362   4.537   1.684
 3043SOL    HW110028   2.265   4.544   1.706
 3043SOL    HW210029   2.414   4.523   1.768
 3044SOL     OW10030   3.727   4.325   5.748
 3044SOL    HW110031   3.715   4.415   5.705
 3044SOL    HW210032   3.677   4.256   5.696
 3045SOL     OW10033   4.425   0.333   3.131
 3045SOL    HW110034   4.398   0.394   3.205
 3045SOL    HW210035   4.523   0.339   3.115
 3046SOL     OW10036   2.360   0.582   6.336
 3046SOL    HW110037   2.386   0.565   6.431
 3046SOL    HW210038   2.335   0.495   6.292
 3047SOL     OW10039   6.147   0.414   1.977
 3047SOL    HW110040   6.211   0.427   2.053
 3047SOL    HW210041   6.072   0.480   1.986
 3048SOL     OW10042   3.934   2.278   1.724
 3048SOL    HW110043   3.879   2.270   1.806
 3048SOL    HW210044   3.932   2.373   1.692
 3049SOL     OW10045   1.643   6.584   2.431
 3049SOL    HW110046   1.741   6.606   2.434
 3049SOL    HW210047   1.594   6.659   2.387
 3050SOL     OW10048   3.025   1.312   1.919
 3050SOL    HW110049   2.983   1.343   2.004
 3050SOL    HW210050   3.042   1.214   1.923
 3051SOL     OW10051   2.101   4.845   6.910
 3051SOL    HW110052   2.070   4.751   6.921
 3051SOL    HW210053   2.039   4.894   6.849
 3052SOL     OW10054   4.894   6.122   1.890
 3052SOL    HW110055   4.980   6.143   1.844
 3052SOL    HW210056   4.832   6.200   1.882
 3053SOL     OW10057   0.099   2.154   7.012
 3053SOL    HW110058   0.057   2.104   0.067
 3053SOL    HW210059   0.082   2.105   6.927
 3054SOL     OW10060   6.658   1.979   0.535
 3054SOL    HW110061   6.729   1.922   0.575
 3054SOL    HW210062   6.697   2.037   0.463
 3055SOL     OW10063   5.151   0.603   4.468
 3055SOL    HW110064   5.134   0.699   4.448
 3055SOL    HW210065   5.247   0.591   4.495
 3056SOL     OW10066   6.707   6.918   5.089
 3056SOL    HW110067   6.761   6.833   5.090
 3056SOL    HW210068   6.682   6.942   5.182
 3057SOL     OW10069   4.419   6.346   2.558
 3057SOL    HW110070   4.486   6.281   2.521
 3057SOL    HW210071   4.349   6.296   2.609
 3058SOL     OW10072   0.132   4.439   1.800
 3058SOL    HW110073   0.109   4.388   1.717
 3058SOL    HW210074   0.229   4.428   1.820
 3059SOL     OW10075   2.698   2.220   4.280
 3059SOL    HW110076   2.612   2.172   4.298
 3059SOL    HW210077   2.688   2.316   4.308
 3060SOL     OW10078   0.843   5.497   0.130
 3060SOL    HW110079   0.819   5.400   0.135
 3060SOL    HW210080   0.942   5.506   0.128
 3061SOL     OW10081   0.165   6.665   4.847
 3061SOL    HW110082   0.114   6.605   4.785
 3061SOL    HW210083   0.163   6.758   4.812
 3062SOL     OW10084   2.268   0.620   0.744
 3062SOL    HW110085   2.289   0.536   0.795
 3062SOL    HW210086   2.173   0.617   0.714
 3063SOL     OW10087   2.509   4.958   1.937
 3063SOL    HW110088   2.592   4.949   1.883
 3063SOL    HW210089   2.433   4.914   1.888
 3064SOL     OW10090   5.384   4.301   2.281
 3064SOL    HW110091   5.396   4.349   2.368
 3064SOL    HW210092   5.472   4.294   2.234
 3065SOL     OW10093   1.878   1.068   0.445
 3065SOL    HW110094   1.973   1.099   0.453
 3065SOL    HW210095   1.852   1.066   0.348
 3066SOL     OW10096   4.610   5.610   1.043
 3066SOL    HW110097   4.598   5.692   1.099
 3066SOL    HW210098   4.679   5.628   0.973
 3067SOL     OW10099   3.294   1.724   5.315
 3067SOL    HW110100   3.199   1.727   5.284
 3067SOL    HW210101   3.318   1.812   5.356
 3068SOL     OW10102   6.432   0.104   0.710
 3068SOL    HW110103   6.358   0.155   0.754
 3068SOL    HW210104   6.510   0.098   0.772
 3069SOL     OW10105   6.837   5.964   1.804
 3069SOL    HW110106   6.810   5.915   1.721
 3069SOL    HW210107   6.851   5.899   1.879
 3070SOL     OW10108   2.627   1.232   0.139
 3070SOL    HW110109   2.702   1.179   0.099
 3070SOL    HW210110   2.648   1.330   0.130
 3071SOL     OW10111   6.158   5.818   3.351
 3071SOL    HW110112   6.228   5.772   3.297
 3071SOL    HW210113   6.117   5.891   3.297
 3072SOL     OW10114   2.301   5.946   6.880
 3072SOL    HW110115   2.374   5.925   6.815
 3072SOL    HW210116   2.216   5.904   6.850
 3073SOL     OW10117   5.857   3.036   4.211
 3073SOL    HW110118   5.900   3.072   4.293
 3073SOL    HW210119   5.928   3.008   4.145
 3074SOL     OW10120   5.525   4.107   0.661
 3074SOL    HW110121   5.574   4.054   0.592
 3074SOL    HW210122   5.563   4.086   0.752
 3075SOL     OW10123   3.076   6.169   1.618
 3075SOL    HW110124   3.016   6.199   1.693
 3075SOL    HW210125   3.169   6.200   1.636
 3076SOL     OW10126   6.644   0.346   4.236
 3076SOL    HW110127   6.738   0.329   4.265
 3076SOL    HW210128   6.598   0.259   4.219
 3077SOL     OW10129   5.644   5.377   1.551
 3077SOL    HW110130   5.634   5.342   1.645
 3077SOL    HW210131   5.736   5.414   1.540
 3078SOL     OW10132   0.044   2.780   2.731
 3078SOL    HW110133   7.017   2.864   2.757
 3078SOL    HW210134   0.141   2.799   2.720
 3079SOL     OW10135   2.231   2.483   3.017
 3079SOL    HW110136   2.155   2.457   2.958
 3079SOL    HW210137   2.212   2.571   3.060
 3080SOL     OW10138   4.908   4.700   2.477
 3080SOL    HW110139   5.002   4.692   2.447
 3080SOL    HW210140   4.877   4.613   2.516
 3081SOL     OW10141   0.702   2.912   5.086
 3081SOL    HW110142   0.643   2.951   5.157
 3081SOL    HW210143   0.788   2.963   5.082
 3082SOL     OW10144   2.680   6.426   3.999
 3082SOL    HW110145   2.735   6.390   4.074
 3082SOL    HW210146   2.593   6.377   3.995
 3083SOL     OW10147   3.300   5.883   4.154
 3083SOL    HW110148   3.324   5.966   4.205
 3083SOL    HW210149   3.380   5.823   4.149
 3084SOL     OW10150   6.702   4.125   4.662
 3084SOL    HW110151   6.719   4.174   4.576
 3084SOL    HW210152   6.603   4.118   4.677
 3085SOL     OW10153   6.052   4.800   0.487
 3085SOL    HW110154   5.961   4.842   0.487
 3085SOL    HW210155   6.101   4.827   0.570
 3086SOL     OW10156   4.644   1.719   1.219
 3086SOL    HW110157   4.559   1.755   1.256
 3086SOL    HW210158   4.651   1.741   1.122
 3087SOL     OW10159   1.073   5.441   3.758
 3087SOL    HW110160   1.072   5.540   3.774
 3087SOL    HW210161   1.049   5.393   3.842
 3088SOL     OW10162   1.786   4.812   4.921
 3088SOL    HW110163   1.845   4.736   4.892
 3088SOL    HW210164   1.830   4.899   4.898
 3089SOL     OW10165   1.845   3.237   6.343
 3089SOL    HW110166   1.800   3.284   6.419
 3089SOL    HW210167   1.905   3.300   6.294
 3090SOL     OW10168   2.429   2.462   1.670
 3090SOL    HW110169   2.443   2.368   1.637
 3090SOL    HW210170   2.503   2.486   1.733
 3091SOL     OW10171   1.398   0.038   1.525
 3091SOL    HW110172   1.493   0.040   1.554
 3091SOL    HW210173   1.340   0.013   1.603
 3092SOL     OW10174   4.677   1.444   0.743
 3092SOL    HW110175   4.682   1.375   0.672
 3092SOL    HW210176   4.584   1.481   0.748
 3093SOL     OW10177   5.438   6.702   6.428
 3093SOL    HW110178   5.377   6.692   6.350
 3093SOL    HW210179   5.395   6.663   6.509
 3094SOL     OW10180   2.100   0.001   4.416
 3094SOL    HW110181   2.084   0.042   4.326
 3094SOL    HW210182   2.024   0.025   4.477
 3095SOL     OW10183   2.512   5.265   5.425
 3095SOL    HW110184   2.470   5.207   5.495
 3095SOL    HW210185   2.529   5.211   5.343
 3096SOL     OW10186   1.502   5.877   5.565
 3096SOL    HW110187   1.516   5.953   5.628
 3096SOL    HW210188   1.550   5.796   5.600
 3097SOL     OW10189   5.798   2.467   0.306
 3097SOL    HW110190   5.708   2.447   0.267
 3097SOL    HW210191   5.788   2.494   0.402
 3098SOL     OW10192   2.079   2.817   1.677
 3098SOL    HW110193   2.066   2.726   1.638
 3098SOL    HW210194   1.991   2.865   1.680
 3099SOL     OW10195   1.068   0.097   3.938
 3099SOL    HW110196   1.087   0.017   3.995
 3099SOL    HW210197   1.153   0.144   3.916
 3100SOL     OW10198   6.943   5.694   3.694
 3100SOL    HW110199   6.864   5.723   3.748
 3100SOL    HW210200   6.937   5.735   3.602
 3101SOL     OW10201   5.637   6.654   6.833
 3101SOL    HW110202   5.665   6.564   6.865
 3101SOL    HW210203   5.539   6.665   6.849
 3102SOL     OW10204   6.711   4.943   2.075
 3102SOL    HW110205   6.695   4.962   2.172
 3102SOL    HW210206   6.728   5.029   2.027
 3103SOL     OW10207   4.368   0.900   2.384
 3103SOL    HW110208   4.296   0.839   2.418
 3103SOL    HW210209   4.355   0.915   2.286
 3104SOL     OW10210   5.120   0.862   4.784
 3104SOL    HW110211   5.028   0.866   4.745
 3104SOL    HW210212   5.156   0.769   4.774
 3105SOL     OW10213   6.117   4.627   1.066
 3105SOL    HW110214   6.102   4.687   0.988
 3105SOL    HW210215   6.125   4.532   1.034
 3106SOL     OW10216   5.696   1.117   3.226
 3106SOL    HW110217   5.714   1.210   3.257
 3106SOL    HW210218   5.640   1.069   3.294
 3107SOL     OW10219   4.391   1.619   4.894
 3107SOL    HW110220   4.419   1.714   4.903
 3107SOL    HW210221   4.450   1.573   4.828
 3108SOL     OW10222   1.883   6.491   4.235
 3108SOL    HW110223   1.868   6.455   4.327
 3108SOL    HW210224   1.969   6.455   4.199
 3109SOL     OW10225   5.854   6.133   3.266
 3109SOL    HW110226   5.867   6.229   3.290
 3109SOL    HW210227   5.940   6.095   3.231
 3110SOL     OW10228   1.290   2.903   2.258
 3110SOL    HW110229   1.250   2.931   2.170
 3110SOL    HW210230   1.289   2.981   2.321
 3111SOL     OW10231   6.388   5.391   3.368
 3111SOL    HW110232   6.416   5.485   3.348
 3111SOL    HW210233   6.447   5.354   3.440
 3112SOL     OW10234   4.604   2.698   6.917
 3112SOL    HW110235   4.637   2.734   6.830
 3112SOL    HW210236   4.614   2.598   6.917
 3113SOL     OW10237   2.815   5.592   3.973
 3113SOL    HW110238   2.793   5.604   3.876
 3113SOL    HW210239   2.895   5.648   3.996
 3114SOL     OW10240   4.418   2.060   1.322
 3114SOL    HW110241   4.394   2.089   1.415
 3114SOL    HW210242   4.375   2.122   1.256
 3115SOL     OW10243   3.694   4.067   6.417
 3115SOL    HW110244   3.706   3.990   6.479
 3115SOL    HW210245   3.780   4.118   6.410
 3116SOL     OW10246   0.243   3.057   0.052
 3116SOL    HW110247   0.325   3.046   0.108
 3116SOL    HW210248   0.255   3.007   6.987
 3117SOL     OW10249   4.155   3.426   5.219
 3117SOL    HW110250   4.230   3.361   5.232
 3117SOL    HW210251   4.102   3.399   5.138
 3118SOL     OW10252   0.912   5.394   2.207
 3118SOL    HW110253   0.949   5.330   2.139
 3118SOL    HW210254   0.930   5.360   2.299
 3119SOL     OW10255   2.219   3.607   6.400
 3119SOL    HW110256   2.221   3.688   6.342
 3119SOL    HW210257   2.272   3.534   6.357
 3120SOL     OW10258   3.480   0.252   5.141
 3120SOL    HW110259   3.428   0.322   5.190
 3120SOL    HW210260   3.489   0.277   5.045
 3121SOL     OW10261   0.206   0.619   3.635
 3121SOL    HW110262   0.240   0.694   3.579
 3121SOL    HW210263   0.239   0.629   3.728
 3122SOL     OW10264   4.470   6.223   6.369
 3122SOL    HW110265   4.454   6.139   6.420
 3122SOL    HW210266   4.431   6.215   6.277
 3123SOL     OW10267   2.677   1.539   3.309
 3123SOL    HW110268   2.630   1.571   3.227
 3123SOL    HW210269   2.612   1.488   3.366
 3124SOL     OW10270   4.337   0.110   4.638
 3124SOL    HW110271   4.425   0.065   4.653
 3124SOL    HW210272   4.263   0.043   4.651
 3125SOL     OW10273   0.129   2.663   5.035
 3125SOL    HW110274   0.173   2.715   5.108
 3125SOL    HW210275   0.030   2.661   5.052
 3126SOL     OW10276   5.503   4.441   5.255
 3126SOL    HW110277   5.554   4.381   5.316
 3126SOL    HW210278   5.435   4.493   5.308
 3127SOL     OW10279   1.415   3.575   5.558
 3127SOL    HW110280   1.472   3.583   5.639
 3127SOL    HW210281   1.468   3.603   5.477
 3128SOL     OW10282   2.553   0.221   6.261
 3128SOL    HW110283   2.503   0.263   6.336
 3128SOL    HW210284   2.612   0.148   6.296
 3129SOL     OW10285   6.222   3.704   6.696
 3129SOL    HW110286   6.163   3.662   6.765
 3129SOL    HW210287   6.211   3.655   6.609
 3130SOL     OW10288   2.031   4.289   0.947
 3130SOL    HW110289   2.048   4.320   0.854
 3130SOL    HW210290   2.024   4.368   1.008
 3131SOL     OW10291   0.518   2.945   1.333
 3131SOL    HW110292   0.609   2.920   1.366
 3131SOL    HW210293   0.513   3.044   1.322
 3132SOL     OW10294   3.986   5.835   6.268
 3132SOL    HW110295   3.908   5.772   6.267
 3132SOL    HW210296   4.069   5.787   6.240
 3133SOL     OW10297   3.552   1.394   3.841
 3133SOL    HW110298   3.574   1.448   3.759
 3133SOL    HW210299   3.599   1.306   3.836
 3134SOL     OW10300   4.608   4.100   1.722
 3134SOL    HW110301   4.538   4.142   1.780
 3134SOL    HW210302   4.657   4.030   1.774
 3135SOL     OW10303   4.519   1.110   5.234
 3135SOL    HW110304   4.579   1.094   5.312
 3135SOL    HW210305   4.434   1.058   5.246
 3136SOL     OW10306   5.185   0.999   1.115
 3136SOL    HW110307   5.219   0.956   1.198
 3136SOL    HW210308   5.092   1.033   1.131
 3137SOL     OW10309   6.233   0.383   1.709
 3137SOL    HW110310   6.205   0.393   1.804
 3137SOL    HW210311   6.315   0.325   1.704
 3138SOL     OW10312   5.901   4.513   3.622
 3138SOL    HW110313   5.981   4.555   3.578
 3138SOL    HW210314   5.889   4.553   3.712
 3139SOL     OW10315   5.424   6.371   0.792
 3139SOL    HW110316   5.345   6.380   0.853
 3139SOL    HW210317   5.397   6.393   0.698
 3140SOL     OW10318   6.234   6.977   0.080
 3140SOL    HW110319   6.256   6.915   0.004
 3140SOL    HW210320   6.278   6.944   0.163
 3141SOL     OW10321   0.687   6.673   6.477
 3141SOL    HW110322   0.649   6.667   6.385
 3141SOL    HW210323   0.618   6.713   6.539
 3142SOL     OW10324   3.710   6.675   1.857
 3142SOL    HW110325   3.688   6.745   1.925
 3142SOL    HW210326   3.692   6.710   1.765
 3143SOL     OW10327   6.747   1.934   6.662
 3143SOL    HW110328   6.651   1.922   6.685
 3143SOL    HW210329   6.797   1.848   6.681
 3144SOL     OW10330   3.907   4.015   1.393
 3144SOL    HW110331   3.915   3.937   1.455
 3144SOL    HW210332   3.984   4.077   1.408
 3145SOL     OW10333   2.122   6.057   0.830
 3145SOL    HW110334   2.059   6.016   0.897
 3145SOL    HW210335   2.211   6.013   0.837
 3146SOL     OW10336   1.548   0.552   3.863
 3146SOL    HW110337   1.504   0.525   3.778
 3146SOL    HW210338   1.640   0.513   3.867
 3147SOL     OW10339   3.410   5.786   1.353
 3147SOL    HW110340   3.320   5.787   1.308
 3147SOL    HW210341   3.399   5.757   1.448
 3148SOL     OW10342   6.013   5.816   4.682
 3148SOL    HW110343   5.922   5.831   4.719
 3148SOL    HW210344   6.079   5.873   4.731
 3149SOL     OW10345   2.475   1.290   5.419
 3149SOL    HW110346   2.536   1.314   5.494
 3149SOL    HW210347   2.509   1.331   5.334
 3150SOL     OW10348   5.896   5.566   4.377
 3150SOL    HW110349   5.842   5.649   4.366
 3150SOL    HW210350   5.986   5.589   4.416
 3151SOL     OW10351   6.060   1.583   5.169
 3151SOL    HW110352   6.155   1.573   5.196
 3151SOL    HW210353   6.006   1.509   5.209
 3152SOL     OW10354   1.243   5.459   0.626
 3152SOL    HW110355   1.316   5.527   0.619
 3152SOL    HW210356   1.263   5.397   0.701
 3153SOL     OW10357   5.674   4.614   1.017
 3153SOL    HW110358   5.735   4.570   1.083
 3153SOL    HW210359   5.623   4.543   0.967
 3154SOL     OW10360   6.552   1.400   6.456
 3154SOL    HW110361   6.537   1.354   6.368
 3154SOL    HW210362   6.471   1.454   6.479
 3155SOL     OW10363   6.339   4.549   0.307
 3155SOL    HW110364   6.244   4.579   0.321
 3155SOL    HW210365   6.402   4.621   0.336
 3156SOL     OW10366   3.296   2.947   3.585
 3156SOL    HW110367   3.242   2.917   3.663
 3156SOL    HW210368   3.268   2.895   3.504
 3157SOL     OW10369   2.507   2.187   4.738
 3157SOL    HW110370   2.512   2.287   4.740
 3157SOL    HW210371   2.597   2.149   4.718
 3158SOL     OW10372   4.576   1.234   3.489
 3158SOL    HW110373   4.597   1.307   3.424
 3158SOL    HW210374   4.526   1.161   3.443
 3159SOL     OW10375   5.823   1.887   0.058
 3159SOL    HW110376   5.730   1.859   0.034
 3159SOL    HW210377   5.869   1.921   6.997
 3160SOL     OW10378   0.212   6.251   5.848
 3160SOL    HW110379   0.177   6.199   5.770
 3160SOL    HW210380   0.288   6.201   5.890
 3161SOL     OW10381   1.791   2.638   3.458
 3161SOL    HW110382   1.781   2.709   3.528
 3161SOL    HW210383   1.880   2.592   3.470
 3162SOL     OW10384   1.438   6.741   2.310
 3162SOL    HW110385   1.379   6.665   2.282
 3162SOL    HW210386   1.429   6.756   2.408
 3163SOL     OW10387   4.797   2.403   6.138
 3163SOL    HW110388   4.699   2.407   6.122
 3163SOL    HW210389   4.821   2.313   6.175
 3164SOL     OW10390   4.429   4.858   0.995
 3164SOL    HW110391   4.387   4.829   0.909
 3164SOL    HW210392   4.392   4.946   1.024
 3165SOL     OW10393   0.240   6.038   1.115
 3165SOL    HW110394   0.279   6.125   1.085
 3165SOL    HW210395   0.166   6.056   1.180
 3166SOL     OW10396   4.272   1.851   4.533
 3166SOL    HW110397   4.275   1.951   4.537
 3166SOL    HW210398   4.178   1.820   4.539
 3167SOL     OW10399   6.326   4.440   0.801
 3167SOL    HW110400   6.340   4.365   0.866
 3167SOL    HW210401   6.308   4.402   0.710
 3168SOL     OW10402   4.459   2.029   6.552
 3168SOL    HW110403   4.465   2.034   6.652
 3168SOL    HW210404   4.550   2.007   6.515
 3169SOL     OW10405   2.121   3.506   4.518
 3169SOL    HW110406   2.124   3.557   4.604
 3169SOL    HW210407   2.157   3.414   4.532
 3170SOL     OW10408   4.090   0.448   1.751
 3170SOL    HW110409   4.044   0.537   1.763
 3170SOL    HW210410   4.137   0.447   1.663
 3171SOL     OW10411   0.317   0.351   1.302
 3171SOL    HW110412   0.410   0.320   1.283
 3171SOL    HW210413   0.319   0.430   1.363
 3172SOL     OW10414   6.730   5.042   0.409
 3172SOL    HW110415   6.791   4.967   0.382
 3172SOL    HW210416   6.708   5.033   0.506
 3173SOL     OW10417   2.854   2.113   0.426
 3173SOL    HW110418   2.848   2.158   0.337
 3173SOL    HW210419   2.863   2.182   0.498
 3174SOL     OW10420   3.052   2.010   0.142
 3174SOL    HW110421   2.955   2.001   0.120
 3174SOL    HW210422   3.072   2.105   0.167
 3175SOL     OW10423   6.784   0.675   1.006
 3175SOL    HW110424   6.801   0.585   0.966
 3175SOL    HW210425   6.843   0.743   0.963
 3176SOL     OW10426   1.390   4.921   4.849
 3176SOL    HW110427   1.290   4.922   4.850
 3176SOL    HW210428   1.423   4.907   4.756
 3177SOL     OW10429   4.840   3.912   4.067
 3177SOL    HW110430   4.908   3.984   4.054
 3177SOL    HW210431   4.882   3.823   4.055
 3178SOL     OW10432   6.281   2.301   0.406
 3178SOL    HW110433   6.204   2.349   0.364
 3178SOL    HW210434   6.292   2.332   0.500
 3179SOL     OW10435   1.271   3.337   1.862
 3179SOL    HW110436   1.243   3.347   1.957
 3179SOL    HW210437   1.214   3.395   1.804
 3180SOL     OW10438   4.405   1.158   7.015
 3180SOL    HW110439   4.347   1.186   0.071
 3180SOL    HW210440   4.500   1.150   0.025
 3181SOL     OW10441   6.842   1.433   2.836
 3181SOL    HW110442   6.892   1.454   2.752
 3181SOL    HW210443   6.906   1.397   2.904
 3182SOL     OW10444   3.000   0.711   5.427
 3182SOL    HW110445   3.073   0.773   5.456
 3182SOL    HW210446   2.959   0.745   5.342
 3183SOL     OW10447   3.989   4.270   1.671
 3183SOL    HW110448   3.950   4.360   1.649
 3183SOL    HW210449   3.950   4.237   1.757
 3184SOL     OW10450   0.756   2.465   2.423
 3184SOL    HW110451   0.793   2.476   2.331
 3184SOL    HW210452   0.708   2.549   2.449
 3185SOL     OW10453   6.025   5.595   0.136
 3185SOL    HW110454   6.017   5.550   0.224
 3185SOL    HW210455   5.972   5.545   0.067
 3186SOL     OW10456   3.930   1.562   2.051
 3186SOL    HW110457   3.831   1.571   2.064
 3186SOL    HW210458   3.951   1.468   2.023
 3187SOL     OW10459   4.695   4.155   0.021
 3187SOL    HW110460   4.739   4.190   6.961
 3187SOL    HW210461   4.686   4.055   0.014
 3188SOL     OW10462   2.480   0.570   4.591
 3188SOL    HW110463   2.392   0.561   4.639
 3188SOL    HW210464   2.537   0.490   4.610
 3189SOL     OW10465   1.515   1.529   1.852
 3189SOL    HW110466   1.541   1.538   1.948
 3189SOL    HW210467   1.569   1.591   1.796
 3190SOL     OW10468   0.013   6.254   0.472
 3190SOL    HW110469   0.099   6.284   0.512
 3190SOL    HW210470   6.980   6.334   0.446
 3191SOL     OW10471   5.212   0.139   1.191
 3191SOL    HW110472   5.197   0.203   1.116
 3191SOL    HW210473   5.290   0.080   1.169
 3192SOL     OW10474   0.356   2.516   1.284
 3192SOL    HW110475   0.415   2.468   1.219
 3192SOL    HW210476   0.320   2.599   1.241
 3193SOL     OW10477   3.929   1.418   6.685
 3193SOL    HW110478   4.018   1.379   6.659
 3193SOL    HW210479   3.911   1.499   6.628
 3194SOL     OW10480   1.345   2.965   6.357
 3194SOL    HW110481   1.294   2.979   6.272
 3194SOL    HW210482   1.443   2.964   6.337
 3195SOL     OW10483   2.543   2.106   3.353
 3195SOL    HW110484   2.632   2.123   3.395
 3195SOL    HW210485   2.551   2.108   3.254
 3196SOL     OW10486   0.748   1.195   5.677
 3196SOL    HW110487   0.678   1.257   5.643
 3196SOL    HW210488   0.828   1.198   5.616
 3197SOL     OW10489   2.311   6.205   3.128
 3197SOL    HW110490   2.361   6.284   3.164
 3197SOL    HW210491   2.240   6.178   3.193
 3198SOL     OW10492   5.865   2.077   5.422
 3198SOL    HW110493   5.874   2.175   5.402
 3198SOL    HW210494   5.786   2.040   5.373
 3199SOL     OW10495   4.843   2.914   2.318
 3199SOL    HW110496   4.843   2.846   2.245
 3199SOL    HW210497   4.834   3.005   2.278
 3200SOL     OW10498   0.110   2.887   1.999
 3200SOL    HW110499   0.104   2.790   1.979
 3200SOL    HW210500   0.076   2.904   2.092
 3201SOL     OW10501   5.144   4.882   4.534
 3201SOL    HW110502   5.047   4.891   4.555
 3201SOL    HW210503   5.175   4.964   4.485
 3202SOL     OW10504   0.915   4.693   1.995
 3202SOL    HW110505   0.822   4.661   2.013
 3202SOL    HW210506   0.939   4.766   2.059
 3203SOL     OW10507   6.414   2.174   6.756
 3203SOL    HW110508   6.480   2.180   6.682
 3203SOL    HW210509   6.435   2.244   6.825
 3204SOL     OW10510   4.695   6.321   1.836
 3204SOL    HW110511   4.618   6.271   1.876
 3204SOL    HW210512   4.666   6.363   1.750
 3205SOL     OW10513   0.013   3.346   6.248
 3205SOL    HW110514   6.947   3.340   6.296
 3205SOL    HW210515   0.087   3.320   6.310
 3206SOL     OW10516   0.589   6.857   5.899
 3206SOL    HW110517   0.604   6.840   5.801
 3206SOL    HW210518   0.513   6.801   5.931
 3207SOL     OW10519   1.298   0.766   5.627
 3207SOL    HW110520   1.208   0.726   5.644
 3207SOL    HW210521   1.289   0.866   5.619
 3208SOL     OW10522   5.189   6.773   5.309
 3208SOL    HW110523   5.164   6.857   5.358
 3208SOL    HW210524   5.106   6.726   5.280
 3209SOL     OW10525   4.270   5.449   2.986
 3209SOL    HW110526   4.204   5.394   3.037
 3209SOL    HW210527   4.234   5.468   2.895
 3210SOL     OW10528   0.865   4.229   1.305
 3210SOL    HW110529   0.962   4.250   1.319
 3210SOL    HW210530   0.819   4.223   1.393
 3211SOL     OW10531   1.673   3.524   1.040
 3211SOL    HW110532   1.722   3.587   1.100
 3211SOL    HW210533   1.737   3.485   0.973
 3212SOL     OW10534   2.640   0.770   0.735
 3212SOL    HW110535   2.659   0.701   0.665
 3212SOL    HW210536   2.724   0.817   0.759
 3213SOL     OW10537   0.424   6.083   2.206
 3213SOL    HW110538   0.330   6.080   2.172
 3213SOL    HW210539   0.442   6.173   2.246
 3214SOL     OW10540   4.896   5.604   0.906
 3214SOL    HW110541   4.875   5.675   0.839
 3214SOL    HW210542   4.988   5.618   0.941
 3215SOL     OW10543   0.284   2.932   0.853
 3215SOL    HW110544   0.332   2.847   0.875
 3215SOL    HW210545   0.232   2.963   0.933
 3216SOL     OW10546   5.839   4.989   1.329
 3216SOL    HW110547   5.842   4.896   1.293
 3216SOL    HW210548   5.759   5.036   1.293
 3217SOL     OW10549   0.102   6.140   2.864
 3217SOL    HW110550   0.202   6.148   2.869
 3217SOL    HW210551   0.068   6.198   2.789
 3218SOL     OW10552   4.255   0.257   3.935
 3218SOL    HW110553   4.248   0.161   3.909
 3218SOL    HW210554   4.263   0.264   4.034
 3219SOL     OW10555   0.190   1.932   3.327
 3219SOL    HW110556   0.227   1.849   3.284
 3219SOL    HW210557   0.171   1.913   3.424
 3220SOL     OW10558   6.329   6.026   5.571
 3220SOL    HW110559   6.376   5.966   5.637
 3220SOL    HW210560   6.385   6.034   5.489
 3221SOL     OW10561   3.362   0.273   1.448
 3221SOL    HW110562   3.429   0.222   1.502
 3221SOL    HW210563   3.393   0.280   1.354
 3222SOL     OW10564   4.521   1.831   2.649
 3222SOL    HW110565   4.599   1.836   2.710
 3222SOL    HW210566   4.514   1.915   2.596
 3223SOL     OW10567   2.269   5.396   6.975
 3223SOL    HW110568   2.198   5.332   6.945
 3223SOL    HW210569   2.232   5.488   6.979
 3224SOL     OW10570   4.272   3.797   0.338
 3224SOL    HW110571   4.362   3.821   0.302
 3224SOL    HW210572   4.211   3.877   0.330
 3225SOL     OW10573   4.686   3.356   6.192
 3225SOL    HW110574   4.652   3.407   6.113
 3225SOL    HW210575   4.621   3.284   6.216
 3226SOL     OW10576   1.931   1.767   4.059
 3226SOL    HW110577   2.003   1.799   4.120
 3226SOL    HW210578   1.885   1.687   4.099
 3227SOL     OW10579   3.695   1.606   0.379
 3227SOL    HW110580   3.688   1.535   0.450
 3227SOL    HW210581   3.605   1.622   0.339
 3228SOL     OW10582   5.645   4.258   2.577
 3228SOL    HW110583   5.737   4.241   2.540
 3228SOL    HW210584   5.619   4.352   2.557
 3229SOL     OW10585   3.724   1.094   5.549
 3229SOL    HW110586   3.784   1.174   5.552
 3229SOL    HW210587   3.700   1.074   5.454
 3230SOL     OW10588   1.565   2.978   4.154
 3230SOL    HW110589   1.565   3.013   4.060
 3230SOL    HW210590   1.482   2.924   4.169
 3231SOL     OW10591   2.322   0.965   1.640
 3231SOL    HW110592   2.242   0.927   1.594
 3231SOL    HW210593   2.340   1.057   1.605
 3232SOL     OW10594   4.272   5.199   5.202
 3232SOL    HW110595   4.277   5.150   5.115
 3232SOL    HW210596   4.343   5.269   5.204
 3233SOL     OW10597   0.791   2.584   1.764
 3233SOL    HW110598   0.845   2.629   1.693
 3233SOL    HW210599   0.803   2.632   1.851
 3234SOL     OW10600   0.446   1.561   6.890
 3234SOL    HW110601   0.403   1.620   6.823
 3234SOL    HW210602   0.390   1.557   6.973
 3235SOL     OW10603   4.932   0.991   1.213
 3235SOL    HW110604   4.943   1.055   1.289
 3235SOL    HW210605   4.857   1.021   1.154
 3236SOL     OW10606   1.425   3.688   0.568
 3236SOL    HW110607   1.352   3.693   0.636
 3236SOL    HW210608   1.389   3.712   0.478
 3237SOL     OW10609   5.329   1.439   4.052
 3237SOL    HW110610   5.287   1.379   4.121
 3237SOL    HW210611   5.292   1.416   3.962
 3238SOL     OW10612   0.057   5.049   0.871
 3238SOL    HW110613   0.153   5.068   0.891
 3238SOL    HW210614   0.048   5.023   0.775
 3239SOL     OW10615   6.631   1.720   1.339
 3239SOL    HW110616   6.723   1.683   1.328
 3239SOL    HW210617   6.635   1.802   1.397
 3240SOL     OW10618   1.726   6.675   5.916
 3240SOL    HW110619   1.820   6.680   5.881
 3240SOL    HW210620   1.724   6.617   5.998
 3241SOL     OW10621   4.284   1.342   5.422
 3241SOL    HW110622   4.379   1.350   5.452
 3241SOL    HW210623   4.280   1.333   5.322
 3242SOL     OW10624   3.378   4.503   0.762
 3242SOL    HW110625   3.293   4.487   0.812
 3242SOL    HW210626   3.374   4.592   0.717
 3243SOL     OW10627   5.332   4.513   0.991
 3243SOL    HW110628   5.385   4.588   1.031
 3243SOL    HW210629   5.393   4.440   0.962
 3244SOL     OW10630   4.977   6.069   0.102
 3244SOL    HW110631   4.954   6.103   0.011
 3244SOL    HW210632   4.894   6.057   0.155
 3245SOL     OW10633   4.756   2.951   5.169
 3245SOL    HW110634   4.699   3.002   5.234
 3245SOL    HW210635   4.837   2.916   5.216
 3246SOL     OW10636   4.971   0.680   2.942
 3246SOL    HW110637   5.017   0.593   2.958
 3246SOL    HW210638   5.006   0.722   2.858
 3247SOL     OW10639   5.861   4.950   2.690
 3247SOL    HW110640   5.781   4.998   2.727
 3247SOL    HW210641   5.870   4.862   2.736
 3248SOL     OW10642   6.643   3.616   1.952
 3248SOL    HW110643   6.685   3.541   1.902
 3248SOL    HW210644   6.562   3.649   1.903
 3249SOL     OW10645   3.639   3.852   4.486
 3249SOL    HW110646   3.682   3.934   4.447
 3249SOL    HW210647   3.626   3.784   4.415
 3250SOL     OW10648   5.797   6.859   1.837
 3250SOL    HW110649   5.704   6.824   1.849
 3250SOL    HW210650   5.794   6.945   1.786
 3251SOL     OW10651   3.443   0.890   2.182
 3251SOL    HW110652   3.456   0.793   2.161
 3251SOL    HW210653   3.453   0.904   2.281
 3252SOL     OW10654   2.517   2.255   2.478
 3252SOL    HW110655   2.486   2.347   2.454
 3252SOL    HW210656   2.502   2.239   2.576
 3253SOL     OW10657   5.855   3.204   1.924
 3253SOL    HW110658   5.945   3.199   1.966
 3253SOL    HW210659   5.802   3.123   1.948
 3254SOL     OW10660   5.285   5.376   5.702
 3254SOL    HW110661   5.217   5.447   5.718
 3254SOL    HW210662   5.368   5.417   5.665
 3255SOL     OW10663   5.274   5.866   1.514
 3255SOL    HW110664   5.195   5.908   1.470
 3255SOL    HW210665   5.259   5.861   1.613
 3256SOL     OW10666   4.681   0.864   0.318
 3256SOL    HW110667   4.758   0.837   0.260
 3256SOL    HW210668   4.713   0.926   0.389
 3257SOL     OW10669   1.286   1.607   1.191
 3257SOL    HW110670   1.361   1.544   1.207
 3257SOL    HW210671   1.202   1.556   1.173
 3258SOL     OW10672   3.832   4.843   2.026
 3258SOL    HW110673   3.817   4.893   2.111
 3258SOL    HW210674   3.744   4.813   1.988
 3259SOL     OW10675   4.591   5.185   3.821
 3259SOL    HW110676   4.581   5.134   3.907
 3259SOL    HW210677   4.685   5.220   3.815
 3260SOL     OW10678   1.326   2.020   0.583
 3260SOL    HW110679   1.319   2.064   0.672
 3260SOL    HW210680   1.322   1.920   0.594
 3261SOL     OW10681   4.844   6.614   0.453
 3261SOL    HW110682   4.867   6.518   0.436
 3261SOL    HW210683   4.851   6.666   0.368
 3262SOL     OW10684   3.371   1.962   2.773
 3262SOL    HW110685   3.386   1.863   2.769
 3262SOL    HW210686   3.301   1.988   2.706
 3263SOL     OW10687   3.085   1.114   3.771
 3263SOL    HW110688   3.044   1.042   3.715
 3263SOL    HW210689   3.143   1.172   3.714
 3264SOL     OW10690   1.119   4.278   1.004
 3264SOL    HW110691   1.198   4.280   0.942
 3264SOL    HW210692   1.099   4.371   1.034
 3265SOL     OW10693   4.863   1.365   5.850
 3265SOL    HW110694   4.889   1.287   5.793
 3265SOL    HW210695   4.945   1.412   5.882
 3266SOL     OW10696   0.739   2.672   0.045
 3266SOL    HW110697   0.666   2.629   0.099
 3266SOL    HW210698   0.699   2.735   7.000
 3267SOL     OW10699   3.543   1.237   6.900
 3267SOL    HW110700   3.456   1.274   6.867
 3267SOL    HW210701   3.606   1.313   6.919
 3268SOL     OW10702   1.464   4.984   6.980
 3268SOL    HW110703   1.437   4.896   7.019
 3268SOL    HW210704   1.522   4.968   6.900
 3269SOL     OW10705   4.357   4.486   1.826
 3269SOL    HW110706   4.318   4.497   1.918
 3269SOL    HW210707   4.393   4.393   1.816
 3270SOL     OW10708   0.766   4.411   4.488
 3270SOL    HW110709   0.683   4.371   4.529
 3270SOL    HW210710   0.839   4.343   4.486
 3271SOL     OW10711   5.640   3.830   2.475
 3271SOL    HW110712   5.612   3.888   2.399
 3271SOL    HW210713   5.567   3.765   2.495
 3272SOL     OW10714   3.512   4.161   6.853
 3272SOL    HW110715   3.580   4.146   6.782
 3272SOL    HW210716   3.422   4.172   6.811
 3273SOL     OW10717   0.705   6.555   1.765
 3273SOL    HW110718   0.773   6.620   1.730
 3273SOL    HW210719   0.633   6.542   1.697
 3274SOL     OW10720   4.327   1.178   1.805
 3274SOL    HW110721   4.309   1.200   1.901
 3274SOL    HW210722   4.311   1.259   1.748
 3275SOL     OW10723   0.464   0.691   6.278
 3275SOL    HW110724   0.555   0.721   6.250
 3275SOL    HW210725   0.472   0.625   6.353
 3276SOL     OW10726   3.502   6.039   0.301
 3276SOL    HW110727   3.425   5.986   0.335
 3276SOL    HW210728   3.585   5.983   0.299
 3277SOL     OW10729   4.876   0.178   0.480
 3277SOL    HW110730   4.930   0.112   0.533
 3277SOL    HW210731   4.857   0.140   0.390
 3278SOL     OW10732   0.228   1.208   5.800
 3278SOL    HW110733   0.163   1.168   5.864
 3278SOL    HW210734   0.222   1.307   5.803
 3279SOL     OW10735   6.088   1.275   0.379
 3279SOL    HW110736   6.076   1.373   0.363
 3279SOL    HW210737   6.046   1.223   0.305
 3280SOL     OW10738   3.788   5.035   5.001
 3280SOL    HW110739   3.723   5.010   4.929
 3280SOL    HW210740   3.782   5.133   5.019
 3281SOL     OW10741   2.441   5.086   1.238
 3281SOL    HW110742   2.533   5.125   1.243
 3281SOL    HW210743   2.374   5.155   1.264
 3282SOL     OW10744   1.023   5.749   4.743
 3282SOL    HW110745   1.009   5.705   4.832
 3282SOL    HW210746   0.998   5.846   4.750
 3283SOL     OW10747   4.209   1.234   0.664
 3283SOL    HW110748   4.214   1.279   0.754
 3283SOL    HW210749   4.116   1.198   0.650
 3284SOL     OW10750   6.043   5.932   6.604
 3284SOL    HW110751   6.047   5.959   6.507
 3284SOL    HW210752   6.075   6.007   6.661
 3285SOL     OW10753   4.964   3.029   4.013
 3285SOL    HW110754   5.061   3.050   4.019
 3285SOL    HW210755   4.948   2.964   3.939
 3286SOL     OW10756   4.130   3.547   2.543
 3286SOL    HW110757   4.075   3.532   2.626
 3286SOL    HW210758   4.168   3.640   2.546
 3287SOL     OW10759   1.602   6.813   6.554
 3287SOL    HW110760   1.517   6.840   6.509
 3287SOL    HW210761   1.679   6.832   6.493
 3288SOL     OW10762   0.679   5.448   6.714
 3288SOL    HW110763   0.616   5.410   6.781
 3288SOL    HW210764   0.765   5.473   6.759
 3289SOL     OW10765   2.776   6.624   5.203
 3289SOL    HW110766   2.817   6.653   5.117
 3289SOL    HW210767   2.677   6.634   5.198
 3290SOL     OW10768   0.543   6.785   2.024
 3290SOL    HW110769   0.489   6.869   2.026
 3290SOL    HW210770   0.640   6.809   2.022
 3291SOL     OW10771   1.032   6.328   0.235
 3291SOL    HW110772   1.046   6.309   0.332
 3291SOL    HW210773   0.935   6.325   0.213
 3292SOL     OW10774   0.625   0.903   0.884
 3292SOL    HW110775   0.546   0.932   0.939
 3292SOL    HW210776   0.640   0.805   0.897
 3293SOL     OW10777   0.376   3.687   3.127
 3293SOL    HW110778   0.416   3.773   3.156
 3293SOL    HW210779   0.424   3.611   3.171
 3294SOL     OW10780   0.530   0.989   6.051
 3294SOL    HW110781   0.593   0.914   6.071
 3294SOL    HW210782   0.451   0.983   6.112
 3295SOL     OW10783   1.471   3.141   1.636
 3295SOL    HW110784   1.475   3.182   1.727
 3295SOL    HW210785   1.564   3.132   1.599
 3296SOL     OW10786   2.079   6.117   2.164
 3296SOL    HW110787   2.121   6.196   2.118
 3296SOL    HW210788   2.023   6.150   2.240
 3297SOL     OW10789   2.809   0.512   4.607
 3297SOL    HW110790   2.813   0.553   4.698
 3297SOL    HW210791   2.884   0.446   4.597
 3298SOL     OW10792   5.536   1.675   4.363
 3298SOL    HW110793   5.585   1.760   4.345
 3298SOL    HW210794   5.564   1.606   4.297
 3299SOL     OW10795   2.480   6.016   3.786
 3299SOL    HW110796   2.402   6.076   3.768
 3299SOL    HW210797   2.453   5.945   3.852
 3300SOL     OW10798   0.365   0.813   5.589
 3300SOL    HW110799   0.288   0.877   5.584
 3300SOL    HW210800   0.450   0.864   5.600
 3301SOL     OW10801   2.098   3.376   3.177
 3301SOL    HW110802   2.077   3.368   3.080
 3301SOL    HW210803   2.112   3.285   3.216
 3302SOL     OW10804   0.985   5.519   5.777
 3302SOL    HW110805   0.932   5.571   5.710
 3302SOL    HW210806   0.960   5.423   5.772
 3303SOL     OW10807   3.456   2.786   2.014
 3303SOL    HW110808   3.391   2.850   1.972
 3303SOL    HW210809   3.406   2.707   2.050
 3304SOL     OW10810   1.762   5.579   4.275
 3304SOL    HW110811   1.837   5.571   4.209
 3304SOL    HW210812   1.677   5.596   4.227
 3305SOL     OW10813   2.121   1.300   3.026
 3305SOL    HW110814   2.195   1.336   3.083
 3305SOL    HW210815   2.156   1.225   2.969
 3306SOL     OW10816   2.367   5.684   4.488
 3306SOL    HW110817   2.349   5.702   4.391
 3306SOL    HW210818   2.396   5.589   4.500
 3307SOL     OW10819   6.835   5.605   6.687
 3307SOL    HW110820   6.889   5.684   6.658
 3307SOL    HW210821   6.773   5.632   6.760
 3308SOL     OW10822   4.231   5.827   6.915
 3308SOL    HW110823   4.244   5.763   6.839
 3308SOL    HW210824   4.319   5.867   6.940
 3309SOL     OW10825   0.337   5.452   2.417
 3309SOL    HW110826   0.412   5.476   2.478
 3309SOL    HW210827   0.278   5.531   2.403
 3310SOL     OW10828   0.107   3.900   4.973
 3310SOL    HW110829   0.030   3.864   5.026
 3310SOL    HW210830   0.183   3.920   5.034
 3311SOL     OW10831   2.136   3.970   1.544
 3311SOL    HW110832   2.222   4.015   1.570
 3311SOL    HW210833   2.066   3.991   1.612
 3312SOL     OW10834   3.574   4.702   6.002
 3312SOL    HW110835   3.573   4.650   6.088
 3312SOL    HW210836   3.491   4.757   5.996
 3313SOL     OW10837   6.926   5.477   2.905
 3313SOL    HW110838   0.000   5.498   2.928
 3313SOL    HW210839   6.888   5.418   2.976
 3314SOL     OW10840   2.913   2.007   3.922
 3314SOL    HW110841   2.891   1.969   3.832
 3314SOL    HW210842   2.866   1.954   3.993
 3315SOL     OW10843   5.947   2.968   3.964
 3315SOL    HW110844   5.872   3.017   3.919
 3315SOL    HW210845   6.030   3.024   3.963
 3316SOL     OW10846   4.635   1.926   6.340
 3316SOL    HW110847   4.692   1.844   6.337
 3316SOL    HW210848   4.540   1.902   6.318
 3317SOL     OW10849   4.901   3.612   1.860
 3317SOL    HW110850   4.978   3.578   1.805
 3317SOL    HW210851   4.817   3.568   1.830
 3318SOL     OW10852   3.456   1.000   0.414
 3318SOL    HW110853   3.440   1.032   0.508
 3318SOL    HW210854   3.478   0.903   0.416
 3319SOL     OW10855   6.367   0.351   4.418
 3319SOL    HW110856   6.394   0.255   4.417
 3319SOL    HW210857   6.319   0.374   4.333
 3320SOL     OW10858   6.046   0.543   5.497
 3320SOL    HW110859   6.100   0.627   5.492
 3320SOL    HW210860   6.023   0.523   5.592
 3321SOL     OW10861   3.997   2.147   1.502
 3321SOL    HW110862   4.005   2.049   1.518
 3321SOL    HW210863   3.969   2.193   1.586
 3322SOL     OW10864   5.241   3.407   1.211
 3322SOL    HW110865   5.179   3.420   1.134
 3322SOL    HW210866   5.289   3.493   1.229
 3323SOL     OW10867   2.689   3.484   6.311
 3323SOL    HW110868   2.625   3.467   6.386
 3323SOL    HW210869   2.744   3.565   6.333
 3324SOL     OW10870   1.324   3.676   6.334
 3324SOL    HW110871   1.372   3.690   6.420
 3324SOL    HW210872   1.386   3.635   6.267
 3325SOL     OW10873   1.974   2.672   6.213
 3325SOL    HW110874   2.025   2.590   6.186
 3325SOL    HW210875   1.974   2.680   6.313
 3326SOL     OW10876   5.566   1.996   2.217
 3326SOL    HW110877   5.531   1.913   2.261
 3326SOL    HW210878   5.644   2.031   2.268
 3327SOL     OW10879   3.325   5.752   1.609
 3327SOL    HW110880   3.378   5.799   1.679
 3327SOL    HW210881   3.233   5.791   1.604
 3328SOL     OW10882   4.620   1.731   1.641
 3328SOL    HW110883   4.523   1.749   1.622
 3328SOL    HW210884   4.627   1.674   1.723
 3329SOL     OW10885   5.416   0.613   4.498
 3329SOL    HW110886   5.477   0.538   4.524
 3329SOL    HW210887   5.471   0.691   4.466
 3330SOL     OW10888   6.241   5.840   1.148
 3330SOL    HW110889   6.272   5.849   1.053
 3330SOL    HW210890   6.157   5.891   1.161
 3331SOL     OW10891   0.707   3.873   1.522
 3331SOL    HW110892   0.714   3.792   1.580
 3331SOL    HW210893   0.684   3.846   1.429
 3332SOL     OW10894   6.546   4.611   0.715
 3332SOL    HW110895   6.466   4.554   0.732
 3332SOL    HW210896   6.601   4.617   0.798
 3333SOL     OW10897   3.004   4.126   6.463
 3333SOL    HW110898   2.936   4.089   6.400
 3333SOL    HW210899   3.067   4.054   6.490
 3334SOL     OW10900   2.337   4.096   1.925
 3334SOL    HW110901   2.416   4.152   1.948
 3334SOL    HW210902   2.359   4.037   1.847
 3335SOL     OW10903   4.786   6.603   6.339
 3335SOL    HW110904   4.759   6.507   6.336
 3335SOL    HW210905   4.845   6.624   6.261
 3336SOL     OW10906   1.760   6.635   4.804
 3336SOL    HW110907   1.790   6.713   4.858
 3336SOL    HW210908   1.672   6.656   4.762
 3337SOL     OW10909   3.064   3.992   1.498
 3337SOL    HW110910   3.013   4.042   1.568
 3337SOL    HW210911   3.080   3.898   1.528
 3338SOL     OW10912   0.020   2.665   1.129
 3338SOL    HW110913   0.013   2.714   1.215
 3338SOL    HW210914   6.984   2.583   1.133
 3339SOL     OW10915   1.062   6.855   6.395
 3339SOL    HW110916   1.070   6.806   6.482
 3339SOL    HW210917   0.972   6.838   6.356
 3340SOL     OW10918   3.363   1.544   2.964
 3340SOL    HW110919   3.277   1.524   3.011
 3340SOL    HW210920   3.420   1.461   2.962
 3341SOL     OW10921   1.438   4.442   3.883
 3341SOL    HW110922   1.478   4.382   3.814
 3341SOL    HW210923   1.370   4.392   3.936
 3342SOL     OW10924   1.241   6.823   3.740
 3342SOL    HW110925   1.258   6.731   3.703
 3342SOL    HW210926   1.187   6.816   3.824
 3343SOL     OW10927   5.448   4.222   6.594
 3343SOL    HW110928   5.434   4.222   6.693
 3343SOL    HW210929   5.486   4.310   6.565
 3344SOL     OW10930   5.494   3.512   3.419
 3344SOL    HW110931   5.571   3.463   3.380
 3344SOL    HW210932   5.470   3.590   3.360
 3345SOL     OW10933   1.506   3.908   6.088
 3345SOL    HW110934   1.563   3.826   6.081
 3345SOL    HW210935   1.485   3.925   6.184
 3346SOL     OW10936   0.864   0.717   0.262
 3346SOL    HW110937   0.812   0.739   0.179
 3346SOL    HW210938   0.962   0.717   0.240
 3347SOL     OW10939   1.168   2.487   4.847
 3347SOL    HW110940   1.091   2.432   4.815
 3347SOL    HW210941   1.154   2.583   4.821
 3348SOL     OW10942   4.170   3.576   4.409
 3348SOL    HW110943   4.104   3.509   4.375
 3348SOL    HW210944   4.262   3.551   4.379
 3349SOL     OW10945   2.253   5.161   3.328
 3349SOL    HW110946   2.206   5.084   3.370
 3349SOL    HW210947   2.341   5.131   3.292
 3350SOL     OW10948   0.012   2.162   5.884
 3350SOL    HW110949   0.072   2.083   5.896
 3350SOL    HW210950   7.000   2.165   5.790
 3351SOL     OW10951   4.858   0.882   3.080
 3351SOL    HW110952   4.900   0.808   3.027
 3351SOL    HW210953   4.859   0.967   3.027
 3352SOL     OW10954   6.860   3.125   1.393
 3352SOL    HW110955   6.785   3.062   1.377
 3352SOL    HW210956   6.835   3.216   1.360
 3353SOL     OW10957   2.863   5.755   1.431
 3353SOL    HW110958   2.958   5.781   1.448
 3353SOL    HW210959   2.804   5.835   1.442
 3354SOL     OW10960   4.149   2.478   5.737
 3354SOL    HW110961   4.156   2.389   5.783
 3354SOL    HW210962   4.183   2.550   5.797
 3355SOL     OW10963   1.778   1.704   6.256
 3355SOL    HW110964   1.842   1.664   6.322
 3355SOL    HW210965   1.786   1.654   6.169
 3356SOL     OW10966   0.907   5.509   6.280
 3356SOL    HW110967   0.865   5.428   6.320
 3356SOL    HW210968   0.858   5.534   6.197
 3357SOL     OW10969   2.303   3.647   1.665
 3357SOL    HW110970   2.271   3.594   1.587
 3357SOL    HW210971   2.313   3.587   1.744
 3358SOL     OW10972   4.567   1.706   1.964
 3358SOL    HW110973   4.546   1.611   1.983
 3358SOL    HW210974   4.639   1.738   2.025
 3359SOL     OW10975   0.552   6.083   3.062
 3359SOL    HW110976   0.518   6.109   3.153
 3359SOL    HW210977   0.626   6.145   3.036
 3360SOL     OW10978   1.423   0.991   6.961
 3360SOL    HW110979   1.410   1.020   6.866
 3360SOL    HW210980   1.357   1.037   7.020
 3361SOL     OW10981   6.924   5.081   4.473
 3361SOL    HW110982   6.846   5.114   4.420
 3361SOL    HW210983   6.951   4.990   4.439
 3362SOL     OW10984   3.516   1.331   2.920
 3362SOL    HW110985   3.612   1.355   2.915
 3362SOL    HW210986   3.503   1.259   2.989
 3363SOL     OW10987   0.310   1.929   1.943
 3363SOL    HW110988   0.346   2.003   1.886
 3363SOL    HW210989   0.289   1.964   2.034
 3364SOL     OW10990   1.728   4.838   3.845
 3364SOL    HW110991   1.744   4.921   3.898
 3364SOL    HW210992   1.674   4.773   3.900
 3365SOL     OW10993   0.381   2.640   4.634
 3365SOL    HW110994   0.393   2.714   4.567
 3365SOL    HW210995   0.460   2.579   4.631
 3366SOL     OW10996   5.443   5.043   4.577
 3366SOL    HW110997   5.515   4.973   4.574
 3366SOL    HW210998   5.388   5.031   4.659
 3367SOL     OW10999   3.869   3.101   2.638
 3367SOL    HW111000   3.810   3.021   2.622
 3367SOL    HW211001   3.922   3.087   2.721
 3368SOL     OW11002   0.802   5.681   6.514
 3368SOL    HW111003   0.765   5.593   6.542
 3368SOL    HW211004   0.861   5.667   6.434
 3369SOL     OW11005   3.545   1.904   0.289
 3369SOL    HW111006   3.623   1.844   0.307
 3369SOL    HW211007   3.461   1.851   0.290
 3370SOL     OW11008   6.462   6.395   1.378
 3370SOL    HW111009   6.513   6.471   1.338
 3370SOL    HW211010   6.495   6.309   1.340
 3371SOL     OW11011   1.934   3.005   1.304
 3371SOL    HW111012   2.017   3.046   1.342
 3371SOL    HW211013   1.926   2.910   1.335
 3372SOL     OW11014   6.974   2.068   6.639
 3372SOL    HW111015   6.891   2.014   6.629
 3372SOL    HW211016   6.950   2.160   6.672
 3373SOL     OW11017   0.458   1.889   3.874
 3373SOL    HW111018   0.456   1.925   3.967
 3373SOL    HW211019   0.541   1.920   3.828
 3374SOL     OW11020   1.159   6.537   4.103
 3374SOL    HW111021   1.146   6.601   4.027
 3374SOL    HW211022   1.159   6.587   4.189
 3375SOL     OW11023   0.103   4.572   0.089
 3375SOL    HW111024   0.132   4.534   0.001
 3375SOL    HW211025   0.092   4.671   0.082
 3376SOL     OW11026   3.898   3.210   4.693
 3376SOL    HW111027   3.851   3.190   4.779
 3376SOL    HW211028   3.840   3.268   4.636
 3377SOL     OW11029   6.202   5.478   5.633
 3377SOL    HW111030   6.198   5.496   5.731
 3377SOL    HW211031   6.192   5.380   5.616
 3378SOL     OW11032   1.227   6.900   0.767
 3378SOL    HW111033   1.271   6.990   0.760
 3378SOL    HW211034   1.133   6.906   0.732
 3379SOL     OW11035   1.471   1.871   5.124
 3379SOL    HW111036   1.415   1.851   5.044
 3379SOL    HW211037   1.536   1.944   5.102
 3380SOL     OW11038   5.388   6.656   4.805
 3380SOL    HW111039   5.380   6.724   4.732
 3380SOL    HW211040   5.318   6.674   4.875
 3381SOL     OW11041   0.801   3.127   1.492
 3381SOL    HW111042   0.865   3.181   1.438
 3381SOL    HW211043   0.787   3.038   1.449
 3382SOL     OW11044   0.693   2.839   6.850
 3382SOL    HW111045   0.612   2.810   6.799
 3382SOL    HW211046   0.682   2.934   6.880
 3383SOL     OW11047   3.986   5.590   1.263
 3383SOL    HW111048   4.042   5.672   1.250
 3383SOL    HW211049   3.890   5.614   1.253
 3384SOL     OW11050   2.220   3.151   0.745
 3384SOL    HW111051   2.296   3.210   0.772
 3384SOL    HW211052   2.241   3.056   0.769
 3385SOL     OW11053   6.620   3.390   4.684
 3385SOL    HW111054   6.688   3.436   4.627
 3385SOL    HW211055   6.557   3.337   4.626
 3386SOL     OW11056   5.246   4.035   0.385
 3386SOL    HW111057   5.274   3.998   0.473
 3386SOL    HW211058   5.245   4.135   0.389
 3387SOL     OW11059   3.888   0.536   3.183
 3387SOL    HW111060   3.975   0.585   3.174
 3387SOL    HW211061   3.845   0.561   3.270
 3388SOL     OW11062   5.218   3.147   2.445
 3388SOL    HW111063   5.208   3.193   2.533
 3388SOL    HW211064   5.313   3.156   2.413
 3389SOL     OW11065   6.431   5.626   5.904
 3389SOL    HW111066   6.338   5.605   5.934
 3389SOL    HW211067   6.431   5.639   5.805
 3390SOL     OW11068   5.630   6.859   6.258
 3390SOL    HW111069   5.594   6.942   6.302
 3390SOL    HW211070   5.567   6.783   6.276
 3391SOL     OW11071   4.839   2.500   4.400
 3391SOL    HW111072   4.828   2.416   4.347
 3391SOL    HW211073   4.933   2.507   4.432
 3392SOL     OW11074   2.821   6.957   3.960
 3392SOL    HW111075   2.915   6.969   3.992
 3392SOL    HW211076   2.796   6.860   3.968
 3393SOL     OW11077   6.392   6.002   0.691
 3393SOL    HW111078   6.474   6.040   0.648
 3393SOL    HW211079   6.358   6.066   0.760
 3394SOL     OW11080   5.402   3.522   0.876
 3394SOL    HW111081   5.351   3.550   0.794
 3394SOL    HW211082   5.425   3.425   0.869
 3395SOL     OW11083   5.303   3.008   3.702
 3395SOL    HW111084   5.311   2.908   3.707
 3395SOL    HW211085   5.319   3.038   3.608
 3396SOL     OW11086   5.524   1.124   3.494
 3396SOL    HW111087   5.463   1.045   3.487
 3396SOL    HW211088   5.474   1.202   3.531
 3397SOL     OW11089   3.311   5.720   6.763
 3397SOL    HW111090   3.229   5.689   6.715
 3397SOL    HW211091   3.371   5.643   6.782
 3398SOL     OW11092   0.900   0.476   4.693
 3398SOL    HW111093   0.956   0.505   4.615
 3398SOL    HW211094   0.809   0.451   4.660
 3399SOL     OW11095   5.137   5.150   3.540
 3399SOL    HW111096   5.131   5.110   3.631
 3399SOL    HW211097   5.233   5.162   3.514
 3400SOL     OW11098   5.503   3.131   6.589
 3400SOL    HW111099   5.535   3.036   6.579
 3400SOL    HW211100   5.554   3.175   6.663
 3401SOL     OW11101   6.886   3.561   6.122
 3401SOL    HW111102   6.929   3.487   6.175
 3401SOL    HW211103   6.829   3.617   6.183
 3402SOL     OW11104   4.804   5.344   6.484
 3402SOL    HW111105   4.872   5.314   6.417
 3402SOL    HW211106   4.798   5.276   6.557
 3403SOL     OW11107   3.765   5.396   6.297
 3403SOL    HW111108   3.792   5.302   6.281
 3403SOL    HW211109   3.665   5.403   6.301
 3404SOL     OW11110   5.414   2.625   0.688
 3404SOL    HW111111   5.480   2.616   0.762
 3404SOL    HW211112   5.462   2.651   0.604
 3405SOL     OW11113   6.219   4.093   6.514
 3405SOL    HW111114   6.136   4.083   6.570
 3405SOL    HW211115   6.242   4.190   6.507
 3406SOL     OW11116   1.282   3.813   2.116
 3406SOL    HW111117   1.249   3.824   2.022
 3406SOL    HW211118   1.260   3.721   2.149
 3407SOL     OW11119   1.264   4.277   6.589
 3407SOL    HW111120   1.255   4.304   6.685
 3407SOL    HW211121   1.172   4.266   6.550
 3408SOL     OW11122   5.317   3.129   4.800
 3408SOL    HW111123   5.255   3.199   4.763
 3408SOL    HW211124   5.270   3.040   4.800
 3409SOL     OW11125   3.975   5.956   0.199
 3409SOL    HW111126   3.924   6.042   0.200
 3409SOL    HW211127   3.969   5.914   0.108
 3410SOL     OW11128   6.842   6.331   1.612
 3410SOL    HW111129   6.935   6.324   1.649
 3410SOL    HW211130   6.777   6.295   1.679
 3411SOL     OW11131   0.209   2.442   1.004
 3411SOL    HW111132   0.304   2.426   0.976
 3411SOL    HW211133   0.200   2.535   1.039
 3412SOL     OW11134   4.829   3.325   1.311
 3412SOL    HW111135   4.824   3.340   1.410
 3412SOL    HW211136   4.823   3.227   1.291
 3413SOL     OW11137   6.219   1.550   0.636
 3413SOL    HW111138   6.316   1.574   0.637
 3413SOL    HW211139   6.183   1.552   0.729
 3414SOL     OW11140   3.542   2.001   5.786
 3414SOL    HW111141   3.553   2.084   5.732
 3414SOL    HW211142   3.542   2.024   5.884
 3415SOL     OW11143   2.130   2.831   3.945
 3415SOL    HW111144   2.200   2.773   3.904
 3415SOL    HW211145   2.156   2.854   4.039
 3416SOL     OW11146   5.841   6.158   0.556
 3416SOL    HW111147   5.821   6.190   0.464
 3416SOL    HW211148   5.764   6.178   0.617
 3417SOL     OW11149   0.473   6.205   4.237
 3417SOL    HW111150   0.460   6.106   4.224
 3417SOL    HW211151   0.557   6.234   4.191
 3418SOL     OW11152   3.376   5.954   3.570
 3418SOL    HW111153   3.459   5.983   3.522
 3418SOL    HW211154   3.312   5.913   3.504
 3419SOL     OW11155   2.845   5.371   6.130
 3419SOL    HW111156   2.819   5.313   6.053
 3419SOL    HW211157   2.763   5.408   6.173
 3420SOL     OW11158   5.885   2.933   3.292
 3420SOL    HW111159   5.808   2.869   3.290
 3420SOL    HW211160   5.910   2.952   3.387
 3421SOL     OW11161   4.921   1.946   3.978
 3421SOL    HW111162   4.830   1.939   4.019
 3421SOL    HW211163   4.944   1.859   3.933
 3422SOL     OW11164   3.212   0.171   0.291
 3422SOL    HW111165   3.171   0.244   0.235
 3422SOL    HW211166   3.175   0.177   0.384
 3423SOL     OW11167   6.946   4.819   6.044
 3423SOL    HW111168   6.880   4.744   6.034
 3423SOL    HW211169   6.940   4.880   5.965
 3424SOL     OW11170   2.193   6.508   1.057
 3424SOL    HW111171   2.133   6.452   1.116
 3424SOL    HW211172   2.168   6.494   0.962
 3425SOL     OW11173   4.785   4.967   2.091
 3425SOL    HW111174   4.699   4.963   2.040
 3425SOL    HW211175   4.782   4.902   2.167
 3426SOL     OW11176   4.159   2.572   1.360
 3426SOL    HW111177   4.187   2.476   1.362
 3426SOL    HW211178   4.219   2.622   1.298
 3427SOL     OW11179   0.908   1.543   0.737
 3427SOL    HW111180   0.907   1.598   0.654
 3427SOL    HW211181   0.998   1.550   0.781
 3428SOL     OW11182   3.248   5.351   0.210
 3428SOL    HW111183   3.332   5.300   0.190
 3428SOL    HW211184   3.242   5.430   0.149
 3429SOL     OW11185   0.455   2.048   1.171
 3429SOL    HW111186   0.455   2.003   1.261
 3429SOL    HW211187   0.533   2.015   1.118
 3430SOL     OW11188   1.944   5.872   5.947
 3430SOL    HW111189   1.951   5.782   5.905
 3430SOL    HW211190   1.892   5.866   6.032
 3431SOL     OW11191   1.453   6.456   1.601
 3431SOL    HW111192   1.495   6.423   1.686
 3431SOL    HW211193   1.471   6.391   1.528
 3432SOL     OW11194   1.708   4.113   5.112
 3432SOL    HW111195   1.699   4.213   5.110
 3432SOL    HW211196   1.679   4.078   5.201
 3433SOL     OW11197   1.545   0.103   4.848
 3433SOL    HW111198   1.487   0.183   4.832
 3433SOL    HW211199   1.595   0.082   4.764
 3434SOL     OW11200   4.029   0.920   2.165
 3434SOL    HW111201   4.042   0.887   2.072
 3434SOL    HW211202   3.931   0.930   2.183
 3435SOL     OW11203   1.786   1.421   1.341
 3435SOL    HW111204   1.843   1.440   1.262
 3435SOL    HW211205   1.832   1.452   1.424
 3436SOL     OW11206   3.866   6.200   0.185
 3436SOL    HW111207   3.914   6.285   0.208
 3436SOL    HW211208   3.772   6.221   0.159
 3437SOL     OW11209   2.850   6.797   5.403
 3437SOL    HW111210   2.863   6.892   5.377
 3437SOL    HW211211   2.846   6.740   5.321
 3438SOL     OW11212   1.028   3.495   0.825
 3438SOL    HW111213   1.124   3.520   0.836
 3438SOL    HW211214   1.003   3.498   0.728
 3439SOL     OW11215   3.245   6.019   4.738
 3439SOL    HW111216   3.210   5.932   4.703
 3439SOL    HW211217   3.275   6.007   4.833
 3440SOL     OW11218   3.193   3.017   2.164
 3440SOL    HW111219   3.205   2.975   2.074
 3440SOL    HW211220   3.225   2.954   2.234
 3441SOL     OW11221   6.758   5.970   6.228
 3441SOL    HW111222   6.752   6.031   6.148
 3441SOL    HW211223   6.852   5.971   6.263
 3442SOL     OW11224   1.879   4.391   1.610
 3442SOL    HW111225   1.784   4.422   1.611
 3442SOL    HW211226   1.939   4.466   1.636
 3443SOL     OW11227   3.745   6.545   2.153
 3443SOL    HW111228   3.777   6.451   2.164
 3443SOL    HW211229   3.650   6.544   2.121
 3444SOL     OW11230   4.614   5.762   6.954
 3444SOL    HW111231   4.632   5.698   6.879
 3444SOL    HW211232   4.550   5.833   6.923
 3445SOL     OW11233   5.687   5.251   2.442
 3445SOL    HW111234   5.758   5.280   2.505
 3445SOL    HW211235   5.597   5.275   2.479
 3446SOL     OW11236   5.993   0.721   1.440
 3446SOL    HW111237   6.002   0.813   1.478
 3446SOL    HW211238   6.061   0.661   1.481
 3447SOL     OW11239   4.859   6.223   1.227
 3447SOL    HW111240   4.910   6.156   1.281
 3447SOL    HW211241   4.839   6.302   1.285
 3448SOL     OW11242   4.115   0.351   6.486
 3448SOL    HW111243   4.037   0.289   6.478
 3448SOL    HW211244   4.143   0.382   6.395
 3449SOL     OW11245   6.162   5.100   4.976
 3449SOL    HW111246   6.181   5.194   4.948
 3449SOL    HW211247   6.153   5.042   4.895
 3450SOL     OW11248   0.878   1.567   6.937
 3450SOL    HW111249   0.853   1.474   6.965
 3450SOL    HW211250   0.935   1.609   7.007
 3451SOL     OW11251   2.869   6.477   6.594
 3451SOL    HW111252   2.952   6.486   6.539
 3451SOL    HW211253   2.863   6.384   6.630
 3452SOL     OW11254   5.383   0.461   6.865
 3452SOL    HW111255   5.381   0.364   6.891
 3452SOL    HW211256   5.448   0.510   6.924
 3453SOL     OW11257   6.293   5.461   6.207
 3453SOL    HW111258   6.232   5.394   6.250
 3453SOL    HW211259   6.240   5.543   6.183
 3454SOL     OW11260   1.231   3.692   5.184
 3454SOL    HW111261   1.207   3.597   5.204
 3454SOL    HW211262   1.176   3.753   5.242
 3455SOL     OW11263   2.604   1.844   4.286
 3455SOL    HW111264   2.673   1.818   4.219
 3455SOL    HW211265   2.540   1.910   4.246
 3456SOL     OW11266   5.786   4.899   1.574
 3456SOL    HW111267   5.822   4.927   1.485
 3456SOL    HW211268   5.719   4.967   1.606
 3457SOL     OW11269   3.623   5.271   3.819
 3457SOL    HW111270   3.528   5.241   3.821
 3457SOL    HW211271   3.675   5.223   3.889
 3458SOL     OW11272   4.385   0.919   2.113
 3458SOL    HW111273   4.367   0.872   2.027
 3458SOL    HW211274   4.325   0.999   2.121
 3459SOL     OW11275   5.485   2.732   2.666
 3459SOL    HW111276   5.451   2.643   2.698
 3459SOL    HW211277   5.408   2.787   2.633
 3460SOL     OW11278   2.793   1.984   0.076
 3460SOL    HW111279   2.725   2.029   0.134
 3460SOL    HW211280   2.748   1.915   0.019
 3461SOL     OW11281   4.765   4.009   6.622
 3461SOL    HW111282   4.862   3.986   6.616
 3461SOL    HW211283   4.713   3.928   6.648
 3462SOL     OW11284   0.885   3.859   5.366
 3462SOL    HW111285   0.850   3.950   5.345
 3462SOL    HW211286   0.875   3.800   5.285
 3463SOL     OW11287   1.209   4.218   1.887
 3463SOL    HW111288   1.140   4.233   1.958
 3463SOL    HW211289   1.281   4.159   1.923
 3464SOL     OW11290   0.021   4.672   5.742
 3464SOL    HW111291   0.039   4.598   5.806
 3464SOL    HW211292   6.945   4.675   5.720
 3465SOL     OW11293   1.548   2.160   2.536
 3465SOL    HW111294   1.505   2.190   2.450
 3465SOL    HW211295   1.478   2.122   2.596
 3466SOL     OW11296   6.544   5.338   6.136
 3466SOL    HW111297   6.592   5.424   6.146
 3466SOL    HW211298   6.447   5.355   6.121
 3467SOL     OW11299   1.931   2.591   6.832
 3467SOL    HW111300   2.015   2.544   6.857
 3467SOL    HW211301   1.946   2.690   6.834
 3468SOL     OW11302   3.986   6.616   2.047
 3468SOL    HW111303   3.897   6.607   2.092
 3468SOL    HW211304   4.054   6.562   2.096
 3469SOL     OW11305   5.448   0.617   3.248
 3469SOL    HW111306   5.534   0.606   3.199
 3469SOL    HW211307   5.423   0.713   3.251
 3470SOL     OW11308   6.477   3.779   0.809
 3470SOL    HW111309   6.547   3.766   0.739
 3470SOL    HW211310   6.446   3.690   0.842
 3471SOL     OW11311   3.514   4.895   4.314
 3471SOL    HW111312   3.605   4.876   4.276
 3471SOL    HW211313   3.444   4.855   4.255
 3472SOL     OW11314   2.183   0.814   2.351
 3472SOL    HW111315   2.092   0.856   2.352
 3472SOL    HW211316   2.235   0.844   2.431
 3473SOL     OW11317   0.301   1.940   0.175
 3473SOL    HW111318   0.388   1.923   0.221
 3473SOL    HW211319   0.312   2.014   0.109
 3474SOL     OW11320   2.745   5.287   1.695
 3474SOL    HW111321   2.647   5.303   1.706
 3474SOL    HW211322   2.791   5.297   1.784
 3475SOL     OW11323   1.044   5.895   5.047
 3475SOL    HW111324   1.048   5.797   5.028
 3475SOL    HW211325   1.004   5.910   5.137
 3476SOL     OW11326   3.513   1.726   3.139
 3476SOL    HW111327   3.584   1.781   3.095
 3476SOL    HW211328   3.454   1.685   3.070
 3477SOL     OW11329   3.548   5.013   1.043
 3477SOL    HW111330   3.505   4.966   1.120
 3477SOL    HW211331   3.478   5.062   0.991
 3478SOL     OW11332   2.298   5.581   4.961
 3478SOL    HW111333   2.365   5.600   5.033
 3478SOL    HW211334   2.250   5.666   4.937
 3479SOL     OW11335   1.313   0.710   2.525
 3479SOL    HW111336   1.313   0.800   2.481
 3479SOL    HW211337   1.399   0.698   2.575
 3480SOL     OW11338   6.965   0.182   5.138
 3480SOL    HW111339   6.980   0.093   5.095
 3480SOL    HW211340   7.014   0.253   5.088
 3481SOL     OW11341   5.151   7.008   0.337
 3481SOL    HW111342   5.148   0.054   0.411
 3481SOL    HW211343   5.231   6.949   0.349
 3482SOL     OW11344   5.564   1.573   0.908
 3482SOL    HW111345   5.476   1.579   0.862
 3482SOL    HW211346   5.631   1.629   0.859
 3483SOL     OW11347   4.009   1.371   1.156
 3483SOL    HW111348   3.962   1.283   1.168
 3483SOL    HW211349   3.941   1.442   1.138
 3484SOL     OW11350   3.172   3.662   1.419
 3484SOL    HW111351   3.131   3.571   1.431
 3484SOL    HW211352   3.156   3.716   1.501
 3485SOL     OW11353   1.574   0.128   4.208
 3485SOL    HW111354   1.482   0.151   4.177
 3485SOL    HW211355   1.576   0.035   4.244
 3486SOL     OW11356   3.127   1.440   2.566
 3486SOL    HW111357   3.097   1.533   2.583
 3486SOL    HW211358   3.048   1.382   2.546
 3487SOL     OW11359   5.554   1.852   5.631
 3487SOL    HW111360   5.563   1.836   5.533
 3487SOL    HW211361   5.511   1.941   5.647
 3488SOL     OW11362   5.541   2.415   4.410
 3488SOL    HW111363   5.444   2.427   4.388
 3488SOL    HW211364   5.597   2.465   4.344
 3489SOL     OW11365   2.560   6.609   0.551
 3489SOL    HW111366   2.483   6.607   0.615
 3489SOL    HW211367   2.619   6.530   0.566
 3490SOL     OW11368   4.716   4.808   6.757
 3490SOL    HW111369   4.687   4.809   6.661
 3490SOL    HW211370   4.754   4.718   6.779
 3491SOL     OW11371   5.697   2.392   4.933
 3491SOL    HW111372   5.786   2.358   4.905
 3491SOL    HW211373   5.638   2.401   4.853
 3492SOL     OW11374   0.895   5.725   1.542
 3492SOL    HW111375   0.824   5.657   1.528
 3492SOL    HW211376   0.912   5.774   1.457
 3493SOL     OW11377   6.596   4.986   6.907
 3493SOL    HW111378   6.579   4.928   6.986
 3493SOL    HW211379   6.521   5.051   6.896
 3494SOL     OW11380   3.794   0.937   1.443
 3494SOL    HW111381   3.889   0.913   1.463
 3494SOL    HW211382   3.762   1.006   1.508
 3495SOL     OW11383   4.520   4.982   2.000
 3495SOL    HW111384   4.447   4.951   1.939
 3495SOL    HW211385   4.484   4.992   2.092
 3496SOL     OW11386   0.079   3.985   0.542
 3496SOL    HW111387   0.075   3.942   0.632
 3496SOL    HW211388   0.112   3.919   0.475
 3497SOL     OW11389   4.285   6.437   3.661
 3497SOL    HW111390   4.288   6.355   3.717
 3497SOL    HW211391   4.229   6.507   3.706
 3498SOL     OW11392   1.951   2.826   0.398
 3498SOL    HW111393   1.973   2.732   0.423
 3498SOL    HW211394   2.003   2.889   0.457
 3499SOL     OW11395   4.696   2.863   4.764
 3499SOL    HW111396   4.655   2.830   4.849
 3499SOL    HW211397   4.683   2.794   4.692
 3500SOL     OW11398   0.757   4.118   5.305
 3500SOL    HW111399   0.776   4.109   5.208
 3500SOL    HW211400   0.827   4.175   5.348
 3501SOL     OW11401   1.347   5.402   3.778
 3501SOL    HW111402   1.251   5.415   3.751
 3501SOL    HW211403   1.353   5.392   3.877
 3502SOL     OW11404   6.919   2.285   1.752
 3502SOL    HW111405   6.881   2.276   1.660
 3502SOL    HW211406   6.849   2.263   1.819
 3503SOL     OW11407   5.711   6.024   5.199
 3503SOL    HW111408   5.757   6.066   5.120
 3503SOL    HW211409   5.778   6.005   5.270
 3504SOL     OW11410   1.780   2.139   1.160
 3504SOL    HW111411   1.860   2.186   1.196
 3504SOL    HW211412   1.699   2.198   1.167
 3505SOL     OW11413   5.194   4.795   5.224
 3505SOL    HW111414   5.216   4.765   5.132
 3505SOL    HW211415   5.097   4.820   5.229
 3506SOL     OW11416   4.711   6.409   5.396
 3506SOL    HW111417   4.686   6.338   5.461
 3506SOL    HW211418   4.786   6.377   5.339
 3507SOL     OW11419   2.533   0.823   0.191
 3507SOL    HW111420   2.560   0.727   0.184
 3507SOL    HW211421   2.504   0.857   0.101
 3508SOL     OW11422   3.577   2.617   6.189
 3508SOL    HW111423   3.482   2.617   6.159
 3508SOL    HW211424   3.581   2.590   6.285
 3509SOL     OW11425   5.154   6.966   6.181
 3509SOL    HW111426   5.240   6.948   6.134
 3509SOL    HW211427   5.129   0.041   6.171
 3510SOL     OW11428   2.084   2.064   1.512
 3510SOL    HW111429   2.167   2.119   1.500
 3510SOL    HW211430   2.029   2.103   1.586
 3511SOL     OW11431   1.804   4.672   6.718
 3511SOL    HW111432   1.795   4.622   6.632
 3511SOL    HW211433   1.872   4.626   6.776
 3512SOL     OW11434   6.828   4.014   1.124
 3512SOL    HW111435   6.867   3.962   1.201
 3512SOL    HW211436   6.852   3.968   1.038
 3513SOL     OW11437   6.279   3.826   0.311
 3513SOL    HW111438   6.229   3.847   0.228
 3513SOL    HW211439   6.239   3.876   0.388
 3514SOL     OW11440   0.051   1.011   2.163
 3514SOL    HW111441   6.973   1.018   2.152
 3514SOL    HW211442   0.096   1.060   2.089
 3515SOL     OW11443   4.825   6.548   2.897
 3515SOL    HW111444   4.905   6.546   2.836
 3515SOL    HW211445   4.785   6.457   2.902
 3516SOL     OW11446   4.428   0.445   1.190
 3516SOL    HW111447   4.432   0.345   1.184
 3516SOL    HW211448   4.521   0.482   1.194
 3517SOL     OW11449   0.856   2.338   6.969
 3517SOL    HW111450   0.837   2.389   0.032
 3517SOL    HW211451   0.947   2.297   6.975
 3518SOL     OW11452   5.443   4.244   4.733
 3518SOL    HW111453   5.486   4.231   4.822
 3518SOL    HW211454   5.513   4.251   4.663
 3519SOL     OW11455   2.109   0.594   6.528
 3519SOL    HW111456   2.108   0.499   6.559
 3519SOL    HW211457   2.015   0.629   6.527
 3520SOL     OW11458   3.042   5.058   0.536
 3520SOL    HW111459   3.077   5.150   0.548
 3520SOL    HW211460   2.945   5.062   0.510
 3521SOL     OW11461   5.636   3.432   1.268
 3521SOL    HW111462   5.584   3.493   1.207
 3521SOL    HW211463   5.734   3.449   1.257
 3522SOL     OW11464   4.856   5.476   2.104
 3522SOL    HW111465   4.926   5.428   2.157
 3522SOL    HW211466   4.886   5.486   2.010
 3523SOL     OW11467   2.705   4.490   5.629
 3523SOL    HW111468   2.695   4.450   5.538
 3523SOL    HW211469   2.669   4.583   5.629
 3524SOL     OW11470   2.609   1.164   0.921
 3524SOL    HW111471   2.632   1.089   0.984
 3524SOL    HW211472   2.693   1.204   0.885
 3525SOL     OW11473   0.427   4.170   2.334
 3525SOL    HW111474   0.438   4.094   2.270
 3525SOL    HW211475   0.513   4.184   2.383
 3526SOL     OW11476   2.377   6.175   3.496
 3526SOL    HW111477   2.320   6.093   3.487
 3526SOL    HW211478   2.328   6.244   3.549
 3527SOL     OW11479   6.155   3.436   5.712
 3527SOL    HW111480   6.068   3.485   5.721
 3527SOL    HW211481   6.139   3.349   5.664
 3528SOL     OW11482   1.123   5.345   3.498
 3528SOL    HW111483   1.215   5.306   3.501
 3528SOL    HW211484   1.099   5.381   3.588
 3529SOL     OW11485   4.834   6.908   5.613
 3529SOL    HW111486   4.832   6.809   5.627
 3529SOL    HW211487   4.817   6.955   5.700
 3530SOL     OW11488   2.749   4.680   3.483
 3530SOL    HW111489   2.720   4.768   3.519
 3530SOL    HW211490   2.823   4.693   3.417
 3531SOL     OW11491   4.752   4.706   1.164
 3531SOL    HW111492   4.700   4.706   1.250
 3531SOL    HW211493   4.823   4.635   1.169
 3532SOL     OW11494   2.696   0.057   0.605
 3532SOL    HW111495   2.711   0.134   0.544
 3532SOL    HW211496   2.666   6.999   0.553
 3533SOL     OW11497   1.048   2.306   2.798
 3533SOL    HW111498   1.050   2.296   2.897
 3533SOL    HW211499   1.123   2.254   2.757
 3534SOL     OW11500   6.842   1.038   5.005
 3534SOL    HW111501   6.800   0.962   5.053
 3534SOL    HW211502   6.941   1.037   5.020
 3535SOL     OW11503   6.494   5.421   0.510
 3535SOL    HW111504   6.423   5.398   0.577
 3535SOL    HW211505   6.467   5.501   0.457
 3536SOL     OW11506   2.166   2.759   3.481
 3536SOL    HW111507   2.263   2.756   3.504
 3536SOL    HW211508   2.127   2.668   3.491
 3537SOL     OW11509   2.529   5.064   0.613
 3537SOL    HW111510   2.440   5.099   0.583
 3537SOL    HW211511   2.549   5.099   0.704
 3538SOL     OW11512   2.965   0.507   4.303
 3538SOL    HW111513   2.865   0.517   4.299
 3538SOL    HW211514   3.007   0.598   4.301
 3539SOL     OW11515   5.574   3.522   6.597
 3539SOL    HW111516   5.633   3.539   6.518
 3539SOL    HW211517   5.618   3.457   6.659
 3540SOL     OW11518   2.241   1.597   5.511
 3540SOL    HW111519   2.232   1.515   5.454
 3540SOL    HW211520   2.159   1.653   5.501
 3541SOL     OW11521   2.544   2.783   6.615
 3541SOL    HW111522   2.510   2.854   6.554
 3541SOL    HW211523   2.614   2.729   6.567
 3542SOL     OW11524   0.137   3.537   1.163
 3542SOL    HW111525   0.112   3.461   1.104
 3542SOL    HW211526   0.076   3.539   1.242
 3543SOL     OW11527   1.563   3.295   4.595
 3543SOL    HW111528   1.604   3.244   4.520
 3543SOL    HW211529   1.463   3.284   4.592
 3544SOL     OW11530   1.943   4.477   6.512
 3544SOL    HW111531   1.959   4.502   6.417
 3544SOL    HW211532   2.016   4.516   6.569
 3545SOL     OW11533   3.530   4.962   6.551
 3545SOL    HW111534   3.498   4.894   6.616
 3545SOL    HW211535   3.452   5.006   6.506
 3546SOL     OW11536   6.372   4.611   3.438
 3546SOL    HW111537   6.339   4.521   3.408
 3546SOL    HW211538   6.294   4.672   3.450
 3547SOL     OW11539   0.017   4.190   4.851
 3547SOL    HW111540   6.943   4.209   4.870
 3547SOL    HW211541   0.040   4.098   4.884
 3548SOL     OW11542   5.409   0.323   5.973
 3548SOL    HW111543   5.427   0.316   5.875
 3548SOL    HW211544   5.442   0.411   6.007
 3549SOL     OW11545   1.933   4.307   6.289
 3549SOL    HW111546   1.923   4.317   6.388
 3549SOL    HW211547   2.004   4.239   6.270
 3550SOL     OW11548   6.009   2.103   4.579
 3550SOL    HW111549   6.103   2.131   4.560
 3550SOL    HW211550   6.003   2.003   4.573
 3551SOL     OW11551   3.894   1.443   4.113
 3551SOL    HW111552   3.978   1.480   4.151
 3551SOL    HW211553   3.846   1.391   4.183
 3552SOL     OW11554   6.251   6.320   1.656
 3552SOL    HW111555   6.335   6.374   1.655
 3552SOL    HW211556   6.257   6.248   1.587
 3553SOL     OW11557   3.634   5.664   7.009
 3553SOL    HW111558   3.673   5.725   6.939
 3553SOL    HW211559   3.680   5.575   7.004
 3554SOL     OW11560   4.246   2.783   0.944
 3554SOL    HW111561   4.150   2.812   0.941
 3554SOL    HW211562   4.296   2.825   0.868
 3555SOL     OW11563   0.906   3.124   3.975
 3555SOL    HW111564   0.996   3.161   3.997
 3555SOL    HW211565   0.914   3.026   3.954
 3556SOL     OW11566   3.881   0.933   3.811
 3556SOL    HW111567   3.948   0.908   3.881
 3556SOL    HW211568   3.905   1.022   3.772
 3557SOL     OW11569   1.340   6.852   4.314
 3557SOL    HW111570   1.438   6.872   4.320
 3557SOL    HW211571   1.305   6.828   4.404
 3558SOL     OW11572   2.077   4.565   1.702
 3558SOL    HW111573   2.053   4.628   1.776
 3558SOL    HW211574   2.056   4.608   1.614
 3559SOL     OW11575   1.096   6.147   5.018
 3559SOL    HW111576   1.077   6.049   5.030
 3559SOL    HW211577   1.194   6.162   5.017
 3560SOL     OW11578   2.414   4.913   2.714
 3560SOL    HW111579   2.346   4.845   2.741
 3560SOL    HW211580   2.423   4.981   2.787
 3561SOL     OW11581   5.240   3.583   5.559
 3561SOL    HW111582   5.307   3.511   5.543
 3561SOL    HW211583   5.268   3.666   5.509
 3562SOL     OW11584   3.163   1.332   3.597
 3562SOL    HW111585   3.255   1.356   3.566
 3562SOL    HW211586   3.104   1.317   3.518
 3563SOL     OW11587   6.597   1.616   6.778
 3563SOL    HW111588   6.618   1.519   6.767
 3563SOL    HW211589   6.682   1.668   6.776
 3564SOL     OW11590   0.515   4.673   2.991
 3564SOL    HW111591   0.568   4.701   2.911
 3564SOL    HW211592   0.440   4.738   3.005
 3565SOL     OW11593   3.496   5.648   3.967
 3565SOL    HW111594   3.593   5.639   3.944
 3565SOL    HW211595   3.485   5.645   4.066
 3566SOL     OW11596   6.244   1.946   6.346
 3566SOL    HW111597   6.196   2.005   6.412
 3566SOL    HW211598   6.235   1.850   6.374
 3567SOL     OW11599   0.416   2.337   6.858
 3567SOL    HW111600   0.386   2.358   6.951
 3567SOL    HW211601   0.502   2.386   6.840
 3568SOL     OW11602   4.982   4.218   5.004
 3568SOL    HW111603   5.059   4.191   5.061
 3568SOL    HW211604   4.948   4.138   4.955
 3569SOL     OW11605   2.904   2.516   6.310
 3569SOL    HW111606   2.872   2.460   6.387
 3569SOL    HW211607   2.913   2.459   6.229
 3570SOL     OW11608   5.196   0.214   6.127
 3570SOL    HW111609   5.185   0.279   6.202
 3570SOL    HW211610   5.259   0.252   6.059
 3571SOL     OW11611   0.578   5.066   6.973
 3571SOL    HW111612   0.675   5.065   6.951
 3571SOL    HW211613   0.565   5.051   0.050
 3572SOL     OW11614   5.525   4.222   3.215
 3572SOL    HW111615   5.606   4.276   3.190
 3572SOL    HW211616   5.445   4.258   3.167
 3573SOL     OW11617   0.376   4.760   3.547
 3573SOL    HW111618   0.324   4.748   3.462
 3573SOL    HW211619   0.383   4.857   3.568
 3574SOL     OW11620   0.406   4.396   0.532
 3574SOL    HW111621   0.476   4.456   0.569
 3574SOL    HW211622   0.447   4.306   0.512
 3575SOL     OW11623   4.972   4.654   2.807
 3575SOL    HW111624   4.944   4.561   2.784
 3575SOL    HW211625   4.902   4.698   2.863
 3576SOL     OW11626   1.972   1.733   5.370
 3576SOL    HW111627   1.897   1.708   5.430
 3576SOL    HW211628   1.946   1.814   5.316
 3577SOL     OW11629   1.435   2.541   6.247
 3577SOL    HW111630   1.359   2.564   6.309
 3577SOL    HW211631   1.480   2.458   6.280
 3578SOL     OW11632   3.279   2.425   0.833
 3578SOL    HW111633   3.216   2.502   0.844
 3578SOL    HW211634   3.344   2.423   0.910
 3579SOL     OW11635   5.801   3.653   4.963
 3579SOL    HW111636   5.789   3.567   5.013
 3579SOL    HW211637   5.871   3.641   4.893
 3580SOL     OW11638   6.207   2.887   1.090
 3580SOL    HW111639   6.261   2.816   1.134
 3580SOL    HW211640   6.264   2.968   1.076
 3581SOL     OW11641   0.284   6.155   3.834
 3581SOL    HW111642   0.308   6.247   3.803
 3581SOL    HW211643   0.367   6.099   3.840
 3582SOL     OW11644   1.004   2.237   5.752
 3582SOL    HW111645   1.043   2.277   5.669
 3582SOL    HW211646   0.956   2.153   5.729
 3583SOL     OW11647   1.462   3.534   6.123
 3583SOL    HW111648   1.551   3.575   6.100
 3583SOL    HW211649   1.424   3.490   6.042
 3584SOL     OW11650   6.016   5.262   6.713
 3584SOL    HW111651   6.081   5.292   6.784
 3584SOL    HW211652   6.036   5.310   6.628
 3585SOL     OW11653   4.412   6.306   4.931
 3585SOL    HW111654   4.497   6.276   4.976
 3585SOL    HW211655   4.422   6.400   4.900
 3586SOL     OW11656   0.580   2.444   5.258
 3586SOL    HW111657   0.506   2.487   5.310
 3586SOL    HW211658   0.639   2.515   5.219
 3587SOL     OW11659   2.826   5.110   6.253
 3587SOL    HW111660   2.806   5.143   6.160
 3587SOL    HW211661   2.853   5.188   6.310
 3588SOL     OW11662   0.936   3.036   5.137
 3588SOL    HW111663   1.019   3.049   5.083
 3588SOL    HW211664   0.960   3.012   5.231
 3589SOL     OW11665   4.082   2.194   4.931
 3589SOL    HW111666   4.102   2.186   4.833
 3589SOL    HW211667   4.129   2.274   4.969
 3590SOL     OW11668   1.340   2.830   6.592
 3590SOL    HW111669   1.336   2.866   6.499
 3590SOL    HW211670   1.363   2.733   6.588
 3591SOL     OW11671   5.014   3.378   6.848
 3591SOL    HW111672   4.961   3.298   6.819
 3591SOL    HW211673   4.998   3.454   6.785
 3592SOL     OW11674   6.620   4.352   1.912
 3592SOL    HW111675   6.666   4.417   1.972
 3592SOL    HW211676   6.525   4.382   1.897
 3593SOL     OW11677   1.793   5.954   4.754
 3593SOL    HW111678   1.844   6.026   4.802
 3593SOL    HW211679   1.809   5.866   4.799
 3594SOL     OW11680   4.432   0.520   3.363
 3594SOL    HW111681   4.450   0.583   3.288
 3594SOL    HW211682   4.353   0.552   3.415
 3595SOL     OW11683   2.512   5.857   0.072
 3595SOL    HW111684   2.591   5.900   0.116
 3595SOL    HW211685   2.471   5.921   0.007
 3596SOL     OW11686   6.785   2.163   3.388
 3596SOL    HW111687   6.727   2.209   3.321
 3596SOL    HW211688   6.873   2.141   3.347
 3597SOL     OW11689   2.287   1.594   4.914
 3597SOL    HW111690   2.259   1.564   5.005
 3597SOL    HW211691   2.363   1.538   4.882
 3598SOL     OW11692   1.330   6.204   6.454
 3598SOL    HW111693   1.299   6.295   6.483
 3598SOL    HW211694   1.275   6.134   6.500
 3599SOL     OW11695   0.685   2.192   5.756
 3599SOL    HW111696   0.729   2.267   5.707
 3599SOL    HW211697   0.617   2.149   5.698
 3600SOL     OW11698   0.902   3.666   0.162
 3600SOL    HW111699   0.849   3.705   0.238
 3600SOL    HW211700   0.897   3.727   0.084
 3601SOL     OW11701   5.638   4.793   6.583
 3601SOL    HW111702   5.724   4.766   6.627
 3601SOL    HW211703   5.565   4.731   6.612
 3602SOL     OW11704   1.403   2.807   0.420
 3602SOL    HW111705   1.494   2.774   0.447
 3602SOL    HW211706   1.412   2.870   0.342
 3603SOL     OW11707   3.467   6.985   3.871
 3603SOL    HW111708   3.520   6.902   3.852
 3603SOL    HW211709   3.372   6.959   3.893
 3604SOL     OW11710   6.791   4.780   3.193
 3604SOL    HW111711   6.780   4.783   3.292
 3604SOL    HW211712   6.888   4.787   3.170
 3605SOL     OW11713   5.521   4.260   5.039
 3605SOL    HW111714   5.480   4.332   5.097
 3605SOL    HW211715   5.619   4.254   5.058
 3606SOL     OW11716   0.002   6.430   5.643
 3606SOL    HW111717   0.096   6.403   5.622
 3606SOL    HW211718   6.963   6.404   5.567
 3607SOL     OW11719   5.264   6.258   1.122
 3607SOL    HW111720   5.343   6.233   1.178
 3607SOL    HW211721   5.219   6.174   1.089
 3608SOL     OW11722   6.282   1.885   3.252
 3608SOL    HW111723   6.376   1.909   3.229
 3608SOL    HW211724   6.265   1.790   3.225
 3609SOL     OW11725   0.951   0.500   4.171
 3609SOL    HW111726   0.867   0.542   4.138
 3609SOL    HW211727   0.950   0.402   4.152
 3610SOL     OW11728   1.571   6.866   5.814
 3610SOL    HW111729   1.635   6.805   5.862
 3610SOL    HW211730   1.599   6.876   5.719
 3611SOL     OW11731   4.887   5.886   5.896
 3611SOL    HW111732   4.895   5.943   5.814
 3611SOL    HW211733   4.976   5.882   5.942
 3612SOL     OW11734   6.021   0.006   6.911
 3612SOL    HW111735   6.094   0.003   6.979
 3612SOL    HW211736   6.004   6.936   6.875
 3613SOL     OW11737   4.608   5.396   1.731
 3613SOL    HW111738   4.576   5.341   1.808
 3613SOL    HW211739   4.703   5.421   1.745
 3614SOL     OW11740   4.246   3.632   1.743
 3614SOL    HW111741   4.167   3.609   1.685
 3614SOL    HW211742   4.222   3.707   1.804
 3615SOL     OW11743   5.237   5.608   0.207
 3615SOL    HW111744   5.153   5.557   0.189
 3615SOL    HW211745   5.214   5.702   0.233
 3616SOL     OW11746   0.693   3.048   6.237
 3616SOL    HW111747   0.631   3.016   6.165
 3616SOL    HW211748   0.756   3.117   6.199
 3617SOL     OW11749   3.725   1.425   6.298
 3617SOL    HW111750   3.649   1.412   6.234
 3617SOL    HW211751   3.734   1.343   6.356
 3618SOL     OW11752   2.773   1.922   5.391
 3618SOL    HW111753   2.676   1.928   5.413
 3618SOL    HW211754   2.785   1.866   5.309
 3619SOL     OW11755   5.324   2.616   4.097
 3619SOL    HW111756   5.381   2.690   4.062
 3619SOL    HW211757   5.241   2.654   4.138
 3620SOL     OW11758   6.294   6.167   6.024
 3620SOL    HW111759   6.259   6.231   5.956
 3620SOL    HW211760   6.366   6.111   5.984
 3621SOL     OW11761   3.661   3.123   5.623
 3621SOL    HW111762   3.609   3.131   5.708
 3621SOL    HW211763   3.694   3.029   5.614
 3622SOL     OW11764   1.464   1.453   4.773
 3622SOL    HW111765   1.376   1.499   4.778
 3622SOL    HW211766   1.489   1.418   4.864
 3623SOL     OW11767   6.165   5.886   4.269
 3623SOL    HW111768   6.117   5.925   4.348
 3623SOL    HW211769   6.098   5.854   4.202
 3624SOL     OW11770   2.219   6.058   1.718
 3624SOL    HW111771   2.250   5.964   1.711
 3624SOL    HW211772   2.269   6.115   1.653
 3625SOL     OW11773   5.775   3.416   6.775
 3625SOL    HW111774   5.790   3.447   6.868
 3625SOL    HW211775   5.825   3.330   6.760
 3626SOL     OW11776   0.853   3.290   6.174
 3626SOL    HW111777   0.762   3.325   6.154
 3626SOL    HW211778   0.884   3.325   6.262
 3627SOL     OW11779   3.565   2.892   3.544
 3627SOL    HW111780   3.602   2.908   3.635
 3627SOL    HW211781   3.465   2.894   3.548
 3628SOL     OW11782   1.268   1.436   1.776
 3628SOL    HW111783   1.352   1.476   1.811
 3628SOL    HW211784   1.289   1.376   1.698
 3629SOL     OW11785   6.956   2.209   5.355
 3629SOL    HW111786   0.006   2.255   5.302
 3629SOL    HW211787   6.947   2.115   5.323
 3630SOL     OW11788   4.855   3.122   4.239
 3630SOL    HW111789   4.899   3.078   4.161
 3630SOL    HW211790   4.923   3.138   4.311
 3631SOL     OW11791   1.961   6.853   4.125
 3631SOL    HW111792   2.043   6.803   4.098
 3631SOL    HW211793   1.987   6.929   4.185
 3632SOL     OW11794   5.097   6.272   1.469
 3632SOL    HW111795   5.030   6.327   1.419
 3632SOL    HW211796   5.176   6.254   1.411
 3633SOL     OW11797   3.562   1.766   5.609
 3633SOL    HW111798   3.478   1.719   5.639
 3633SOL    HW211799   3.581   1.841   5.672
 3634SOL     OW11800   0.752   5.294   5.041
 3634SOL    HW111801   0.777   5.284   5.137
 3634SOL    HW211802   0.659   5.330   5.034
 3635SOL     OW11803   2.791   6.879   5.958
 3635SOL    HW111804   2.694   6.857   5.963
 3635SOL    HW211805   2.832   6.831   5.880
 3636SOL     OW11806   0.098   5.468   0.173
 3636SOL    HW111807   0.119   5.506   0.083
 3636SOL    HW211808   0.005   5.492   0.199
 3637SOL     OW11809   6.741   1.932   1.808
 3637SOL    HW111810   6.836   1.925   1.779
 3637SOL    HW211811   6.728   2.015   1.862
 3638SOL     OW11812   0.691   4.361   4.130
 3638SOL    HW111813   0.658   4.366   4.036
 3638SOL    HW211814   0.754   4.284   4.139
 3639SOL     OW11815   3.480   3.930   0.558
 3639SOL    HW111816   3.494   3.981   0.473
 3639SOL    HW211817   3.404   3.866   0.547
 3640SOL     OW11818   3.752   0.891   0.736
 3640SOL    HW111819   3.813   0.852   0.804
 3640SOL    HW211820   3.799   0.963   0.686
 3641SOL     OW11821   5.361   3.215   3.201
 3641SOL    HW111822   5.286   3.200   3.138
 3641SOL    HW211823   5.441   3.162   3.171
 3642SOL     OW11824   5.318   1.170   6.990
 3642SOL    HW111825   5.358   1.131   6.907
 3642SOL    HW211826   5.354   1.123   0.049
 3643SOL     OW11827   2.450   6.181   5.260
 3643SOL    HW111828   2.458   6.276   5.233
 3643SOL    HW211829   2.527   6.156   5.319
 3644SOL     OW11830   6.838   1.331   1.983
 3644SOL    HW111831   6.865   1.273   1.906
 3644SOL    HW211832   6.890   1.416   1.981
 3645SOL     OW11833   6.992   2.796   3.507
 3645SOL    HW111834   0.031   2.816   3.584
 3645SOL    HW211835   6.908   2.850   3.517
 3646SOL     OW11836   0.188   4.199   6.493
 3646SOL    HW111837   0.093   4.178   6.517
 3646SOL    HW211838   0.240   4.218   6.576
 3647SOL     OW11839   2.504   4.123   6.646
 3647SOL    HW111840   2.602   4.136   6.659
 3647SOL    HW211841   2.457   4.210   6.656
 3648SOL     OW11842   3.714   5.208   2.334
 3648SOL    HW111843   3.723   5.111   2.314
 3648SOL    HW211844   3.638   5.223   2.398
 3649SOL     OW11845   4.737   2.782   1.792
 3649SOL    HW111846   4.707   2.870   1.829
 3649SOL    HW211847   4.834   2.787   1.770
 3650SOL     OW11848   0.342   5.136   0.919
 3650SOL    HW111849   0.371   5.214   0.975
 3650SOL    HW211850   0.396   5.056   0.945
 3651SOL     OW11851   0.471   6.803   4.677
 3651SOL    HW111852   0.545   6.736   4.679
 3651SOL    HW211853   0.425   6.800   4.588
 3652SOL     OW11854   5.607   6.195   3.167
 3652SOL    HW111855   5.615   6.271   3.102
 3652SOL    HW211856   5.699   6.160   3.189
 3653SOL     OW11857   0.160   1.393   4.344
 3653SOL    HW111858   0.200   1.355   4.427
 3653SOL    HW211859   0.162   1.325   4.271
 3654SOL     OW11860   2.578   4.604   1.290
 3654SOL    HW111861   2.530   4.552   1.360
 3654SOL    HW211862   2.620   4.685   1.331
 3655SOL     OW11863   1.629   6.603   4.172
 3655SOL    HW111864   1.572   6.528   4.136
 3655SOL    HW211865   1.713   6.565   4.210
 3656SOL     OW11866   0.972   3.879   1.642
 3656SOL    HW111867   1.007   3.972   1.634
 3656SOL    HW211868   0.873   3.880   1.629
 3657SOL     OW11869   5.033   5.270   5.919
 3657SOL    HW111870   5.032   5.354   5.864
 3657SOL    HW211871   4.945   5.260   5.965
 3658SOL     OW11872   1.822   5.311   5.494
 3658SOL    HW111873   1.809   5.218   5.529
 3658SOL    HW211874   1.813   5.311   5.395
 3659SOL     OW11875   1.306   3.328   4.834
 3659SOL    HW111876   1.239   3.351   4.763
 3659SOL    HW211877   1.356   3.411   4.861
 3660SOL     OW11878   5.711   0.144   3.682
 3660SOL    HW111879   5.730   0.116   3.587
 3660SOL    HW211880   5.761   0.229   3.702
 3661SOL     OW11881   5.461   1.334   5.547
 3661SOL    HW111882   5.384   1.316   5.486
 3661SOL    HW211883   5.450   1.424   5.588
 3662SOL     OW11884   4.369   6.219   3.832
 3662SOL    HW111885   4.423   6.292   3.873
 3662SOL    HW211886   4.406   6.131   3.859
 3663SOL     OW11887   1.847   1.876   0.834
 3663SOL    HW111888   1.845   1.932   0.752
 3663SOL    HW211889   1.754   1.856   0.864
 3664SOL     OW11890   5.419   2.845   1.892
 3664SOL    HW111891   5.375   2.928   1.926
 3664SOL    HW211892   5.466   2.865   1.806
 3665SOL     OW11893   1.943   5.975   5.388
 3665SOL    HW111894   1.956   6.017   5.478
 3665SOL    HW211895   1.848   5.945   5.379
 3666SOL     OW11896   0.969   4.192   2.906
 3666SOL    HW111897   0.894   4.151   2.959
 3666SOL    HW211898   1.048   4.131   2.908
 3667SOL     OW11899   0.608   0.865   2.554
 3667SOL    HW111900   0.546   0.887   2.479
 3667SOL    HW211901   0.554   0.837   2.634
 3668SOL     OW11902   1.707   1.070   1.782
 3668SOL    HW111903   1.788   1.015   1.801
 3668SOL    HW211904   1.733   1.151   1.729
 3669SOL     OW11905   4.802   0.644   3.698
 3669SOL    HW111906   4.728   0.577   3.703
 3669SOL    HW211907   4.887   0.604   3.733
 3670SOL     OW11908   2.751   5.016   0.457
 3670SOL    HW111909   2.665   5.041   0.503
 3670SOL    HW211910   2.733   4.999   0.360
 3671SOL     OW11911   6.169   1.162   3.878
 3671SOL    HW111912   6.206   1.209   3.959
 3671SOL    HW211913   6.239   1.105   3.838
 3672SOL     OW11914   5.780   1.729   1.028
 3672SOL    HW111915   5.830   1.644   1.043
 3672SOL    HW211916   5.780   1.751   0.930
 3673SOL     OW11917   4.186   6.113   6.447
 3673SOL    HW111918   4.250   6.076   6.380
 3673SOL    HW211919   4.144   6.196   6.411
 3674SOL     OW11920   0.717   6.661   5.128
 3674SOL    HW111921   0.815   6.654   5.147
 3674SOL    HW211922   0.666   6.639   5.212
 3675SOL     OW11923   2.278   2.984   4.608
 3675SOL    HW111924   2.262   2.895   4.651
 3675SOL    HW211925   2.368   3.019   4.634
 3676SOL     OW11926   5.151   4.157   3.290
 3676SOL    HW111927   5.090   4.211   3.232
 3676SOL    HW211928   5.121   4.163   3.385
 3677SOL     OW11929   2.201   5.533   3.457
 3677SOL    HW111930   2.186   5.556   3.361
 3677SOL    HW211931   2.270   5.594   3.496
 3678SOL     OW11932   0.851   2.413   5.290
 3678SOL    HW111933   0.754   2.431   5.304
 3678SOL    HW211934   0.878   2.440   5.198
 3679SOL     OW11935   1.021   0.132   3.544
 3679SOL    HW111936   1.054   0.038   3.543
 3679SOL    HW211937   1.018   0.168   3.451
 3680SOL     OW11938   5.646   2.680   3.875
 3680SOL    HW111939   5.555   2.712   3.899
 3680SOL    HW211940   5.663   2.694   3.778
 3681SOL     OW11941   0.371   0.209   6.879
 3681SOL    HW111942   0.274   0.221   6.899
 3681SOL    HW211943   0.425   0.273   6.933
 3682SOL     OW11944   5.841   2.277   0.025
 3682SOL    HW111945   5.860   2.362   0.074
 3682SOL    HW211946   5.868   2.199   0.081
 3683SOL     OW11947   6.525   0.171   2.706
 3683SOL    HW111948   6.606   0.184   2.649
 3683SOL    HW211949   6.475   0.258   2.713
 3684SOL     OW11950   1.944   5.009   0.209
 3684SOL    HW111951   1.935   4.935   0.275
 3684SOL    HW211952   1.861   5.016   0.154
 3685SOL     OW11953   6.886   6.668   6.517
 3685SOL    HW111954   6.984   6.658   6.497
 3685SOL    HW211955   6.838   6.694   6.433
 3686SOL     OW11956   5.756   5.803   3.924
 3686SOL    HW111957   5.676   5.854   3.957
 3686SOL    HW211958   5.737   5.768   3.833
 3687SOL     OW11959   3.384   6.080   5.307
 3687SOL    HW111960   3.335   5.993   5.300
 3687SOL    HW211961   3.354   6.129   5.389
 3688SOL     OW11962   6.533   3.636   6.410
 3688SOL    HW111963   6.613   3.697   6.410
 3688SOL    HW211964   6.454   3.685   6.373
 3689SOL     OW11965   2.265   0.018   6.281
 3689SOL    HW111966   2.351   7.014   6.326
 3689SOL    HW211967   2.221   6.957   6.245
 3690SOL     OW11968   4.840   5.576   0.364
 3690SOL    HW111969   4.802   5.617   0.281
 3690SOL    HW211970   4.802   5.484   0.376
 3691SOL     OW11971   2.732   2.235   6.906
 3691SOL    HW111972   2.646   2.189   6.930
 3691SOL    HW211973   2.745   2.314   6.966
 3692SOL     OW11974   6.979   5.502   5.600
 3692SOL    HW111975   7.019   5.475   5.512
 3692SOL    HW211976   0.008   5.460   5.675
 3693SOL     OW11977   2.138   3.941   2.798
 3693SOL    HW111978   2.190   4.025   2.783
 3693SOL    HW211979   2.189   3.881   2.860
 3694SOL     OW11980   1.353   6.117   2.698
 3694SOL    HW111981   1.392   6.029   2.671
 3694SOL    HW211982   1.423   6.171   2.746
 3695SOL     OW11983   6.392   2.973   1.396
 3695SOL    HW111984   6.396   2.940   1.302
 3695SOL    HW211985   6.334   3.054   1.401
 3696SOL     OW11986   3.756   5.819   5.525
 3696SOL    HW111987   3.827   5.888   5.508
 3696SOL    HW211988   3.678   5.836   5.465
 3697SOL     OW11989   0.246   6.874   3.016
 3697SOL    HW111990   0.166   6.844   3.067
 3697SOL    HW211991   0.237   6.846   2.920
 3698SOL     OW11992   2.168   0.993   4.211
 3698SOL    HW111993   2.126   1.040   4.289
 3698SOL    HW211994   2.108   0.999   4.132
 3699SOL     OW11995   0.786   1.776   3.506
 3699SOL    HW111996   0.856   1.747   3.441
 3699SOL    HW211997   0.713   1.707   3.510
 3700SOL     OW11998   0.885   6.300   4.958
 3700SOL    HW111999   0.891   6.349   5.045
 3700SOL    HW212000   0.954   6.227   4.957
 3701SOL     OW12001   1.793   0.429   3.907
 3701SOL    HW112002   1.880   0.430   3.857
 3701SOL    HW212003   1.795   0.355   3.974
 3702SOL     OW12004   6.120   6.862   3.223
 3702SOL    HW112005   6.194   6.796   3.214
 3702SOL    HW212006   6.103   6.905   3.135
 3703SOL     OW12007   6.276   1.042   5.240
 3703SOL    HW112008   6.283   1.018   5.143
 3703SOL    HW212009   6.214   1.120   5.251
 3704SOL     OW12010   3.701   2.038   1.817
 3704SOL    HW112011   3.664   1.965   1.875
 3704SOL    HW212012   3.689   2.126   1.863
 3705SOL     OW12013   3.995   5.219   3.609
 3705SOL    HW112014   4.077   5.207   3.553
 3705SOL    HW212015   3.914   5.201   3.553
 3706SOL     OW12016   1.898   3.335   6.791
 3706SOL    HW112017   1.833   3.314   6.718
 3706SOL    HW212018   1.879   3.276   6.870
 3707SOL     OW12019   5.329   4.750   4.708
 3707SOL    HW112020   5.276   4.796   4.636
 3707SOL    HW212021   5.279   4.754   4.794
 3708SOL     OW12022   0.254   0.752   6.477
 3708SOL    HW112023   0.167   0.735   6.432
 3708SOL    HW212024   0.327   0.752   6.408
 3709SOL     OW12025   3.079   0.772   0.779
 3709SOL    HW112026   3.075   0.787   0.681
 3709SOL    HW212027   3.170   0.742   0.805
 3710SOL     OW12028   6.250   5.160   5.908
 3710SOL    HW112029   6.151   5.159   5.892
 3710SOL    HW212030   6.296   5.111   5.834
 3711SOL     OW12031   0.782   0.266   4.237
 3711SOL    HW112032   0.770   0.184   4.293
 3711SOL    HW212033   0.714   0.335   4.263
 3712SOL     OW12034   0.215   5.602   6.907
 3712SOL    HW112035   0.220   5.532   6.835
 3712SOL    HW212036   0.283   5.583   6.977
 3713SOL     OW12037   0.999   6.308   5.237
 3713SOL    HW112038   1.025   6.248   5.162
 3713SOL    HW212039   1.012   6.261   5.324
 3714SOL     OW12040   5.222   6.073   5.450
 3714SOL    HW112041   5.266   6.069   5.540
 3714SOL    HW212042   5.292   6.089   5.381
 3715SOL     OW12043   0.206   4.163   2.813
 3715SOL    HW112044   0.226   4.175   2.716
 3715SOL    HW212045   0.194   4.065   2.832
 3716SOL     OW12046   6.465   0.186   5.174
 3716SOL    HW112047   6.365   0.186   5.175
 3716SOL    HW212048   6.499   0.131   5.251
 3717SOL     OW12049   6.134   6.677   6.641
 3717SOL    HW112050   6.183   6.758   6.608
 3717SOL    HW212051   6.048   6.667   6.591
 3718SOL     OW12052   1.547   0.531   6.790
 3718SOL    HW112053   1.632   0.514   6.838
 3718SOL    HW212054   1.503   0.612   6.827
 3719SOL     OW12055   5.571   4.286   1.348
 3719SOL    HW112056   5.489   4.256   1.299
 3719SOL    HW212057   5.640   4.213   1.346
 3720SOL     OW12058   5.711   2.454   6.621
 3720SOL    HW112059   5.729   2.365   6.661
 3720SOL    HW212060   5.710   2.447   6.521
 3721SOL     OW12061   6.157   4.586   1.345
 3721SOL    HW112062   6.255   4.593   1.364
 3721SOL    HW212063   6.140   4.609   1.249
 3722SOL     OW12064   6.638   5.911   0.889
 3722SOL    HW112065   6.588   5.841   0.941
 3722SOL    HW212066   6.621   5.899   0.792
 3723SOL     OW12067   5.895   5.443   1.556
 3723SOL    HW112068   5.990   5.476   1.558
 3723SOL    HW212069   5.891   5.350   1.593
 3724SOL     OW12070   1.848   4.421   4.559
 3724SOL    HW112071   1.933   4.474   4.557
 3724SOL    HW212072   1.849   4.353   4.486
 3725SOL     OW12073   5.681   5.300   0.522
 3725SOL    HW112074   5.653   5.369   0.456
 3725SOL    HW212075   5.742   5.234   0.477
 3726SOL     OW12076   5.486   3.790   0.650
 3726SOL    HW112077   5.433   3.839   0.718
 3726SOL    HW212078   5.448   3.698   0.638
 3727SOL     OW12079   7.000   2.405   4.836
 3727SOL    HW112080   6.950   2.463   4.772
 3727SOL    HW212081   6.993   2.443   4.928
 3728SOL     OW12082   1.855   3.550   6.969
 3728SOL    HW112083   1.857   3.492   6.888
 3728SOL    HW212084   1.771   3.605   6.969
 3729SOL     OW12085   0.843   2.609   3.935
 3729SOL    HW112086   0.933   2.572   3.957
 3729SOL    HW212087   0.814   2.574   3.846
 3730SOL     OW12088   2.196   4.816   5.854
 3730SOL    HW112089   2.134   4.891   5.877
 3730SOL    HW212090   2.289   4.850   5.847
 3731SOL     OW12091   6.869   1.648   0.348
 3731SOL    HW112092   6.942   1.700   0.303
 3731SOL    HW212093   6.851   1.687   0.438
 3732SOL     OW12094   2.954   1.229   0.305
 3732SOL    HW112095   2.911   1.288   0.236
 3732SOL    HW212096   2.888   1.161   0.335
 3733SOL     OW12097   1.757   3.856   2.542
 3733SOL    HW112098   1.803   3.866   2.454
 3733SOL    HW212099   1.694   3.779   2.538
 3734SOL     OW12100   5.071   1.245   2.026
 3734SOL    HW112101   4.993   1.267   1.968
 3734SOL    HW212102   5.054   1.277   2.119
 3735SOL     OW12103   1.854   0.762   3.817
 3735SOL    HW112104   1.954   0.766   3.816
 3735SOL    HW212105   1.821   0.710   3.739
 3736SOL     OW12106   0.473   2.414   0.923
 3736SOL    HW112107   0.534   2.385   0.997
 3736SOL    HW212108   0.457   2.336   0.862
 3737SOL     OW12109   4.957   0.661   3.382
 3737SOL    HW112110   4.884   0.597   3.408
 3737SOL    HW212111   5.018   0.616   3.316
 3738SOL     OW12112   6.916   6.941   1.922
 3738SOL    HW112113   6.918   6.909   2.016
 3738SOL    HW212114   6.824   6.930   1.884
 3739SOL     OW12115   2.697   4.440   1.693
 3739SOL    HW112116   2.618   4.454   1.753
 3739SOL    HW212117   2.781   4.462   1.743
 3740SOL     OW12118   5.222   0.704   0.690
 3740SOL    HW112119   5.296   0.767   0.667
 3740SOL    HW212120   5.260   0.622   0.732
 3741SOL     OW12121   5.167   2.753   0.664
 3741SOL    HW112122   5.150   2.752   0.566
 3741SOL    HW212123   5.253   2.706   0.683
 3742SOL     OW12124   2.933   1.610   7.019
 3742SOL    HW112125   2.998   1.534   7.018
 3742SOL    HW212126   2.878   1.608   6.935
 3743SOL     OW12127   5.684   3.452   0.889
 3743SOL    HW112128   5.674   3.357   0.917
 3743SOL    HW212129   5.593   3.494   0.881
 3744SOL     OW12130   1.238   5.812   2.528
 3744SOL    HW112131   1.330   5.848   2.511
 3744SOL    HW212132   1.240   5.712   2.521
 3745SOL     OW12133   4.008   4.803   1.709
 3745SOL    HW112134   3.929   4.770   1.657
 3745SOL    HW212135   4.092   4.773   1.663
 3746SOL     OW12136   5.374   0.868   3.224
 3746SOL    HW112137   5.297   0.915   3.268
 3746SOL    HW212138   5.370   0.884   3.125
 3747SOL     OW12139   2.889   6.227   4.970
 3747SOL    HW112140   2.824   6.217   5.045
 3747SOL    HW212141   2.964   6.288   4.998
 3748SOL     OW12142   5.760   1.402   1.036
 3748SOL    HW112143   5.707   1.322   1.065
 3748SOL    HW212144   5.700   1.465   0.986
 3749SOL     OW12145   1.642   5.715   3.587
 3749SOL    HW112146   1.623   5.617   3.588
 3749SOL    HW212147   1.570   5.763   3.537
 3750SOL     OW12148   0.853   4.168   0.935
 3750SOL    HW112149   0.947   4.191   0.960
 3750SOL    HW212150   0.836   4.072   0.957
 3751SOL     OW12151   0.376   3.425   1.661
 3751SOL    HW112152   0.326   3.341   1.637
 3751SOL    HW212153   0.445   3.404   1.730
 3752SOL     OW12154   5.164   0.458   0.065
 3752SOL    HW112155   5.227   0.382   0.051
 3752SOL    HW212156   5.215   0.541   0.086
 3753SOL     OW12157   6.243   6.365   4.664
 3753SOL    HW112158   6.253   6.463   4.646
 3753SOL    HW212159   6.175   6.326   4.602
 3754SOL     OW12160   2.459   1.079   1.188
 3754SOL    HW112161   2.448   0.980   1.194
 3754SOL    HW212162   2.397   1.115   1.118
 3755SOL     OW12163   4.954   4.431   4.241
 3755SOL    HW112164   4.863   4.415   4.280
 3755SOL    HW212165   4.972   4.529   4.239
 3756SOL     OW12166   3.112   5.127   6.155
 3756SOL    HW112167   3.082   5.062   6.225
 3756SOL    HW212168   3.168   5.198   6.197
 3757SOL     OW12169   5.709   5.756   0.471
 3757SOL    HW112170   5.696   5.670   0.422
 3757SOL    HW212171   5.802   5.761   0.508
 3758SOL     OW12172   2.865   1.636   4.886
 3758SOL    HW112173   2.869   1.682   4.797
 3758SOL    HW212174   2.928   1.558   4.885
 3759SOL     OW12175   4.381   0.099   6.467
 3759SOL    HW112176   4.385   0.001   6.489
 3759SOL    HW212177   4.360   0.150   6.551
 3760SOL     OW12178   1.087   1.590   4.657
 3760SOL    HW112179   1.003   1.555   4.616
 3760SOL    HW212180   1.153   1.612   4.585
 3761SOL     OW12181   0.467   1.296   5.186
 3761SOL    HW112182   0.555   1.340   5.169
 3761SOL    HW212183   0.472   1.238   5.267
 3762SOL     OW12184   1.217   4.773   1.108
 3762SOL    HW112185   1.240   4.836   1.033
 3762SOL    HW212186   1.174   4.824   1.182
 3763SOL     OW12187   6.831   3.588   0.347
 3763SOL    HW112188   6.845   3.495   0.314
 3763SOL    HW212189   6.744   3.623   0.313
 3764SOL     OW12190   1.686   0.006   2.634
 3764SOL    HW112191   1.745   6.970   2.692
 3764SOL    HW212192   1.620   0.054   2.692
 3765SOL     OW12193   5.313   1.628   0.828
 3765SOL    HW112194   5.230   1.669   0.868
 3765SOL    HW212195   5.290   1.589   0.739
 3766SOL     OW12196   1.854   2.047   4.142
 3766SOL    HW112197   1.786   2.098   4.090
 3766SOL    HW212198   1.873   1.960   4.096
 3767SOL     OW12199   2.179   4.283   0.055
 3767SOL    HW112200   2.170   4.373   0.012
 3767SOL    HW212201   2.273   4.251   0.046
 3768SOL     OW12202   0.441   6.567   4.099
 3768SOL    HW112203   0.410   6.504   4.171
 3768SOL    HW212204   0.538   6.552   4.081
 3769SOL     OW12205   5.987   5.984   4.451
 3769SOL    HW112206   5.990   5.910   4.518
 3769SOL    HW212207   5.893   5.993   4.416
 3770SOL     OW12208   1.161   0.783   6.265
 3770SOL    HW112209   1.255   0.800   6.237
 3770SOL    HW212210   1.129   0.698   6.224
 3771SOL     OW12211   5.161   2.950   0.151
 3771SOL    HW112212   5.104   2.987   0.077
 3771SOL    HW212213   5.257   2.963   0.128
 3772SOL     OW12214   0.550   0.958   0.352
 3772SOL    HW112215   0.604   0.933   0.433
 3772SOL    HW212216   0.459   0.987   0.381
 3773SOL     OW12217   5.723   3.529   5.452
 3773SOL    HW112218   5.792   3.459   5.466
 3773SOL    HW212219   5.669   3.507   5.371
 3774SOL     OW12220   6.139   5.591   1.251
 3774SOL    HW112221   6.112   5.633   1.338
 3774SOL    HW212222   6.219   5.639   1.215
 3775SOL     OW12223   4.450   5.312   2.757
 3775SOL    HW112224   4.452   5.340   2.853
 3775SOL    HW212225   4.474   5.215   2.750
 3776SOL     OW12226   4.233   1.784   6.769
 3776SOL    HW112227   4.201   1.768   6.676
 3776SOL    HW212228   4.155   1.803   6.829
 3777SOL     OW12229   3.712   5.577   3.375
 3777SOL    HW112230   3.669   5.515   3.440
 3777SOL    HW212231   3.707   5.538   3.283
 3778SOL     OW12232   3.294   5.129   2.426
 3778SOL    HW112233   3.205   5.161   2.459
 3778SOL    HW212234   3.291   5.116   2.327
 3779SOL     OW12235   0.684   4.846   0.389
 3779SOL    HW112236   0.768   4.792   0.382
 3779SOL    HW212237   0.617   4.814   0.322
 3780SOL     OW12238   5.705   4.980   4.757
 3780SOL    HW112239   5.725   4.906   4.821
 3780SOL    HW212240   5.672   4.941   4.670
 3781SOL     OW12241   0.624   6.655   4.334
 3781SOL    HW112242   0.569   6.605   4.401
 3781SOL    HW212243   0.567   6.722   4.288
 3782SOL     OW12244   2.388   0.187   2.975
 3782SOL    HW112245   2.363   0.106   2.922
 3782SOL    HW212246   2.380   0.268   2.918
 3783SOL     OW12247   5.843   5.292   4.390
 3783SOL    HW112248   5.885   5.383   4.397
 3783SOL    HW212249   5.758   5.299   4.338
 3784SOL     OW12250   5.184   2.737   3.038
 3784SOL    HW112251   5.186   2.809   2.968
 3784SOL    HW212252   5.137   2.657   3.001
 3785SOL     OW12253   1.725   3.428   5.856
 3785SOL    HW112254   1.817   3.466   5.857
 3785SOL    HW212255   1.729   3.330   5.839
 3786SOL     OW12256   2.496   5.107   3.212
 3786SOL    HW112257   2.545   5.194   3.218
 3786SOL    HW212258   2.523   5.059   3.129
 3787SOL     OW12259   6.424   1.695   2.875
 3787SOL    HW112260   6.348   1.760   2.871
 3787SOL    HW212261   6.510   1.745   2.868
 3788SOL     OW12262   0.072   4.736   4.798
 3788SOL    HW112263   0.113   4.705   4.884
 3788SOL    HW212264   7.011   4.789   4.818
 3789SOL     OW12265   0.364   3.243   4.524
 3789SOL    HW112266   0.269   3.273   4.530
 3789SOL    HW212267   0.422   3.302   4.579
 3790SOL     OW12268   1.276   4.456   5.717
 3790SOL    HW112269   1.255   4.548   5.684
 3790SOL    HW212270   1.296   4.397   5.639
 3791SOL     OW12271   4.970   0.895   6.257
 3791SOL    HW112272   4.995   0.987   6.228
 3791SOL    HW212273   4.873   0.894   6.283
 3792SOL     OW12274   1.370   2.219   3.587
 3792SOL    HW112275   1.439   2.194   3.518
 3792SOL    HW212276   1.416   2.244   3.672
 3793SOL     OW12277   4.826   6.595   2.240
 3793SOL    HW112278   4.862   6.566   2.151
 3793SOL    HW212279   4.895   6.650   2.287
 3794SOL     OW12280   2.022   2.414   1.110
 3794SOL    HW112281   1.945   2.426   1.047
 3794SOL    HW212282   1.989   2.369   1.193
 3795SOL     OW12283   4.948   6.131   0.972
 3795SOL    HW112284   4.914   6.165   1.059
 3795SOL    HW212285   4.932   6.199   0.900
 3796SOL     OW12286   3.348   2.004   2.257
 3796SOL    HW112287   3.280   2.042   2.194
 3796SOL    HW212288   3.305   1.990   2.347
 3797SOL     OW12289   0.752   3.592   2.295
 3797SOL    HW112290   0.669   3.639   2.265
 3797SOL    HW212291   0.776   3.622   2.387
 3798SOL     OW12292   2.752   5.227   3.536
 3798SOL    HW112293   2.780   5.322   3.520
 3798SOL    HW212294   2.834   5.171   3.551
 3799SOL     OW12295   5.811   2.331   3.783
 3799SOL    HW112296   5.744   2.258   3.767
 3799SOL    HW212297   5.878   2.332   3.709
 3800SOL     OW12298   5.519   2.443   3.977
 3800SOL    HW112299   5.596   2.504   3.963
 3800SOL    HW212300   5.455   2.484   4.042
 3801SOL     OW12301   5.562   6.822   1.594
 3801SOL    HW112302   5.640   6.868   1.551
 3801SOL    HW212303   5.488   6.812   1.528
 3802SOL     OW12304   1.465   2.422   1.527
 3802SOL    HW112305   1.518   2.356   1.474
 3802SOL    HW212306   1.473   2.400   1.625
 3803SOL     OW12307   4.138   3.434   2.285
 3803SOL    HW112308   4.136   3.496   2.363
 3803SOL    HW212309   4.110   3.342   2.314
 3804SOL     OW12310   4.986   1.318   4.101
 3804SOL    HW112311   5.074   1.293   4.142
 3804SOL    HW212312   4.946   1.237   4.057
 3805SOL     OW12313   1.793   2.745   1.421
 3805SOL    HW112314   1.767   2.667   1.477
 3805SOL    HW212315   1.887   2.734   1.389
 3806SOL     OW12316   4.046   3.491   5.913
 3806SOL    HW112317   4.011   3.439   5.835
 3806SOL    HW212318   3.969   3.525   5.968
 3807SOL     OW12319   1.825   5.645   2.674
 3807SOL    HW112320   1.853   5.569   2.733
 3807SOL    HW212321   1.834   5.731   2.723
 3808SOL     OW12322   4.453   1.075   0.343
 3808SOL    HW112323   4.377   1.085   0.279
 3808SOL    HW212324   4.522   1.015   0.303
 3809SOL     OW12325   5.796   2.610   1.566
 3809SOL    HW112326   5.890   2.576   1.579
 3809SOL    HW212327   5.798   2.709   1.557
 3810SOL     OW12328   4.717   2.759   3.798
 3810SOL    HW112329   4.726   2.749   3.897
 3810SOL    HW212330   4.658   2.686   3.763
 3811SOL     OW12331   0.802   5.445   4.787
 3811SOL    HW112332   0.810   5.416   4.882
 3811SOL    HW212333   0.755   5.533   4.782
 3812SOL     OW12334   4.453   5.143   5.510
 3812SOL    HW112335   4.369   5.101   5.544
 3812SOL    HW212336   4.519   5.071   5.486
 3813SOL     OW12337   4.186   3.030   0.666
 3813SOL    HW112338   4.147   3.073   0.748
 3813SOL    HW212339   4.118   3.031   0.592
 3814SOL     OW12340   6.309   6.915   6.074
 3814SOL    HW112341   6.326   6.972   6.153
 3814SOL    HW212342   6.384   6.923   6.009
 3815SOL     OW12343   3.436   1.918   0.577
 3815SOL    HW112344   3.514   1.882   0.628
 3815SOL    HW212345   3.466   1.943   0.484
 3816SOL     OW12346   1.159   5.675   6.522
 3816SOL    HW112347   1.130   5.703   6.430
 3816SOL    HW212348   1.158   5.754   6.583
 3817SOL     OW12349   4.877   3.493   2.617
 3817SOL    HW112350   4.878   3.528   2.523
 3817SOL    HW212351   4.827   3.557   2.675
 3818SOL     OW12352   6.473   0.692   6.624
 3818SOL    HW112353   6.537   0.693   6.547
 3818SOL    HW212354   6.466   0.785   6.661
 3819SOL     OW12355   5.171   5.276   2.062
 3819SOL    HW112356   5.122   5.280   2.149
 3819SOL    HW212357   5.111   5.236   1.992
 3820SOL     OW12358   5.326   0.047   3.542
 3820SOL    HW112359   5.297   0.126   3.487
 3820SOL    HW212360   5.406   0.005   3.500
 3821SOL     OW12361   2.481   1.968   1.754
 3821SOL    HW112362   2.446   1.975   1.847
 3821SOL    HW212363   2.529   1.882   1.742
 3822SOL     OW12364   2.235   0.610   1.100
 3822SOL    HW112365   2.310   0.632   1.038
 3822SOL    HW212366   2.259   0.637   1.193
 3823SOL     OW12367   3.342   3.572   6.426
 3823SOL    HW112368   3.271   3.502   6.422
 3823SOL    HW212369   3.322   3.644   6.359
 3824SOL     OW12370   0.604   3.280   0.431
 3824SOL    HW112371   0.511   3.273   0.396
 3824SOL    HW212372   0.613   3.361   0.489
 3825SOL     OW12373   0.261   5.450   0.582
 3825SOL    HW112374   0.179   5.489   0.539
 3825SOL    HW212375   0.285   5.505   0.662
 3826SOL     OW12376   1.114   3.812   6.704
 3826SOL    HW112377   1.037   3.870   6.678
 3826SOL    HW212378   1.106   3.724   6.656
 3827SOL     OW12379   1.716   1.296   1.643
 3827SOL    HW112380   1.779   1.373   1.634
 3827SOL    HW212381   1.655   1.294   1.564
 3828SOL     OW12382   3.649   3.713   2.980
 3828SOL    HW112383   3.571   3.774   2.990
 3828SOL    HW212384   3.704   3.740   2.901
 3829SOL     OW12385   1.358   5.325   2.698
 3829SOL    HW112386   1.423   5.274   2.755
 3829SOL    HW212387   1.406   5.398   2.650
 3830SOL     OW12388   0.708   1.093   5.236
 3830SOL    HW112389   0.615   1.090   5.272
 3830SOL    HW212390   0.743   1.000   5.227
 3831SOL     OW12391   4.882   2.606   2.449
 3831SOL    HW112392   4.797   2.554   2.451
 3831SOL    HW212393   4.863   2.701   2.476
 3832SOL     OW12394   6.122   0.816   2.870
 3832SOL    HW112395   6.122   0.915   2.881
 3832SOL    HW212396   6.107   0.792   2.774
 3833SOL     OW12397   0.413   6.610   6.542
 3833SOL    HW112398   0.383   6.673   6.613
 3833SOL    HW212399   0.403   6.653   6.452
 3834SOL     OW12400   4.126   4.751   1.264
 3834SOL    HW112401   4.129   4.671   1.324
 3834SOL    HW212402   4.173   4.827   1.308
 3835SOL     OW12403   3.931   5.515   4.593
 3835SOL    HW112404   3.844   5.536   4.638
 3835SOL    HW212405   3.950   5.584   4.524
 3836SOL     OW12406   1.051   3.984   5.977
 3836SOL    HW112407   1.107   4.067   5.977
 3836SOL    HW212408   1.109   3.905   5.994
 3837SOL     OW12409   4.258   4.693   6.363
 3837SOL    HW112410   4.210   4.615   6.402
 3837SOL    HW212411   4.211   4.723   6.280
 3838SOL     OW12412   0.975   3.748   4.281
 3838SOL    HW112413   1.014   3.659   4.304
 3838SOL    HW212414   1.008   3.777   4.191
 3839SOL     OW12415   5.280   0.960   3.559
 3839SOL    HW112416   5.238   0.870   3.547
 3839SOL    HW212417   5.214   1.022   3.602
 3840SOL     OW12418   2.636   0.974   6.299
 3840SOL    HW112419   2.712   0.911   6.315
 3840SOL    HW212420   2.659   1.064   6.335
 3841SOL     OW12421   6.773   3.141   4.047
 3841SOL    HW112422   6.770   3.225   3.993
 3841SOL    HW212423   6.764   3.164   4.144
 3842SOL     OW12424   2.045   2.687   1.337
 3842SOL    HW112425   2.038   2.628   1.257
 3842SOL    HW212426   2.136   2.730   1.339
 3843SOL     OW12427   5.965   4.962   2.197
 3843SOL    HW112428   5.948   4.907   2.279
 3843SOL    HW212429   5.964   4.902   2.116
 3844SOL     OW12430   1.070   2.977   5.961
 3844SOL    HW112431   1.110   2.968   5.870
 3844SOL    HW212432   0.972   2.994   5.953
 3845SOL     OW12433   2.944   3.718   5.586
 3845SOL    HW112434   2.969   3.814   5.575
 3845SOL    HW212435   2.919   3.701   5.681
 3846SOL     OW12436   0.359   5.334   4.153
 3846SOL    HW112437   0.399   5.264   4.094
 3846SOL    HW212438   0.373   5.424   4.112
 3847SOL     OW12439   5.074   1.222   4.496
 3847SOL    HW112440   5.145   1.177   4.551
 3847SOL    HW212441   5.033   1.297   4.548
 3848SOL     OW12442   4.728   5.511   2.942
 3848SOL    HW112443   4.770   5.500   3.032
 3848SOL    HW212444   4.721   5.422   2.897
 3849SOL     OW12445   1.512   1.124   6.091
 3849SOL    HW112446   1.475   1.054   6.031
 3849SOL    HW212447   1.593   1.165   6.049
 3850SOL     OW12448   2.328   3.745   1.231
 3850SOL    HW112449   2.413   3.796   1.244
 3850SOL    HW212450   2.332   3.659   1.283
 3851SOL     OW12451   1.097   4.614   2.249
 3851SOL    HW112452   1.043   4.593   2.167
 3851SOL    HW212453   1.191   4.636   2.222
 3852SOL     OW12454   4.550   6.169   3.595
 3852SOL    HW112455   4.487   6.170   3.674
 3852SOL    HW212456   4.644   6.170   3.628
 3853SOL     OW12457   1.094   4.397   3.018
 3853SOL    HW112458   1.129   4.383   3.111
 3853SOL    HW212459   1.037   4.319   2.992
 3854SOL     OW12460   1.622   3.208   2.773
 3854SOL    HW112461   1.695   3.192   2.706
 3854SOL    HW212462   1.657   3.192   2.865
 3855SOL     OW12463   5.267   6.300   6.486
 3855SOL    HW112464   5.286   6.246   6.568
 3855SOL    HW212465   5.261   6.397   6.511
 3856SOL     OW12466   0.137   0.826   5.790
 3856SOL    HW112467   0.225   0.810   5.745
 3856SOL    HW212468   0.112   0.745   5.843
 3857SOL     OW12469   0.193   6.373   0.040
 3857SOL    HW112470   0.134   6.321   0.102
 3857SOL    HW212471   0.222   6.316   6.985
 3858SOL     OW12472   1.914   0.835   5.627
 3858SOL    HW112473   1.863   0.753   5.653
 3858SOL    HW212474   1.983   0.855   5.697
 3859SOL     OW12475   6.245   1.180   2.502
 3859SOL    HW112476   6.290   1.126   2.574
 3859SOL    HW212477   6.146   1.165   2.506
 3860SOL     OW12478   2.879   0.376   5.512
 3860SOL    HW112479   2.946   0.409   5.446
 3860SOL    HW212480   2.809   0.322   5.465
 3861SOL     OW12481   4.733   4.841   3.445
 3861SOL    HW112482   4.657   4.777   3.434
 3861SOL    HW212483   4.817   4.798   3.412
 3862SOL     OW12484   1.148   0.488   5.313
 3862SOL    HW112485   1.070   0.493   5.375
 3862SOL    HW212486   1.212   0.563   5.334
 3863SOL     OW12487   4.648   2.574   6.613
 3863SOL    HW112488   4.627   2.672   6.603
 3863SOL    HW212489   4.738   2.563   6.654
 3864SOL     OW12490   2.464   0.481   5.318
 3864SOL    HW112491   2.485   0.574   5.348
 3864SOL    HW212492   2.483   0.473   5.220
 3865SOL     OW12493   3.489   0.266   0.349
 3865SOL    HW112494   3.537   0.189   0.306
 3865SOL    HW212495   3.406   0.287   0.298
 3866SOL     OW12496   3.750   1.277   0.998
 3866SOL    HW112497   3.810   1.222   1.056
 3866SOL    HW212498   3.722   1.359   1.048
 3867SOL     OW12499   1.287   4.370   3.218
 3867SOL    HW112500   1.370   4.317   3.207
 3867SOL    HW212501   1.306   4.467   3.201
 3868SOL     OW12502   3.167   6.771   0.331
 3868SOL    HW112503   3.240   6.837   0.310
 3868SOL    HW212504   3.198   6.710   0.404
 3869SOL     OW12505   5.809   4.443   4.860
 3869SOL    HW112506   5.845   4.436   4.953
 3869SOL    HW212507   5.732   4.506   4.859
 3870SOL     OW12508   5.145   5.783   6.442
 3870SOL    HW112509   5.091   5.857   6.481
 3870SOL    HW212510   5.221   5.762   6.503
 3871SOL     OW12511   3.537   0.473   2.885
 3871SOL    HW112512   3.540   0.573   2.883
 3871SOL    HW212513   3.627   0.437   2.909
 3872SOL     OW12514   3.650   3.073   3.359
 3872SOL    HW112515   3.625   3.028   3.445
 3872SOL    HW212516   3.749   3.076   3.351
 3873SOL     OW12517   5.857   2.887   1.580
 3873SOL    HW112518   5.869   2.983   1.604
 3873SOL    HW212519   5.920   2.831   1.635
 3874SOL     OW12520   3.976   5.821   6.972
 3874SOL    HW112521   4.071   5.793   6.959
 3874SOL    HW212522   3.920   5.785   6.898
 3875SOL     OW12523   1.742   3.153   1.830
 3875SOL    HW112524   1.819   3.178   1.889
 3875SOL    HW212525   1.663   3.210   1.852
 3876SOL     OW12526   4.780   4.895   0.324
 3876SOL    HW112527   4.823   4.915   0.236
 3876SOL    HW212528   4.725   4.812   0.316
 3877SOL     OW12529   6.697   3.097   0.557
 3877SOL    HW112530   6.791   3.129   0.550
 3877SOL    HW212531   6.647   3.123   0.475
 3878SOL     OW12532   3.344   6.991   4.569
 3878SOL    HW112533   3.425   6.940   4.539
 3878SOL    HW212534   3.373   0.056   4.609
 3879SOL     OW12535   5.116   6.206   1.729
 3879SOL    HW112536   5.114   6.220   1.630
 3879SOL    HW212537   5.129   6.294   1.775
 3880SOL     OW12538   6.112   4.713   3.503
 3880SOL    HW112539   6.088   4.747   3.413
 3880SOL    HW212540   6.124   4.790   3.566
 3881SOL     OW12541   1.231   4.070   1.437
 3881SOL    HW112542   1.204   3.981   1.399
 3881SOL    HW212543   1.192   4.143   1.381
 3882SOL     OW12544   0.790   1.827   5.629
 3882SOL    HW112545   0.847   1.746   5.620
 3882SOL    HW212546   0.714   1.808   5.691
 3883SOL     OW12547   4.393   0.831   3.673
 3883SOL    HW112548   4.351   0.745   3.703
 3883SOL    HW212549   4.479   0.844   3.722
 3884SOL     OW12550   0.247   5.586   3.469
 3884SOL    HW112551   0.341   5.551   3.478
 3884SOL    HW212552   0.206   5.549   3.386
 3885SOL     OW12553   5.931   0.548   2.524
 3885SOL    HW112554   5.856   0.530   2.461
 3885SOL    HW212555   6.012   0.497   2.494
 3886SOL     OW12556   6.231   5.963   4.838
 3886SOL    HW112557   6.286   5.879   4.831
 3886SOL    HW212558   6.283   6.039   4.800
 3887SOL     OW12559   0.276   0.552   6.097
 3887SOL    HW112560   0.342   0.504   6.040
 3887SOL    HW212561   0.323   0.620   6.154
 3888SOL     OW12562   0.001   0.344   5.903
 3888SOL    HW112563   0.058   0.269   5.870
 3888SOL    HW212564   0.052   0.430   5.898
 3889SOL     OW12565   6.485   3.565   6.088
 3889SOL    HW112566   6.492   3.550   6.187
 3889SOL    HW212567   6.443   3.485   6.046
 3890SOL     OW12568   5.717   5.810   2.666
 3890SOL    HW112569   5.656   5.852   2.734
 3890SOL    HW212570   5.812   5.835   2.687
 3891SOL     OW12571   5.538   4.465   4.479
 3891SOL    HW112572   5.614   4.467   4.414
 3891SOL    HW212573   5.464   4.408   4.443
 3892SOL     OW12574   0.205   2.203   1.109
 3892SOL    HW112575   0.299   2.172   1.125
 3892SOL    HW212576   0.206   2.288   1.058
 3893SOL     OW12577   3.390   5.183   0.675
 3893SOL    HW112578   3.365   5.273   0.639
 3893SOL    HW212579   3.488   5.183   0.698
 3894SOL     OW12580   2.370   1.961   1.022
 3894SOL    HW112581   2.279   1.967   0.981
 3894SOL    HW212582   2.379   1.873   1.070
 3895SOL     OW12583   1.701   0.423   5.039
 3895SOL    HW112584   1.783   0.391   5.088
 3895SOL    HW212585   1.709   0.399   4.942
 3896SOL     OW12586   0.470   1.548   6.128
 3896SOL    HW112587   0.553   1.510   6.088
 3896SOL    HW212588   0.485   1.644   6.151
 3897SOL     OW12589   3.632   6.077   2.066
 3897SOL    HW112590   3.536   6.051   2.070
 3897SOL    HW212591   3.679   6.021   1.998
 3898SOL     OW12592   3.620   3.415   3.996
 3898SOL    HW112593   3.643   3.500   4.044
 3898SOL    HW212594   3.521   3.414   3.978
 3899SOL     OW12595   5.216   0.426   4.258
 3899SOL    HW112596   5.145   0.380   4.205
 3899SOL    HW212597   5.174   0.493   4.319
 3900SOL     OW12598   5.261   3.069   3.960
 3900SOL    HW112599   5.300   3.058   3.868
 3900SOL    HW212600   5.256   3.166   3.983
 3901SOL     OW12601   3.116   6.421   5.046
 3901SOL    HW112602   3.183   6.491   5.020
 3901SOL    HW212603   3.096   6.430   5.144
 3902SOL     OW12604   6.462   3.759   1.719
 3902SOL    HW112605   6.516   3.825   1.667
 3902SOL    HW212606   6.450   3.792   1.812
 3903SOL     OW12607   4.780   4.866   0.033
 3903SOL    HW112608   4.823   4.952   0.004
 3903SOL    HW212609   4.798   4.795   6.986
 3904SOL     OW12610   1.984   6.574   5.520
 3904SOL    HW112611   1.988   6.663   5.475
 3904SOL    HW212612   1.888   6.552   5.540
 3905SOL     OW12613   6.058   0.064   5.906
 3905SOL    HW112614   6.062   6.986   5.909
 3905SOL    HW212615   5.966   0.094   5.931
 3906SOL     OW12616   2.877   5.349   5.268
 3906SOL    HW112617   2.874   5.377   5.364
 3906SOL    HW212618   2.969   5.317   5.245
 3907SOL     OW12619   6.571   6.514   5.393
 3907SOL    HW112620   6.506   6.567   5.448
 3907SOL    HW212621   6.541   6.513   5.298
 3908SOL     OW12622   1.723   1.035   6.900
 3908SOL    HW112623   1.651   1.055   6.833
 3908SOL    HW212624   1.684   1.038   6.992
 3909SOL     OW12625   0.387   5.071   6.033
 3909SOL    HW112626   0.453   5.061   5.959
 3909SOL    HW212627   0.382   4.986   6.085
 3910SOL     OW12628   3.409   3.971   1.838
 3910SOL    HW112629   3.309   3.978   1.831
 3910SOL    HW212630   3.451   4.028   1.769
 3911SOL     OW12631   4.452   1.607   0.133
 3911SOL    HW112632   4.473   1.702   0.153
 3911SOL    HW212633   4.409   1.601   0.043
 3912SOL     OW12634   3.711   1.136   6.428
 3912SOL    HW112635   3.673   1.099   6.513
 3912SOL    HW212636   3.809   1.119   6.426
 3913SOL     OW12637   2.914   5.900   6.539
 3913SOL    HW112638   2.878   5.962   6.470
 3913SOL    HW212639   3.005   5.867   6.512
 3914SOL     OW12640   4.727   1.081   1.031
 3914SOL    HW112641   4.728   1.162   1.090
 3914SOL    HW212642   4.634   1.044   1.026
 3915SOL     OW12643   4.265   6.110   1.248
 3915SOL    HW112644   4.363   6.121   1.267
 3915SOL    HW212645   4.250   6.028   1.193
 3916SOL     OW12646   1.739   6.341   2.328
 3916SOL    HW112647   1.706   6.424   2.374
 3916SOL    HW212648   1.832   6.321   2.358
 3917SOL     OW12649   1.329   5.162   0.120
 3917SOL    HW112650   1.363   5.102   0.047
 3917SOL    HW212651   1.399   5.169   0.191
 3918SOL     OW12652   4.207   6.485   2.114
 3918SOL    HW112653   4.292   6.484   2.060
 3918SOL    HW212654   4.229   6.488   2.211
 3919SOL     OW12655   3.639   6.876   6.526
 3919SOL    HW112656   3.600   6.965   6.550
 3919SOL    HW212657   3.699   6.845   6.599
 3920SOL     OW12658   2.721   2.031   6.321
 3920SOL    HW112659   2.645   2.095   6.313
 3920SOL    HW212660   2.800   2.067   6.271
 3921SOL     OW12661   0.902   3.096   0.483
 3921SOL    HW112662   0.969   3.166   0.457
 3921SOL    HW212663   0.816   3.140   0.508
 3922SOL     OW12664   4.890   5.150   0.187
 3922SOL    HW112665   4.942   5.230   0.158
 3922SOL    HW212666   4.822   5.178   0.256
 3923SOL     OW12667   6.217   1.819   6.952
 3923SOL    HW112668   6.226   1.767   0.016
 3923SOL    HW212669   6.191   1.913   6.972
 3924SOL     OW12670   0.483   5.225   3.400
 3924SOL    HW112671   0.488   5.274   3.313
 3924SOL    HW212672   0.540   5.272   3.468
 3925SOL     OW12673   4.265   4.100   0.897
 3925SOL    HW112674   4.247   4.116   0.800
 3925SOL    HW212675   4.281   4.002   0.912
 3926SOL     OW12676   6.818   6.905   3.769
 3926SOL    HW112677   6.728   6.861   3.763
 3926SOL    HW212678   6.863   6.879   3.854
 3927SOL     OW12679   0.090   3.316   4.492
 3927SOL    HW112680   0.015   3.295   4.430
 3927SOL    HW212681   0.109   3.415   4.490
 3928SOL     OW12682   3.696   5.606   4.709
 3928SOL    HW112683   3.625   5.666   4.672
 3928SOL    HW212684   3.666   5.569   4.797
 3929SOL     OW12685   0.157   1.936   6.762
 3929SOL    HW112686   0.240   1.984   6.789
 3929SOL    HW212687   0.109   1.987   6.691
 3930SOL     OW12688   1.580   2.094   3.434
 3930SOL    HW112689   1.548   2.022   3.373
 3930SOL    HW212690   1.614   2.171   3.380
 3931SOL     OW12691   1.958   1.876   2.259
 3931SOL    HW112692   2.055   1.852   2.270
 3931SOL    HW212693   1.901   1.799   2.289
 3932SOL     OW12694   1.857   4.427   3.887
 3932SOL    HW112695   1.833   4.347   3.943
 3932SOL    HW212696   1.867   4.506   3.947
 3933SOL     OW12697   1.781   6.938   7.016
 3933SOL    HW112698   1.799   0.013   6.993
 3933SOL    HW212699   1.685   6.928   0.021
 3934SOL     OW12700   0.337   0.990   1.959
 3934SOL    HW112701   0.354   1.061   2.027
 3934SOL    HW212702   0.415   0.984   1.897
 3935SOL     OW12703   1.702   0.850   5.334
 3935SOL    HW112704   1.696   0.913   5.256
 3935SOL    HW212705   1.633   0.874   5.402
 3936SOL     OW12706   6.913   6.090   5.145
 3936SOL    HW112707   6.859   6.071   5.063
 3936SOL    HW212708   6.997   6.036   5.143
 3937SOL     OW12709   0.513   6.721   2.723
 3937SOL    HW112710   0.600   6.691   2.761
 3937SOL    HW212711   0.488   6.809   2.765
 3938SOL     OW12712   5.957   2.966   3.560
 3938SOL    HW112713   5.928   2.874   3.585
 3938SOL    HW212714   5.949   3.026   3.640
 3939SOL     OW12715   3.118   1.875   3.169
 3939SOL    HW112716   3.183   1.925   3.226
 3939SOL    HW212717   3.099   1.927   3.086
 3940SOL     OW12718   3.577   4.909   2.223
 3940SOL    HW112719   3.571   4.828   2.164
 3940SOL    HW212720   3.600   4.880   2.316
 3941SOL     OW12721   6.236   0.608   5.085
 3941SOL    HW112722   6.231   0.680   5.016
 3941SOL    HW212723   6.325   0.563   5.079
 3942SOL     OW12724   0.989   6.526   5.628
 3942SOL    HW112725   0.988   6.595   5.556
 3942SOL    HW212726   1.080   6.522   5.669
 3943SOL     OW12727   0.905   3.608   2.569
 3943SOL    HW112728   0.868   3.678   2.630
 3943SOL    HW212729   1.004   3.620   2.561
 3944SOL     OW12730   5.588   4.008   5.514
 3944SOL    HW112731   5.578   3.980   5.609
 3944SOL    HW212732   5.621   3.930   5.460
 3945SOL     OW12733   0.942   2.517   2.625
 3945SOL    HW112734   0.890   2.476   2.550
 3945SOL    HW212735   0.984   2.444   2.679
 3946SOL     OW12736   6.238   4.106   6.022
 3946SOL    HW112737   6.299   4.027   6.035
 3946SOL    HW212738   6.196   4.130   6.109
 3947SOL     OW12739   5.830   5.678   1.343
 3947SOL    HW112740   5.909   5.694   1.402
 3947SOL    HW212741   5.753   5.646   1.398
 3948SOL     OW12742   0.316   4.931   0.629
 3948SOL    HW112743   0.306   5.031   0.624
 3948SOL    HW212744   0.406   4.908   0.667
 3949SOL     OW12745   6.313   6.691   3.149
 3949SOL    HW112746   6.306   6.668   3.052
 3949SOL    HW212747   6.290   6.611   3.204
 3950SOL     OW12748   3.249   4.165   1.382
 3950SOL    HW112749   3.176   4.099   1.403
 3950SOL    HW212750   3.295   4.138   1.297
 3951SOL     OW12751   0.458   0.667   0.012
 3951SOL    HW112752   0.558   0.669   0.017
 3951SOL    HW212753   0.429   0.703   6.944
 3952SOL     OW12754   6.051   3.281   4.932
 3952SOL    HW112755   5.992   3.322   4.862
 3952SOL    HW212756   6.116   3.350   4.965
 3953SOL     OW12757   3.264   4.548   0.320
 3953SOL    HW112758   3.242   4.501   0.235
 3953SOL    HW212759   3.299   4.482   0.386
 3954SOL     OW12760   5.720   5.579   5.400
 3954SOL    HW112761   5.818   5.585   5.380
 3954SOL    HW212762   5.672   5.541   5.321
 3955SOL     OW12763   4.753   6.639   0.051
 3955SOL    HW112764   4.679   6.582   0.087
 3955SOL    HW212765   4.778   6.708   0.119
 3956SOL     OW12766   1.338   1.732   4.247
 3956SOL    HW112767   1.424   1.731   4.196
 3956SOL    HW212768   1.262   1.713   4.185
 3957SOL     OW12769   4.321   6.771   3.487
 3957SOL    HW112770   4.241   6.826   3.511
 3957SOL    HW212771   4.357   6.803   3.399
 3958SOL     OW12772   5.743   0.523   5.985
 3958SOL    HW112773   5.807   0.545   6.059
 3958SOL    HW212774   5.652   0.555   6.009
 3959SOL     OW12775   3.471   6.651   0.680
 3959SOL    HW112776   3.531   6.730   0.699
 3959SOL    HW212777   3.473   6.589   0.758
 3960SOL     OW12778   5.882   1.716   6.172
 3960SOL    HW112779   5.961   1.776   6.157
 3960SOL    HW212780   5.855   1.722   6.269
 3961SOL     OW12781   5.508   2.894   2.176
 3961SOL    HW112782   5.491   2.958   2.250
 3961SOL    HW212783   5.470   2.804   2.201
 3962SOL     OW12784   1.630   5.836   6.571
 3962SOL    HW112785   1.559   5.773   6.541
 3962SOL    HW212786   1.712   5.823   6.515
 3963SOL     OW12787   4.813   4.840   3.947
 3963SOL    HW112788   4.782   4.877   3.860
 3963SOL    HW212789   4.775   4.749   3.961
 3964SOL     OW12790   4.128   4.785   5.046
 3964SOL    HW112791   4.118   4.836   4.960
 3964SOL    HW212792   4.169   4.696   5.027
 3965SOL     OW12793   4.092   3.729   6.504
 3965SOL    HW112794   4.093   3.828   6.520
 3965SOL    HW212795   4.186   3.695   6.501
 3966SOL     OW12796   0.020   4.886   6.693
 3966SOL    HW112797   0.031   4.799   6.740
 3966SOL    HW212798   6.986   4.948   6.748
 3967SOL     OW12799   1.368   4.714   2.731
 3967SOL    HW112800   1.318   4.633   2.761
 3967SOL    HW212801   1.447   4.729   2.791
 3968SOL     OW12802   6.496   0.622   1.012
 3968SOL    HW112803   6.472   0.530   0.981
 3968SOL    HW212804   6.594   0.626   1.031
 3969SOL     OW12805   0.533   3.911   3.184
 3969SOL    HW112806   0.520   3.932   3.087
 3969SOL    HW212807   0.566   3.993   3.232
 3970SOL     OW12808   4.579   5.073   4.075
 3970SOL    HW112809   4.500   5.096   4.132
 3970SOL    HW212810   4.621   4.988   4.107
 3971SOL     OW12811   2.323   4.914   2.430
 3971SOL    HW112812   2.290   4.822   2.411
 3971SOL    HW212813   2.332   4.926   2.529
 3972SOL     OW12814   1.934   5.357   1.741
 3972SOL    HW112815   1.932   5.285   1.810
 3972SOL    HW212816   2.026   5.363   1.701
 3973SOL     OW12817   2.491   4.132   5.548
 3973SOL    HW112818   2.450   4.180   5.625
 3973SOL    HW212819   2.420   4.090   5.493
 3974SOL     OW12820   2.007   1.033   5.855
 3974SOL    HW112821   2.105   1.039   5.836
 3974SOL    HW212822   1.993   1.015   5.953
 3975SOL     OW12823   6.039   0.383   6.426
 3975SOL    HW112824   5.954   0.348   6.465
 3975SOL    HW212825   6.094   0.425   6.498
 3976SOL     OW12826   2.209   4.672   1.239
 3976SOL    HW112827   2.246   4.688   1.147
 3976SOL    HW212828   2.205   4.759   1.289
 3977SOL     OW12829   2.918   4.732   5.804
 3977SOL    HW112830   2.908   4.749   5.706
 3977SOL    HW212831   2.984   4.658   5.818
 3978SOL     OW12832   5.759   0.599   4.333
 3978SOL    HW112833   5.667   0.564   4.318
 3978SOL    HW212834   5.796   0.562   4.418
 3979SOL     OW12835   2.383   6.235   1.565
 3979SOL    HW112836   2.470   6.185   1.573
 3979SOL    HW212837   2.353   6.234   1.470
 3980SOL     OW12838   6.919   4.174   6.181
 3980SOL    HW112839   6.873   4.085   6.184
 3980SOL    HW212840   6.960   4.193   6.270
 3981SOL     OW12841   1.963   1.671   6.882
 3981SOL    HW112842   1.879   1.713   6.848
 3981SOL    HW212843   1.996   1.604   6.815
 3982SOL     OW12844   2.174   0.735   4.281
 3982SOL    HW112845   2.142   0.829   4.267
 3982SOL    HW212846   2.274   0.733   4.274
 3983SOL     OW12847   3.762   5.994   4.260
 3983SOL    HW112848   3.848   5.971   4.305
 3983SOL    HW212849   3.779   6.059   4.186
 3984SOL     OW12850   1.779   0.351   2.710
 3984SOL    HW112851   1.739   0.280   2.768
 3984SOL    HW212852   1.817   0.310   2.628
 3985SOL     OW12853   2.514   4.494   0.050
 3985SOL    HW112854   2.548   4.401   0.057
 3985SOL    HW212855   2.493   4.529   0.142
 3986SOL     OW12856   7.015   2.152   3.241
 3986SOL    HW112857   7.010   2.210   3.160
 3986SOL    HW212858   0.055   2.075   3.224
 3987SOL     OW12859   2.121   6.072   4.658
 3987SOL    HW112860   2.193   6.139   4.678
 3987SOL    HW212861   2.048   6.082   4.726
 3988SOL     OW12862   3.750   2.846   5.784
 3988SOL    HW112863   3.692   2.788   5.727
 3988SOL    HW212864   3.827   2.792   5.819
 3989SOL     OW12865   6.264   1.643   0.129
 3989SOL    HW112866   6.225   1.632   0.220
 3989SOL    HW212867   6.323   1.564   0.108
 3990SOL     OW12868   5.784   1.597   4.001
 3990SOL    HW112869   5.867   1.608   4.055
 3990SOL    HW212870   5.798   1.526   3.932
 3991SOL     OW12871   6.043   1.645   1.893
 3991SOL    HW112872   6.053   1.669   1.989
 3991SOL    HW212873   5.995   1.718   1.844
 3992SOL     OW12874   3.899   2.369   6.222
 3992SOL    HW112875   3.930   2.374   6.317
 3992SOL    HW212876   3.927   2.452   6.173
 3993SOL     OW12877   1.151   1.890   3.233
 3993SOL    HW112878   1.219   1.820   3.214
 3993SOL    HW212879   1.187   1.953   3.301
 3994SOL     OW12880   1.551   2.792   5.890
 3994SOL    HW112881   1.571   2.697   5.867
 3994SOL    HW212882   1.619   2.826   5.955
 3995SOL     OW12883   2.168   3.764   4.343
 3995SOL    HW112884   2.212   3.831   4.403
 3995SOL    HW212885   2.164   3.676   4.390
 3996SOL     OW12886   1.283   0.704   4.562
 3996SOL    HW112887   1.341   0.736   4.637
 3996SOL    HW212888   1.282   0.773   4.489
 3997SOL     OW12889   4.789   3.002   2.802
 3997SOL    HW112890   4.816   2.945   2.880
 3997SOL    HW212891   4.813   3.097   2.820
 3998SOL     OW12892   4.552   1.565   2.607
 3998SOL    HW112893   4.532   1.492   2.672
 3998SOL    HW212894   4.536   1.654   2.652
 3999SOL     OW12895   5.218   3.466   3.255
 3999SOL    HW112896   5.294   3.401   3.260
 3999SOL    HW212897   5.249   3.557   3.283
 4000SOL     OW12898   3.460   5.827   3.013
 4000SOL    HW112899   3.458   5.766   3.092
 4000SOL    HW212900   3.367   5.838   2.977
 4001SOL     OW12901   1.371   2.605   4.119
 4001SOL    HW112902   1.348   2.631   4.213
 4001SOL    HW212903   1.465   2.570   4.117
 4002SOL     OW12904   2.631   2.987   0.182
 4002SOL    HW112905   2.662   2.910   0.127
 4002SOL    HW212906   2.609   2.956   0.275
 4003SOL     OW12907   2.511   6.991   5.655
 4003SOL    HW112908   2.547   0.005   5.742
 4003SOL    HW212909   2.456   0.041   5.611
 4004SOL     OW12910   6.197   2.408   4.007
 4004SOL    HW112911   6.235   2.318   4.030
 4004SOL    HW212912   6.260   2.456   3.946
 4005SOL     OW12913   5.000   5.293   1.173
 4005SOL    HW112914   5.099   5.302   1.180
 4005SOL    HW212915   4.956   5.376   1.208
 4006SOL     OW12916   4.258   4.694   1.683
 4006SOL    HW112917   4.292   4.610   1.725
 4006SOL    HW212918   4.322   4.725   1.613
 4007SOL     OW12919   0.745   3.318   1.697
 4007SOL    HW112920   0.664   3.294   1.750
 4007SOL    HW212921   0.771   3.241   1.640
 4008SOL     OW12922   3.663   1.708   4.696
 4008SOL    HW112923   3.645   1.779   4.628
 4008SOL    HW212924   3.677   1.751   4.786
 4009SOL     OW12925   4.875   3.061   0.488
 4009SOL    HW112926   4.865   3.002   0.569
 4009SOL    HW212927   4.969   3.056   0.455
 4010SOL     OW12928   2.315   4.030   0.864
 4010SOL    HW112929   2.241   4.060   0.923
 4010SOL    HW212930   2.398   4.015   0.918
 4011SOL     OW12931   1.059   0.178   1.841
 4011SOL    HW112932   1.096   0.149   1.929
 4011SOL    HW212933   1.042   0.277   1.843
 4012SOL     OW12934   4.450   4.720   1.244
 4012SOL    HW112935   4.481   4.625   1.242
 4012SOL    HW212936   4.451   4.757   1.151
 4013SOL     OW12937   2.747   0.289   0.928
 4013SOL    HW112938   2.792   0.200   0.922
 4013SOL    HW212939   2.807   0.354   0.975
 4014SOL     OW12940   4.041   5.667   3.686
 4014SOL    HW112941   3.970   5.607   3.722
 4014SOL    HW212942   4.111   5.682   3.756
 4015SOL     OW12943   3.859   5.441   5.758
 4015SOL    HW112944   3.813   5.474   5.840
 4015SOL    HW212945   3.825   5.349   5.736
 4016SOL     OW12946   1.191   5.449   6.682
 4016SOL    HW112947   1.171   5.504   6.601
 4016SOL    HW212948   1.258   5.497   6.739
 4017SOL     OW12949   6.977   6.817   0.168
 4017SOL    HW112950   6.921   6.752   0.118
 4017SOL    HW212951   6.985   6.787   0.264
 4018SOL     OW12952   5.765   6.388   1.794
 4018SOL    HW112953   5.724   6.298   1.779
 4018SOL    HW212954   5.721   6.432   1.872
 4019SOL     OW12955   5.843   3.520   2.188
 4019SOL    HW112956   5.857   3.433   2.140
 4019SOL    HW212957   5.833   3.504   2.286
 4020SOL     OW12958   6.212   2.190   5.618
 4020SOL    HW112959   6.268   2.114   5.651
 4020SOL    HW212960   6.145   2.215   5.687
 4021SOL     OW12961   3.166   3.822   5.917
 4021SOL    HW112962   3.237   3.752   5.913
 4021SOL    HW212963   3.082   3.787   5.876
 4022SOL     OW12964   4.172   0.239   6.983
 4022SOL    HW112965   4.195   0.142   6.979
 4022SOL    HW212966   4.230   0.290   6.919
 4023SOL     OW12967   6.768   0.659   3.905
 4023SOL    HW112968   6.805   0.649   3.812
 4023SOL    HW212969   6.670   0.681   3.899
 4024SOL     OW12970   2.566   5.003   4.546
 4024SOL    HW112971   2.647   5.007   4.604
 4024SOL    HW212972   2.588   4.952   4.463
 4025SOL     OW12973   0.463   5.986   5.397
 4025SOL    HW112974   0.557   5.963   5.425
 4025SOL    HW212975   0.457   5.984   5.297
 4026SOL     OW12976   6.475   0.049   3.569
 4026SOL    HW112977   6.464   6.977   3.534
 4026SOL    HW212978   6.528   0.046   3.654
 4027SOL     OW12979   3.064   3.259   1.188
 4027SOL    HW112980   2.987   3.227   1.133
 4027SOL    HW212981   3.129   3.308   1.130
 4028SOL     OW12982   2.465   2.546   2.751
 4028SOL    HW112983   2.491   2.634   2.791
 4028SOL    HW212984   2.457   2.478   2.825
 4029SOL     OW12985   2.860   4.332   6.507
 4029SOL    HW112986   2.923   4.256   6.489
 4029SOL    HW212987   2.893   4.385   6.585
 4030SOL     OW12988   0.867   1.975   0.360
 4030SOL    HW112989   0.912   1.958   0.272
 4030SOL    HW212990   0.933   2.014   0.424
 4031SOL     OW12991   5.009   6.647   3.176
 4031SOL    HW112992   5.076   6.708   3.218
 4031SOL    HW212993   4.941   6.620   3.245
 4032SOL     OW12994   6.539   0.281   2.172
 4032SOL    HW112995   6.555   0.262   2.075
 4032SOL    HW212996   6.457   0.337   2.181
 4033SOL     OW12997   2.839   3.479   2.265
 4033SOL    HW112998   2.790   3.561   2.235
 4033SOL    HW212999   2.846   3.415   2.189
 4034SOL     OW13000   6.810   1.619   5.047
 4034SOL    HW113001   6.823   1.610   4.948
 4034SOL    HW213002   6.812   1.528   5.089
 4035SOL     OW13003   6.747   2.642   0.549
 4035SOL    HW113004   6.681   2.713   0.523
 4035SOL    HW213005   6.807   2.623   0.471
 4036SOL     OW13006   5.130   6.751   2.578
 4036SOL    HW113007   5.034   6.773   2.596
 4036SOL    HW213008   5.188   6.820   2.622
 4037SOL     OW13009   2.203   1.315   0.844
 4037SOL    HW113010   2.172   1.410   0.838
 4037SOL    HW213011   2.214   1.277   0.752
 4038SOL     OW13012   4.418   4.284   1.561
 4038SOL    HW113013   4.351   4.233   1.505
 4038SOL    HW213014   4.406   4.259   1.657
 4039SOL     OW13015   4.688   4.306   1.356
 4039SOL    HW113016   4.643   4.220   1.379
 4039SOL    HW213017   4.674   4.372   1.430
 4040SOL     OW13018   3.233   0.295   5.809
 4040SOL    HW113019   3.215   0.391   5.831
 4040SOL    HW213020   3.206   0.278   5.714
 4041SOL     OW13021   2.253   5.298   1.211
 4041SOL    HW113022   2.311   5.317   1.131
 4041SOL    HW213023   2.196   5.377   1.230
 4042SOL     OW13024   6.463   5.496   2.569
 4042SOL    HW113025   6.494   5.442   2.490
 4042SOL    HW213026   6.531   5.489   2.642
 4043SOL     OW13027   5.081   2.567   4.536
 4043SOL    HW113028   5.102   2.665   4.536
 4043SOL    HW213029   5.032   2.543   4.620
 4044SOL     OW13030   4.598   0.471   3.699
 4044SOL    HW113031   4.542   0.520   3.766
 4044SOL    HW213032   4.591   0.372   3.715
 4045SOL     OW13033   2.510   4.810   6.279
 4045SOL    HW113034   2.492   4.788   6.183
 4045SOL    HW213035   2.595   4.862   6.286
 4046SOL     OW13036   0.494   1.379   3.873
 4046SOL    HW113037   0.485   1.290   3.828
 4046SOL    HW213038   0.403   1.413   3.897
 4047SOL     OW13039   2.155   2.409   0.861
 4047SOL    HW113040   2.080   2.387   0.923
 4047SOL    HW213041   2.202   2.324   0.834
 4048SOL     OW13042   5.286   2.165   2.371
 4048SOL    HW113043   5.314   2.142   2.278
 4048SOL    HW213044   5.366   2.160   2.432
 4049SOL     OW13045   6.568   6.008   6.817
 4049SOL    HW113046   6.615   5.981   6.733
 4049SOL    HW213047   6.487   5.952   6.829
 4050SOL     OW13048   1.553   6.452   0.765
 4050SOL    HW113049   1.644   6.450   0.723
 4050SOL    HW213050   1.507   6.537   0.741
 4051SOL     OW13051   4.027   2.656   0.259
 4051SOL    HW113052   3.954   2.711   0.218
 4051SOL    HW213053   4.028   2.672   0.358
 4052SOL     OW13054   0.200   0.331   2.229
 4052SOL    HW113055   0.175   0.305   2.136
 4052SOL    HW213056   0.238   0.252   2.276
 4053SOL     OW13057   3.023   5.249   4.080
 4053SOL    HW113058   3.006   5.214   4.172
 4053SOL    HW213059   3.069   5.337   4.086
 4054SOL     OW13060   0.386   3.082   1.826
 4054SOL    HW113061   0.312   3.121   1.772
 4054SOL    HW213062   0.413   2.994   1.786
 4055SOL     OW13063   3.826   3.451   6.216
 4055SOL    HW113064   3.739   3.466   6.169
 4055SOL    HW213065   3.839   3.353   6.231
 4056SOL     OW13066   3.584   3.425   0.707
 4056SOL    HW113067   3.652   3.360   0.674
 4056SOL    HW213068   3.493   3.397   0.676
 4057SOL     OW13069   5.505   2.157   1.139
 4057SOL    HW113070   5.434   2.153   1.208
 4057SOL    HW213071   5.519   2.066   1.100
 4058SOL     OW13072   1.819   0.566   4.156
 4058SOL    HW113073   1.774   0.499   4.096
 4058SOL    HW213074   1.789   0.658   4.132
 4059SOL     OW13075   1.178   2.927   3.650
 4059SOL    HW113076   1.149   2.914   3.745
 4059SOL    HW213077   1.194   2.838   3.607
 4060SOL     OW13078   4.712   5.448   4.550
 4060SOL    HW113079   4.735   5.404   4.637
 4060SOL    HW213080   4.735   5.545   4.555
 4061SOL     OW13081   3.313   4.914   1.601
 4061SOL    HW113082   3.319   5.013   1.583
 4061SOL    HW213083   3.317   4.897   1.699
 4062SOL     OW13084   2.931   1.435   2.945
 4062SOL    HW113085   2.952   1.532   2.936
 4062SOL    HW213086   2.896   1.400   2.858
 4063SOL     OW13087   5.905   6.601   5.036
 4063SOL    HW113088   5.829   6.545   5.005
 4063SOL    HW213089   5.876   6.696   5.045
 4064SOL     OW13090   1.805   6.454   3.609
 4064SOL    HW113091   1.785   6.537   3.661
 4064SOL    HW213092   1.768   6.463   3.517
 4065SOL     OW13093   0.442   6.528   0.522
 4065SOL    HW113094   0.385   6.603   0.555
 4065SOL    HW213095   0.535   6.539   0.555
 4066SOL     OW13096   5.080   5.331   2.899
 4066SOL    HW113097   5.056   5.393   2.824
 4066SOL    HW213098   5.005   5.267   2.914
 4067SOL     OW13099   5.719   2.936   2.395
 4067SOL    HW113100   5.738   2.874   2.471
 4067SOL    HW213101   5.730   2.888   2.308
 4068SOL     OW13102   3.070   0.767   4.312
 4068SOL    HW113103   3.159   0.798   4.281
 4068SOL    HW213104   3.062   0.779   4.411
 4069SOL     OW13105   4.037   4.622   6.146
 4069SOL    HW113106   3.984   4.597   6.227
 4069SOL    HW213107   4.033   4.548   6.079
 4070SOL     OW13108   0.537   3.655   2.065
 4070SOL    HW113109   0.501   3.563   2.080
 4070SOL    HW213110   0.464   3.714   2.031
 4071SOL     OW13111   1.398   0.627   5.121
 4071SOL    HW113112   1.375   0.538   5.082
 4071SOL    HW213113   1.410   0.618   5.220
 4072SOL     OW13114   1.069   6.067   4.422
 4072SOL    HW113115   1.066   6.167   4.427
 4072SOL    HW213116   1.053   6.038   4.328
 4073SOL     OW13117   2.243   5.598   6.189
 4073SOL    HW113118   2.158   5.545   6.190
 4073SOL    HW213119   2.288   5.588   6.101
 4074SOL     OW13120   1.329   3.105   2.021
 4074SOL    HW113121   1.254   3.117   2.087
 4074SOL    HW213122   1.298   3.134   1.931
 4075SOL     OW13123   3.843   2.063   2.409
 4075SOL    HW113124   3.751   2.065   2.369
 4075SOL    HW213125   3.909   2.099   2.343
 4076SOL     OW13126   2.450   3.571   5.626
 4076SOL    HW113127   2.482   3.505   5.558
 4076SOL    HW213128   2.504   3.655   5.619
 4077SOL     OW13129   3.509   6.596   0.279
 4077SOL    HW113130   3.472   6.653   0.205
 4077SOL    HW213131   3.496   6.499   0.256
 4078SOL     OW13132   6.576   5.075   1.858
 4078SOL    HW113133   6.579   5.147   1.928
 4078SOL    HW213134   6.493   5.021   1.870
 4079SOL     OW13135   0.511   2.014   3.384
 4079SOL    HW113136   0.431   2.060   3.346
 4079SOL    HW213137   0.482   1.948   3.453
 4080SOL     OW13138   2.654   3.372   0.604
 4080SOL    HW113139   2.577   3.358   0.543
 4080SOL    HW213140   2.685   3.284   0.640
 4081SOL     OW13141   1.471   1.897   3.714
 4081SOL    HW113142   1.436   1.928   3.626
 4081SOL    HW213143   1.499   1.801   3.707
 4082SOL     OW13144   1.473   2.252   0.909
 4082SOL    HW113145   1.507   2.268   0.816
 4082SOL    HW213146   1.415   2.328   0.937
 4083SOL     OW13147   6.058   4.411   2.711
 4083SOL    HW113148   6.088   4.349   2.784
 4083SOL    HW213149   6.022   4.358   2.635
 4084SOL     OW13150   4.677   2.232   3.352
 4084SOL    HW113151   4.659   2.136   3.329
 4084SOL    HW213152   4.755   2.237   3.413
 4085SOL     OW13153   2.641   5.707   0.907
 4085SOL    HW113154   2.574   5.683   0.837
 4085SOL    HW213155   2.607   5.783   0.962
 4086SOL     OW13156   6.952   4.885   1.039
 4086SOL    HW113157   6.971   4.946   0.962
 4086SOL    HW213158   0.011   4.828   1.057
 4087SOL     OW13159   1.882   1.631   2.796
 4087SOL    HW113160   1.881   1.593   2.889
 4087SOL    HW213161   1.938   1.714   2.795
 4088SOL     OW13162   6.488   0.982   6.560
 4088SOL    HW113163   6.404   1.000   6.508
 4088SOL    HW213164   6.566   1.022   6.512
 4089SOL     OW13165   6.290   4.427   4.400
 4089SOL    HW113166   6.207   4.414   4.346
 4089SOL    HW213167   6.363   4.462   4.340
 4090SOL     OW13168   1.922   5.633   5.514
 4090SOL    HW113169   1.980   5.686   5.451
 4090SOL    HW213170   1.858   5.577   5.461
 4091SOL     OW13171   0.522   6.060   0.299
 4091SOL    HW113172   0.527   5.964   0.325
 4091SOL    HW213173   0.452   6.106   0.354
 4092SOL     OW13174   5.585   2.727   3.585
 4092SOL    HW113175   5.592   2.628   3.579
 4092SOL    HW213176   5.492   2.753   3.610
 4093SOL     OW13177   5.414   6.322   1.575
 4093SOL    HW113178   5.490   6.279   1.625
 4093SOL    HW213179   5.372   6.255   1.515
 4094SOL     OW13180   1.329   4.632   6.181
 4094SOL    HW113181   1.309   4.553   6.238
 4094SOL    HW213182   1.282   4.712   6.219
 4095SOL     OW13183   0.204   3.796   0.396
 4095SOL    HW113184   0.148   3.791   0.313
 4095SOL    HW213185   0.245   3.707   0.414
 4096SOL     OW13186   4.022   0.588   6.657
 4096SOL    HW113187   4.100   0.573   6.718
 4096SOL    HW213188   4.006   0.506   6.603
 4097SOL     OW13189   4.954   4.640   4.515
 4097SOL    HW113190   4.864   4.633   4.471
 4097SOL    HW213191   4.966   4.564   4.579
 4098SOL     OW13192   0.899   2.449   1.416
 4098SOL    HW113193   0.803   2.466   1.436
 4098SOL    HW213194   0.908   2.372   1.354
 4099SOL     OW13195   4.039   5.236   0.882
 4099SOL    HW113196   3.955   5.182   0.885
 4099SOL    HW213197   4.030   5.317   0.939
 4100SOL     OW13198   0.749   0.049   4.376
 4100SOL    HW113199   0.759   0.042   4.475
 4100SOL    HW213200   0.749   6.979   4.336
 4101SOL     OW13201   0.696   1.114   0.157
 4101SOL    HW113202   0.693   1.056   0.075
 4101SOL    HW213203   0.660   1.064   0.235
 4102SOL     OW13204   1.959   0.604   1.072
 4102SOL    HW113205   2.058   0.602   1.057
 4102SOL    HW213206   1.915   0.541   1.008
 4103SOL     OW13207   0.897   6.979   1.798
 4103SOL    HW113208   0.812   6.991   1.746
 4103SOL    HW213209   0.943   0.046   1.806
 4104SOL     OW13210   0.139   4.697   3.262
 4104SOL    HW113211   0.209   4.642   3.216
 4104SOL    HW213212   0.119   4.657   3.352
 4105SOL     OW13213   5.974   0.226   2.693
 4105SOL    HW113214   5.894   0.284   2.710
 4105SOL    HW213215   6.046   0.249   2.758
 4106SOL     OW13216   0.019   3.126   3.578
 4106SOL    HW113217   6.943   3.151   3.579
 4106SOL    HW213218   0.049   3.104   3.671
 4107SOL     OW13219   1.034   6.004   0.358
 4107SOL    HW113220   0.991   5.921   0.322
 4107SOL    HW213221   0.965   6.076   0.367
 4108SOL     OW13222   6.412   4.988   4.339
 4108SOL    HW113223   6.471   4.913   4.370
 4108SOL    HW213224   6.442   5.018   4.248
 4109SOL     OW13225   6.620   6.847   4.778
 4109SOL    HW113226   6.576   6.891   4.700
 4109SOL    HW213227   6.598   6.896   4.862
 4110SOL     OW13228   4.202   3.807   6.189
 4110SOL    HW113229   4.176   3.714   6.214
 4110SOL    HW213230   4.235   3.809   6.095
 4111SOL     OW13231   5.653   4.927   6.289
 4111SOL    HW113232   5.683   4.882   6.205
 4111SOL    HW213233   5.556   4.908   6.305
 4112SOL     OW13234   4.948   6.080   4.597
 4112SOL    HW113235   4.945   6.180   4.592
 4112SOL    HW213236   4.859   6.043   4.571
 4113SOL     OW13237   5.500   5.449   4.832
 4113SOL    HW113238   5.468   5.540   4.856
 4113SOL    HW213239   5.563   5.455   4.755
 4114SOL     OW13240   4.588   2.350   3.892
 4114SOL    HW113241   4.546   2.351   3.802
 4114SOL    HW213242   4.535   2.407   3.954
 4115SOL     OW13243   3.219   4.867   2.708
 4115SOL    HW113244   3.160   4.842   2.631
 4115SOL    HW213245   3.167   4.857   2.794
 4116SOL     OW13246   4.189   1.762   3.329
 4116SOL    HW113247   4.172   1.787   3.234
 4116SOL    HW213248   4.258   1.823   3.368
 4117SOL     OW13249   1.224   3.386   2.615
 4117SOL    HW113250   1.140   3.338   2.639
 4117SOL    HW213251   1.214   3.484   2.636
 4118SOL     OW13252   5.390   6.633   0.166
 4118SOL    HW113253   5.299   6.671   0.149
 4118SOL    HW213254   5.393   6.538   0.134
 4119SOL     OW13255   2.934   1.499   3.950
 4119SOL    HW113256   2.906   1.554   4.029
 4119SOL    HW213257   2.976   1.414   3.982
 4120SOL     OW13258   2.925   1.111   6.097
 4120SOL    HW113259   2.830   1.080   6.104
 4120SOL    HW213260   2.933   1.171   6.017
 4121SOL     OW13261   6.549   0.123   3.910
 4121SOL    HW113262   6.593   0.074   3.986
 4121SOL    HW213263   6.613   0.129   3.834
 4122SOL     OW13264   1.512   6.521   4.453
 4122SOL    HW113265   1.609   6.519   4.476
 4122SOL    HW213266   1.502   6.537   4.354
 4123SOL     OW13267   4.093   4.586   5.392
 4123SOL    HW113268   4.070   4.511   5.454
 4123SOL    HW213269   4.014   4.647   5.382
 4124SOL     OW13270   6.492   6.263   0.401
 4124SOL    HW113271   6.428   6.218   0.339
 4124SOL    HW213272   6.441   6.317   0.468
 4125SOL     OW13273   4.248   2.193   3.001
 4125SOL    HW113274   4.329   2.248   2.977
 4125SOL    HW213275   4.277   2.111   3.051
 4126SOL     OW13276   1.577   3.411   3.406
 4126SOL    HW113277   1.598   3.465   3.488
 4126SOL    HW213278   1.660   3.400   3.351
 4127SOL     OW13279   5.692   3.415   5.088
 4127SOL    HW113280   5.673   3.364   5.005
 4127SOL    HW213281   5.616   3.478   5.107
 4128SOL     OW13282   1.099   3.345   1.109
 4128SOL    HW113283   1.036   3.400   1.055
 4128SOL    HW213284   1.180   3.400   1.132
 4129SOL     OW13285   3.184   0.801   6.970
 4129SOL    HW113286   3.199   0.759   6.881
 4129SOL    HW213287   3.184   0.731   0.020
 4130SOL     OW13288   6.547   2.839   0.522
 4130SOL    HW113289   6.572   2.929   0.558
 4130SOL    HW213290   6.449   2.825   0.532
 4131SOL     OW13291   0.246   1.450   3.126
 4131SOL    HW113292   0.298   1.536   3.118
 4131SOL    HW213293   0.296   1.387   3.185
 4132SOL     OW13294   4.904   4.222   3.474
 4132SOL    HW113295   4.883   4.128   3.448
 4132SOL    HW213296   4.819   4.274   3.484
 4133SOL     OW13297   3.492   5.933   1.801
 4133SOL    HW113298   3.572   5.964   1.750
 4133SOL    HW213299   3.416   5.997   1.788
 4134SOL     OW13300   1.858   4.092   1.050
 4134SOL    HW113301   1.931   4.155   1.022
 4134SOL    HW213302   1.865   4.076   1.148
 4135SOL     OW13303   0.559   2.274   2.164
 4135SOL    HW113304   0.498   2.201   2.136
 4135SOL    HW213305   0.506   2.350   2.201
 4136SOL     OW13306   1.661   3.684   3.149
 4136SOL    HW113307   1.743   3.736   3.126
 4136SOL    HW213308   1.670   3.590   3.114
 4137SOL     OW13309   1.404   3.243   1.271
 4137SOL    HW113310   1.454   3.329   1.279
 4137SOL    HW213311   1.307   3.258   1.289
 4138SOL     OW13312   4.242   5.533   2.521
 4138SOL    HW113313   4.339   5.510   2.510
 4138SOL    HW213314   4.211   5.583   2.440
 4139SOL     OW13315   1.328   1.070   5.368
 4139SOL    HW113316   1.361   1.130   5.294
 4139SOL    HW213317   1.228   1.074   5.371
 4140SOL     OW13318   3.343   1.005   5.191
 4140SOL    HW113319   3.395   1.027   5.109
 4140SOL    HW213320   3.272   1.075   5.206
 4141SOL     OW13321   5.330   6.145   1.400
 4141SOL    HW113322   5.409   6.088   1.423
 4141SOL    HW213323   5.251   6.087   1.380
 4142SOL     OW13324   6.699   4.958   0.713
 4142SOL    HW113325   6.727   5.019   0.787
 4142SOL    HW213326   6.643   4.884   0.749
 4143SOL     OW13327   5.424   3.016   1.329
 4143SOL    HW113328   5.359   3.028   1.404
 4143SOL    HW213329   5.507   3.068   1.349
 4144SOL     OW13330   4.990   1.675   0.394
 4144SOL    HW113331   4.956   1.652   0.486
 4144SOL    HW213332   5.060   1.746   0.402
 4145SOL     OW13333   0.180   6.599   1.498
 4145SOL    HW113334   0.224   6.532   1.438
 4145SOL    HW213335   0.186   6.690   1.458
 4146SOL     OW13336   6.231   0.208   3.589
 4146SOL    HW113337   6.317   0.159   3.599
 4146SOL    HW213338   6.220   0.238   3.494
 4147SOL     OW13339   3.952   4.866   6.044
 4147SOL    HW113340   4.015   4.818   6.106
 4147SOL    HW213341   3.903   4.799   5.988
 4148SOL     OW13342   2.593   0.334   4.601
 4148SOL    HW113343   2.603   0.235   4.608
 4148SOL    HW213344   2.677   0.373   4.563
 4149SOL     OW13345   0.211   4.498   1.112
 4149SOL    HW113346   0.203   4.490   1.212
 4149SOL    HW213347   0.209   4.595   1.086
 4150SOL     OW13348   1.021   0.959   5.705
 4150SOL    HW113349   1.081   1.034   5.677
 4150SOL    HW213350   0.991   0.908   5.624
 4151SOL     OW13351   2.716   6.161   5.717
 4151SOL    HW113352   2.747   6.199   5.804
 4151SOL    HW213353   2.692   6.065   5.729
 4152SOL     OW13354   4.115   5.826   1.830
 4152SOL    HW113355   4.201   5.839   1.780
 4152SOL    HW213356   4.118   5.878   1.916
 4153SOL     OW13357   5.770   5.255   1.126
 4153SOL    HW113358   5.831   5.285   1.199
 4153SOL    HW213359   5.698   5.196   1.164
 4154SOL     OW13360   6.850   5.056   4.135
 4154SOL    HW113361   6.906   5.135   4.111
 4154SOL    HW213362   6.780   5.084   4.201
 4155SOL     OW13363   0.105   0.839   1.279
 4155SOL    HW113364   0.035   0.882   1.336
 4155SOL    HW213365   0.194   0.878   1.301
 4156SOL     OW13366   5.984   5.866   5.118
 4156SOL    HW113367   5.922   5.803   5.072
 4156SOL    HW213368   5.985   5.954   5.070
 4157SOL     OW13369   5.400   5.828   4.516
 4157SOL    HW113370   5.431   5.754   4.457
 4157SOL    HW213371   5.427   5.916   4.476
 4158SOL     OW13372   1.142   3.282   2.111
 4158SOL    HW113373   1.072   3.353   2.119
 4158SOL    HW213374   1.170   3.252   2.202
 4159SOL     OW13375   1.690   2.969   3.270
 4159SOL    HW113376   1.676   3.039   3.340
 4159SOL    HW213377   1.630   2.891   3.288
 4160SOL     OW13378   5.296   0.695   0.117
 4160SOL    HW113379   5.349   0.683   0.201
 4160SOL    HW213380   5.354   0.679   0.038
 4161SOL     OW13381   1.226   2.070   0.885
 4161SOL    HW113382   1.133   2.039   0.865
 4161SOL    HW213383   1.223   2.165   0.916
 4162SOL     OW13384   6.396   5.882   0.241
 4162SOL    HW113385   6.432   5.967   0.201
 4162SOL    HW213386   6.320   5.904   0.302
 4163SOL     OW13387   5.383   0.305   3.916
 4163SOL    HW113388   5.305   0.244   3.925
 4163SOL    HW213389   5.351   0.400   3.909
 4164SOL     OW13390   2.012   6.822   5.363
 4164SOL    HW113391   2.076   6.861   5.430
 4164SOL    HW213392   1.920   6.854   5.382
 4165SOL     OW13393   4.632   0.522   5.754
 4165SOL    HW113394   4.639   0.529   5.853
 4165SOL    HW213395   4.648   0.427   5.726
 4166SOL     OW13396   5.549   1.545   0.461
 4166SOL    HW113397   5.571   1.636   0.497
 4166SOL    HW213398   5.597   1.530   0.375
 4167SOL     OW13399   3.019   4.209   6.884
 4167SOL    HW113400   2.958   4.260   6.944
 4167SOL    HW213401   3.061   4.134   6.934
 4168SOL     OW13402   0.451   4.239   1.057
 4168SOL    HW113403   0.411   4.315   1.108
 4168SOL    HW213404   0.463   4.266   0.961
 4169SOL     OW13405   5.654   4.933   4.284
 4169SOL    HW113406   5.615   4.991   4.355
 4169SOL    HW213407   5.668   4.986   4.201
 4170SOL     OW13408   4.487   3.174   6.286
 4170SOL    HW113409   4.421   3.113   6.241
 4170SOL    HW213410   4.532   3.126   6.360
 4171SOL     OW13411   6.518   5.669   0.938
 4171SOL    HW113412   6.507   5.616   1.022
 4171SOL    HW213413   6.544   5.607   0.863
 4172SOL     OW13414   1.914   1.848   6.505
 4172SOL    HW113415   2.006   1.867   6.537
 4172SOL    HW213416   1.869   1.934   6.481
 4173SOL     OW13417   5.279   3.802   4.929
 4173SOL    HW113418   5.269   3.766   5.022
 4173SOL    HW213419   5.362   3.764   4.887
 4174SOL     OW13420   4.539   1.105   2.704
 4174SOL    HW113421   4.444   1.133   2.712
 4174SOL    HW213422   4.549   1.040   2.629
 4175SOL     OW13423   2.009   5.270   4.445
 4175SOL    HW113424   2.020   5.368   4.429
 4175SOL    HW213425   2.099   5.227   4.449
 4176SOL     OW13426   4.166   6.460   1.639
 4176SOL    HW113427   4.087   6.462   1.700
 4176SOL    HW213428   4.180   6.367   1.604
 4177SOL     OW13429   5.940   5.128   5.714
 4177SOL    HW113430   5.870   5.083   5.658
 4177SOL    HW213431   5.944   5.085   5.804
 4178SOL     OW13432   4.109   6.620   4.146
 4178SOL    HW113433   4.081   6.524   4.148
 4178SOL    HW213434   4.029   6.679   4.142
 4179SOL     OW13435   5.366   3.427   2.837
 4179SOL    HW113436   5.395   3.342   2.882
 4179SOL    HW213437   5.359   3.412   2.739
 4180SOL     OW13438   3.995   3.737   0.445
 4180SOL    HW113439   3.977   3.834   0.463
 4180SOL    HW213440   3.967   3.714   0.351
 4181SOL     OW13441   3.896   0.942   0.057
 4181SOL    HW113442   3.971   0.885   0.025
 4181SOL    HW213443   3.818   0.934   7.016
 4182SOL     OW13444   0.608   6.337   3.574
 4182SOL    HW113445   0.609   6.240   3.600
 4182SOL    HW213446   0.670   6.352   3.497
 4183SOL     OW13447   2.777   1.458   0.158
 4183SOL    HW113448   2.817   1.513   0.085
 4183SOL    HW213449   2.754   1.518   0.235
 4184SOL     OW13450   3.698   6.586   2.612
 4184SOL    HW113451   3.743   6.498   2.625
 4184SOL    HW213452   3.709   6.616   2.517
 4185SOL     OW13453   0.995   4.883   3.205
 4185SOL    HW113454   0.979   4.791   3.241
 4185SOL    HW213455   1.085   4.915   3.233
 4186SOL     OW13456   2.810   4.978   0.021
 4186SOL    HW113457   2.789   5.050   0.087
 4186SOL    HW213458   2.785   4.889   0.060
 4187SOL     OW13459   3.590   3.455   5.412
 4187SOL    HW113460   3.674   3.505   5.390
 4187SOL    HW213461   3.582   3.444   5.511
 4188SOL     OW13462   5.680   1.095   4.993
 4188SOL    HW113463   5.613   1.097   5.068
 4188SOL    HW213464   5.737   1.014   5.001
 4189SOL     OW13465   3.514   4.938   5.133
 4189SOL    HW113466   3.607   4.929   5.170
 4189SOL    HW213467   3.513   4.906   5.038
 4190SOL     OW13468   0.843   0.453   0.616
 4190SOL    HW113469   0.898   0.494   0.544
 4190SOL    HW213470   0.902   0.420   0.689
 4191SOL     OW13471   4.878   4.479   3.628
 4191SOL    HW113472   4.931   4.528   3.559
 4191SOL    HW213473   4.780   4.497   3.614
 4192SOL     OW13474   0.475   1.086   4.048
 4192SOL    HW113475   0.573   1.099   4.036
 4192SOL    HW213476   0.442   1.021   3.979
 4193SOL     OW13477   6.986   1.154   1.545
 4193SOL    HW113478   6.927   1.231   1.524
 4193SOL    HW213479   6.939   1.069   1.522
 4194SOL     OW13480   6.049   6.957   4.758
 4194SOL    HW113481   6.027   6.915   4.670
 4194SOL    HW213482   6.109   0.015   4.744
 4195SOL     OW13483   3.999   6.475   1.308
 4195SOL    HW113484   3.976   6.404   1.374
 4195SOL    HW213485   3.951   6.559   1.332
 4196SOL     OW13486   6.392   2.210   2.190
 4196SOL    HW113487   6.334   2.261   2.254
 4196SOL    HW213488   6.460   2.157   2.242
 4197SOL     OW13489   4.814   5.431   5.607
 4197SOL    HW113490   4.737   5.451   5.668
 4197SOL    HW213491   4.900   5.435   5.659
 4198SOL     OW13492   6.271   2.024   0.251
 4198SOL    HW113493   6.289   2.107   0.303
 4198SOL    HW213494   6.350   2.002   0.194
 4199SOL     OW13495   1.734   2.172   5.919
 4199SOL    HW113496   1.640   2.169   5.883
 4199SOL    HW213497   1.738   2.235   5.996
 4200SOL     OW13498   3.613   0.696   6.138
 4200SOL    HW113499   3.670   0.715   6.217
 4200SOL    HW213500   3.594   0.598   6.133
 4201SOL     OW13501   6.357   6.925   3.881
 4201SOL    HW113502   6.290   6.916   3.807
 4201SOL    HW213503   6.399   7.016   3.877
 4202SOL     OW13504   3.461   5.786   5.457
 4202SOL    HW113505   3.458   5.689   5.482
 4202SOL    HW213506   3.385   5.807   5.396
 4203SOL     OW13507   3.750   4.950   6.856
 4203SOL    HW113508   3.659   4.918   6.830
 4203SOL    HW213509   3.806   4.962   6.774
 4204SOL     OW13510   4.028   3.678   3.244
 4204SOL    HW113511   4.035   3.738   3.164
 4204SOL    HW213512   3.936   3.637   3.247
 4205SOL     OW13513   4.292   5.725   3.242
 4205SOL    HW113514   4.272   5.685   3.331
 4205SOL    HW213515   4.361   5.670   3.195
 4206SOL     OW13516   6.703   0.581   5.740
 4206SOL    HW113517   6.643   0.660   5.755
 4206SOL    HW213518   6.778   0.609   5.679
 4207SOL     OW13519   1.990   1.796   1.229
 4207SOL    HW113520   2.026   1.796   1.322
 4207SOL    HW213521   2.052   1.845   1.168
 4208SOL     OW13522   6.820   2.941   5.850
 4208SOL    HW113523   6.795   3.029   5.892
 4208SOL    HW213524   6.752   2.919   5.780
 4209SOL     OW13525   0.076   0.293   3.670
 4209SOL    HW113526   0.160   0.244   3.646
 4209SOL    HW213527   0.003   0.268   3.607
 4210SOL     OW13528   3.621   2.871   2.253
 4210SOL    HW113529   3.713   2.832   2.239
 4210SOL    HW213530   3.586   2.903   2.165
 4211SOL     OW13531   4.724   6.330   6.338
 4211SOL    HW113532   4.736   6.308   6.241
 4211SOL    HW213533   4.642   6.284   6.373
 4212SOL     OW13534   6.328   1.798   2.558
 4212SOL    HW113535   6.273   1.735   2.502
 4212SOL    HW213536   6.267   1.859   2.608
 4213SOL     OW13537   1.999   0.532   1.424
 4213SOL    HW113538   1.943   0.596   1.372
 4213SOL    HW213539   2.044   0.467   1.362
 4214SOL     OW13540   0.627   5.305   5.498
 4214SOL    HW113541   0.572   5.247   5.439
 4214SOL    HW213542   0.591   5.399   5.495
 4215SOL     OW13543   5.395   6.910   6.041
 4215SOL    HW113544   5.459   6.987   6.037
 4215SOL    HW213545   5.434   6.832   5.992
 4216SOL     OW13546   1.581   1.626   2.299
 4216SOL    HW113547   1.484   1.604   2.301
 4216SOL    HW213548   1.594   1.724   2.314
 4217SOL     OW13549   0.988   0.200   2.271
 4217SOL    HW113550   0.975   0.238   2.362
 4217SOL    HW213551   0.899   0.187   2.227
 4218SOL     OW13552   4.033   1.241   1.680
 4218SOL    HW113553   4.023   1.198   1.770
 4218SOL    HW213554   4.069   1.173   1.616
 4219SOL     OW13555   3.880   5.473   4.158
 4219SOL    HW113556   3.915   5.555   4.112
 4219SOL    HW213557   3.794   5.445   4.115
 4220SOL     OW13558   5.920   2.776   3.735
 4220SOL    HW113559   5.860   2.820   3.802
 4220SOL    HW213560   6.009   2.757   3.777
 4221SOL     OW13561   5.499   5.321   6.086
 4221SOL    HW113562   5.562   5.279   6.152
 4221SOL    HW213563   5.405   5.311   6.119
 4222SOL     OW13564   0.008   2.224   2.919
 4222SOL    HW113565   0.088   2.208   2.862
 4222SOL    HW213566   6.980   2.304   2.887
 4223SOL     OW13567   3.726   2.990   6.702
 4223SOL    HW113568   3.747   2.894   6.719
 4223SOL    HW213569   3.809   3.044   6.711
 4224SOL     OW13570   5.105   4.065   4.112
 4224SOL    HW113571   5.100   4.040   4.209
 4224SOL    HW213572   5.201   4.079   4.086
 4225SOL     OW13573   3.885   1.287   5.602
 4225SOL    HW113574   3.929   1.368   5.562
 4225SOL    HW213575   3.939   1.255   5.680
 4226SOL     OW13576   0.977   0.504   2.255
 4226SOL    HW113577   0.978   0.414   2.211
 4226SOL    HW213578   1.033   0.501   2.337
 4227SOL     OW13579   3.969   4.858   1.012
 4227SOL    HW113580   4.035   4.859   1.088
 4227SOL    HW213581   3.917   4.943   1.013
 4228SOL     OW13582   0.864   4.211   4.791
 4228SOL    HW113583   0.794   4.229   4.722
 4228SOL    HW213584   0.944   4.171   4.748
 4229SOL     OW13585   5.053   5.410   5.341
 4229SOL    HW113586   5.114   5.373   5.410
 4229SOL    HW213587   4.974   5.453   5.386
 4230SOL     OW13588   1.895   5.873   2.808
 4230SOL    HW113589   1.827   5.940   2.779
 4230SOL    HW213590   1.945   5.908   2.887
 4231SOL     OW13591   5.777   0.315   5.828
 4231SOL    HW113592   5.786   0.376   5.906
 4231SOL    HW213593   5.787   0.220   5.859
 4232SOL     OW13594   0.151   5.074   2.953
 4232SOL    HW113595   0.235   5.123   2.930
 4232SOL    HW213596   0.072   5.125   2.918
 4233SOL     OW13597   0.024   0.653   6.343
 4233SOL    HW113598   0.007   0.573   6.286
 4233SOL    HW213599   0.018   0.736   6.287
 4234SOL     OW13600   2.233   6.617   5.098
 4234SOL    HW113601   2.252   6.520   5.107
 4234SOL    HW213602   2.137   6.635   5.118
 4235SOL     OW13603   5.674   3.620   5.993
 4235SOL    HW113604   5.627   3.561   5.927
 4235SOL    HW213605   5.605   3.669   6.047
 4236SOL     OW13606   6.159   3.994   2.742
 4236SOL    HW113607   6.146   3.896   2.759
 4236SOL    HW213608   6.075   4.032   2.703
 4237SOL     OW13609   5.830   6.142   2.195
 4237SOL    HW113610   5.771   6.087   2.254
 4237SOL    HW213611   5.899   6.084   2.153
 4238SOL     OW13612   2.816   5.957   3.129
 4238SOL    HW113613   2.733   6.012   3.134
 4238SOL    HW213614   2.801   5.879   3.068
 4239SOL     OW13615   6.197   1.917   2.779
 4239SOL    HW113616   6.267   1.987   2.767
 4239SOL    HW213617   6.125   1.952   2.841
 4240SOL     OW13618   2.157   6.473   0.052
 4240SOL    HW113619   2.106   6.517   7.000
 4240SOL    HW213620   2.254   6.469   0.028
 4241SOL     OW13621   6.290   0.836   0.387
 4241SOL    HW113622   6.278   0.764   0.456
 4241SOL    HW213623   6.373   0.818   0.335
 4242SOL     OW13624   3.067   1.269   3.986
 4242SOL    HW113625   3.154   1.290   4.030
 4242SOL    HW213626   3.083   1.208   3.908
 4243SOL     OW13627   6.676   3.013   3.378
 4243SOL    HW113628   6.720   3.006   3.289
 4243SOL    HW213629   6.578   3.033   3.366
 4244SOL     OW13630   4.389   4.022   1.301
 4244SOL    HW113631   4.356   3.928   1.313
 4244SOL    HW213632   4.314   4.086   1.315
 4245SOL     OW13633   0.448   1.240   6.327
 4245SOL    HW113634   0.535   1.206   6.293
 4245SOL    HW213635   0.389   1.264   6.250
 4246SOL     OW13636   6.866   3.902   3.654
 4246SOL    HW113637   6.830   3.938   3.568
 4246SOL    HW213638   6.793   3.895   3.721
 4247SOL     OW13639   2.741   5.507   3.471
 4247SOL    HW113640   2.729   5.562   3.554
 4247SOL    HW213641   2.734   5.566   3.391
 4248SOL     OW13642   2.658   1.734   3.736
 4248SOL    HW113643   2.590   1.723   3.664
 4248SOL    HW213644   2.727   1.662   3.728
 4249SOL     OW13645   5.098   2.720   3.832
 4249SOL    HW113646   5.110   2.670   3.918
 4249SOL    HW213647   5.033   2.670   3.774
 4250SOL     OW13648   6.115   5.314   2.851
 4250SOL    HW113649   6.212   5.337   2.843
 4250SOL    HW213650   6.094   5.289   2.946
 4251SOL     OW13651   5.475   4.452   1.940
 4251SOL    HW113652   5.548   4.489   1.998
 4251SOL    HW213653   5.509   4.371   1.892
 4252SOL     OW13654   5.567   0.133   6.397
 4252SOL    HW113655   5.529   0.064   6.459
 4252SOL    HW213656   5.557   0.223   6.438
 4253SOL     OW13657   3.089   6.994   0.823
 4253SOL    HW113658   3.136   0.058   0.847
 4253SOL    HW213659   3.049   7.003   0.732
 4254SOL     OW13660   1.177   3.777   1.846
 4254SOL    HW113661   1.127   3.798   1.762
 4254SOL    HW213662   1.260   3.725   1.822
 4255SOL     OW13663   6.870   4.113   4.175
 4255SOL    HW113664   6.889   4.033   4.232
 4255SOL    HW213665   6.775   4.142   4.188
 4256SOL     OW13666   1.827   6.465   0.613
 4256SOL    HW113667   1.782   6.438   0.528
 4256SOL    HW213668   1.882   6.389   0.647
 4257SOL     OW13669   2.613   1.020   3.948
 4257SOL    HW113670   2.663   0.935   3.937
 4257SOL    HW213671   2.554   1.014   4.029
 4258SOL     OW13672   4.403   5.636   0.799
 4258SOL    HW113673   4.427   5.551   0.846
 4258SOL    HW213674   4.376   5.616   0.705
 4259SOL     OW13675   2.463   0.736   0.941
 4259SOL    HW113676   2.553   0.734   0.898
 4259SOL    HW213677   2.393   0.726   0.871
 4260SOL     OW13678   5.656   0.035   1.389
 4260SOL    HW113679   5.624   6.983   1.328
 4260SOL    HW213680   5.724   0.091   1.341
 4261SOL     OW13681   2.284   0.006   2.713
 4261SOL    HW113682   2.368   6.976   2.696
 4261SOL    HW213683   2.255   0.052   2.629
 4262SOL     OW13684   0.560   4.595   6.541
 4262SOL    HW113685   0.618   4.662   6.587
 4262SOL    HW213686   0.494   4.642   6.482
 4263SOL     OW13687   3.070   0.376   3.445
 4263SOL    HW113688   3.164   0.385   3.478
 4263SOL    HW213689   3.010   0.437   3.497
 4264SOL     OW13690   6.640   2.228   2.536
 4264SOL    HW113691   6.669   2.213   2.630
 4264SOL    HW213692   6.592   2.147   2.502
 4265SOL     OW13693   4.390   1.782   1.352
 4265SOL    HW113694   4.401   1.878   1.325
 4265SOL    HW213695   4.331   1.735   1.286
 4266SOL     OW13696   2.036   5.253   6.942
 4266SOL    HW113697   2.029   5.167   6.890
 4266SOL    HW213698   1.961   5.314   6.916
 4267SOL     OW13699   1.792   3.188   3.537
 4267SOL    HW113700   1.884   3.150   3.540
 4267SOL    HW213701   1.739   3.152   3.614
 4268SOL     OW13702   1.107   6.276   6.633
 4268SOL    HW113703   1.077   6.186   6.667
 4268SOL    HW213704   1.104   6.342   6.707
 4269SOL     OW13705   2.969   0.552   2.225
 4269SOL    HW113706   2.974   0.563   2.126
 4269SOL    HW213707   2.949   0.457   2.247
 4270SOL     OW13708   4.066   3.298   2.982
 4270SOL    HW113709   4.150   3.267   2.938
 4270SOL    HW213710   4.085   3.321   3.077
 4271SOL     OW13711   6.641   0.931   6.777
 4271SOL    HW113712   6.653   0.995   6.852
 4271SOL    HW213713   6.590   0.975   6.703
 4272SOL     OW13714   6.920   2.305   4.336
 4272SOL    HW113715   6.890   2.228   4.393
 4272SOL    HW213716   6.851   2.378   4.340
 4273SOL     OW13717   4.857   6.820   4.552
 4273SOL    HW113718   4.856   6.908   4.600
 4273SOL    HW213719   4.767   6.801   4.514
 4274SOL     OW13720   1.034   6.305   2.094
 4274SOL    HW113721   0.994   6.246   2.024
 4274SOL    HW213722   1.126   6.333   2.066
 4275SOL     OW13723   6.850   2.099   4.516
 4275SOL    HW113724   6.858   2.002   4.536
 4275SOL    HW213725   6.859   2.152   4.601
 4276SOL     OW13726   1.590   5.119   3.487
 4276SOL    HW113727   1.605   5.070   3.573
 4276SOL    HW213728   1.678   5.140   3.444
 4277SOL     OW13729   6.098   4.765   3.194
 4277SOL    HW113730   6.194   4.776   3.170
 4277SOL    HW213731   6.064   4.679   3.157
 4278SOL     OW13732   6.738   0.241   5.335
 4278SOL    HW113733   6.688   0.313   5.288
 4278SOL    HW213734   6.809   0.205   5.274
 4279SOL     OW13735   3.322   0.789   4.082
 4279SOL    HW113736   3.393   0.740   4.031
 4279SOL    HW213737   3.244   0.806   4.023
 4280SOL     OW13738   4.407   0.632   5.539
 4280SOL    HW113739   4.471   0.637   5.615
 4280SOL    HW213740   4.455   0.655   5.454
 4281SOL     OW13741   6.814   4.733   3.455
 4281SOL    HW113742   6.813   4.813   3.515
 4281SOL    HW213743   6.905   4.690   3.459
 4282SOL     OW13744   3.696   3.935   6.197
 4282SOL    HW113745   3.721   3.993   6.275
 4282SOL    HW213746   3.665   3.846   6.230
 4283SOL     OW13747   1.178   0.434   3.286
 4283SOL    HW113748   1.193   0.408   3.382
 4283SOL    HW213749   1.264   0.464   3.246
 4284SOL     OW13750   3.929   5.038   1.418
 4284SOL    HW113751   3.934   5.091   1.333
 4284SOL    HW213752   4.005   4.973   1.421
 4285SOL     OW13753   1.429   0.231   5.690
 4285SOL    HW113754   1.371   0.312   5.682
 4285SOL    HW213755   1.503   0.249   5.754
 4286SOL     OW13756   4.722   6.338   6.043
 4286SOL    HW113757   4.701   6.436   6.043
 4286SOL    HW213758   4.637   6.286   6.029
 4287SOL     OW13759   6.000   1.604   6.460
 4287SOL    HW113760   5.981   1.511   6.492
 4287SOL    HW213761   6.085   1.604   6.407
 4288SOL     OW13762   0.185   5.638   3.775
 4288SOL    HW113763   0.235   5.615   3.692
 4288SOL    HW213764   0.093   5.668   3.752
 4289SOL     OW13765   6.548   3.051   6.415
 4289SOL    HW113766   6.596   3.071   6.500
 4289SOL    HW213767   6.473   2.987   6.433
 4290SOL     OW13768   1.478   6.613   3.391
 4290SOL    HW113769   1.472   6.626   3.490
 4290SOL    HW213770   1.387   6.598   3.354
 4291SOL     OW13771   4.282   3.748   0.627
 4291SOL    HW113772   4.330   3.661   0.635
 4291SOL    HW213773   4.229   3.749   0.542
 4292SOL     OW13774   5.712   3.235   0.461
 4292SOL    HW113775   5.725   3.226   0.362
 4292SOL    HW213776   5.673   3.325   0.480
 4293SOL     OW13777   2.887   2.545   0.474
 4293SOL    HW113778   2.899   2.550   0.375
 4293SOL    HW213779   2.892   2.636   0.513
 4294SOL     OW13780   1.862   2.101   6.932
 4294SOL    HW113781   1.861   2.178   6.868
 4294SOL    HW213782   1.834   2.133   0.002
 4295SOL     OW13783   3.596   5.973   4.910
 4295SOL    HW113784   3.647   5.887   4.912
 4295SOL    HW213785   3.617   6.023   4.827
 4296SOL     OW13786   2.647   6.911   0.809
 4296SOL    HW113787   2.693   6.828   0.777
 4296SOL    HW213788   2.642   6.977   0.734
 4297SOL     OW13789   4.793   0.523   6.346
 4297SOL    HW113790   4.857   0.553   6.276
 4297SOL    HW213791   4.759   0.432   6.322
 4298SOL     OW13792   4.091   5.055   0.070
 4298SOL    HW113793   3.998   5.018   0.079
 4298SOL    HW213794   4.157   4.981   0.083
 4299SOL     OW13795   1.330   3.290   6.735
 4299SOL    HW113796   1.311   3.196   6.763
 4299SOL    HW213797   1.358   3.290   6.639
 4300SOL     OW13798   3.248   6.614   0.534
 4300SOL    HW113799   3.341   6.636   0.562
 4300SOL    HW213800   3.231   6.516   0.547
 4301SOL     OW13801   3.673   1.426   1.427
 4301SOL    HW113802   3.756   1.433   1.482
 4301SOL    HW213803   3.594   1.415   1.488
 4302SOL     OW13804   1.108   0.089   6.285
 4302SOL    HW113805   1.070   0.089   6.192
 4302SOL    HW213806   1.105   7.017   6.322
 4303SOL     OW13807   0.001   4.236   3.720
 4303SOL    HW113808   6.969   4.163   3.763
 4303SOL    HW213809   0.097   4.210   3.718
 4304SOL     OW13810   3.184   4.100   2.970
 4304SOL    HW113811   3.125   4.029   3.008
 4304SOL    HW213812   3.246   4.134   3.040
 4305SOL     OW13813   6.929   0.468   5.350
 4305SOL    HW113814   6.831   0.486   5.362
 4305SOL    HW213815   6.966   0.427   5.433
 4306SOL     OW13816   5.098   4.642   5.968
 4306SOL    HW113817   5.106   4.581   5.890
 4306SOL    HW213818   5.082   4.736   5.936
 4307SOL     OW13819   5.530   3.866   5.759
 4307SOL    HW113820   5.447   3.888   5.811
 4307SOL    HW213821   5.605   3.923   5.791
 4308SOL     OW13822   6.444   4.857   0.799
 4308SOL    HW113823   6.458   4.766   0.759
 4308SOL    HW213824   6.470   4.856   0.895
 4309SOL     OW13825   1.307   0.911   0.224
 4309SOL    HW113826   1.381   0.978   0.230
 4309SOL    HW213827   1.228   0.953   0.178
 4310SOL     OW13828   1.694   2.603   1.882
 4310SOL    HW113829   1.782   2.647   1.902
 4310SOL    HW213830   1.624   2.674   1.872
 4311SOL     OW13831   2.245   6.021   2.663
 4311SOL    HW113832   2.267   5.957   2.737
 4311SOL    HW213833   2.254   6.115   2.698
 4312SOL     OW13834   2.212   5.468   1.575
 4312SOL    HW113835   2.241   5.512   1.491
 4312SOL    HW213836   2.210   5.536   1.649
 4313SOL     OW13837   4.301   1.452   1.689
 4313SOL    HW113838   4.319   1.396   1.608
 4313SOL    HW213839   4.293   1.548   1.662
 4314SOL     OW13840   5.959   1.011   4.176
 4314SOL    HW113841   5.931   1.089   4.121
 4314SOL    HW213842   5.917   0.928   4.140
 4315SOL     OW13843   2.878   6.252   1.811
 4315SOL    HW113844   2.836   6.333   1.768
 4315SOL    HW213845   2.812   6.210   1.873
 4316SOL     OW13846   5.482   0.779   1.974
 4316SOL    HW113847   5.568   0.729   1.966
 4316SOL    HW213848   5.459   0.820   1.886
 4317SOL     OW13849   5.138   2.654   4.957
 4317SOL    HW113850   5.125   2.571   5.011
 4317SOL    HW213851   5.051   2.684   4.919
 4318SOL     OW13852   0.461   3.350   5.012
 4318SOL    HW113853   0.524   3.411   5.060
 4318SOL    HW213854   0.511   3.269   4.980
 4319SOL     OW13855   2.165   1.811   1.459
 4319SOL    HW113856   2.126   1.896   1.495
 4319SOL    HW213857   2.264   1.813   1.469
 4320SOL     OW13858   5.328   5.227   0.349
 4320SOL    HW113859   5.234   5.197   0.332
 4320SOL    HW213860   5.379   5.153   0.393
 4321SOL     OW13861   6.920   6.440   5.016
 4321SOL    HW113862   6.998   6.420   5.075
 4321SOL    HW213863   6.941   6.410   4.923
 4322SOL     OW13864   6.125   2.440   6.813
 4322SOL    HW113865   6.167   2.473   6.898
 4322SOL    HW213866   6.140   2.342   6.804
 4323SOL     OW13867   4.732   3.850   1.088
 4323SOL    HW113868   4.764   3.834   0.994
 4323SOL    HW213869   4.657   3.787   1.108
 4324SOL     OW13870   5.763   4.070   6.429
 4324SOL    HW113871   5.675   4.073   6.476
 4324SOL    HW213872   5.782   4.159   6.389
 4325SOL     OW13873   2.325   1.239   1.553
 4325SOL    HW113874   2.292   1.265   1.463
 4325SOL    HW213875   2.384   1.312   1.589
 4326SOL     OW13876   4.474   4.842   3.847
 4326SOL    HW113877   4.549   4.886   3.799
 4326SOL    HW213878   4.509   4.794   3.927
 4327SOL     OW13879   5.985   6.034   1.587
 4327SOL    HW113880   6.041   6.085   1.652
 4327SOL    HW213881   5.972   5.940   1.620
 4328SOL     OW13882   4.547   3.606   5.547
 4328SOL    HW113883   4.549   3.625   5.449
 4328SOL    HW213884   4.508   3.685   5.595
 4329SOL     OW13885   4.270   1.638   5.620
 4329SOL    HW113886   4.182   1.667   5.657
 4329SOL    HW213887   4.325   1.596   5.693
 4330SOL     OW13888   2.073   6.397   4.668
 4330SOL    HW113889   2.141   6.324   4.657
 4330SOL    HW213890   2.109   6.482   4.631
 4331SOL     OW13891   5.583   1.594   1.701
 4331SOL    HW113892   5.660   1.622   1.644
 4331SOL    HW213893   5.552   1.673   1.755
 4332SOL     OW13894   5.403   3.897   2.006
 4332SOL    HW113895   5.325   3.912   1.947
 4332SOL    HW213896   5.486   3.885   1.951
 4333SOL     OW13897   3.589   0.922   5.984
 4333SOL    HW113898   3.498   0.958   6.007
 4333SOL    HW213899   3.597   0.828   6.019
 4334SOL     OW13900   1.636   2.510   2.723
 4334SOL    HW113901   1.703   2.458   2.776
 4334SOL    HW213902   1.558   2.451   2.701
 4335SOL     OW13903   3.423   3.844   2.798
 4335SOL    HW113904   3.363   3.778   2.843
 4335SOL    HW213905   3.374   3.929   2.783
 4336SOL     OW13906   3.319   6.791   6.555
 4336SOL    HW113907   3.244   6.851   6.582
 4336SOL    HW213908   3.351   6.740   6.635
 4337SOL     OW13909   0.590   4.521   0.976
 4337SOL    HW113910   0.683   4.486   0.986
 4337SOL    HW213911   0.547   4.529   1.066
 4338SOL     OW13912   6.192   0.341   5.620
 4338SOL    HW113913   6.114   0.374   5.673
 4338SOL    HW213914   6.185   0.242   5.610
 4339SOL     OW13915   5.660   3.271   5.664
 4339SOL    HW113916   5.711   3.289   5.580
 4339SOL    HW213917   5.718   3.289   5.743
 4340SOL     OW13918   6.657   2.795   2.046
 4340SOL    HW113919   6.588   2.725   2.066
 4340SOL    HW213920   6.712   2.812   2.128
 4341SOL     OW13921   0.726   5.771   1.986
 4341SOL    HW113922   0.699   5.772   2.082
 4341SOL    HW213923   0.666   5.833   1.934
 4342SOL     OW13924   5.759   3.673   3.905
 4342SOL    HW113925   5.736   3.743   3.836
 4342SOL    HW213926   5.678   3.619   3.925
 4343SOL     OW13927   2.639   6.421   5.368
 4343SOL    HW113928   2.684   6.505   5.398
 4343SOL    HW213929   2.561   6.402   5.427
 4344SOL     OW13930   0.387   4.332   1.921
 4344SOL    HW113931   0.371   4.233   1.917
 4344SOL    HW213932   0.413   4.357   2.015
 4345SOL     OW13933   3.326   3.725   4.910
 4345SOL    HW113934   3.315   3.791   4.984
 4345SOL    HW213935   3.387   3.762   4.840
 4346SOL     OW13936   2.074   3.271   2.350
 4346SOL    HW113937   2.116   3.342   2.408
 4346SOL    HW213938   2.096   3.290   2.254
 4347SOL     OW13939   6.648   6.559   2.510
 4347SOL    HW113940   6.669   6.644   2.463
 4347SOL    HW213941   6.711   6.547   2.587
 4348SOL     OW13942   6.495   5.057   4.085
 4348SOL    HW113943   6.413   5.108   4.056
 4348SOL    HW213944   6.517   4.989   4.015
 4349SOL     OW13945   6.037   2.021   2.553
 4349SOL    HW113946   6.036   2.019   2.453
 4349SOL    HW213947   5.968   1.958   2.588
 4350SOL     OW13948   3.301   1.339   4.129
 4350SOL    HW113949   3.355   1.412   4.088
 4350SOL    HW213950   3.354   1.294   4.200
 4351SOL     OW13951   1.907   5.189   0.970
 4351SOL    HW113952   1.969   5.113   0.988
 4351SOL    HW213953   1.824   5.179   1.026
 4352SOL     OW13954   6.381   3.708   2.513
 4352SOL    HW113955   6.431   3.630   2.551
 4352SOL    HW213956   6.283   3.696   2.529
 4353SOL     OW13957   4.437   2.831   6.458
 4353SOL    HW113958   4.381   2.837   6.376
 4353SOL    HW213959   4.381   2.849   6.539
 4354SOL     OW13960   2.192   0.170   5.931
 4354SOL    HW113961   2.153   0.253   5.971
 4354SOL    HW213962   2.283   0.154   5.969
 4355SOL     OW13963   2.200   6.745   2.353
 4355SOL    HW113964   2.295   6.714   2.352
 4355SOL    HW213965   2.158   6.728   2.264
 4356SOL     OW13966   5.045   4.046   0.722
 4356SOL    HW113967   5.080   4.097   0.800
 4356SOL    HW213968   4.978   4.101   0.673
 4357SOL     OW13969   6.593   1.565   0.946
 4357SOL    HW113970   6.518   1.558   1.011
 4357SOL    HW213971   6.561   1.608   0.861
 4358SOL     OW13972   0.508   0.081   0.707
 4358SOL    HW113973   0.541   0.169   0.674
 4358SOL    HW213974   0.408   0.082   0.711
 4359SOL     OW13975   2.086   1.588   6.026
 4359SOL    HW113976   2.089   1.680   6.063
 4359SOL    HW213977   2.171   1.540   6.047
 4360SOL     OW13978   1.410   3.202   3.424
 4360SOL    HW113979   1.487   3.263   3.407
 4360SOL    HW213980   1.396   3.142   3.345
 4361SOL     OW13981   2.621   3.564   1.451
 4361SOL    HW113982   2.635   3.566   1.550
 4361SOL    HW213983   2.674   3.490   1.411
 4362SOL     OW13984   5.852   5.410   3.288
 4362SOL    HW113985   5.824   5.506   3.289
 4362SOL    HW213986   5.828   5.367   3.375
 4363SOL     OW13987   5.736   2.183   1.294
 4363SOL    HW113988   5.676   2.169   1.215
 4363SOL    HW213989   5.711   2.267   1.341
 4364SOL     OW13990   2.890   3.523   4.362
 4364SOL    HW113991   2.831   3.497   4.285
 4364SOL    HW213992   2.958   3.451   4.377
 4365SOL     OW13993   2.366   0.631   2.230
 4365SOL    HW113994   2.434   0.691   2.187
 4365SOL    HW213995   2.304   0.686   2.285
 4366SOL     OW13996   5.714   0.201   0.716
 4366SOL    HW113997   5.797   0.149   0.738
 4366SOL    HW213998   5.736   0.274   0.651
 4367SOL     OW13999   2.221   4.341   4.708
 4367SOL    HW114000   2.241   4.288   4.625
 4367SOL    HW214001   2.258   4.293   4.788
 4368SOL     OW14002   3.650   4.929   0.423
 4368SOL    HW114003   3.606   4.880   0.348
 4368SOL    HW214004   3.666   5.024   0.396
 4369SOL     OW14005   4.521   5.506   2.575
 4369SOL    HW114006   4.588   5.463   2.514
 4369SOL    HW214007   4.492   5.440   2.644
 4370SOL     OW14008   3.936   5.388   1.499
 4370SOL    HW114009   4.000   5.316   1.471
 4370SOL    HW214010   3.945   5.466   1.437
 4371SOL     OW14011   0.818   2.355   2.112
 4371SOL    HW114012   0.724   2.322   2.103
 4371SOL    HW214013   0.881   2.280   2.092
 4372SOL     OW14014   2.715   1.686   2.747
 4372SOL    HW114015   2.707   1.596   2.705
 4372SOL    HW214016   2.812   1.705   2.766
 4373SOL     OW14017   5.880   2.165   0.488
 4373SOL    HW114018   5.782   2.183   0.502
 4373SOL    HW214019   5.894   2.133   0.394
 4374SOL     OW14020   0.695   1.579   0.387
 4374SOL    HW114021   0.625   1.627   0.440
 4374SOL    HW214022   0.661   1.563   0.295
 4375SOL     OW14023   4.407   6.869   3.231
 4375SOL    HW114024   4.377   6.955   3.190
 4375SOL    HW214025   4.506   6.859   3.221
 4376SOL     OW14026   0.142   6.946   2.153
 4376SOL    HW114027   0.239   6.927   2.168
 4376SOL    HW214028   0.133   0.003   2.091
 4377SOL     OW14029   5.535   4.595   0.068
 4377SOL    HW114030   5.619   4.579   0.120
 4377SOL    HW214031   5.526   4.692   0.045
 4378SOL     OW14032   2.159   2.673   2.562
 4378SOL    HW114033   2.088   2.724   2.513
 4378SOL    HW214034   2.210   2.735   2.621
 4379SOL     OW14035   1.718   2.704   2.478
 4379SOL    HW114036   1.643   2.658   2.527
 4379SOL    HW214037   1.694   2.711   2.381
 4380SOL     OW14038   1.208   6.917   3.267
 4380SOL    HW114039   1.282   6.916   3.335
 4380SOL    HW214040   1.240   6.960   3.183
 4381SOL     OW14041   1.907   4.307   5.232
 4381SOL    HW114042   1.900   4.209   5.250
 4381SOL    HW214043   1.816   4.344   5.214
 4382SOL     OW14044   6.537   3.195   4.992
 4382SOL    HW114045   6.510   3.158   4.903
 4382SOL    HW214046   6.470   3.262   5.023
 4383SOL     OW14047   0.712   2.879   5.874
 4383SOL    HW114048   0.762   2.956   5.834
 4383SOL    HW214049   0.635   2.914   5.928
 4384SOL     OW14050   6.339   1.900   5.347
 4384SOL    HW114051   6.370   1.813   5.309
 4384SOL    HW214052   6.304   1.958   5.273
 4385SOL     OW14053   6.025   2.464   5.133
 4385SOL    HW114054   6.047   2.373   5.098
 4385SOL    HW214055   6.076   2.532   5.081
 4386SOL     OW14056   2.413   2.988   6.437
 4386SOL    HW114057   2.407   3.076   6.484
 4386SOL    HW214058   2.321   2.959   6.410
 4387SOL     OW14059   0.080   1.410   1.172
 4387SOL    HW114060   7.015   1.365   1.148
 4387SOL    HW214061   0.117   1.455   1.091
 4388SOL     OW14062   5.479   2.122   6.764
 4388SOL    HW114063   5.479   2.182   6.844
 4388SOL    HW214064   5.543   2.157   6.696
 4389SOL     OW14065   6.817   3.480   0.722
 4389SOL    HW114066   6.839   3.388   0.688
 4389SOL    HW214067   6.761   3.472   0.804
 4390SOL     OW14068   3.554   1.174   1.285
 4390SOL    HW114069   3.639   1.204   1.329
 4390SOL    HW214070   3.497   1.254   1.265
 4391SOL     OW14071   1.885   5.522   6.821
 4391SOL    HW114072   1.971   5.560   6.856
 4391SOL    HW214073   1.823   5.505   6.898
 4392SOL     OW14074   6.778   2.834   4.499
 4392SOL    HW114075   6.857   2.777   4.475
 4392SOL    HW214076   6.809   2.927   4.516
 4393SOL     OW14077   6.129   0.415   2.412
 4393SOL    HW114078   6.221   0.407   2.450
 4393SOL    HW214079   6.089   0.324   2.402
 4394SOL     OW14080   6.480   5.911   2.191
 4394SOL    HW114081   6.393   5.959   2.199
 4394SOL    HW214082   6.485   5.839   2.261
 4395SOL     OW14083   3.205   6.379   1.977
 4395SOL    HW114084   3.285   6.381   2.037
 4395SOL    HW214085   3.235   6.394   1.883
 4396SOL     OW14086   1.962   1.900   3.646
 4396SOL    HW114087   1.941   1.996   3.624
 4396SOL    HW214088   2.059   1.893   3.668
 4397SOL     OW14089   0.096   1.310   4.842
 4397SOL    HW114090   0.079   1.212   4.832
 4397SOL    HW214091   0.185   1.333   4.801
 4398SOL     OW14092   0.348   3.674   5.617
 4398SOL    HW114093   0.390   3.692   5.706
 4398SOL    HW214094   0.316   3.579   5.615
 4399SOL     OW14095   2.495   0.071   1.799
 4399SOL    HW114096   2.532   0.011   1.728
 4399SOL    HW214097   2.433   0.018   1.858
 4400SOL     OW14098   3.034   6.520   5.657
 4400SOL    HW114099   2.985   6.482   5.579
 4400SOL    HW214100   3.035   6.453   5.732
 4401SOL     OW14101   4.197   6.584   6.296
 4401SOL    HW114102   4.113   6.614   6.251
 4401SOL    HW214103   4.276   6.619   6.247
 4402SOL     OW14104   2.677   0.315   1.937
 4402SOL    HW114105   2.639   0.382   2.000
 4402SOL    HW214106   2.621   0.232   1.938
 4403SOL     OW14107   1.180   6.856   2.149
 4403SOL    HW114108   1.214   6.817   2.064
 4403SOL    HW214109   1.122   6.789   2.195
 4404SOL     OW14110   1.070   5.023   5.689
 4404SOL    HW114111   1.090   4.967   5.769
 4404SOL    HW214112   1.122   4.990   5.610
 4405SOL     OW14113   1.857   4.022   0.636
 4405SOL    HW114114   1.936   4.023   0.575
 4405SOL    HW214115   1.792   4.093   0.607
 4406SOL     OW14116   0.195   3.443   0.779
 4406SOL    HW114117   0.129   3.468   0.708
 4406SOL    HW214118   0.264   3.381   0.741
 4407SOL     OW14119   6.191   5.220   0.451
 4407SOL    HW114120   6.240   5.247   0.368
 4407SOL    HW214121   6.252   5.166   0.509
 4408SOL     OW14122   3.484   0.572   1.027
 4408SOL    HW114123   3.514   0.488   0.982
 4408SOL    HW214124   3.548   0.595   1.100
 4409SOL     OW14125   4.836   1.138   2.930
 4409SOL    HW114126   4.920   1.097   2.895
 4409SOL    HW214127   4.858   1.201   3.004
 4410SOL     OW14128   1.250   4.936   6.757
 4410SOL    HW114129   1.303   5.015   6.724
 4410SOL    HW214130   1.178   4.915   6.691
 4411SOL     OW14131   3.825   4.011   4.340
 4411SOL    HW114132   3.868   4.064   4.413
 4411SOL    HW214133   3.876   3.926   4.326
 4412SOL     OW14134   4.126   6.318   4.769
 4412SOL    HW114135   4.158   6.224   4.771
 4412SOL    HW214136   4.144   6.361   4.857
 4413SOL     OW14137   6.158   5.043   4.224
 4413SOL    HW114138   6.239   5.020   4.277
 4413SOL    HW214139   6.080   4.990   4.257
 4414SOL     OW14140   3.569   4.649   1.020
 4414SOL    HW114141   3.535   4.743   1.012
 4414SOL    HW214142   3.508   4.587   0.971
 4415SOL     OW14143   4.141   2.565   0.742
 4415SOL    HW114144   4.137   2.635   0.813
 4415SOL    HW214145   4.049   2.530   0.723
 4416SOL     OW14146   3.317   1.039   4.205
 4416SOL    HW114147   3.298   0.950   4.164
 4416SOL    HW214148   3.413   1.063   4.189
 4417SOL     OW14149   5.375   4.149   3.511
 4417SOL    HW114150   5.469   4.117   3.523
 4417SOL    HW214151   5.364   4.187   3.420
 4418SOL     OW14152   6.049   2.012   2.256
 4418SOL    HW114153   6.043   2.068   2.173
 4418SOL    HW214154   6.142   1.978   2.266
 4419SOL     OW14155   5.734   5.989   6.884
 4419SOL    HW114156   5.673   5.989   6.804
 4419SOL    HW214157   5.687   5.946   6.961
 4420SOL     OW14158   5.196   0.831   1.693
 4420SOL    HW114159   5.202   0.751   1.754
 4420SOL    HW214160   5.125   0.893   1.727
 4421SOL     OW14161   2.270   1.309   5.139
 4421SOL    HW114162   2.192   1.370   5.147
 4421SOL    HW214163   2.240   1.214   5.148
 4422SOL     OW14164   2.250   3.931   0.112
 4422SOL    HW114165   2.207   3.888   0.032
 4422SOL    HW214166   2.219   3.885   0.195
 4423SOL     OW14167   0.194   3.111   5.909
 4423SOL    HW114168   0.118   3.051   5.933
 4423SOL    HW214169   0.159   3.203   5.890
 4424SOL     OW14170   5.783   1.027   4.401
 4424SOL    HW114171   5.835   0.980   4.331
 4424SOL    HW214172   5.739   1.108   4.362
 4425SOL     OW14173   3.133   3.792   0.506
 4425SOL    HW114174   3.130   3.701   0.548
 4425SOL    HW214175   3.127   3.862   0.577
 4426SOL     OW14176   6.837   1.750   3.630
 4426SOL    HW114177   6.781   1.825   3.597
 4426SOL    HW214178   6.816   1.667   3.578
 4427SOL     OW14179   0.761   6.582   2.750
 4427SOL    HW114180   0.853   6.623   2.744
 4427SOL    HW214181   0.750   6.540   2.840
 4428SOL     OW14182   3.150   0.365   3.017
 4428SOL    HW114183   3.204   0.370   2.933
 4428SOL    HW214184   3.105   0.276   3.024
 4429SOL     OW14185   2.549   6.121   2.563
 4429SOL    HW114186   2.550   6.217   2.591
 4429SOL    HW214187   2.594   6.066   2.633
 4430SOL     OW14188   4.817   4.037   4.915
 4430SOL    HW114189   4.856   3.962   4.968
 4430SOL    HW214190   4.822   4.015   4.818
 4431SOL     OW14191   2.144   1.188   1.997
 4431SOL    HW114192   2.117   1.260   1.932
 4431SOL    HW214193   2.104   1.207   2.086
 4432SOL     OW14194   2.715   3.323   6.103
 4432SOL    HW114195   2.709   3.396   6.171
 4432SOL    HW214196   2.624   3.286   6.085
 4433SOL     OW14197   4.871   2.053   4.649
 4433SOL    HW114198   4.867   2.051   4.549
 4433SOL    HW214199   4.831   2.139   4.683
 4434SOL     OW14200   5.362   1.364   3.507
 4434SOL    HW114201   5.311   1.422   3.445
 4434SOL    HW214202   5.453   1.403   3.521
 4435SOL     OW14203   4.850   3.313   1.606
 4435SOL    HW114204   4.926   3.366   1.644
 4435SOL    HW214205   4.851   3.221   1.644
 4436SOL     OW14206   4.297   1.267   1.494
 4436SOL    HW114207   4.232   1.194   1.474
 4436SOL    HW214208   4.388   1.240   1.461
 4437SOL     OW14209   6.426   2.124   2.728
 4437SOL    HW114210   6.417   2.128   2.828
 4437SOL    HW214211   6.428   2.217   2.691
 4438SOL     OW14212   5.204   0.140   6.873
 4438SOL    HW114213   5.164   0.111   6.960
 4438SOL    HW214214   5.303   0.148   6.884
 4439SOL     OW14215   0.242   4.190   1.589
 4439SOL    HW114216   0.165   4.128   1.573
 4439SOL    HW214217   0.281   4.172   1.679
 4440SOL     OW14218   2.537   4.813   0.904
 4440SOL    HW114219   2.613   4.822   0.840
 4440SOL    HW214220   2.488   4.900   0.910
 4441SOL     OW14221   0.058   1.992   2.539
 4441SOL    HW114222   0.033   2.071   2.484
 4441SOL    HW214223   7.000   1.932   2.549
 4442SOL     OW14224   2.319   5.174   4.264
 4442SOL    HW114225   2.274   5.089   4.236
 4442SOL    HW214226   2.301   5.191   4.361
 4443SOL     OW14227   0.830   3.093   6.940
 4443SOL    HW114228   0.892   3.172   6.941
 4443SOL    HW214229   0.882   3.009   6.956
 4444SOL     OW14230   3.148   4.299   5.276
 4444SOL    HW114231   3.093   4.362   5.222
 4444SOL    HW214232   3.149   4.329   5.371
 4445SOL     OW14233   1.152   6.582   0.516
 4445SOL    HW114234   1.068   6.536   0.487
 4445SOL    HW214235   1.190   6.636   0.441
 4446SOL     OW14236   5.048   0.586   1.678
 4446SOL    HW114237   5.119   0.631   1.624
 4446SOL    HW214238   5.077   0.493   1.701
 4447SOL     OW14239   5.909   4.128   6.028
 4447SOL    HW114240   5.959   4.098   6.110
 4447SOL    HW214241   5.889   4.226   6.036
 4448SOL     OW14242   2.745   3.914   1.592
 4448SOL    HW114243   2.653   3.886   1.622
 4448SOL    HW214244   2.768   3.866   1.507
 4449SOL     OW14245   5.372   0.600   6.103
 4449SOL    HW114246   5.287   0.653   6.094
 4449SOL    HW214247   5.450   0.659   6.082
 4450SOL     OW14248   3.234   3.180   5.253
 4450SOL    HW114249   3.182   3.183   5.167
 4450SOL    HW214250   3.275   3.270   5.270
 4451SOL     OW14251   6.409   4.748   3.123
 4451SOL    HW114252   6.403   4.740   3.222
 4451SOL    HW214253   6.466   4.674   3.087
 4452SOL     OW14254   4.977   6.369   4.592
 4452SOL    HW114255   5.052   6.362   4.657
 4452SOL    HW214256   5.012   6.353   4.499
 4453SOL     OW14257   1.156   2.929   1.303
 4453SOL    HW114258   1.168   2.954   1.400
 4453SOL    HW214259   1.127   2.833   1.297
 4454SOL     OW14260   1.960   2.109   0.410
 4454SOL    HW114261   1.884   2.161   0.369
 4454SOL    HW214262   2.035   2.102   0.344
 4455SOL     OW14263   4.399   6.470   5.872
 4455SOL    HW114264   4.406   6.482   5.971
 4455SOL    HW214265   4.349   6.387   5.851
 4456SOL     OW14266   3.222   6.053   1.838
 4456SOL    HW114267   3.144   6.096   1.883
 4456SOL    HW214268   3.247   6.107   1.757
 4457SOL     OW14269   4.286   1.186   2.718
 4457SOL    HW114270   4.246   1.273   2.747
 4457SOL    HW214271   4.244   1.157   2.632
 4458SOL     OW14272   1.665   2.713   0.449
 4458SOL    HW114273   1.683   2.678   0.540
 4458SOL    HW214274   1.751   2.741   0.406
 4459SOL     OW14275   3.828   1.047   4.427
 4459SOL    HW114276   3.823   1.147   4.434
 4459SOL    HW214277   3.805   1.018   4.334
 4460SOL     OW14278   2.684   2.981   5.975
 4460SOL    HW114279   2.705   2.968   6.072
 4460SOL    HW214280   2.738   2.918   5.920
 4461SOL     OW14281   1.349   0.264   1.042
 4461SOL    HW114282   1.273   0.328   1.052
 4461SOL    HW214283   1.337   0.189   1.109
 4462SOL     OW14284   6.079   5.081   1.435
 4462SOL    HW114285   6.030   5.135   1.504
 4462SOL    HW214286   6.014   5.048   1.366
 4463SOL     OW14287   5.287   1.569   0.537
 4463SOL    HW114288   5.209   1.528   0.490
 4463SOL    HW214289   5.372   1.533   0.498
 4464SOL     OW14290   6.928   5.514   0.839
 4464SOL    HW114291   6.933   5.455   0.758
 4464SOL    HW214292   6.935   5.610   0.811
 4465SOL     OW14293   3.072   5.539   1.853
 4465SOL    HW114294   3.044   5.475   1.781
 4465SOL    HW214295   3.165   5.518   1.882
 4466SOL     OW14296   1.600   1.696   3.089
 4466SOL    HW114297   1.606   1.703   2.989
 4466SOL    HW214298   1.679   1.645   3.123
 4467SOL     OW14299   1.990   6.033   2.549
 4467SOL    HW114300   2.073   6.013   2.601
 4467SOL    HW214301   1.953   5.947   2.513
 4468SOL     OW14302   1.897   3.994   0.300
 4468SOL    HW114303   1.994   3.983   0.322
 4468SOL    HW214304   1.849   3.907   0.315
 4469SOL     OW14305   3.200   0.586   1.543
 4469SOL    HW114306   3.208   0.645   1.463
 4469SOL    HW214307   3.116   0.609   1.593
 4470SOL     OW14308   6.745   2.174   1.935
 4470SOL    HW114309   6.675   2.244   1.949
 4470SOL    HW214310   6.760   2.124   2.020
 4471SOL     OW14311   1.008   2.507   6.117
 4471SOL    HW114312   1.083   2.472   6.174
 4471SOL    HW214313   0.938   2.547   6.176
 4472SOL     OW14314   1.416   3.625   1.812
 4472SOL    HW114315   1.428   3.628   1.713
 4472SOL    HW214316   1.500   3.590   1.855
 4473SOL     OW14317   5.992   2.882   4.516
 4473SOL    HW114318   6.071   2.821   4.507
 4473SOL    HW214319   5.909   2.827   4.529
 4474SOL     OW14320   2.628   0.511   2.134
 4474SOL    HW114321   2.676   0.517   2.222
 4474SOL    HW214322   2.530   0.520   2.150
 4475SOL     OW14323   1.345   3.973   2.698
 4475SOL    HW114324   1.262   3.983   2.642
 4475SOL    HW214325   1.369   3.876   2.706
 4476SOL     OW14326   4.661   0.079   3.176
 4476SOL    HW114327   4.601   0.105   3.101
 4476SOL    HW214328   4.757   0.082   3.146
 4477SOL     OW14329   2.218   0.121   5.201
 4477SOL    HW114330   2.190   0.025   5.192
 4477SOL    HW214331   2.317   0.127   5.208
 4478SOL     OW14332   3.718   6.889   3.124
 4478SOL    HW114333   3.787   6.826   3.089
 4478SOL    HW214334   3.686   6.856   3.213
 4479SOL     OW14335   0.928   1.742   1.295
 4479SOL    HW114336   1.023   1.738   1.326
 4479SOL    HW214337   0.869   1.697   1.361
 4480SOL     OW14338   1.077   4.282   4.994
 4480SOL    HW114339   1.063   4.311   4.899
 4480SOL    HW214340   1.154   4.333   5.033
 4481SOL     OW14341   3.344   5.904   4.990
 4481SOL    HW114342   3.284   5.980   5.013
 4481SOL    HW214343   3.434   5.940   4.964
 4482SOL     OW14344   1.268   2.838   4.961
 4482SOL    HW114345   1.238   2.767   4.897
 4482SOL    HW214346   1.233   2.927   4.931
 4483SOL     OW14347   6.241   2.616   2.414
 4483SOL    HW114348   6.231   2.583   2.320
 4483SOL    HW214349   6.161   2.670   2.439
 4484SOL     OW14350   2.555   2.283   6.341
 4484SOL    HW114351   2.542   2.335   6.426
 4484SOL    HW214352   2.550   2.346   6.263
 4485SOL     OW14353   5.628   1.601   4.608
 4485SOL    HW114354   5.607   1.581   4.513
 4485SOL    HW214355   5.612   1.699   4.625
 4486SOL     OW14356   5.507   4.920   5.478
 4486SOL    HW114357   5.451   4.871   5.544
 4486SOL    HW214358   5.447   4.971   5.415
 4487SOL     OW14359   2.786   2.654   6.801
 4487SOL    HW114360   2.882   2.676   6.786
 4487SOL    HW214361   2.757   2.587   6.733
 4488SOL     OW14362   0.614   3.418   6.198
 4488SOL    HW114363   0.557   3.402   6.278
 4488SOL    HW214364   0.559   3.457   6.124
 4489SOL     OW14365   5.009   5.027   4.994
 4489SOL    HW114366   5.046   5.066   4.909
 4489SOL    HW214367   4.979   5.101   5.054
 4490SOL     OW14368   6.383   2.518   1.734
 4490SOL    HW114369   6.336   2.468   1.661
 4490SOL    HW214370   6.391   2.460   1.815
 4491SOL     OW14371   6.514   2.767   4.150
 4491SOL    HW114372   6.505   2.765   4.249
 4491SOL    HW214373   6.563   2.685   4.119
 4492SOL     OW14374   5.952   4.643   1.765
 4492SOL    HW114375   6.019   4.701   1.812
 4492SOL    HW214376   5.860   4.677   1.784
 4493SOL     OW14377   4.829   5.397   4.805
 4493SOL    HW114378   4.908   5.383   4.866
 4493SOL    HW214379   4.746   5.364   4.851
 4494SOL     OW14380   0.612   0.918   6.571
 4494SOL    HW114381   0.541   0.987   6.554
 4494SOL    HW214382   0.689   0.935   6.510
 4495SOL     OW14383   3.683   6.578   4.491
 4495SOL    HW114384   3.628   6.507   4.446
 4495SOL    HW214385   3.778   6.569   4.463
 4496SOL     OW14386   5.477   6.490   1.189
 4496SOL    HW114387   5.425   6.502   1.274
 4496SOL    HW214388   5.425   6.434   1.125
 4497SOL     OW14389   5.788   2.071   0.247
 4497SOL    HW114390   5.804   2.015   0.166
 4497SOL    HW214391   5.692   2.100   0.249
 4498SOL     OW14392   0.186   3.452   0.465
 4498SOL    HW114393   0.166   3.355   0.477
 4498SOL    HW214394   0.284   3.463   0.447
 4499SOL     OW14395   5.800   3.874   4.169
 4499SOL    HW114396   5.891   3.863   4.129
 4499SOL    HW214397   5.746   3.793   4.151
 4500SOL     OW14398   3.355   3.160   4.878
 4500SOL    HW114399   3.401   3.129   4.796
 4500SOL    HW214400   3.411   3.139   4.958
 4501SOL     OW14401   0.100   3.649   3.045
 4501SOL    HW114402   0.188   3.670   3.088
 4501SOL    HW214403   0.046   3.733   3.038
 4502SOL     OW14404   0.306   2.759   6.392
 4502SOL    HW114405   0.286   2.708   6.308
 4502SOL    HW214406   0.292   2.856   6.376
 4503SOL     OW14407   3.548   0.150   1.625
 4503SOL    HW114408   3.589   0.198   1.702
 4503SOL    HW214409   3.468   0.099   1.656
 4504SOL     OW14410   6.640   0.855   4.793
 4504SOL    HW114411   6.613   0.835   4.887
 4504SOL    HW214412   6.569   0.908   4.748
 4505SOL     OW14413   5.893   5.191   1.639
 4505SOL    HW114414   5.953   5.121   1.675
 4505SOL    HW214415   5.798   5.166   1.657
 4506SOL     OW14416   4.840   2.901   3.575
 4506SOL    HW114417   4.903   2.945   3.638
 4506SOL    HW214418   4.795   2.824   3.621
 4507SOL     OW14419   5.647   4.619   2.648
 4507SOL    HW114420   5.743   4.644   2.660
 4507SOL    HW214421   5.593   4.654   2.725
 4508SOL     OW14422   1.699   5.455   0.029
 4508SOL    HW114423   1.694   5.376   6.989
 4508SOL    HW214424   1.631   5.523   0.000
 4509SOL     OW14425   4.514   2.468   2.173
 4509SOL    HW114426   4.497   2.529   2.096
 4509SOL    HW214427   4.539   2.377   2.138
 4510SOL     OW14428   3.584   1.602   4.319
 4510SOL    HW114429   3.530   1.652   4.386
 4510SOL    HW214430   3.617   1.665   4.249
 4511SOL     OW14431   5.958   3.310   0.093
 4511SOL    HW114432   5.985   3.250   0.018
 4511SOL    HW214433   5.892   3.377   0.059
 4512SOL     OW14434   3.044   1.772   5.220
 4512SOL    HW114435   3.061   1.868   5.194
 4512SOL    HW214436   2.979   1.732   5.156
 4513SOL     OW14437   0.193   5.093   6.714
 4513SOL    HW114438   0.119   5.026   6.714
 4513SOL    HW214439   0.226   5.107   6.620
 4514SOL     OW14440   3.867   2.096   6.364
 4514SOL    HW114441   3.900   2.078   6.271
 4514SOL    HW214442   3.915   2.175   6.402
 4515SOL     OW14443   0.137   1.908   5.962
 4515SOL    HW114444   0.186   1.859   5.890
 4515SOL    HW214445   0.194   1.913   6.044
 4516SOL     OW14446   2.013   0.179   0.215
 4516SOL    HW114447   2.080   0.109   0.190
 4516SOL    HW214448   1.922   0.150   0.185
 4517SOL     OW14449   4.120   0.929   6.682
 4517SOL    HW114450   4.214   0.898   6.671
 4517SOL    HW214451   4.116   0.999   6.753
 4518SOL     OW14452   6.987   0.228   2.397
 4518SOL    HW114453   0.064   0.223   2.417
 4518SOL    HW214454   6.974   0.241   2.298
 4519SOL     OW14455   6.991   6.913   1.332
 4519SOL    HW114456   6.958   7.006   1.346
 4519SOL    HW214457   7.000   6.867   1.421
 4520SOL     OW14458   4.543   6.485   4.623
 4520SOL    HW114459   4.617   6.418   4.625
 4520SOL    HW214460   4.579   6.573   4.592
 4521SOL     OW14461   6.789   2.179   4.754
 4521SOL    HW114462   6.841   2.263   4.773
 4521SOL    HW214463   6.700   2.203   4.716
 4522SOL     OW14464   5.146   5.790   3.468
 4522SOL    HW114465   5.183   5.839   3.390
 4522SOL    HW214466   5.126   5.695   3.441
 4523SOL     OW14467   1.076   4.487   0.164
 4523SOL    HW114468   1.174   4.469   0.159
 4523SOL    HW214469   1.056   4.536   0.249
 4524SOL     OW14470   6.393   2.765   2.580
 4524SOL    HW114471   6.350   2.691   2.529
 4524SOL    HW214472   6.343   2.780   2.666
 4525SOL     OW14473   4.598   1.823   5.764
 4525SOL    HW114474   4.634   1.732   5.743
 4525SOL    HW214475   4.571   1.826   5.861
 4526SOL     OW14476   6.740   6.968   0.456
 4526SOL    HW114477   6.658   6.946   0.404
 4526SOL    HW214478   6.802   6.889   0.456
 4527SOL     OW14479   5.844   1.396   3.823
 4527SOL    HW114480   5.854   1.298   3.806
 4527SOL    HW214481   5.926   1.444   3.793
 4528SOL     OW14482   4.662   0.608   0.584
 4528SOL    HW114483   4.656   0.692   0.529
 4528SOL    HW214484   4.718   0.625   0.665
 4529SOL     OW14485   1.934   0.698   5.151
 4529SOL    HW114486   1.950   0.795   5.169
 4529SOL    HW214487   1.940   0.681   5.053
 4530SOL     OW14488   1.940   4.991   4.755
 4530SOL    HW114489   1.984   5.081   4.760
 4530SOL    HW214490   1.858   4.997   4.698
 4531SOL     OW14491   0.622   3.072   5.300
 4531SOL    HW114492   0.662   3.056   5.390
 4531SOL    HW214493   0.523   3.079   5.308
 4532SOL     OW14494   6.347   1.440   2.559
 4532SOL    HW114495   6.395   1.446   2.646
 4532SOL    HW214496   6.320   1.345   2.542
 4533SOL     OW14497   1.135   1.866   1.793
 4533SOL    HW114498   1.228   1.889   1.820
 4533SOL    HW214499   1.136   1.826   1.701
 4534SOL     OW14500   4.686   4.261   4.650
 4534SOL    HW114501   4.697   4.339   4.711
 4534SOL    HW214502   4.728   4.180   4.692
 4535SOL     OW14503   3.763   1.124   2.473
 4535SOL    HW114504   3.688   1.187   2.454
 4535SOL    HW214505   3.828   1.168   2.536
 4536SOL     OW14506   4.002   1.831   4.432
 4536SOL    HW114507   3.974   1.853   4.526
 4536SOL    HW214508   3.937   1.871   4.368
 4537SOL     OW14509   3.998   3.343   0.521
 4537SOL    HW114510   3.933   3.268   0.527
 4537SOL    HW214511   3.955   3.428   0.552
 4538SOL     OW14512   1.551   0.364   3.017
 4538SOL    HW114513   1.560   0.275   2.973
 4538SOL    HW214514   1.512   0.352   3.109
 4539SOL     OW14515   3.132   6.592   4.799
 4539SOL    HW114516   3.046   6.581   4.848
 4539SOL    HW214517   3.146   6.689   4.777
 4540SOL     OW14518   2.792   2.424   6.077
 4540SOL    HW114519   2.780   2.422   5.978
 4540SOL    HW214520   2.706   2.450   6.120
 4541SOL     OW14521   6.048   1.879   0.312
 4541SOL    HW114522   6.124   1.916   0.260
 4541SOL    HW214523   6.052   1.911   0.407
 4542SOL     OW14524   6.945   1.568   1.938
 4542SOL    HW114525   6.953   1.554   1.839
 4542SOL    HW214526   7.015   1.633   1.968
 4543SOL     OW14527   4.825   2.079   1.975
 4543SOL    HW114528   4.850   2.000   1.918
 4543SOL    HW214529   4.800   2.047   2.066
 4544SOL     OW14530   3.474   5.923   6.240
 4544SOL    HW114531   3.482   5.838   6.291
 4544SOL    HW214532   3.560   5.973   6.243
 4545SOL     OW14533   5.571   3.340   4.494
 4545SOL    HW114534   5.587   3.262   4.554
 4545SOL    HW214535   5.594   3.424   4.543
 4546SOL     OW14536   1.342   1.030   4.631
 4546SOL    HW114537   1.366   1.123   4.601
 4546SOL    HW214538   1.243   1.018   4.626
 4547SOL     OW14539   6.284   2.071   1.631
 4547SOL    HW114540   6.237   2.120   1.704
 4547SOL    HW214541   6.241   1.982   1.618
 4548SOL     OW14542   1.163   3.195   4.047
 4548SOL    HW114543   1.221   3.131   4.097
 4548SOL    HW214544   1.220   3.262   3.999
 4549SOL     OW14545   6.786   4.143   1.779
 4549SOL    HW114546   6.753   4.216   1.839
 4549SOL    HW214547   6.718   4.126   1.707
 4550SOL     OW14548   0.862   5.117   3.275
 4550SOL    HW114549   0.868   5.147   3.370
 4550SOL    HW214550   0.936   5.053   3.255
 4551SOL     OW14551   6.876   3.082   4.524
 4551SOL    HW114552   6.837   3.099   4.615
 4551SOL    HW214553   6.973   3.063   4.532
 4552SOL     OW14554   6.446   2.968   1.915
 4552SOL    HW114555   6.528   2.941   1.965
 4552SOL    HW214556   6.470   3.027   1.838
 4553SOL     OW14557   3.369   4.568   6.707
 4553SOL    HW114558   3.333   4.611   6.790
 4553SOL    HW214559   3.303   4.576   6.633
 4554SOL     OW14560   6.280   6.437   1.123
 4554SOL    HW114561   6.319   6.508   1.181
 4554SOL    HW214562   6.241   6.478   1.041
 4555SOL     OW14563   2.542   2.353   5.528
 4555SOL    HW114564   2.453   2.314   5.507
 4555SOL    HW214565   2.614   2.298   5.486
 4556SOL     OW14566   5.607   3.011   4.167
 4556SOL    HW114567   5.564   3.093   4.204
 4556SOL    HW214568   5.706   3.019   4.173
 4557SOL     OW14569   5.046   6.412   5.382
 4557SOL    HW114570   5.119   6.403   5.450
 4557SOL    HW214571   5.056   6.339   5.314
 4558SOL     OW14572   0.226   4.218   5.234
 4558SOL    HW114573   0.191   4.273   5.158
 4558SOL    HW214574   0.319   4.248   5.255
 4559SOL     OW14575   0.308   3.695   1.685
 4559SOL    HW114576   0.300   3.595   1.696
 4559SOL    HW214577   0.357   3.715   1.601
 4560SOL     OW14578   5.543   4.169   1.920
 4560SOL    HW114579   5.613   4.139   1.855
 4560SOL    HW214580   5.454   4.136   1.892
 4561SOL     OW14581   2.350   1.708   3.059
 4561SOL    HW114582   2.442   1.746   3.050
 4561SOL    HW214583   2.286   1.782   3.082
 4562SOL     OW14584   2.485   6.143   6.160
 4562SOL    HW114585   2.516   6.048   6.158
 4562SOL    HW214586   2.462   6.173   6.067
 4563SOL     OW14587   6.857   2.476   1.065
 4563SOL    HW114588   6.868   2.474   0.966
 4563SOL    HW214589   6.887   2.389   1.104
 4564SOL     OW14590   6.720   5.627   1.910
 4564SOL    HW114591   6.736   5.558   1.981
 4564SOL    HW214592   6.729   5.586   1.820
 4565SOL     OW14593   0.898   1.171   4.851
 4565SOL    HW114594   0.853   1.245   4.901
 4565SOL    HW214595   0.970   1.131   4.908
 4566SOL     OW14596   6.516   2.563   0.237
 4566SOL    HW114597   6.428   2.591   0.274
 4566SOL    HW214598   6.536   2.470   0.267
 4567SOL     OW14599   6.397   1.204   5.979
 4567SOL    HW114600   6.346   1.271   5.925
 4567SOL    HW214601   6.484   1.184   5.934
 4568SOL     OW14602   2.345   3.398   6.249
 4568SOL    HW114603   2.338   3.302   6.221
 4568SOL    HW214604   2.297   3.455   6.182
 4569SOL     OW14605   2.024   1.909   2.762
 4569SOL    HW114606   1.963   1.882   2.687
 4569SOL    HW214607   2.092   1.973   2.727
 4570SOL     OW14608   0.227   6.566   2.961
 4570SOL    HW114609   0.133   6.581   2.991
 4570SOL    HW214610   0.290   6.594   3.032
 4571SOL     OW14611   4.070   4.429   6.388
 4571SOL    HW114612   3.986   4.482   6.374
 4571SOL    HW214613   4.090   4.424   6.486
 4572SOL     OW14614   2.172   0.367   6.827
 4572SOL    HW114615   2.094   0.390   6.885
 4572SOL    HW214616   2.257   0.378   6.879
 4573SOL     OW14617   6.083   0.281   0.708
 4573SOL    HW114618   6.051   0.369   0.743
 4573SOL    HW214619   6.013   0.242   0.647
 4574SOL     OW14620   5.898   3.991   0.587
 4574SOL    HW114621   5.842   4.015   0.507
 4574SOL    HW214622   5.866   3.905   0.625
 4575SOL     OW14623   5.955   1.135   6.390
 4575SOL    HW114624   5.918   1.049   6.425
 4575SOL    HW214625   5.882   1.185   6.342
 4576SOL     OW14626   2.694   5.839   5.732
 4576SOL    HW114627   2.600   5.868   5.752
 4576SOL    HW214628   2.732   5.793   5.812
 4577SOL     OW14629   1.265   1.630   4.858
 4577SOL    HW114630   1.294   1.724   4.876
 4577SOL    HW214631   1.191   1.630   4.790
 4578SOL     OW14632   0.340   3.033   5.253
 4578SOL    HW114633   0.353   2.944   5.210
 4578SOL    HW214634   0.257   3.075   5.218
 4579SOL     OW14635   3.904   0.716   3.656
 4579SOL    HW114636   3.879   0.773   3.733
 4579SOL    HW214637   3.822   0.694   3.603
 4580SOL     OW14638   5.897   4.485   0.759
 4580SOL    HW114639   5.798   4.486   0.745
 4580SOL    HW214640   5.936   4.572   0.727
 4581SOL     OW14641   2.540   5.437   2.696
 4581SOL    HW114642   2.506   5.432   2.790
 4581SOL    HW214643   2.633   5.473   2.695
 4582SOL     OW14644   5.224   0.066   5.044
 4582SOL    HW114645   5.183   0.044   4.955
 4582SOL    HW214646   5.320   0.037   5.043
 4583SOL     OW14647   2.716   2.398   6.691
 4583SOL    HW114648   2.624   2.389   6.652
 4583SOL    HW214649   2.726   2.331   6.765
 4584SOL     OW14650   0.162   4.363   5.656
 4584SOL    HW114651   0.233   4.370   5.586
 4584SOL    HW214652   0.183   4.426   5.731
 4585SOL     OW14653   2.888   6.248   3.873
 4585SOL    HW114654   2.815   6.316   3.885
 4585SOL    HW214655   2.894   6.191   3.955
 4586SOL     OW14656   4.018   4.871   0.592
 4586SOL    HW114657   4.025   4.779   0.553
 4586SOL    HW214658   3.926   4.884   0.630
 4587SOL     OW14659   3.647   3.938   3.288
 4587SOL    HW114660   3.734   3.978   3.259
 4587SOL    HW214661   3.657   3.901   3.380
 4588SOL     OW14662   2.539   3.432   5.415
 4588SOL    HW114663   2.560   3.336   5.394
 4588SOL    HW214664   2.622   3.487   5.405
 4589SOL     OW14665   6.424   1.010   2.314
 4589SOL    HW114666   6.473   0.993   2.228
 4589SOL    HW214667   6.485   1.058   2.377
 4590SOL     OW14668   4.978   5.780   1.254
 4590SOL    HW114669   4.882   5.753   1.261
 4590SOL    HW214670   5.022   5.727   1.182
 4591SOL     OW14671   1.307   0.113   4.273
 4591SOL    HW114672   1.283   0.016   4.270
 4591SOL    HW214673   1.223   0.168   4.272
 4592SOL     OW14674   2.582   1.900   2.624
 4592SOL    HW114675   2.500   1.884   2.679
 4592SOL    HW214676   2.659   1.849   2.664
 4593SOL     OW14677   5.276   5.752   2.831
 4593SOL    HW114678   5.182   5.764   2.861
 4593SOL    HW214679   5.277   5.727   2.734
 4594SOL     OW14680   2.847   1.107   2.975
 4594SOL    HW114681   2.820   1.101   3.071
 4594SOL    HW214682   2.838   1.201   2.944
 4595SOL     OW14683   4.171   3.320   5.709
 4595SOL    HW114684   4.238   3.349   5.778
 4595SOL    HW214685   4.165   3.220   5.709
 4596SOL     OW14686   5.753   0.205   1.923
 4596SOL    HW114687   5.704   0.165   1.846
 4596SOL    HW214688   5.843   0.236   1.894
 4597SOL     OW14689   3.808   5.643   6.180
 4597SOL    HW114690   3.715   5.659   6.148
 4597SOL    HW214691   3.811   5.561   6.236
 4598SOL     OW14692   1.561   6.186   6.955
 4598SOL    HW114693   1.649   6.234   6.960
 4598SOL    HW214694   1.556   6.137   6.868
 4599SOL     OW14695   1.457   4.917   0.585
 4599SOL    HW114696   1.478   4.909   0.683
 4599SOL    HW214697   1.415   5.006   0.568
 4600SOL     OW14698   1.166   5.400   5.522
 4600SOL    HW114699   1.085   5.370   5.573
 4600SOL    HW214700   1.230   5.324   5.513
 4601SOL     OW14701   2.063   1.516   5.134
 4601SOL    HW114702   1.985   1.488   5.190
 4601SOL    HW214703   2.101   1.601   5.171
 4602SOL     OW14704   2.919   6.419   1.083
 4602SOL    HW114705   2.986   6.347   1.105
 4602SOL    HW214706   2.933   6.449   0.989
 4603SOL     OW14707   3.173   6.253   0.732
 4603SOL    HW114708   3.155   6.166   0.687
 4603SOL    HW214709   3.270   6.276   0.722
 4604SOL     OW14710   4.745   0.309   0.191
 4604SOL    HW114711   4.650   0.279   0.187
 4604SOL    HW214712   4.748   0.406   0.214
 4605SOL     OW14713   2.454   6.621   2.282
 4605SOL    HW114714   2.546   6.615   2.242
 4605SOL    HW214715   2.394   6.554   2.238
 4606SOL     OW14716   0.789   6.082   2.323
 4606SOL    HW114717   0.809   6.128   2.237
 4606SOL    HW214718   0.729   6.140   2.379
 4607SOL     OW14719   1.483   3.494   1.349
 4607SOL    HW114720   1.445   3.538   1.268
 4607SOL    HW214721   1.560   3.549   1.383
 4608SOL     OW14722   0.635   6.000   3.860
 4608SOL    HW114723   0.602   5.906   3.861
 4608SOL    HW214724   0.599   6.048   3.780
 4609SOL     OW14725   4.433   5.169   6.489
 4609SOL    HW114726   4.346   5.167   6.440
 4609SOL    HW214727   4.417   5.160   6.587
 4610SOL     OW14728   4.587   2.028   0.884
 4610SOL    HW114729   4.607   2.123   0.909
 4610SOL    HW214730   4.515   2.026   0.815
 4611SOL     OW14731   0.586   6.385   6.304
 4611SOL    HW114732   0.659   6.396   6.373
 4611SOL    HW214733   0.572   6.473   6.257
 4612SOL     OW14734   1.034   6.203   7.008
 4612SOL    HW114735   1.052   6.233   0.081
 4612SOL    HW214736   1.118   6.214   6.954
 4613SOL     OW14737   1.936   5.719   1.685
 4613SOL    HW114738   2.033   5.706   1.707
 4613SOL    HW214739   1.880   5.686   1.761
 4614SOL     OW14740   6.159   3.519   3.406
 4614SOL    HW114741   6.249   3.546   3.439
 4614SOL    HW214742   6.088   3.568   3.456
 4615SOL     OW14743   1.923   0.703   6.973
 4615SOL    HW114744   1.853   0.762   7.013
 4615SOL    HW214745   1.957   0.743   6.888
 4616SOL     OW14746   6.304   1.279   4.375
 4616SOL    HW114747   6.320   1.192   4.328
 4616SOL    HW214748   6.384   1.303   4.430
 4617SOL     OW14749   0.671   2.220   2.528
 4617SOL    HW114750   0.699   2.299   2.474
 4617SOL    HW214751   0.709   2.227   2.620
 4618SOL     OW14752   2.324   2.784   4.831
 4618SOL    HW114753   2.355   2.840   4.908
 4618SOL    HW214754   2.227   2.800   4.815
 4619SOL     OW14755   3.214   6.328   3.531
 4619SOL    HW114756   3.164   6.364   3.451
 4619SOL    HW214757   3.310   6.356   3.526
 4620SOL     OW14758   2.624   5.293   0.794
 4620SOL    HW114759   2.599   5.349   0.715
 4620SOL    HW214760   2.553   5.301   0.864
 4621SOL     OW14761   5.046   0.420   2.693
 4621SOL    HW114762   5.117   0.362   2.653
 4621SOL    HW214763   5.070   0.443   2.787
 4622SOL     OW14764   2.713   4.829   0.679
 4622SOL    HW114765   2.700   4.730   0.676
 4622SOL    HW214766   2.708   4.865   0.586
 4623SOL     OW14767   5.671   6.044   1.165
 4623SOL    HW114768   5.623   6.011   1.247
 4623SOL    HW214769   5.706   6.136   1.181
 4624SOL     OW14770   3.925   6.682   3.141
 4624SOL    HW114771   3.881   6.690   3.231
 4624SOL    HW214772   4.018   6.720   3.147
 4625SOL     OW14773   1.993   4.323   1.295
 4625SOL    HW114774   1.932   4.397   1.268
 4625SOL    HW214775   1.943   4.237   1.298
 4626SOL     OW14776   5.815   4.379   1.936
 4626SOL    HW114777   5.758   4.388   1.855
 4626SOL    HW214778   5.780   4.438   2.009
 4627SOL     OW14779   1.884   4.579   4.806
 4627SOL    HW114780   1.921   4.505   4.861
 4627SOL    HW214781   1.897   4.558   4.709
 4628SOL     OW14782   5.634   4.033   4.022
 4628SOL    HW114783   5.693   3.969   4.071
 4628SOL    HW214784   5.655   4.030   3.925
 4629SOL     OW14785   2.460   4.881   5.833
 4629SOL    HW114786   2.500   4.933   5.909
 4629SOL    HW214787   2.525   4.809   5.805
 4630SOL     OW14788   2.911   6.369   2.188
 4630SOL    HW114789   2.949   6.420   2.110
 4630SOL    HW214790   2.913   6.271   2.167
 4631SOL     OW14791   1.900   5.782   3.494
 4631SOL    HW114792   1.985   5.740   3.525
 4631SOL    HW214793   1.823   5.740   3.542
 4632SOL     OW14794   3.052   4.867   2.489
 4632SOL    HW114795   3.109   4.845   2.409
 4632SOL    HW214796   2.966   4.816   2.483
 4633SOL     OW14797   5.859   0.783   4.729
 4633SOL    HW114798   5.842   0.820   4.821
 4633SOL    HW214799   5.882   0.685   4.737
 4634SOL     OW14800   3.069   4.206   5.738
 4634SOL    HW114801   3.085   4.275   5.668
 4634SOL    HW214802   3.111   4.236   5.824
 4635SOL     OW14803   5.227   3.806   1.774
 4635SOL    HW114804   5.289   3.821   1.697
 4635SOL    HW214805   5.149   3.868   1.766
 4636SOL     OW14806   1.535   4.434   6.902
 4636SOL    HW114807   1.517   4.529   6.879
 4636SOL    HW214808   1.527   4.377   6.821
 4637SOL     OW14809   0.939   6.042   1.130
 4637SOL    HW114810   1.031   6.006   1.142
 4637SOL    HW214811   0.884   6.018   1.210
 4638SOL     OW14812   4.018   4.669   7.021
 4638SOL    HW114813   4.081   4.607   0.045
 4638SOL    HW214814   3.943   4.617   6.980
 4639SOL     OW14815   3.599   3.420   5.674
 4639SOL    HW114816   3.603   3.506   5.726
 4639SOL    HW214817   3.572   3.346   5.735
 4640SOL     OW14818   4.774   3.927   3.786
 4640SOL    HW114819   4.825   3.856   3.738
 4640SOL    HW214820   4.745   3.893   3.876
 4641SOL     OW14821   2.517   0.256   4.855
 4641SOL    HW114822   2.432   0.206   4.866
 4641SOL    HW214823   2.519   0.300   4.764
 4642SOL     OW14824   1.298   6.137   4.013
 4642SOL    HW114825   1.305   6.142   4.112
 4642SOL    HW214826   1.330   6.048   3.981
 4643SOL     OW14827   6.531   2.133   0.685
 4643SOL    HW114828   6.579   2.113   0.770
 4643SOL    HW214829   6.576   2.088   0.609
 4644SOL     OW14830   0.088   5.374   5.796
 4644SOL    HW114831   0.115   5.278   5.803
 4644SOL    HW214832   0.168   5.432   5.811
 4645SOL     OW14833   0.267   6.994   4.078
 4645SOL    HW114834   0.285   6.912   4.132
 4645SOL    HW214835   0.350   7.021   4.029
 4646SOL     OW14836   2.420   5.648   3.672
 4646SOL    HW114837   2.345   5.615   3.729
 4646SOL    HW214838   2.477   5.712   3.724
 4647SOL     OW14839   1.764   6.909   2.889
 4647SOL    HW114840   1.809   6.823   2.867
 4647SOL    HW214841   1.829   6.971   2.933
 4648SOL     OW14842   3.418   1.013   2.890
 4648SOL    HW114843   3.424   1.042   2.795
 4648SOL    HW214844   3.391   1.090   2.947
 4649SOL     OW14845   5.099   0.898   6.876
 4649SOL    HW114846   5.102   0.805   6.912
 4649SOL    HW214847   5.117   0.963   6.950
 4650SOL     OW14848   4.908   5.411   2.656
 4650SOL    HW114849   4.836   5.341   2.659
 4650SOL    HW214850   4.879   5.485   2.596
 4651SOL     OW14851   6.245   3.353   0.400
 4651SOL    HW114852   6.204   3.430   0.350
 4651SOL    HW214853   6.182   3.276   0.400
 4652SOL     OW14854   6.375   6.426   4.251
 4652SOL    HW114855   6.296   6.364   4.248
 4652SOL    HW214856   6.401   6.451   4.158
 4653SOL     OW14857   5.250   5.402   1.246
 4653SOL    HW114858   5.303   5.327   1.283
 4653SOL    HW214859   5.281   5.488   1.286
 4654SOL     OW14860   0.353   6.809   0.307
 4654SOL    HW114861   0.314   6.724   0.271
 4654SOL    HW214862   0.448   6.818   0.276
 4655SOL     OW14863   5.833   4.126   1.284
 4655SOL    HW114864   5.845   4.085   1.193
 4655SOL    HW214865   5.900   4.199   1.297
 4656SOL     OW14866   1.306   0.307   2.734
 4656SOL    HW114867   1.213   0.304   2.770
 4656SOL    HW214868   1.304   0.320   2.635
 4657SOL     OW14869   4.456   6.223   1.892
 4657SOL    HW114870   4.434   6.152   1.958
 4657SOL    HW214871   4.466   6.311   1.939
 4658SOL     OW14872   3.950   0.872   3.223
 4658SOL    HW114873   4.039   0.852   3.182
 4658SOL    HW214874   3.962   0.890   3.321
 4659SOL     OW14875   3.231   4.402   5.533
 4659SOL    HW114876   3.329   4.405   5.514
 4659SOL    HW214877   3.212   4.452   5.618
 4660SOL     OW14878   0.978   4.511   5.466
 4660SOL    HW114879   0.895   4.456   5.469
 4660SOL    HW214880   1.058   4.451   5.461
 4661SOL     OW14881   2.789   4.369   6.055
 4661SOL    HW114882   2.702   4.416   6.064
 4661SOL    HW214883   2.794   4.323   5.967
 4662SOL     OW14884   3.138   0.487   5.428
 4662SOL    HW114885   3.227   0.524   5.456
 4662SOL    HW214886   3.075   0.562   5.410
 4663SOL     OW14887   0.294   1.788   1.112
 4663SOL    HW114888   0.344   1.715   1.160
 4663SOL    HW214889   0.321   1.877   1.149
 4664SOL     OW14890   1.525   0.962   1.399
 4664SOL    HW114891   1.542   0.932   1.493
 4664SOL    HW214892   1.564   0.896   1.335
 4665SOL     OW14893   3.407   6.658   6.757
 4665SOL    HW114894   3.493   6.619   6.725
 4665SOL    HW214895   3.346   6.585   6.787
 4666SOL     OW14896   1.860   2.976   0.163
 4666SOL    HW114897   1.899   2.903   0.218
 4666SOL    HW214898   1.805   3.037   0.221
 4667SOL     OW14899   6.979   3.437   2.447
 4667SOL    HW114900   6.920   3.505   2.403
 4667SOL    HW214901   6.965   3.348   2.404
 4668SOL     OW14902   4.210   2.274   3.416
 4668SOL    HW114903   4.133   2.274   3.352
 4668SOL    HW214904   4.288   2.321   3.374
 4669SOL     OW14905   4.679   6.636   6.811
 4669SOL    HW114906   4.732   6.627   6.896
 4669SOL    HW214907   4.603   6.698   6.826
 4670SOL     OW14908   2.270   2.282   5.483
 4670SOL    HW114909   2.226   2.192   5.484
 4670SOL    HW214910   2.224   2.342   5.549
 4671SOL     OW14911   0.096   2.826   0.220
 4671SOL    HW114912   0.078   2.778   0.306
 4671SOL    HW214913   0.152   2.907   0.238
 4672SOL     OW14914   2.617   4.737   5.630
 4672SOL    HW114915   2.695   4.789   5.597
 4672SOL    HW214916   2.545   4.736   5.560
 4673SOL     OW14917   5.063   6.711   2.326
 4673SOL    HW114918   5.095   6.712   2.421
 4673SOL    HW214919   5.140   6.730   2.265
 4674SOL     OW14920   5.432   0.947   6.234
 4674SOL    HW114921   5.449   0.862   6.283
 4674SOL    HW214922   5.448   0.932   6.136
 4675SOL     OW14923   2.463   1.165   6.516
 4675SOL    HW114924   2.376   1.213   6.507
 4675SOL    HW214925   2.447   1.067   6.524
 4676SOL     OW14926   6.753   6.297   4.246
 4676SOL    HW114927   6.689   6.315   4.321
 4676SOL    HW214928   6.825   6.236   4.278
 4677SOL     OW14929   2.412   1.530   6.289
 4677SOL    HW114930   2.324   1.558   6.326
 4677SOL    HW214931   2.482   1.536   6.360
 4678SOL     OW14932   1.569   4.249   3.182
 4678SOL    HW114933   1.571   4.335   3.130
 4678SOL    HW214934   1.555   4.173   3.120
 4679SOL     OW14935   3.540   1.291   0.229
 4679SOL    HW114936   3.496   1.204   0.207
 4679SOL    HW214937   3.511   1.322   0.320
 4680SOL     OW14938   2.769   1.516   0.741
 4680SOL    HW114939   2.823   1.448   0.791
 4680SOL    HW214940   2.703   1.558   0.803
 4681SOL     OW14941   5.269   5.963   6.228
 4681SOL    HW114942   5.233   5.941   6.319
 4681SOL    HW214943   5.292   6.060   6.224
 4682SOL     OW14944   4.391   4.277   5.764
 4682SOL    HW114945   4.463   4.227   5.717
 4682SOL    HW214946   4.313   4.290   5.702
 4683SOL     OW14947   4.247   4.967   2.816
 4683SOL    HW114948   4.326   5.015   2.776
 4683SOL    HW214949   4.176   5.034   2.838
 4684SOL     OW14950   6.650   1.719   5.238
 4684SOL    HW114951   6.693   1.684   5.155
 4684SOL    HW214952   6.715   1.714   5.314
 4685SOL     OW14953   0.768   6.402   5.438
 4685SOL    HW114954   0.812   6.467   5.501
 4685SOL    HW214955   0.832   6.327   5.419
 4686SOL     OW14956   4.422   5.131   6.776
 4686SOL    HW114957   4.495   5.197   6.794
 4686SOL    HW214958   4.445   5.043   6.817
 4687SOL     OW14959   6.280   4.004   4.467
 4687SOL    HW114960   6.366   4.037   4.506
 4687SOL    HW214961   6.204   4.030   4.527
 4688SOL     OW14962   6.439   4.103   4.688
 4688SOL    HW114963   6.440   4.041   4.765
 4688SOL    HW214964   6.386   4.185   4.710
 4689SOL     OW14965   5.743   0.413   0.562
 4689SOL    HW114966   5.722   0.472   0.641
 4689SOL    HW214967   5.806   0.461   0.500
 4690SOL     OW14968   1.211   0.283   6.961
 4690SOL    HW114969   1.247   0.319   6.875
 4690SOL    HW214970   1.287   0.260   0.000
 4691SOL     OW14971   3.000   4.967   1.822
 4691SOL    HW114972   3.018   5.036   1.751
 4691SOL    HW214973   3.040   4.997   1.908
 4692SOL     OW14974   5.824   5.736   2.246
 4692SOL    HW114975   5.839   5.645   2.283
 4692SOL    HW214976   5.732   5.768   2.269
 4693SOL     OW14977   1.276   0.984   2.998
 4693SOL    HW114978   1.200   1.027   3.047
 4693SOL    HW214979   1.248   0.895   2.963
 4694SOL     OW14980   2.397   0.355   0.376
 4694SOL    HW114981   2.370   0.421   0.446
 4694SOL    HW214982   2.351   0.268   0.392
 4695SOL     OW14983   2.028   3.755   1.712
 4695SOL    HW114984   2.018   3.679   1.776
 4695SOL    HW214985   2.111   3.742   1.657
 4696SOL     OW14986   0.331   4.180   6.750
 4696SOL    HW114987   0.389   4.120   6.696
 4696SOL    HW214988   0.366   4.185   6.844
 4697SOL     OW14989   2.162   3.461   0.973
 4697SOL    HW114990   2.233   3.392   0.958
 4697SOL    HW214991   2.204   3.543   1.012
 4698SOL     OW14992   4.477   5.556   3.114
 4698SOL    HW114993   4.559   5.572   3.060
 4698SOL    HW214994   4.414   5.498   3.063
 4699SOL     OW14995   1.893   0.054   1.845
 4699SOL    HW114996   1.869   0.136   1.897
 4699SOL    HW214997   1.811   7.020   1.830
 4700SOL     OW14998   6.630   1.892   2.777
 4700SOL    HW114999   6.644   1.855   2.685
 4700SOL    HW215000   6.563   1.966   2.774
 4701SOL     OW15001   2.120   2.233   6.989
 4701SOL    HW115002   2.064   2.159   6.951
 4701SOL    HW215003   2.167   2.281   6.915
 4702SOL     OW15004   4.570   4.890   6.507
 4702SOL    HW115005   4.527   4.980   6.498
 4702SOL    HW215006   4.585   4.851   6.417
 4703SOL     OW15007   0.816   1.332   1.463
 4703SOL    HW115008   0.881   1.322   1.538
 4703SOL    HW215009   0.742   1.266   1.473
 4704SOL     OW15010   1.000   0.021   0.451
 4704SOL    HW115011   1.038   0.113   0.441
 4704SOL    HW215012   0.906   0.019   0.416
 4705SOL     OW15013   3.212   3.233   1.974
 4705SOL    HW115014   3.177   3.175   2.048
 4705SOL    HW215015   3.142   3.300   1.949
 4706SOL     OW15016   3.581   0.299   6.799
 4706SOL    HW115017   3.672   0.260   6.783
 4706SOL    HW215018   3.522   0.230   6.839
 4707SOL     OW15019   1.763   6.380   1.098
 4707SOL    HW115020   1.810   6.467   1.082
 4707SOL    HW215021   1.757   6.363   1.196
 4708SOL     OW15022   1.124   1.620   6.522
 4708SOL    HW115023   1.038   1.582   6.487
 4708SOL    HW215024   1.198   1.554   6.507
 4709SOL     OW15025   4.547   5.757   5.640
 4709SOL    HW115026   4.547   5.842   5.587
 4709SOL    HW215027   4.520   5.681   5.581
 4710SOL     OW15028   3.908   1.137   5.205
 4710SOL    HW115029   3.976   1.106   5.271
 4710SOL    HW215030   3.821   1.090   5.222
 4711SOL     OW15031   5.293   0.923   1.358
 4711SOL    HW115032   5.355   0.981   1.410
 4711SOL    HW215033   5.253   0.854   1.418
 4712SOL     OW15034   2.866   4.379   0.014
 4712SOL    HW115035   2.881   4.470   6.996
 4712SOL    HW215036   2.902   4.376   0.107
 4713SOL     OW15037   3.119   3.225   0.447
 4713SOL    HW115038   3.070   3.190   0.526
 4713SOL    HW215039   3.059   3.286   0.394
 4714SOL     OW15040   1.058   2.641   6.584
 4714SOL    HW115041   1.093   2.587   6.661
 4714SOL    HW215042   1.017   2.725   6.619
 4715SOL     OW15043   6.820   2.752   2.330
 4715SOL    HW115044   6.868   2.664   2.326
 4715SOL    HW215045   6.764   2.756   2.413
 4716SOL     OW15046   5.089   5.862   6.849
 4716SOL    HW115047   5.061   5.950   6.811
 4716SOL    HW215048   5.171   5.875   6.905
 4717SOL     OW15049   0.378   6.883   3.262
 4717SOL    HW115050   0.338   6.940   3.190
 4717SOL    HW215051   0.305   6.840   3.315
 4718SOL     OW15052   5.838   2.442   1.334
 4718SOL    HW115053   5.894   2.459   1.415
 4718SOL    HW215054   5.751   2.492   1.343
 4719SOL     OW15055   5.357   3.380   2.029
 4719SOL    HW115056   5.337   3.322   1.950
 4719SOL    HW215057   5.272   3.401   2.077
 4720SOL     OW15058   2.272   5.198   6.177
 4720SOL    HW115059   2.364   5.188   6.139
 4720SOL    HW215060   2.229   5.109   6.187
 4721SOL     OW15061   0.119   2.124   1.616
 4721SOL    HW115062   0.202   2.158   1.660
 4721SOL    HW215063   0.041   2.140   1.676
 4722SOL     OW15064   0.910   6.196   6.306
 4722SOL    HW115065   1.004   6.163   6.322
 4722SOL    HW215066   0.886   6.262   6.377
 4723SOL     OW15067   1.741   3.887   5.793
 4723SOL    HW115068   1.731   3.966   5.855
 4723SOL    HW215069   1.814   3.906   5.727
 4724SOL     OW15070   5.849   6.039   2.939
 4724SOL    HW115071   5.790   5.985   2.999
 4724SOL    HW215072   5.916   5.979   2.895
 4725SOL     OW15073   6.177   5.702   2.845
 4725SOL    HW115074   6.208   5.609   2.865
 4725SOL    HW215075   6.137   5.742   2.928
 4726SOL     OW15076   1.714   2.553   5.625
 4726SOL    HW115077   1.683   2.513   5.539
 4726SOL    HW215078   1.682   2.497   5.702
 4727SOL     OW15079   0.800   5.933   0.790
 4727SOL    HW115080   0.721   5.993   0.802
 4727SOL    HW215081   0.802   5.900   0.695
 4728SOL     OW15082   5.297   0.604   1.876
 4728SOL    HW115083   5.366   0.543   1.838
 4728SOL    HW215084   5.339   0.662   1.947
 4729SOL     OW15085   2.568   1.527   0.940
 4729SOL    HW115086   2.519   1.460   0.996
 4729SOL    HW215087   2.504   1.572   0.878
 4730SOL     OW15088   3.228   5.662   4.953
 4730SOL    HW115089   3.141   5.676   4.905
 4730SOL    HW215090   3.282   5.746   4.947
 4731SOL     OW15091   4.415   0.110   6.862
 4731SOL    HW115092   4.365   0.155   6.788
 4731SOL    HW215093   4.514   0.126   6.850
 4732SOL     OW15094   0.931   3.329   6.432
 4732SOL    HW115095   0.851   3.309   6.488
 4732SOL    HW215096   0.989   3.247   6.426
 4733SOL     OW15097   1.207   4.164   3.431
 4733SOL    HW115098   1.224   4.255   3.391
 4733SOL    HW215099   1.240   4.094   3.368
 4734SOL     OW15100   4.615   2.513   0.729
 4734SOL    HW115101   4.524   2.539   0.763
 4734SOL    HW215102   4.644   2.429   0.776
 4735SOL     OW15103   0.139   5.925   5.158
 4735SOL    HW115104   0.209   5.856   5.138
 4735SOL    HW215105   0.091   5.899   5.242
 4736SOL     OW15106   0.039   2.461   6.501
 4736SOL    HW115107   6.988   2.525   6.474
 4736SOL    HW215108   0.099   2.504   6.568
 4737SOL     OW15109   2.328   4.390   2.373
 4737SOL    HW115110   2.296   4.302   2.407
 4737SOL    HW215111   2.398   4.427   2.434
 4738SOL     OW15112   0.432   6.470   3.415
 4738SOL    HW115113   0.513   6.474   3.475
 4738SOL    HW215114   0.351   6.449   3.470
 4739SOL     OW15115   4.653   6.103   3.340
 4739SOL    HW115116   4.605   6.133   3.422
 4739SOL    HW215117   4.664   6.181   3.278
 4740SOL     OW15118   1.446   1.211   1.368
 4740SOL    HW115119   1.480   1.125   1.406
 4740SOL    HW215120   1.350   1.223   1.393
 4741SOL     OW15121   3.607   3.270   1.243
 4741SOL    HW115122   3.630   3.215   1.162
 4741SOL    HW215123   3.680   3.263   1.310
 4742SOL     OW15124   3.426   0.169   5.423
 4742SOL    HW115125   3.427   0.139   5.328
 4742SOL    HW215126   3.507   0.226   5.441
 4743SOL     OW15127   1.718   3.434   3.077
 4743SOL    HW115128   1.708   3.346   3.030
 4743SOL    HW215129   1.757   3.419   3.167
 4744SOL     OW15130   1.374   4.546   0.679
 4744SOL    HW115131   1.443   4.505   0.619
 4744SOL    HW215132   1.404   4.541   0.774
 4745SOL     OW15133   3.151   3.544   5.627
 4745SOL    HW115134   3.236   3.591   5.601
 4745SOL    HW215135   3.073   3.597   5.595
 4746SOL     OW15136   5.532   6.325   2.758
 4746SOL    HW115137   5.549   6.234   2.796
 4746SOL    HW215138   5.591   6.340   2.679
 4747SOL     OW15139   1.460   3.941   0.117
 4747SOL    HW115140   1.419   3.904   0.033
 4747SOL    HW215141   1.528   3.877   0.151
 4748SOL     OW15142   2.434   5.364   1.022
 4748SOL    HW115143   2.387   5.408   0.946
 4748SOL    HW215144   2.506   5.425   1.056
 4749SOL     OW15145   2.175   6.019   6.061
 4749SOL    HW115146   2.115   5.962   6.004
 4749SOL    HW215147   2.241   5.960   6.108
 4750SOL     OW15148   0.278   3.857   4.749
 4750SOL    HW115149   0.311   3.951   4.744
 4750SOL    HW215150   0.227   3.845   4.835
 4751SOL     OW15151   3.978   2.118   2.650
 4751SOL    HW115152   3.918   2.087   2.576
 4751SOL    HW215153   3.932   2.103   2.738
 4752SOL     OW15154   4.156   1.296   6.597
 4752SOL    HW115155   4.198   1.294   6.688
 4752SOL    HW215156   4.227   1.290   6.527
 4753SOL     OW15157   6.396   0.335   3.922
 4753SOL    HW115158   6.465   0.264   3.908
 4753SOL    HW215159   6.434   0.408   3.978
 4754SOL     OW15160   5.563   4.593   4.806
 4754SOL    HW115161   5.476   4.636   4.785
 4754SOL    HW215162   5.566   4.501   4.768
 4755SOL     OW15163   3.032   0.823   0.294
 4755SOL    HW115164   2.952   0.831   0.355
 4755SOL    HW215165   3.028   0.895   0.225
 4756SOL     OW15166   5.932   2.773   6.567
 4756SOL    HW115167   5.859   2.745   6.504
 4756SOL    HW215168   5.936   2.709   6.644
 4757SOL     OW15169   2.432   1.747   1.416
 4757SOL    HW115170   2.502   1.681   1.443
 4757SOL    HW215171   2.477   1.832   1.388
 4758SOL     OW15172   1.728   6.513   3.349
 4758SOL    HW115173   1.794   6.576   3.307
 4758SOL    HW215174   1.639   6.557   3.357
 4759SOL     OW15175   6.876   4.451   5.181
 4759SOL    HW115176   6.788   4.487   5.152
 4759SOL    HW215177   6.922   4.519   5.238
 4760SOL     OW15178   2.319   1.938   0.026
 4760SOL    HW115179   2.322   1.874   0.102
 4760SOL    HW215180   2.245   1.912   6.985
 4761SOL     OW15181   0.931   6.213   0.766
 4761SOL    HW115182   0.856   6.158   0.803
 4761SOL    HW215183   1.015   6.191   0.815
 4762SOL     OW15184   1.672   5.430   1.831
 4762SOL    HW115185   1.761   5.469   1.854
 4762SOL    HW215186   1.677   5.383   1.743
 4763SOL     OW15187   6.319   0.196   2.420
 4763SOL    HW115188   6.385   0.148   2.361
 4763SOL    HW215189   6.365   0.273   2.464
 4764SOL     OW15190   4.943   3.813   5.009
 4764SOL    HW115191   5.034   3.796   4.971
 4764SOL    HW215192   4.894   3.726   5.018
 4765SOL     OW15193   4.635   0.525   5.298
 4765SOL    HW115194   4.602   0.612   5.261
 4765SOL    HW215195   4.692   0.542   5.379
 4766SOL     OW15196   5.755   5.743   3.657
 4766SOL    HW115197   5.854   5.741   3.641
 4766SOL    HW215198   5.716   5.825   3.616
 4767SOL     OW15199   2.698   5.518   5.109
 4767SOL    HW115200   2.650   5.447   5.056
 4767SOL    HW215201   2.774   5.477   5.158
 4768SOL     OW15202   4.668   2.171   6.238
 4768SOL    HW115203   4.661   2.180   6.139
 4768SOL    HW215204   4.686   2.076   6.263
 4769SOL     OW15205   4.836   5.694   6.756
 4769SOL    HW115206   4.898   5.770   6.773
 4769SOL    HW215207   4.880   5.608   6.783
 4770SOL     OW15208   6.569   1.550   4.280
 4770SOL    HW115209   6.537   1.633   4.235
 4770SOL    HW215210   6.499   1.479   4.272
 4771SOL     OW15211   2.606   5.697   5.498
 4771SOL    HW115212   2.669   5.729   5.569
 4771SOL    HW215213   2.572   5.606   5.523
 4772SOL     OW15214   4.000   5.240   0.245
 4772SOL    HW115215   4.019   5.225   0.342
 4772SOL    HW215216   4.051   5.175   0.190
 4773SOL     OW15217   6.844   5.120   4.748
 4773SOL    HW115218   6.849   5.030   4.790
 4773SOL    HW215219   6.866   5.114   4.651
 4774SOL     OW15220   2.042   3.435   1.239
 4774SOL    HW115221   2.079   3.437   1.146
 4774SOL    HW215222   1.958   3.381   1.240
 4775SOL     OW15223   5.919   6.543   2.822
 4775SOL    HW115224   5.993   6.509   2.764
 4775SOL    HW215225   5.844   6.576   2.766
 4776SOL     OW15226   1.752   6.759   5.599
 4776SOL    HW115227   1.709   6.673   5.628
 4776SOL    HW215228   1.836   6.773   5.651
 4777SOL     OW15229   1.511   5.000   1.313
 4777SOL    HW115230   1.433   5.063   1.307
 4777SOL    HW215231   1.528   4.978   1.409
 4778SOL     OW15232   6.424   3.112   3.878
 4778SOL    HW115233   6.383   3.115   3.787
 4778SOL    HW215234   6.476   3.196   3.894
 4779SOL     OW15235   5.951   6.389   2.310
 4779SOL    HW115236   5.916   6.471   2.265
 4779SOL    HW215237   5.892   6.311   2.289
 4780SOL     OW15238   6.049   2.064   7.015
 4780SOL    HW115239   6.096   2.114   6.942
 4780SOL    HW215240   6.074   2.104   0.082
 4781SOL     OW15241   2.807   5.727   2.901
 4781SOL    HW115242   2.861   5.659   2.951
 4781SOL    HW215243   2.867   5.780   2.840
 4782SOL     OW15244   6.244   5.366   6.877
 4782SOL    HW115245   6.214   5.424   6.801
 4782SOL    HW215246   6.340   5.385   6.898
 4783SOL     OW15247   4.982   4.012   0.028
 4783SOL    HW115248   4.924   4.072   6.994
 4783SOL    HW215249   5.012   3.934   6.993
 4784SOL     OW15250   6.368   2.936   6.103
 4784SOL    HW115251   6.392   3.033   6.101
 4784SOL    HW215252   6.431   2.885   6.045
 4785SOL     OW15253   1.109   6.012   3.092
 4785SOL    HW115254   1.120   6.111   3.090
 4785SOL    HW215255   1.196   5.969   3.118
 4786SOL     OW15256   2.312   0.338   0.840
 4786SOL    HW115257   2.292   0.304   0.933
 4786SOL    HW215258   2.279   0.271   0.773
 4787SOL     OW15259   4.035   1.298   2.890
 4787SOL    HW115260   4.076   1.272   2.977
 4787SOL    HW215261   4.072   1.387   2.861
 4788SOL     OW15262   6.528   6.074   0.083
 4788SOL    HW115263   6.527   6.173   0.071
 4788SOL    HW215264   6.550   6.031   7.016
 4789SOL     OW15265   5.248   1.684   1.805
 4789SOL    HW115266   5.268   1.717   1.897
 4789SOL    HW215267   5.269   1.756   1.738
 4790SOL     OW15268   5.777   1.385   5.515
 4790SOL    HW115269   5.687   1.377   5.556
 4790SOL    HW215270   5.795   1.480   5.490
 4791SOL     OW15271   0.451   3.195   0.966
 4791SOL    HW115272   0.422   3.264   1.032
 4791SOL    HW215273   0.371   3.144   0.933
 4792SOL     OW15274   2.668   4.607   3.747
 4792SOL    HW115275   2.744   4.657   3.791
 4792SOL    HW215276   2.678   4.612   3.648
 4793SOL     OW15277   2.214   2.882   5.209
 4793SOL    HW115278   2.274   2.874   5.288
 4793SOL    HW215279   2.267   2.914   5.130
 4794SOL     OW15280   5.457   6.994   4.905
 4794SOL    HW115281   5.439   6.972   4.809
 4794SOL    HW215282   5.465   6.909   4.958
 4795SOL     OW15283   6.287   1.910   4.127
 4795SOL    HW115284   6.244   1.974   4.191
 4795SOL    HW215285   6.228   1.896   4.048
 4796SOL     OW15286   4.697   1.317   5.030
 4796SOL    HW115287   4.734   1.373   4.956
 4796SOL    HW215288   4.725   1.357   5.118
 4797SOL     OW15289   0.591   6.618   5.358
 4797SOL    HW115290   0.617   6.523   5.341
 4797SOL    HW215291   0.514   6.620   5.422
 4798SOL     OW15292   0.084   4.112   5.695
 4798SOL    HW115293   0.102   4.073   5.605
 4798SOL    HW215294   0.111   4.208   5.695
 4799SOL     OW15295   3.647   1.757   0.694
 4799SOL    HW115296   3.639   1.764   0.794
 4799SOL    HW215297   3.727   1.703   0.671
 4800SOL     OW15298   2.238   3.233   6.927
 4800SOL    HW115299   2.242   3.217   6.828
 4800SOL    HW215300   2.244   3.331   6.945
 4801SOL     OW15301   3.112   2.559   0.001
 4801SOL    HW115302   3.121   2.464   6.993
 4801SOL    HW215303   3.128   2.620   6.944
 4802SOL     OW15304   0.441   6.348   2.207
 4802SOL    HW115305   0.497   6.374   2.128
 4802SOL    HW215306   0.367   6.414   2.219
 4803SOL     OW15307   0.039   4.481   6.545
 4803SOL    HW115308   0.130   4.475   6.504
 4803SOL    HW215309   7.005   4.546   6.493
 4804SOL     OW15310   6.741   6.211   1.826
 4804SOL    HW115311   6.644   6.197   1.846
 4804SOL    HW215312   6.785   6.123   1.809
 4805SOL     OW15313   5.583   1.421   1.974
 4805SOL    HW115314   5.516   1.443   1.903
 4805SOL    HW215315   5.675   1.434   1.938
 4806SOL     OW15316   0.936   4.298   2.457
 4806SOL    HW115317   1.028   4.328   2.479
 4806SOL    HW215318   0.919   4.208   2.496
 4807SOL     OW15319   0.298   4.895   0.347
 4807SOL    HW115320   0.198   4.886   0.346
 4807SOL    HW215321   0.331   4.893   0.442
 4808SOL     OW15322   4.793   5.298   0.452
 4808SOL    HW115323   4.809   5.212   0.501
 4808SOL    HW215324   4.726   5.352   0.503
 4809SOL     OW15325   3.725   5.190   0.321
 4809SOL    HW115326   3.690   5.283   0.334
 4809SOL    HW215327   3.821   5.195   0.294
 4810SOL     OW15328   1.550   4.281   2.750
 4810SOL    HW115329   1.567   4.209   2.818
 4810SOL    HW215330   1.531   4.240   2.661
 4811SOL     OW15331   2.933   4.058   1.730
 4811SOL    HW115332   2.852   4.005   1.704
 4811SOL    HW215333   2.971   4.021   1.815
 4812SOL     OW15334   0.632   5.901   2.221
 4812SOL    HW115335   0.564   5.954   2.170
 4812SOL    HW215336   0.693   5.964   2.270
 4813SOL     OW15337   5.401   1.458   0.044
 4813SOL    HW115338   5.414   1.364   0.012
 4813SOL    HW215339   5.388   1.518   6.986
 4814SOL     OW15340   0.122   3.042   1.055
 4814SOL    HW115341   0.141   3.139   1.046
 4814SOL    HW215342   0.032   3.022   1.018
 4815SOL     OW15343   5.112   3.848   2.688
 4815SOL    HW115344   5.171   3.853   2.768
 4815SOL    HW215345   5.155   3.792   2.617
 4816SOL     OW15346   2.303   4.889   1.363
 4816SOL    HW115347   2.365   4.951   1.314
 4816SOL    HW215348   2.346   4.859   1.447
 4817SOL     OW15349   2.445   1.464   0.356
 4817SOL    HW115350   2.401   1.419   0.433
 4817SOL    HW215351   2.540   1.484   0.378
 4818SOL     OW15352   0.288   0.236   4.506
 4818SOL    HW115353   0.378   0.218   4.465
 4818SOL    HW215354   0.236   0.296   4.445
 4819SOL     OW15355   2.286   2.204   1.423
 4819SOL    HW115356   2.323   2.163   1.340
 4819SOL    HW215357   2.288   2.304   1.414
 4820SOL     OW15358   6.663   2.513   1.642
 4820SOL    HW115359   6.573   2.550   1.663
 4820SOL    HW215360   6.661   2.413   1.653
 4821SOL     OW15361   0.742   6.628   2.489
 4821SOL    HW115362   0.658   6.628   2.435
 4821SOL    HW215363   0.722   6.603   2.583
 4822SOL     OW15364   2.122   3.212   4.543
 4822SOL    HW115365   2.199   3.149   4.552
 4822SOL    HW215366   2.060   3.201   4.621
 4823SOL     OW15367   1.183   0.620   4.206
 4823SOL    HW115368   1.231   0.665   4.131
 4823SOL    HW215369   1.103   0.572   4.169
 4824SOL     OW15370   4.980   2.036   4.219
 4824SOL    HW115371   4.918   2.113   4.234
 4824SOL    HW215372   4.977   2.009   4.123
 4825SOL     OW15373   2.008   1.854   4.753
 4825SOL    HW115374   2.010   1.919   4.678
 4825SOL    HW215375   2.086   1.870   4.814
 4826SOL     OW15376   0.252   1.386   6.193
 4826SOL    HW115377   0.214   1.420   6.279
 4826SOL    HW215378   0.324   1.448   6.161
 4827SOL     OW15379   6.385   1.644   1.335
 4827SOL    HW115380   6.481   1.671   1.346
 4827SOL    HW215381   6.328   1.726   1.335
 4828SOL     OW15382   5.384   3.201   1.139
 4828SOL    HW115383   5.331   3.277   1.175
 4828SOL    HW215384   5.396   3.132   1.210
 4829SOL     OW15385   4.241   6.718   6.807
 4829SOL    HW115386   4.243   6.651   6.882
 4829SOL    HW215387   4.310   6.789   6.825
 4830SOL     OW15388   4.559   6.682   3.930
 4830SOL    HW115389   4.616   6.602   3.912
 4830SOL    HW215390   4.536   6.685   4.028
 4831SOL     OW15391   0.125   4.622   6.148
 4831SOL    HW115392   0.066   4.702   6.138
 4831SOL    HW215393   0.133   4.576   6.059
 4832SOL     OW15394   3.151   3.278   4.990
 4832SOL    HW115395   3.212   3.250   4.916
 4832SOL    HW215396   3.137   3.377   4.986
 4833SOL     OW15397   4.910   2.371   2.917
 4833SOL    HW115398   4.825   2.379   2.968
 4833SOL    HW215399   4.943   2.462   2.892
 4834SOL     OW15400   4.532   6.422   1.347
 4834SOL    HW115401   4.556   6.327   1.325
 4834SOL    HW215402   4.551   6.439   1.444
 4835SOL     OW15403   0.027   0.898   6.224
 4835SOL    HW115404   0.048   0.918   6.129
 4835SOL    HW215405   0.073   0.965   6.283
 4836SOL     OW15406   5.073   2.835   4.495
 4836SOL    HW115407   4.990   2.891   4.504
 4836SOL    HW215408   5.137   2.859   4.569
 4837SOL     OW15409   6.360   4.204   2.221
 4837SOL    HW115410   6.377   4.120   2.272
 4837SOL    HW215411   6.431   4.271   2.241
 4838SOL     OW15412   0.830   4.817   0.912
 4838SOL    HW115413   0.766   4.893   0.901
 4838SOL    HW215414   0.827   4.785   1.007
 4839SOL     OW15415   1.925   2.695   6.466
 4839SOL    HW115416   1.841   2.652   6.499
 4839SOL    HW215417   1.998   2.682   6.533
 4840SOL     OW15418   6.698   5.616   5.959
 4840SOL    HW115419   6.729   5.623   6.054
 4840SOL    HW215420   6.599   5.599   5.957
 4841SOL     OW15421   2.987   6.057   2.169
 4841SOL    HW115422   3.052   5.982   2.157
 4841SOL    HW215423   2.901   6.034   2.123
 4842SOL     OW15424   3.877   4.929   2.720
 4842SOL    HW115425   3.880   5.015   2.669
 4842SOL    HW215426   3.887   4.948   2.818
 4843SOL     OW15427   6.431   3.123   0.670
 4843SOL    HW115428   6.527   3.126   0.644
 4843SOL    HW215429   6.423   3.098   0.767
 4844SOL     OW15430   6.743   3.248   5.560
 4844SOL    HW115431   6.778   3.294   5.641
 4844SOL    HW215432   6.714   3.316   5.493
 4845SOL     OW15433   5.426   5.637   5.692
 4845SOL    HW115434   5.364   5.651   5.615
 4845SOL    HW215435   5.518   5.617   5.658
 4846SOL     OW15436   0.062   3.052   3.842
 4846SOL    HW115437   7.001   2.998   3.826
 4846SOL    HW215438   0.036   3.148   3.859
 4847SOL     OW15439   2.672   1.084   5.964
 4847SOL    HW115440   2.609   1.160   5.980
 4847SOL    HW215441   2.647   1.006   6.021
 4848SOL     OW15442   1.767   0.850   4.060
 4848SOL    HW115443   1.792   0.836   3.965
 4848SOL    HW215444   1.688   0.912   4.065
 4849SOL     OW15445   1.186   6.712   6.675
 4849SOL    HW115446   1.230   6.801   6.684
 4849SOL    HW215447   1.087   6.723   6.673
 4850SOL     OW15448   4.181   1.782   2.488
 4850SOL    HW115449   4.178   1.879   2.463
 4850SOL    HW215450   4.096   1.737   2.459
 4851SOL     OW15451   4.273   6.226   5.783
 4851SOL    HW115452   4.178   6.256   5.789
 4851SOL    HW215453   4.279   6.130   5.810
 4852SOL     OW15454   1.420   6.101   5.021
 4852SOL    HW115455   1.485   6.170   4.992
 4852SOL    HW215456   1.464   6.039   5.087
 4853SOL     OW15457   3.219   1.001   3.342
 4853SOL    HW115458   3.211   0.986   3.244
 4853SOL    HW215459   3.297   1.061   3.361
 4854SOL     OW15460   4.800   0.264   1.478
 4854SOL    HW115461   4.787   0.267   1.379
 4854SOL    HW215462   4.759   0.180   1.514
 4855SOL     OW15463   6.266   2.640   2.845
 4855SOL    HW115464   6.303   2.696   2.920
 4855SOL    HW215465   6.179   2.600   2.874
 4856SOL     OW15466   1.790   3.554   2.760
 4856SOL    HW115467   1.697   3.528   2.788
 4856SOL    HW215468   1.812   3.644   2.797
 4857SOL     OW15469   2.172   2.079   5.082
 4857SOL    HW115470   2.156   2.165   5.033
 4857SOL    HW215471   2.183   2.004   5.017
 4858SOL     OW15472   0.634   0.880   4.534
 4858SOL    HW115473   0.696   0.821   4.584
 4858SOL    HW215474   0.567   0.919   4.597
 4859SOL     OW15475   0.308   0.779   4.891
 4859SOL    HW115476   0.389   0.788   4.948
 4859SOL    HW215477   0.303   0.856   4.827
 4860SOL     OW15478   4.150   4.517   1.446
 4860SOL    HW115479   4.057   4.536   1.477
 4860SOL    HW215480   4.208   4.496   1.526
 4861SOL     OW15481   5.488   4.352   0.239
 4861SOL    HW115482   5.482   4.439   0.190
 4861SOL    HW215483   5.476   4.369   0.337
 4862SOL     OW15484   2.670   4.677   4.622
 4862SOL    HW115485   2.621   4.690   4.708
 4862SOL    HW215486   2.618   4.616   4.563
 4863SOL     OW15487   6.222   4.011   1.777
 4863SOL    HW115488   6.220   4.079   1.850
 4863SOL    HW215489   6.134   3.964   1.772
 4864SOL     OW15490   3.928   1.275   2.633
 4864SOL    HW115491   3.958   1.268   2.728
 4864SOL    HW215492   3.903   1.369   2.611
 4865SOL     OW15493   2.339   0.059   4.542
 4865SOL    HW115494   2.386   0.140   4.506
 4865SOL    HW215495   2.245   0.057   4.507
 4866SOL     OW15496   6.292   2.782   1.719
 4866SOL    HW115497   6.347   2.843   1.776
 4866SOL    HW215498   6.324   2.688   1.729
 4867SOL     OW15499   3.347   5.194   1.914
 4867SOL    HW115500   3.295   5.131   1.856
 4867SOL    HW215501   3.441   5.161   1.924
 4868SOL     OW15502   6.877   4.964   2.851
 4868SOL    HW115503   6.927   4.944   2.935
 4868SOL    HW215504   6.872   4.881   2.795
 4869SOL     OW15505   1.321   1.007   1.823
 4869SOL    HW115506   1.361   1.097   1.844
 4869SOL    HW215507   1.394   0.946   1.792
 4870SOL     OW15508   0.092   5.717   2.075
 4870SOL    HW115509   0.192   5.726   2.070
 4870SOL    HW215510   0.068   5.642   2.136
 4871SOL     OW15511   1.641   1.406   3.332
 4871SOL    HW115512   1.633   1.338   3.260
 4871SOL    HW215513   1.737   1.416   3.358
 4872SOL     OW15514   5.869   6.296   3.584
 4872SOL    HW115515   5.946   6.313   3.646
 4872SOL    HW215516   5.808   6.229   3.625
 4873SOL     OW15517   6.785   5.303   3.109
 4873SOL    HW115518   6.786   5.211   3.070
 4873SOL    HW215519   6.800   5.297   3.208
 4874SOL     OW15520   6.111   3.730   2.813
 4874SOL    HW115521   6.077   3.673   2.738
 4874SOL    HW215522   6.202   3.698   2.839
 4875SOL     OW15523   6.199   2.777   1.459
 4875SOL    HW115524   6.240   2.805   1.546
 4875SOL    HW215525   6.266   2.788   1.385
 4876SOL     OW15526   5.572   1.507   4.157
 4876SOL    HW115527   5.481   1.484   4.121
 4876SOL    HW215528   5.623   1.556   4.087
 4877SOL     OW15529   1.445   1.745   6.425
 4877SOL    HW115530   1.522   1.808   6.415
 4877SOL    HW215531   1.361   1.796   6.444
 4878SOL     OW15532   6.388   1.104   2.781
 4878SOL    HW115533   6.467   1.119   2.840
 4878SOL    HW215534   6.305   1.099   2.838
 4879SOL     OW15535   4.660   6.731   3.031
 4879SOL    HW115536   4.606   6.673   3.093
 4879SOL    HW215537   4.718   6.673   2.974
 4880SOL     OW15538   5.321   3.332   0.170
 4880SOL    HW115539   5.247   3.292   0.116
 4880SOL    HW215540   5.401   3.346   0.112
 4881SOL     OW15541   1.608   0.949   6.541
 4881SOL    HW115542   1.563   1.019   6.596
 4881SOL    HW215543   1.552   0.867   6.540
 4882SOL     OW15544   4.915   1.590   4.939
 4882SOL    HW115545   4.919   1.654   5.016
 4882SOL    HW215546   5.006   1.552   4.923
 4883SOL     OW15547   4.965   4.722   1.816
 4883SOL    HW115548   5.018   4.653   1.766
 4883SOL    HW215549   4.943   4.688   1.907
 4884SOL     OW15550   3.230   6.460   1.400
 4884SOL    HW115551   3.134   6.451   1.427
 4884SOL    HW215552   3.236   6.503   1.310
 4885SOL     OW15553   2.611   5.164   2.049
 4885SOL    HW115554   2.574   5.073   2.035
 4885SOL    HW215555   2.538   5.232   2.039
 4886SOL     OW15556   1.054   5.167   1.082
 4886SOL    HW115557   1.033   5.088   1.025
 4886SOL    HW215558   0.970   5.205   1.120
 4887SOL     OW15559   0.737   0.234   2.957
 4887SOL    HW115560   0.754   0.190   3.045
 4887SOL    HW215561   0.716   0.164   2.888
 4888SOL     OW15562   2.452   6.913   3.775
 4888SOL    HW115563   2.478   6.825   3.815
 4888SOL    HW215564   2.533   6.969   3.762
 4889SOL     OW15565   7.002   1.090   5.649
 4889SOL    HW115566   6.971   1.014   5.706
 4889SOL    HW215567   0.052   1.141   5.697
 4890SOL     OW15568   1.025   1.236   6.863
 4890SOL    HW115569   0.954   1.273   6.923
 4890SOL    HW215570   0.993   1.239   6.768
 4891SOL     OW15571   1.526   4.279   6.672
 4891SOL    HW115572   1.431   4.289   6.643
 4891SOL    HW215573   1.585   4.333   6.612
 4892SOL     OW15574   3.564   5.624   1.927
 4892SOL    HW115575   3.618   5.580   1.855
 4892SOL    HW215576   3.556   5.722   1.909
 4893SOL     OW15577   6.748   3.438   1.712
 4893SOL    HW115578   6.811   3.389   1.652
 4893SOL    HW215579   6.655   3.407   1.694
 4894SOL     OW15580   2.441   1.246   3.171
 4894SOL    HW115581   2.433   1.324   3.109
 4894SOL    HW215582   2.438   1.279   3.266
 4895SOL     OW15583   0.375   4.415   3.655
 4895SOL    HW115584   0.292   4.447   3.701
 4895SOL    HW215585   0.399   4.479   3.582
 4896SOL     OW15586   1.802   5.160   2.198
 4896SOL    HW115587   1.896   5.178   2.228
 4896SOL    HW215588   1.748   5.126   2.276
 4897SOL     OW15589   2.299   3.869   5.863
 4897SOL    HW115590   2.295   3.938   5.935
 4897SOL    HW215591   2.393   3.859   5.831
 4898SOL     OW15592   3.998   0.819   4.491
 4898SOL    HW115593   3.938   0.771   4.554
 4898SOL    HW215594   3.956   0.905   4.462
 4899SOL     OW15595   5.513   5.525   3.149
 4899SOL    HW115596   5.483   5.614   3.114
 4899SOL    HW215597   5.601   5.501   3.107
 4900SOL     OW15598   2.310   6.280   4.748
 4900SOL    HW115599   2.289   6.303   4.842
 4900SOL    HW215600   2.390   6.220   4.745
 4901SOL     OW15601   3.687   0.621   5.709
 4901SOL    HW115602   3.635   0.704   5.730
 4901SOL    HW215603   3.704   0.570   5.793
 4902SOL     OW15604   2.121   1.858   4.212
 4902SOL    HW115605   2.139   1.947   4.169
 4902SOL    HW215606   2.107   1.870   4.310
 4903SOL     OW15607   3.854   6.243   6.524
 4903SOL    HW115608   3.829   6.337   6.498
 4903SOL    HW215609   3.916   6.246   6.602
 4904SOL     OW15610   2.135   0.194   3.921
 4904SOL    HW115611   2.066   0.218   3.854
 4904SOL    HW215612   2.158   0.097   3.912
 4905SOL     OW15613   4.493   6.793   2.822
 4905SOL    HW115614   4.565   6.773   2.889
 4905SOL    HW215615   4.422   6.723   2.828
 4906SOL     OW15616   5.001   2.197   6.189
 4906SOL    HW115617   5.063   2.185   6.266
 4906SOL    HW215618   5.014   2.287   6.148
 4907SOL     OW15619   4.409   6.010   2.107
 4907SOL    HW115620   4.362   5.925   2.083
 4907SOL    HW215621   4.439   6.006   2.202
 4908SOL     OW15622   5.135   5.124   6.921
 4908SOL    HW115623   5.156   5.204   6.864
 4908SOL    HW215624   5.129   5.043   6.863
 4909SOL     OW15625   6.693   0.032   4.120
 4909SOL    HW115626   6.774   0.087   4.100
 4909SOL    HW215627   6.680   0.026   4.219
 4910SOL     OW15628   5.775   0.512   4.857
 4910SOL    HW115629   5.703   0.557   4.911
 4910SOL    HW215630   5.834   0.459   4.917
 4911SOL     OW15631   1.322   3.449   4.158
 4911SOL    HW115632   1.262   3.394   4.215
 4911SOL    HW215633   1.393   3.391   4.117
 4912SOL     OW15634   4.982   1.492   6.579
 4912SOL    HW115635   5.038   1.546   6.516
 4912SOL    HW215636   5.010   1.511   6.673
 4913SOL     OW15637   3.598   2.466   5.497
 4913SOL    HW115638   3.591   2.548   5.553
 4913SOL    HW215639   3.689   2.463   5.454
 4914SOL     OW15640   3.680   0.717   5.177
 4914SOL    HW115641   3.721   0.648   5.117
 4914SOL    HW215642   3.720   0.709   5.269
 4915SOL     OW15643   4.266   6.836   5.509
 4915SOL    HW115644   4.269   6.773   5.586
 4915SOL    HW215645   4.252   6.929   5.543
 4916SOL     OW15646   1.087   6.897   4.193
 4916SOL    HW115647   1.023   6.884   4.269
 4916SOL    HW215648   1.179   6.872   4.223
 4917SOL     OW15649   2.708   5.082   1.312
 4917SOL    HW115650   2.755   4.997   1.291
 4917SOL    HW215651   2.643   5.067   1.386
 4918SOL     OW15652   5.104   5.768   2.306
 4918SOL    HW115653   5.103   5.684   2.253
 4918SOL    HW215654   5.018   5.818   2.290
 4919SOL     OW15655   2.645   2.661   0.296
 4919SOL    HW115656   2.711   2.697   0.230
 4919SOL    HW215657   2.622   2.732   0.363
 4920SOL     OW15658   6.074   0.623   3.923
 4920SOL    HW115659   6.052   0.603   4.019
 4920SOL    HW215660   6.126   0.547   3.885
 4921SOL     OW15661   1.091   5.089   0.246
 4921SOL    HW115662   1.161   5.150   0.208
 4921SOL    HW215663   1.097   5.091   0.346
 4922SOL     OW15664   2.149   2.343   5.024
 4922SOL    HW115665   2.152   2.357   5.123
 4922SOL    HW215666   2.219   2.399   4.980
 4923SOL     OW15667   4.259   1.825   2.745
 4923SOL    HW115668   4.219   1.782   2.664
 4923SOL    HW215669   4.352   1.857   2.723
 4924SOL     OW15670   3.178   1.723   4.920
 4924SOL    HW115671   3.239   1.656   4.878
 4924SOL    HW215672   3.083   1.689   4.916
 4925SOL     OW15673   0.110   6.685   2.585
 4925SOL    HW115674   0.059   6.669   2.500
 4925SOL    HW215675   0.181   6.616   2.595
 4926SOL     OW15676   5.166   1.376   0.357
 4926SOL    HW115677   5.216   1.293   0.381
 4926SOL    HW215678   5.117   1.362   0.270
 4927SOL     OW15679   3.428   3.871   4.055
 4927SOL    HW115680   3.466   3.786   4.090
 4927SOL    HW215681   3.474   3.949   4.098
 4928SOL     OW15682   1.383   0.131   0.161
 4928SOL    HW115683   1.426   0.052   0.119
 4928SOL    HW215684   1.451   0.180   0.216
 4929SOL     OW15685   0.681   5.684   4.822
 4929SOL    HW115686   0.695   5.782   4.808
 4929SOL    HW215687   0.589   5.659   4.793
 4930SOL     OW15688   5.025   0.914   3.321
 4930SOL    HW115689   5.030   0.818   3.350
 4930SOL    HW215690   4.986   0.919   3.229
 4931SOL     OW15691   0.102   6.534   0.428
 4931SOL    HW115692   0.156   6.562   0.508
 4931SOL    HW215693   0.146   6.569   0.345
 4932SOL     OW15694   2.593   3.167   1.716
 4932SOL    HW115695   2.498   3.195   1.720
 4932SOL    HW215696   2.599   3.067   1.715
 4933SOL     OW15697   2.480   0.138   3.241
 4933SOL    HW115698   2.475   0.166   3.145
 4933SOL    HW215699   2.575   0.132   3.269
 4934SOL     OW15700   2.728   5.823   2.369
 4934SOL    HW115701   2.689   5.851   2.456
 4934SOL    HW215702   2.661   5.836   2.296
 4935SOL     OW15703   1.664   1.437   6.403
 4935SOL    HW115704   1.576   1.390   6.388
 4935SOL    HW215705   1.676   1.508   6.333
 4936SOL     OW15706   2.548   4.535   1.909
 4936SOL    HW115707   2.640   4.542   1.947
 4936SOL    HW215708   2.480   4.547   1.982
 4937SOL     OW15709   6.295   2.871   5.721
 4937SOL    HW115710   6.351   2.789   5.712
 4937SOL    HW215711   6.223   2.856   5.789
 4938SOL     OW15712   2.086   5.326   5.530
 4938SOL    HW115713   2.101   5.425   5.524
 4938SOL    HW215714   1.991   5.306   5.505
 4939SOL     OW15715   6.675   2.053   4.239
 4939SOL    HW115716   6.689   1.960   4.203
 4939SOL    HW215717   6.678   2.051   4.339
 4940SOL     OW15718   0.106   0.913   5.096
 4940SOL    HW115719   0.048   0.850   5.149
 4940SOL    HW215720   0.197   0.873   5.086
 4941SOL     OW15721   5.454   2.360   5.456
 4941SOL    HW115722   5.442   2.452   5.418
 4941SOL    HW215723   5.520   2.310   5.401
 4942SOL     OW15724   5.123   2.497   6.202
 4942SOL    HW115725   5.142   2.516   6.106
 4942SOL    HW215726   5.048   2.556   6.234
 4943SOL     OW15727   4.478   3.861   6.358
 4943SOL    HW115728   4.539   3.935   6.384
 4943SOL    HW215729   4.386   3.877   6.395
 4944SOL     OW15730   2.029   4.770   1.885
 4944SOL    HW115731   2.056   4.858   1.923
 4944SOL    HW215732   1.964   4.726   1.947
 4945SOL     OW15733   1.082   0.229   4.225
 4945SOL    HW115734   1.093   0.281   4.141
 4945SOL    HW215735   0.989   0.193   4.230
 4946SOL     OW15736   1.375   4.701   7.019
 4946SOL    HW115737   1.277   4.701   0.021
 4946SOL    HW215738   1.423   4.635   0.054
 4947SOL     OW15739   2.198   1.086   1.036
 4947SOL    HW115740   2.210   1.167   0.978
 4947SOL    HW215741   2.141   1.019   0.989
 4948SOL     OW15742   1.364   2.728   2.499
 4948SOL    HW115743   1.405   2.639   2.477
 4948SOL    HW215744   1.290   2.748   2.435
 4949SOL     OW15745   5.275   6.263   6.214
 4949SOL    HW115746   5.256   6.274   6.311
 4949SOL    HW215747   5.374   6.269   6.198
 4950SOL     OW15748   2.474   5.463   4.567
 4950SOL    HW115749   2.513   5.391   4.511
 4950SOL    HW215750   2.527   5.471   4.652
 4951SOL     OW15751   5.918   1.826   5.093
 4951SOL    HW115752   5.958   1.758   5.155
 4951SOL    HW215753   5.990   1.885   5.058
 4952SOL     OW15754   0.450   1.056   5.796
 4952SOL    HW115755   0.362   1.104   5.795
 4952SOL    HW215756   0.469   1.022   5.888
 4953SOL     OW15757   2.562   5.784   2.635
 4953SOL    HW115758   2.557   5.858   2.702
 4953SOL    HW215759   2.506   5.707   2.666
 4954SOL     OW15760   4.247   3.034   0.113
 4954SOL    HW115761   4.310   2.964   0.146
 4954SOL    HW215762   4.154   2.999   0.115
 4955SOL     OW15763   3.101   6.440   6.433
 4955SOL    HW115764   3.167   6.496   6.382
 4955SOL    HW215765   3.052   6.381   6.370
 4956SOL     OW15766   2.339   0.142   5.507
 4956SOL    HW115767   2.320   0.229   5.553
 4956SOL    HW215768   2.357   0.160   5.410
 4957SOL     OW15769   6.255   2.138   1.974
 4957SOL    HW115770   6.308   2.178   2.049
 4957SOL    HW215771   6.277   2.041   1.966
 4958SOL     OW15772   6.886   4.894   5.583
 4958SOL    HW115773   6.970   4.855   5.546
 4958SOL    HW215774   6.894   4.901   5.683
 4959SOL     OW15775   6.474   1.461   0.047
 4959SOL    HW115776   6.539   1.521   0.093
 4959SOL    HW215777   6.523   1.395   7.012
 4960SOL     OW15778   3.240   4.975   3.667
 4960SOL    HW115779   3.255   4.958   3.764
 4960SOL    HW215780   3.149   4.943   3.641
 4961SOL     OW15781   4.426   1.081   6.239
 4961SOL    HW115782   4.416   0.999   6.295
 4961SOL    HW215783   4.404   1.060   6.144
 4962SOL     OW15784   6.523   2.288   0.305
 4962SOL    HW115785   6.448   2.272   0.368
 4962SOL    HW215786   6.512   2.231   0.224
 4963SOL     OW15787   5.971   5.478   0.396
 4963SOL    HW115788   5.937   5.489   0.489
 4963SOL    HW215789   6.031   5.398   0.391
 4964SOL     OW15790   2.887   0.251   3.753
 4964SOL    HW115791   2.956   0.323   3.764
 4964SOL    HW215792   2.822   0.278   3.681
 4965SOL     OW15793   0.047   0.834   2.628
 4965SOL    HW115794   6.995   0.893   2.595
 4965SOL    HW215795   0.013   0.741   2.641
 4966SOL     OW15796   2.576   6.897   5.183
 4966SOL    HW115797   2.516   6.827   5.221
 4966SOL    HW215798   2.548   6.917   5.089
 4967SOL     OW15799   3.672   5.757   5.829
 4967SOL    HW115800   3.751   5.698   5.843
 4967SOL    HW215801   3.679   5.802   5.739
 4968SOL     OW15802   6.516   2.047   3.788
 4968SOL    HW115803   6.545   2.138   3.817
 4968SOL    HW215804   6.579   1.978   3.824
 4969SOL     OW15805   2.584   6.939   2.739
 4969SOL    HW115806   2.662   6.880   2.763
 4969SOL    HW215807   2.618   7.020   2.692
 4970SOL     OW15808   1.767   2.743   2.799
 4970SOL    HW115809   1.867   2.744   2.807
 4970SOL    HW215810   1.736   2.649   2.783
 4971SOL     OW15811   6.296   5.995   3.807
 4971SOL    HW115812   6.197   5.998   3.789
 4971SOL    HW215813   6.319   5.907   3.848
 4972SOL     OW15814   1.730   3.112   0.381
 4972SOL    HW115815   1.757   3.206   0.400
 4972SOL    HW215816   1.703   3.067   0.466
 4973SOL     OW15817   1.890   0.042   2.287
 4973SOL    HW115818   1.791   0.031   2.298
 4973SOL    HW215819   1.918   0.008   2.197
 4974SOL     OW15820   5.999   4.766   0.844
 4974SOL    HW115821   5.919   4.801   0.893
 4974SOL    HW215822   6.049   4.841   0.802
 4975SOL     OW15823   5.635   4.287   5.462
 4975SOL    HW115824   5.603   4.192   5.459
 4975SOL    HW215825   5.651   4.313   5.557
 4976SOL     OW15826   2.365   0.663   3.249
 4976SOL    HW115827   2.407   0.728   3.312
 4976SOL    HW215828   2.388   0.570   3.278
 4977SOL     OW15829   3.886   4.533   0.275
 4977SOL    HW115830   3.796   4.577   0.265
 4977SOL    HW215831   3.912   4.491   0.188
 4978SOL     OW15832   0.017   3.752   4.700
 4978SOL    HW115833   0.093   3.816   4.690
 4978SOL    HW215834   0.018   3.712   4.791
 4979SOL     OW15835   0.463   0.215   6.083
 4979SOL    HW115836   0.475   0.309   6.050
 4979SOL    HW215837   0.372   0.183   6.057
 4980SOL     OW15838   5.415   6.520   3.205
 4980SOL    HW115839   5.333   6.464   3.192
 4980SOL    HW215840   5.489   6.484   3.147
 4981SOL     OW15841   5.184   6.164   6.898
 4981SOL    HW115842   5.084   6.163   6.898
 4981SOL    HW215843   5.218   6.117   6.979
 4982SOL     OW15844   2.630   1.448   6.034
 4982SOL    HW115845   2.577   1.532   6.024
 4982SOL    HW215846   2.571   1.369   6.019
 4983SOL     OW15847   5.817   2.677   4.906
 4983SOL    HW115848   5.865   2.693   4.819
 4983SOL    HW215849   5.779   2.585   4.907
 4984SOL     OW15850   5.693   4.128   3.571
 4984SOL    HW115851   5.781   4.115   3.525
 4984SOL    HW215852   5.659   4.221   3.553
 4985SOL     OW15853   6.064   6.059   3.554
 4985SOL    HW115854   6.064   6.153   3.587
 4985SOL    HW215855   6.146   6.043   3.499
 4986SOL     OW15856   6.199   4.182   2.009
 4986SOL    HW115857   6.123   4.123   2.036
 4986SOL    HW215858   6.274   4.173   2.075
 4987SOL     OW15859   1.091   0.531   1.047
 4987SOL    HW115860   1.128   0.496   1.133
 4987SOL    HW215861   1.026   0.604   1.066
 4988SOL     OW15862   5.195   0.686   3.560
 4988SOL    HW115863   5.107   0.647   3.532
 4988SOL    HW215864   5.267   0.616   3.552
 4989SOL     OW15865   4.961   7.012   1.834
 4989SOL    HW115866   5.007   6.985   1.750
 4989SOL    HW215867   4.919   6.931   1.876
 4990SOL     OW15868   1.812   2.185   5.062
 4990SOL    HW115869   1.724   2.144   5.086
 4990SOL    HW215870   1.844   2.148   4.975
 4991SOL     OW15871   6.346   4.667   4.885
 4991SOL    HW115872   6.369   4.762   4.865
 4991SOL    HW215873   6.347   4.614   4.800
 4992SOL     OW15874   4.845   0.910   4.579
 4992SOL    HW115875   4.820   0.977   4.508
 4992SOL    HW215876   4.783   0.921   4.657
 4993SOL     OW15877   3.171   5.467   4.232
 4993SOL    HW115878   3.101   5.537   4.215
 4993SOL    HW215879   3.259   5.511   4.249
 4994SOL     OW15880   2.048   6.994   3.017
 4994SOL    HW115881   2.139   6.962   3.045
 4994SOL    HW215882   2.032   6.969   2.922
 4995SOL     OW15883   0.031   2.728   5.690
 4995SOL    HW115884   0.122   2.730   5.732
 4995SOL    HW215885   6.983   2.742   5.760
 4996SOL     OW15886   1.267   1.067   2.720
 4996SOL    HW115887   1.173   1.055   2.689
 4996SOL    HW215888   1.281   1.017   2.806
 4997SOL     OW15889   5.325   2.223   3.303
 4997SOL    HW115890   5.236   2.260   3.275
 4997SOL    HW215891   5.315   2.171   3.388
 4998SOL     OW15892   2.097   3.858   5.129
 4998SOL    HW115893   2.134   3.939   5.083
 4998SOL    HW215894   2.073   3.789   5.061
 4999SOL     OW15895   6.294   4.347   0.537
 4999SOL    HW115896   6.201   4.312   0.550
 4999SOL    HW215897   6.304   4.384   0.445
 5000SOL     OW15898   2.685   0.034   3.743
 5000SOL    HW115899   2.750   7.019   3.811
 5000SOL    HW215900   2.724   0.116   3.701
 5001SOL     OW15901   0.475   4.116   0.552
 5001SOL    HW115902   0.387   4.117   0.601
 5001SOL    HW215903   0.548   4.138   0.616
 5002SOL     OW15904   1.136   3.351   3.325
 5002SOL    HW115905   1.223   3.394   3.301
 5002SOL    HW215906   1.150   3.254   3.340
 5003SOL     OW15907   2.466   6.460   2.830
 5003SOL    HW115908   2.462   6.445   2.929
 5003SOL    HW215909   2.559   6.442   2.797
 5004SOL     OW15910   3.390   5.101   5.719
 5004SOL    HW115911   3.457   5.125   5.789
 5004SOL    HW215912   3.310   5.059   5.762
 5005SOL     OW15913   3.203   2.363   0.533
 5005SOL    HW115914   3.151   2.281   0.507
 5005SOL    HW215915   3.176   2.391   0.625
 5006SOL     OW15916   5.062   0.022   0.636
 5006SOL    HW115917   5.150   0.011   0.683
 5006SOL    HW215918   5.016   6.955   0.629
 5007SOL     OW15919   1.463   0.133   6.608
 5007SOL    HW115920   1.445   0.034   6.615
 5007SOL    HW215921   1.542   0.156   6.665
 5008SOL     OW15922   6.562   6.788   3.124
 5008SOL    HW115923   6.472   6.744   3.127
 5008SOL    HW215924   6.551   6.885   3.102
 5009SOL     OW15925   1.447   6.175   0.811
 5009SOL    HW115926   1.509   6.111   0.856
 5009SOL    HW215927   1.492   6.264   0.802
 5010SOL     OW15928   3.360   3.478   2.796
 5010SOL    HW115929   3.324   3.511   2.709
 5010SOL    HW215930   3.397   3.386   2.784
 5011SOL     OW15931   1.871   3.806   2.860
 5011SOL    HW115932   1.793   3.862   2.832
 5011SOL    HW215933   1.952   3.864   2.869
 5012SOL     OW15934   5.289   4.471   6.470
 5012SOL    HW115935   5.282   4.373   6.490
 5012SOL    HW215936   5.240   4.490   6.385
 5013SOL     OW15937   4.909   1.849   6.889
 5013SOL    HW115938   4.983   1.797   6.846
 5013SOL    HW215939   4.836   1.865   6.823
 5014SOL     OW15940   5.527   4.356   0.899
 5014SOL    HW115941   5.547   4.388   0.807
 5014SOL    HW215942   5.540   4.257   0.904
 5015SOL     OW15943   4.781   2.300   4.230
 5015SOL    HW115944   4.791   2.280   4.133
 5015SOL    HW215945   4.702   2.250   4.266
 5016SOL     OW15946   2.278   2.180   0.765
 5016SOL    HW115947   2.371   2.212   0.779
 5016SOL    HW215948   2.279   2.104   0.700
 5017SOL     OW15949   1.723   1.834   0.115
 5017SOL    HW115950   1.795   1.904   0.116
 5017SOL    HW215951   1.656   1.855   0.186
 5018SOL     OW15952   0.436   4.440   2.197
 5018SOL    HW115953   0.378   4.510   2.239
 5018SOL    HW215954   0.439   4.360   2.256
 5019SOL     OW15955   1.182   4.707   6.486
 5019SOL    HW115956   1.108   4.753   6.437
 5019SOL    HW215957   1.269   4.754   6.467
 5020SOL     OW15958   4.971   6.682   6.159
 5020SOL    HW115959   4.987   6.702   6.062
 5020SOL    HW215960   5.045   6.721   6.213
 5021SOL     OW15961   1.492   1.927   6.093
 5021SOL    HW115962   1.540   1.940   6.180
 5021SOL    HW215963   1.521   1.840   6.053
 5022SOL     OW15964   1.151   0.922   0.504
 5022SOL    HW115965   1.217   0.974   0.558
 5022SOL    HW215966   1.193   0.838   0.471
 5023SOL     OW15967   6.386   3.520   0.849
 5023SOL    HW115968   6.295   3.504   0.888
 5023SOL    HW215969   6.396   3.468   0.765
 5024SOL     OW15970   5.981   5.864   2.711
 5024SOL    HW115971   6.038   5.808   2.771
 5024SOL    HW215972   5.998   5.840   2.616
 5025SOL     OW15973   3.942   2.157   2.188
 5025SOL    HW115974   3.866   2.200   2.139
 5025SOL    HW215975   3.964   2.070   2.143
 5026SOL     OW15976   6.361   6.072   6.281
 5026SOL    HW115977   6.356   6.108   6.188
 5026SOL    HW215978   6.421   6.131   6.336
 5027SOL     OW15979   0.812   6.432   2.242
 5027SOL    HW115980   0.745   6.446   2.168
 5027SOL    HW215981   0.894   6.389   2.205
 5028SOL     OW15982   0.593   0.401   3.382
 5028SOL    HW115983   0.513   0.381   3.439
 5028SOL    HW215984   0.663   0.332   3.398
 5029SOL     OW15985   0.357   2.710   2.987
 5029SOL    HW115986   0.335   2.789   2.930
 5029SOL    HW215987   0.417   2.739   3.062
 5030SOL     OW15988   6.368   0.339   6.554
 5030SOL    HW115989   6.368   0.362   6.457
 5030SOL    HW215990   6.452   0.373   6.596
 5031SOL     OW15991   6.095   0.858   4.616
 5031SOL    HW115992   6.091   0.921   4.539
 5031SOL    HW215993   6.004   0.848   4.656
 5032SOL     OW15994   1.441   3.416   0.907
 5032SOL    HW115995   1.533   3.454   0.921
 5032SOL    HW215996   1.444   3.317   0.920
 5033SOL     OW15997   3.240   6.436   6.674
 5033SOL    HW115998   3.182   6.450   6.593
 5033SOL    HW215999   3.328   6.398   6.645
 5034SOL     OW16000   5.997   1.272   2.718
 5034SOL    HW116001   5.965   1.279   2.623
 5034SOL    HW216002   5.924   1.233   2.775
 5035SOL     OW16003   0.008   4.241   0.449
 5035SOL    HW116004   6.994   4.296   0.525
 5035SOL    HW216005   0.054   4.160   0.485
 5036SOL     OW16006   0.287   4.951   6.985
 5036SOL    HW116007   0.331   4.996   6.908
 5036SOL    HW216008   0.268   5.019   0.035
 5037SOL     OW16009   5.319   2.444   3.006
 5037SOL    HW116010   5.412   2.412   2.991
 5037SOL    HW216011   5.322   2.533   3.051
 5038SOL     OW16012   2.045   4.001   6.486
 5038SOL    HW116013   2.024   3.914   6.529
 5038SOL    HW216014   2.019   3.999   6.389
 5039SOL     OW16015   3.259   3.935   5.459
 5039SOL    HW116016   3.185   3.938   5.527
 5039SOL    HW216017   3.332   3.876   5.492
 5040SOL     OW16018   2.056   5.033   5.942
 5040SOL    HW116019   2.089   5.115   5.895
 5040SOL    HW216020   1.982   5.058   6.004
 5041SOL     OW16021   1.606   1.849   1.547
 5041SOL    HW116022   1.513   1.830   1.517
 5041SOL    HW216023   1.654   1.902   1.477
 5042SOL     OW16024   5.993   3.288   1.024
 5042SOL    HW116025   5.917   3.276   0.960
 5042SOL    HW216026   5.983   3.224   1.100
 5043SOL     OW16027   2.917   1.194   5.827
 5043SOL    HW116028   2.826   1.158   5.847
 5043SOL    HW216029   2.909   1.271   5.765
 5044SOL     OW16030   6.960   6.144   2.235
 5044SOL    HW116031   6.975   6.199   2.317
 5044SOL    HW216032   6.864   6.115   2.230
 5045SOL     OW16033   6.155   2.984   0.243
 5045SOL    HW116034   6.169   3.008   0.339
 5045SOL    HW216035   6.112   2.893   0.238
 5046SOL     OW16036   3.483   4.171   3.965
 5046SOL    HW116037   3.385   4.180   3.946
 5046SOL    HW216038   3.497   4.161   4.063
 5047SOL     OW16039   0.410   3.458   2.428
 5047SOL    HW116040   0.346   3.384   2.448
 5047SOL    HW216041   0.479   3.463   2.500
 5048SOL     OW16042   0.661   1.118   2.092
 5048SOL    HW116043   0.568   1.151   2.103
 5048SOL    HW216044   0.681   1.106   1.995
 5049SOL     OW16045   6.428   2.250   4.767
 5049SOL    HW116046   6.350   2.301   4.802
 5049SOL    HW216047   6.510   2.307   4.772
 5050SOL     OW16048   1.149   0.655   2.086
 5050SOL    HW116049   1.102   0.595   2.151
 5050SOL    HW216050   1.239   0.678   2.122
 5051SOL     OW16051   4.279   3.438   0.870
 5051SOL    HW116052   4.356   3.413   0.811
 5051SOL    HW216053   4.193   3.407   0.829
 5052SOL     OW16054   2.353   5.829   6.128
 5052SOL    HW116055   2.449   5.847   6.152
 5052SOL    HW216056   2.324   5.743   6.170
 5053SOL     OW16057   2.124   3.787   3.842
 5053SOL    HW116058   2.137   3.863   3.778
 5053SOL    HW216059   2.121   3.823   3.935
 5054SOL     OW16060   3.649   6.010   5.281
 5054SOL    HW116061   3.550   6.020   5.282
 5054SOL    HW216062   3.687   6.072   5.212
 5055SOL     OW16063   2.235   6.896   5.508
 5055SOL    HW116064   2.252   6.994   5.511
 5055SOL    HW216065   2.322   6.847   5.500
 5056SOL     OW16066   6.175   4.162   0.324
 5056SOL    HW116067   6.271   4.188   0.314
 5056SOL    HW216068   6.168   4.083   0.384
 5057SOL     OW16069   6.718   5.672   5.048
 5057SOL    HW116070   6.726   5.722   4.961
 5057SOL    HW216071   6.782   5.596   5.048
 5058SOL     OW16072   2.606   3.188   5.373
 5058SOL    HW116073   2.571   3.144   5.291
 5058SOL    HW216074   2.688   3.139   5.404
 5059SOL     OW16075   5.495   2.957   3.170
 5059SOL    HW116076   5.591   2.957   3.198
 5059SOL    HW216077   5.468   2.865   3.142
 5060SOL     OW16078   0.378   2.510   5.462
 5060SOL    HW116079   0.330   2.471   5.540
 5060SOL    HW216080   0.441   2.581   5.493
 5061SOL     OW16081   3.594   3.162   3.072
 5061SOL    HW116082   3.598   3.187   3.169
 5061SOL    HW216083   3.659   3.217   3.020
 5062SOL     OW16084   5.726   0.588   3.178
 5062SOL    HW116085   5.714   0.611   3.275
 5062SOL    HW216086   5.790   0.653   3.137
 5063SOL     OW16087   1.361   0.316   2.418
 5063SOL    HW116088   1.328   0.230   2.377
 5063SOL    HW216089   1.399   0.374   2.346
 5064SOL     OW16090   4.330   4.009   1.644
 5064SOL    HW116091   4.415   4.050   1.678
 5064SOL    HW216092   4.274   4.080   1.601
 5065SOL     OW16093   1.335   1.664   3.210
 5065SOL    HW116094   1.429   1.686   3.184
 5065SOL    HW216095   1.335   1.587   3.273
 5066SOL     OW16096   3.688   4.401   0.739
 5066SOL    HW116097   3.609   4.462   0.735
 5066SOL    HW216098   3.697   4.364   0.831
 5067SOL     OW16099   3.272   1.109   2.437
 5067SOL    HW116100   3.299   1.013   2.443
 5067SOL    HW216101   3.288   1.154   2.525
 5068SOL     OW16102   2.990   4.667   0.154
 5068SOL    HW116103   3.019   4.621   0.070
 5068SOL    HW216104   3.025   4.760   0.155
 5069SOL     OW16105   1.923   2.410   5.825
 5069SOL    HW116106   1.851   2.470   5.789
 5069SOL    HW216107   1.889   2.316   5.827
 5070SOL     OW16108   4.987   4.695   4.160
 5070SOL    HW116109   5.069   4.677   4.215
 5070SOL    HW216110   5.009   4.758   4.086
 5071SOL     OW16111   4.183   1.518   3.886
 5071SOL    HW116112   4.179   1.495   3.983
 5071SOL    HW216113   4.095   1.555   3.857
 5072SOL     OW16114   1.104   0.691   1.438
 5072SOL    HW116115   1.199   0.667   1.459
 5072SOL    HW216116   1.059   0.728   1.520
 5073SOL     OW16117   1.720   4.230   0.747
 5073SOL    HW116118   1.689   4.165   0.815
 5073SOL    HW216119   1.820   4.233   0.747
 5074SOL     OW16120   3.040   2.107   1.743
 5074SOL    HW116121   3.125   2.128   1.792
 5074SOL    HW216122   2.962   2.140   1.796
 5075SOL     OW16123   1.461   2.058   5.863
 5075SOL    HW116124   1.479   2.006   5.947
 5075SOL    HW216125   1.386   2.122   5.879
 5076SOL     OW16126   5.437   6.995   1.178
 5076SOL    HW116127   5.414   6.943   1.095
 5076SOL    HW216128   5.508   0.040   1.157
 5077SOL     OW16129   1.733   4.351   5.826
 5077SOL    HW116130   1.817   4.395   5.794
 5077SOL    HW216131   1.727   4.359   5.925
 5078SOL     OW16132   0.495   1.051   4.335
 5078SOL    HW116133   0.550   0.985   4.385
 5078SOL    HW216134   0.482   1.019   4.241
 5079SOL     OW16135   2.060   2.856   4.817
 5079SOL    HW116136   2.051   2.955   4.811
 5079SOL    HW216137   1.986   2.813   4.764
 5080SOL     OW16138   6.215   6.352   5.833
 5080SOL    HW116139   6.170   6.422   5.889
 5080SOL    HW216140   6.273   6.396   5.765
 5081SOL     OW16141   2.550   3.772   5.848
 5081SOL    HW116142   2.619   3.788   5.918
 5081SOL    HW216143   2.585   3.800   5.759
 5082SOL     OW16144   4.884   6.049   1.533
 5082SOL    HW116145   4.837   5.975   1.581
 5082SOL    HW216146   4.887   6.131   1.591
 5083SOL     OW16147   2.643   0.604   2.464
 5083SOL    HW116148   2.688   0.691   2.442
 5083SOL    HW216149   2.562   0.622   2.519
 5084SOL     OW16150   1.234   4.708   3.696
 5084SOL    HW116151   1.162   4.730   3.630
 5084SOL    HW216152   1.240   4.609   3.707
 5085SOL     OW16153   6.398   2.412   5.908
 5085SOL    HW116154   6.486   2.394   5.951
 5085SOL    HW216155   6.410   2.421   5.810
 5086SOL     OW16156   1.556   5.183   2.863
 5086SOL    HW116157   1.588   5.130   2.941
 5086SOL    HW216158   1.609   5.159   2.782
 5087SOL     OW16159   1.103   5.240   2.066
 5087SOL    HW116160   1.065   5.161   2.018
 5087SOL    HW216161   1.200   5.224   2.085
 5088SOL     OW16162   6.007   7.014   3.946
 5088SOL    HW116163   6.026   6.987   3.852
 5088SOL    HW216164   6.063   6.960   4.008
 5089SOL     OW16165   6.197   4.051   3.856
 5089SOL    HW116166   6.204   4.055   3.956
 5089SOL    HW216167   6.198   4.144   3.819
 5090SOL     OW16168   2.054   3.423   2.609
 5090SOL    HW116169   2.076   3.469   2.523
 5090SOL    HW216170   1.975   3.468   2.651
 5091SOL     OW16171   6.791   1.346   1.530
 5091SOL    HW116172   6.760   1.415   1.595
 5091SOL    HW216173   6.728   1.341   1.453
 5092SOL     OW16174   3.451   3.563   3.182
 5092SOL    HW116175   3.436   3.581   3.279
 5092SOL    HW216176   3.497   3.641   3.141
 5093SOL     OW16177   3.162   0.915   0.540
 5093SOL    HW116178   3.130   0.861   0.463
 5093SOL    HW216179   3.256   0.891   0.562
 5094SOL     OW16180   2.415   5.396   6.341
 5094SOL    HW116181   2.348   5.470   6.330
 5094SOL    HW216182   2.380   5.313   6.297
 5095SOL     OW16183   6.582   2.350   2.985
 5095SOL    HW116184   6.633   2.334   2.901
 5095SOL    HW216185   6.489   2.314   2.975
 5096SOL     OW16186   4.146   5.139   6.422
 5096SOL    HW116187   4.137   5.176   6.515
 5096SOL    HW216188   4.102   5.200   6.357
 5097SOL     OW16189   0.713   0.109   6.346
 5097SOL    HW116190   0.774   0.152   6.280
 5097SOL    HW216191   0.666   0.032   6.302
 5098SOL     OW16192   2.690   0.666   1.904
 5098SOL    HW116193   2.686   0.599   1.978
 5098SOL    HW216194   2.783   0.669   1.867
 5099SOL     OW16195   0.501   0.104   1.097
 5099SOL    HW116196   0.526   0.008   1.083
 5099SOL    HW216197   0.545   0.160   1.027
 5100SOL     OW16198   3.142   5.820   4.599
 5100SOL    HW116199   3.064   5.765   4.632
 5100SOL    HW216200   3.112   5.876   4.522
 5101SOL     OW16201   4.328   0.260   6.666
 5101SOL    HW116202   4.386   0.341   6.663
 5101SOL    HW216203   4.243   0.278   6.616
 5102SOL     OW16204   5.507   6.545   3.768
 5102SOL    HW116205   5.556   6.510   3.688
 5102SOL    HW216206   5.465   6.469   3.817
 5103SOL     OW16207   0.274   0.687   4.296
 5103SOL    HW116208   0.228   0.709   4.382
 5103SOL    HW216209   0.226   0.733   4.220
 5104SOL     OW16210   1.770   5.902   2.061
 5104SOL    HW116211   1.705   5.977   2.046
 5104SOL    HW216212   1.853   5.919   2.008
 5105SOL     OW16213   2.588   2.178   0.213
 5105SOL    HW116214   2.549   2.193   0.123
 5105SOL    HW216215   2.598   2.265   0.260
 5106SOL     OW16216   4.292   1.932   0.383
 5106SOL    HW116217   4.364   1.916   0.316
 5106SOL    HW216218   4.216   1.980   0.340
 5107SOL     OW16219   4.013   1.772   1.595
 5107SOL    HW116220   3.989   1.847   1.656
 5107SOL    HW216221   3.943   1.764   1.523
 5108SOL     OW16222   3.866   3.904   4.737
 5108SOL    HW116223   3.944   3.844   4.756
 5108SOL    HW216224   3.853   3.967   4.814
 5109SOL     OW16225   0.899   2.145   6.741
 5109SOL    HW116226   0.816   2.090   6.727
 5109SOL    HW216227   0.875   2.226   6.795
 5110SOL     OW16228   0.746   0.497   6.122
 5110SOL    HW116229   0.763   0.457   6.212
 5110SOL    HW216230   0.803   0.452   6.053
 5111SOL     OW16231   1.374   0.443   4.617
 5111SOL    HW116232   1.310   0.490   4.556
 5111SOL    HW216233   1.448   0.506   4.641
 5112SOL     OW16234   1.495   6.880   3.340
 5112SOL    HW116235   1.585   6.870   3.297
 5112SOL    HW216236   1.465   6.791   3.374
 5113SOL     OW16237   1.642   6.662   1.021
 5113SOL    HW116238   1.600   6.744   0.984
 5113SOL    HW216239   1.601   6.581   0.979
 5114SOL     OW16240   3.912   0.659   6.974
 5114SOL    HW116241   3.992   0.707   6.936
 5114SOL    HW216242   3.915   0.563   6.946
 5115SOL     OW16243   1.462   4.828   3.683
 5115SOL    HW116244   1.368   4.795   3.678
 5115SOL    HW216245   1.501   4.805   3.771
 5116SOL     OW16246   0.898   6.793   6.636
 5116SOL    HW116247   0.885   6.891   6.621
 5116SOL    HW216248   0.813   6.744   6.618
 5117SOL     OW16249   1.944   3.924   4.449
 5117SOL    HW116250   1.903   3.835   4.469
 5117SOL    HW216251   2.040   3.924   4.479
 5118SOL     OW16252   4.962   1.088   6.682
 5118SOL    HW116253   5.019   1.007   6.700
 5118SOL    HW216254   5.010   1.170   6.713
 5119SOL     OW16255   5.230   0.700   2.516
 5119SOL    HW116256   5.214   0.757   2.435
 5119SOL    HW216257   5.328   0.679   2.523
 5120SOL     OW16258   3.827   0.484   4.371
 5120SOL    HW116259   3.922   0.513   4.360
 5120SOL    HW216260   3.812   0.399   4.321
 5121SOL     OW16261   3.171   2.309   6.953
 5121SOL    HW116262   3.103   2.290   6.881
 5121SOL    HW216263   3.240   2.237   6.953
 5122SOL     OW16264   3.475   6.511   3.600
 5122SOL    HW116265   3.448   6.523   3.695
 5122SOL    HW216266   3.562   6.461   3.596
 5123SOL     OW16267   4.132   2.172   4.390
 5123SOL    HW116268   4.215   2.226   4.378
 5123SOL    HW216269   4.087   2.160   4.301
 5124SOL     OW16270   2.189   5.406   4.702
 5124SOL    HW116271   2.097   5.437   4.726
 5124SOL    HW216272   2.257   5.459   4.752
 5125SOL     OW16273   6.387   3.146   3.614
 5125SOL    HW116274   6.351   3.234   3.582
 5125SOL    HW216275   6.331   3.073   3.577
 5126SOL     OW16276   5.704   5.515   5.670
 5126SOL    HW116277   5.721   5.535   5.573
 5126SOL    HW216278   5.755   5.581   5.726
 5127SOL     OW16279   0.794   4.230   6.938
 5127SOL    HW116280   0.731   4.207   6.864
 5127SOL    HW216281   0.768   4.178   7.020
 5128SOL     OW16282   6.848   0.609   6.054
 5128SOL    HW116283   6.794   0.552   6.115
 5128SOL    HW216284   6.792   0.686   6.022
 5129SOL     OW16285   6.466   0.003   2.262
 5129SOL    HW116286   6.484   0.074   2.194
 5129SOL    HW216287   6.375   6.986   2.247
 5130SOL     OW16288   0.291   5.583   4.019
 5130SOL    HW116289   0.247   5.630   3.942
 5130SOL    HW216290   0.231   5.588   4.099
 5131SOL     OW16291   2.179   4.977   4.153
 5131SOL    HW116292   2.132   4.903   4.202
 5131SOL    HW216293   2.220   4.942   4.069
 5132SOL     OW16294   3.485   2.579   6.894
 5132SOL    HW116295   3.496   2.480   6.894
 5132SOL    HW216296   3.503   2.615   6.986
 5133SOL     OW16297   2.257   5.773   0.175
 5133SOL    HW116298   2.263   5.719   0.259
 5133SOL    HW216299   2.348   5.804   0.148
 5134SOL     OW16300   0.670   3.025   2.762
 5134SOL    HW116301   0.603   3.084   2.807
 5134SOL    HW216302   0.760   3.070   2.763
 5135SOL     OW16303   5.655   3.177   4.735
 5135SOL    HW116304   5.744   3.148   4.700
 5135SOL    HW216305   5.597   3.097   4.748
 5136SOL     OW16306   4.610   0.838   5.843
 5136SOL    HW116307   4.663   0.854   5.926
 5136SOL    HW216308   4.604   0.740   5.825
 5137SOL     OW16309   4.928   3.032   5.385
 5137SOL    HW116310   4.858   3.103   5.391
 5137SOL    HW216311   5.018   3.073   5.379
 5138SOL     OW16312   3.401   3.040   5.477
 5138SOL    HW116313   3.478   3.095   5.509
 5138SOL    HW216314   3.339   3.098   5.424
 5139SOL     OW16315   1.514   0.882   3.048
 5139SOL    HW116316   1.560   0.909   2.964
 5139SOL    HW216317   1.423   0.924   3.051
 5140SOL     OW16318   4.296   2.681   6.781
 5140SOL    HW116319   4.309   2.758   6.718
 5140SOL    HW216320   4.246   2.712   6.862
 5141SOL     OW16321   6.713   3.724   0.654
 5141SOL    HW116322   6.757   3.789   0.592
 5141SOL    HW216323   6.766   3.639   0.656
 5142SOL     OW16324   6.241   6.866   3.462
 5142SOL    HW116325   6.205   6.903   3.377
 5142SOL    HW216326   6.341   6.861   3.457
 5143SOL     OW16327   6.253   4.340   3.780
 5143SOL    HW116328   6.254   4.434   3.812
 5143SOL    HW216329   6.335   4.321   3.727
 5144SOL     OW16330   0.479   4.596   6.040
 5144SOL    HW116331   0.448   4.545   5.959
 5144SOL    HW216332   0.481   4.693   6.019
 5145SOL     OW16333   3.104   5.072   5.892
 5145SOL    HW116334   3.092   5.070   5.992
 5145SOL    HW216335   3.014   5.068   5.848
 5146SOL     OW16336   3.786   3.994   5.575
 5146SOL    HW116337   3.750   3.994   5.482
 5146SOL    HW216338   3.720   4.038   5.636
 5147SOL     OW16339   0.207   5.323   2.673
 5147SOL    HW116340   0.199   5.423   2.674
 5147SOL    HW216341   0.123   5.282   2.710
 5148SOL     OW16342   6.711   6.134   1.434
 5148SOL    HW116343   6.715   6.206   1.365
 5148SOL    HW216344   6.773   6.158   1.509
 5149SOL     OW16345   6.295   5.509   3.063
 5149SOL    HW116346   6.379   5.457   3.048
 5149SOL    HW216347   6.222   5.447   3.091
 5150SOL     OW16348   2.535   5.682   2.939
 5150SOL    HW116349   2.634   5.688   2.928
 5150SOL    HW216350   2.511   5.589   2.968
 5151SOL     OW16351   6.174   2.479   1.139
 5151SOL    HW116352   6.190   2.400   1.198
 5151SOL    HW216353   6.084   2.472   1.096
 5152SOL     OW16354   2.010   4.554   6.850
 5152SOL    HW116355   1.971   4.505   6.928
 5152SOL    HW216356   2.108   4.539   6.846
 5153SOL     OW16357   1.811   0.820   0.202
 5153SOL    HW116358   1.759   0.763   0.265
 5153SOL    HW216359   1.901   0.779   0.187
 5154SOL     OW16360   1.153   2.768   6.188
 5154SOL    HW116361   1.061   2.798   6.215
 5154SOL    HW216362   1.165   2.783   6.090
 5155SOL     OW16363   4.817   0.374   2.104
 5155SOL    HW116364   4.872   0.352   2.023
 5155SOL    HW216365   4.871   0.429   2.168
 5156SOL     OW16366   5.395   3.632   6.175
 5156SOL    HW116367   5.318   3.583   6.133
 5156SOL    HW216368   5.360   3.699   6.240
 5157SOL     OW16369   3.781   2.093   3.250
 5157SOL    HW116370   3.880   2.105   3.247
 5157SOL    HW216371   3.754   2.061   3.341
 5158SOL     OW16372   3.525   1.482   1.838
 5158SOL    HW116373   3.592   1.460   1.909
 5158SOL    HW216374   3.570   1.532   1.764
 5159SOL     OW16375   6.804   3.503   4.534
 5159SOL    HW116376   6.819   3.600   4.552
 5159SOL    HW216377   6.776   3.490   4.439
 5160SOL     OW16378   6.997   5.231   2.812
 5160SOL    HW116379   6.921   5.169   2.794
 5160SOL    HW216380   6.964   5.313   2.859
 5161SOL     OW16381   1.738   3.999   5.439
 5161SOL    HW116382   1.682   3.917   5.441
 5161SOL    HW216383   1.688   4.075   5.480
 5162SOL     OW16384   1.279   4.991   3.134
 5162SOL    HW116385   1.344   5.058   3.171
 5162SOL    HW216386   1.288   4.987   3.035
 5163SOL     OW16387   3.795   6.472   0.164
 5163SOL    HW116388   3.714   6.421   0.135
 5163SOL    HW216389   3.773   6.569   0.173
 5164SOL     OW16390   3.998   2.426   6.941
 5164SOL    HW116391   3.922   2.434   7.007
 5164SOL    HW216392   4.054   2.508   6.944
 5165SOL     OW16393   6.057   4.350   5.873
 5165SOL    HW116394   6.052   4.251   5.871
 5165SOL    HW216395   6.142   4.379   5.917
 5166SOL     OW16396   0.732   5.314   2.617
 5166SOL    HW116397   0.751   5.277   2.709
 5166SOL    HW216398   0.798   5.276   2.553
 5167SOL     OW16399   6.678   6.457   6.532
 5167SOL    HW116400   6.683   6.380   6.595
 5167SOL    HW216401   6.762   6.512   6.539
 5168SOL     OW16402   5.616   4.182   2.189
 5168SOL    HW116403   5.583   4.187   2.095
 5168SOL    HW216404   5.595   4.091   2.227
 5169SOL     OW16405   3.851   2.048   4.351
 5169SOL    HW116406   3.931   2.086   4.397
 5169SOL    HW216407   3.824   2.108   4.276
 5170SOL     OW16408   0.628   4.286   5.644
 5170SOL    HW116409   0.606   4.203   5.593
 5170SOL    HW216410   0.692   4.264   5.717
 5171SOL     OW16411   1.185   5.765   4.449
 5171SOL    HW116412   1.101   5.782   4.397
 5171SOL    HW216413   1.164   5.758   4.546
 5172SOL     OW16414   1.177   2.332   2.171
 5172SOL    HW116415   1.185   2.429   2.196
 5172SOL    HW216416   1.117   2.323   2.092
 5173SOL     OW16417   4.958   4.836   6.136
 5173SOL    HW116418   4.867   4.850   6.096
 5173SOL    HW216419   4.993   4.746   6.108
 5174SOL     OW16420   2.458   4.990   3.468
 5174SOL    HW116421   2.444   5.045   3.550
 5174SOL    HW216422   2.469   5.050   3.388
 5175SOL     OW16423   2.601   3.432   0.312
 5175SOL    HW116424   2.583   3.460   0.218
 5175SOL    HW216425   2.517   3.439   0.366
 5176SOL     OW16426   4.689   3.192   6.644
 5176SOL    HW116427   4.700   3.153   6.735
 5176SOL    HW216428   4.752   3.147   6.581
 5177SOL     OW16429   4.894   0.846   0.159
 5177SOL    HW116430   4.971   0.788   0.182
 5177SOL    HW216431   4.927   0.936   0.130
 5178SOL     OW16432   1.382   4.301   2.383
 5178SOL    HW116433   1.321   4.321   2.460
 5178SOL    HW216434   1.451   4.235   2.412
 5179SOL     OW16435   3.965   5.880   3.546
 5179SOL    HW116436   3.993   5.827   3.625
 5179SOL    HW216437   4.000   5.974   3.553
 5180SOL     OW16438   2.743   2.710   1.237
 5180SOL    HW116439   2.649   2.680   1.221
 5180SOL    HW216440   2.784   2.740   1.151
 5181SOL     OW16441   6.062   1.495   2.264
 5181SOL    HW116442   5.977   1.447   2.285
 5181SOL    HW216443   6.129   1.429   2.229
 5182SOL     OW16444   3.856   4.451   1.268
 5182SOL    HW116445   3.758   4.437   1.278
 5182SOL    HW216446   3.874   4.518   1.196
 5183SOL     OW16447   4.610   1.793   3.191
 5183SOL    HW116448   4.647   1.702   3.209
 5183SOL    HW216449   4.557   1.824   3.270
 5184SOL     OW16450   0.509   1.930   4.371
 5184SOL    HW116451   0.511   1.902   4.467
 5184SOL    HW216452   0.572   1.873   4.319
 5185SOL     OW16453   5.586   0.951   2.216
 5185SOL    HW116454   5.647   1.006   2.158
 5185SOL    HW216455   5.554   0.871   2.165
 5186SOL     OW16456   6.877   3.199   0.945
 5186SOL    HW116457   6.813   3.126   0.918
 5186SOL    HW216458   6.825   3.278   0.977
 5187SOL     OW16459   0.805   6.822   4.207
 5187SOL    HW116460   0.766   6.736   4.242
 5187SOL    HW216461   0.768   6.841   4.117
 5188SOL     OW16462   0.645   5.550   0.882
 5188SOL    HW116463   0.693   5.637   0.889
 5188SOL    HW216464   0.665   5.494   0.963
 5189SOL     OW16465   4.197   4.403   0.645
 5189SOL    HW116466   4.152   4.465   0.708
 5189SOL    HW216467   4.142   4.320   0.635
 5190SOL     OW16468   0.507   2.321   3.987
 5190SOL    HW116469   0.527   2.236   4.037
 5190SOL    HW216470   0.430   2.367   4.029
 5191SOL     OW16471   4.297   0.490   1.945
 5191SOL    HW116472   4.221   0.474   1.882
 5191SOL    HW216473   4.379   0.444   1.911
 5192SOL     OW16474   3.014   5.591   3.021
 5192SOL    HW116475   3.003   5.518   2.954
 5192SOL    HW216476   2.985   5.559   3.111
 5193SOL     OW16477   5.014   4.410   4.688
 5193SOL    HW116478   4.934   4.430   4.744
 5193SOL    HW216479   5.096   4.413   4.745
 5194SOL     OW16480   4.679   2.067   0.474
 5194SOL    HW116481   4.655   1.974   0.444
 5194SOL    HW216482   4.597   2.115   0.504
 5195SOL     OW16483   5.790   6.606   4.442
 5195SOL    HW116484   5.855   6.651   4.504
 5195SOL    HW216485   5.739   6.536   4.492
 5196SOL     OW16486   3.413   4.805   0.711
 5196SOL    HW116487   3.386   4.844   0.623
 5196SOL    HW216488   3.396   4.871   0.784
 5197SOL     OW16489   1.840   5.678   5.166
 5197SOL    HW116490   1.758   5.654   5.218
 5197SOL    HW216491   1.913   5.614   5.187
 5198SOL     OW16492   4.377   6.575   3.031
 5198SOL    HW116493   4.277   6.574   3.039
 5198SOL    HW216494   4.418   6.571   3.123
 5199SOL     OW16495   1.388   5.737   0.357
 5199SOL    HW116496   1.412   5.758   0.452
 5199SOL    HW216497   1.345   5.817   0.315
 5200SOL     OW16498   1.146   2.413   5.176
 5200SOL    HW116499   1.138   2.443   5.271
 5200SOL    HW216500   1.196   2.482   5.123
 5201SOL     OW16501   0.021   6.715   4.077
 5201SOL    HW116502   6.955   6.763   4.070
 5201SOL    HW216503   0.090   6.762   4.023
 5202SOL     OW16504   5.953   3.963   5.376
 5202SOL    HW116505   5.928   3.881   5.427
 5202SOL    HW216506   5.923   3.954   5.281
 5203SOL     OW16507   2.623   1.668   6.488
 5203SOL    HW116508   2.661   1.598   6.549
 5203SOL    HW216509   2.695   1.701   6.427
 5204SOL     OW16510   4.329   6.368   6.803
 5204SOL    HW116511   4.350   6.387   6.707
 5204SOL    HW216512   4.389   6.422   6.861
 5205SOL     OW16513   0.580   5.849   1.124
 5205SOL    HW116514   0.611   5.926   1.180
 5205SOL    HW216515   0.542   5.883   1.038
 5206SOL     OW16516   0.535   5.080   0.241
 5206SOL    HW116517   0.554   4.992   0.284
 5206SOL    HW216518   0.535   5.152   0.311
 5207SOL     OW16519   1.275   6.504   3.795
 5207SOL    HW116520   1.208   6.466   3.731
 5207SOL    HW216521   1.293   6.438   3.868
 5208SOL     OW16522   5.139   2.405   6.856
 5208SOL    HW116523   5.131   2.395   6.757
 5208SOL    HW216524   5.048   2.398   6.898
 5209SOL     OW16525   5.727   0.260   2.185
 5209SOL    HW116526   5.783   0.194   2.235
 5209SOL    HW216527   5.726   0.237   2.088
 5210SOL     OW16528   4.694   2.985   0.304
 5210SOL    HW116529   4.768   3.029   0.354
 5210SOL    HW216530   4.718   2.889   0.286
 5211SOL     OW16531   4.157   2.206   5.822
 5211SOL    HW116532   4.060   2.197   5.804
 5211SOL    HW216533   4.175   2.185   5.919
 5212SOL     OW16534   0.538   2.569   0.708
 5212SOL    HW116535   0.597   2.647   0.728
 5212SOL    HW216536   0.504   2.529   0.793
 5213SOL     OW16537   4.255   4.066   0.087
 5213SOL    HW116538   4.317   4.116   0.147
 5213SOL    HW216539   4.308   4.015   0.019
 5214SOL     OW16540   5.206   2.157   6.368
 5214SOL    HW116541   5.256   2.075   6.339
 5214SOL    HW216542   5.265   2.215   6.424
 5215SOL     OW16543   1.220   4.792   3.957
 5215SOL    HW116544   1.230   4.749   3.867
 5215SOL    HW216545   1.277   4.743   4.023
 5216SOL     OW16546   4.429   4.831   1.498
 5216SOL    HW116547   4.450   4.770   1.421
 5216SOL    HW216548   4.501   4.823   1.567
 5217SOL     OW16549   3.612   5.422   4.125
 5217SOL    HW116550   3.558   5.435   4.208
 5217SOL    HW216551   3.570   5.349   4.070
 5218SOL     OW16552   1.067   1.044   1.745
 5218SOL    HW116553   1.159   1.028   1.780
 5218SOL    HW216554   1.034   0.962   1.698
 5219SOL     OW16555   3.940   1.384   5.032
 5219SOL    HW116556   3.931   1.321   5.109
 5219SOL    HW216557   3.956   1.477   5.067
 5220SOL     OW16558   1.514   6.236   2.230
 5220SOL    HW116559   1.598   6.280   2.260
 5220SOL    HW216560   1.460   6.210   2.310
 5221SOL     OW16561   6.217   1.623   3.194
 5221SOL    HW116562   6.146   1.595   3.259
 5221SOL    HW216563   6.305   1.584   3.222
 5222SOL     OW16564   4.337   6.565   2.703
 5222SOL    HW116565   4.355   6.476   2.661
 5222SOL    HW216566   4.243   6.568   2.736
 5223SOL     OW16567   6.278   2.782   0.576
 5223SOL    HW116568   6.280   2.777   0.676
 5223SOL    HW216569   6.262   2.877   0.548
 5224SOL     OW16570   6.276   3.068   4.429
 5224SOL    HW116571   6.226   3.075   4.515
 5224SOL    HW216572   6.220   3.020   4.362
 5225SOL     OW16573   0.314   0.619   3.919
 5225SOL    HW116574   0.377   0.561   3.972
 5225SOL    HW216575   0.242   0.653   3.980
 5226SOL     OW16576   0.032   6.979   4.966
 5226SOL    HW116577   0.114   6.984   4.909
 5226SOL    HW216578   6.975   6.956   4.908
 5227SOL     OW16579   0.353   3.359   5.617
 5227SOL    HW116580   0.343   3.271   5.569
 5227SOL    HW216581   0.449   3.386   5.617
 5228SOL     OW16582   6.580   2.507   0.793
 5228SOL    HW116583   6.570   2.490   0.694
 5228SOL    HW216584   6.490   2.519   0.834
 5229SOL     OW16585   2.501   6.236   0.528
 5229SOL    HW116586   2.420   6.263   0.579
 5229SOL    HW216587   2.478   6.162   0.465
 5230SOL     OW16588   0.347   5.732   1.992
 5230SOL    HW116589   0.402   5.797   1.939
 5230SOL    HW216590   0.404   5.656   2.021
 5231SOL     OW16591   4.982   2.452   4.766
 5231SOL    HW116592   4.957   2.376   4.706
 5231SOL    HW216593   5.012   2.417   4.854
 5232SOL     OW16594   1.688   3.700   6.050
 5232SOL    HW116595   1.758   3.700   6.122
 5232SOL    HW216596   1.728   3.735   5.965
 5233SOL     OW16597   4.320   1.271   2.328
 5233SOL    HW116598   4.306   1.369   2.314
 5233SOL    HW216599   4.415   1.254   2.355
 5234SOL     OW16600   2.741   1.818   6.051
 5234SOL    HW116601   2.771   1.763   6.129
 5234SOL    HW216602   2.650   1.789   6.023
 5235SOL     OW16603   1.689   2.596   0.696
 5235SOL    HW116604   1.669   2.503   0.728
 5235SOL    HW216605   1.743   2.644   0.765
 5236SOL     OW16606   4.826   5.065   1.695
 5236SOL    HW116607   4.860   5.139   1.637
 5236SOL    HW216608   4.887   5.051   1.772
 5237SOL     OW16609   1.505   0.991   4.867
 5237SOL    HW116610   1.512   0.901   4.825
 5237SOL    HW216611   1.465   1.055   4.802
 5238SOL     OW16612   0.739   4.488   0.413
 5238SOL    HW116613   0.814   4.544   0.377
 5238SOL    HW216614   0.764   4.454   0.503
 5239SOL     OW16615   3.550   2.835   4.973
 5239SOL    HW116616   3.574   2.740   4.952
 5239SOL    HW216617   3.457   2.838   5.009
 5240SOL     OW16618   3.271   2.584   5.576
 5240SOL    HW116619   3.243   2.678   5.593
 5240SOL    HW216620   3.190   2.526   5.568
 5241SOL     OW16621   0.487   5.230   4.739
 5241SOL    HW116622   0.410   5.192   4.791
 5241SOL    HW216623   0.464   5.234   4.642
 5242SOL     OW16624   6.301   6.669   0.060
 5242SOL    HW116625   6.260   6.578   0.063
 5242SOL    HW216626   6.307   6.700   6.986
 5243SOL     OW16627   1.536   5.555   1.490
 5243SOL    HW116628   1.510   5.604   1.574
 5243SOL    HW216629   1.458   5.500   1.459
 5244SOL     OW16630   2.962   5.241   6.971
 5244SOL    HW116631   2.884   5.301   6.956
 5244SOL    HW216632   3.040   5.273   6.917
 5245SOL     OW16633   4.378   4.357   0.252
 5245SOL    HW116634   4.344   4.408   0.174
 5245SOL    HW216635   4.386   4.417   0.331
 5246SOL     OW16636   6.116   3.639   1.935
 5246SOL    HW116637   6.048   3.703   1.971
 5246SOL    HW216638   6.138   3.663   1.841
 5247SOL     OW16639   1.895   0.840   6.717
 5247SOL    HW116640   1.821   0.887   6.766
 5247SOL    HW216641   1.856   0.776   6.652
 5248SOL     OW16642   5.763   1.721   3.312
 5248SOL    HW116643   5.843   1.708   3.369
 5248SOL    HW216644   5.689   1.762   3.365
 5249SOL     OW16645   0.727   5.287   6.310
 5249SOL    HW116646   0.690   5.213   6.366
 5249SOL    HW216647   0.719   5.263   6.213
 5250SOL     OW16648   2.167   5.741   6.696
 5250SOL    HW116649   2.089   5.737   6.634
 5250SOL    HW216650   2.249   5.765   6.643
 5251SOL     OW16651   0.481   3.702   0.186
 5251SOL    HW116652   0.399   3.727   0.134
 5251SOL    HW216653   0.553   3.675   0.122
 5252SOL     OW16654   2.027   6.548   0.449
 5252SOL    HW116655   1.960   6.516   0.515
 5252SOL    HW216656   2.107   6.488   0.450
 5253SOL     OW16657   6.030   4.743   4.661
 5253SOL    HW116658   6.067   4.830   4.691
 5253SOL    HW216659   5.985   4.697   4.738
 5254SOL     OW16660   4.545   0.617   3.139
 5254SOL    HW116661   4.626   0.558   3.144
 5254SOL    HW216662   4.538   0.657   3.048
 5255SOL     OW16663   5.566   1.751   5.384
 5255SOL    HW116664   5.540   1.660   5.353
 5255SOL    HW216665   5.528   1.820   5.323
 5256SOL     OW16666   4.360   1.626   3.713
 5256SOL    HW116667   4.312   1.697   3.662
 5256SOL    HW216668   4.299   1.587   3.782
 5257SOL     OW16669   5.217   0.238   1.995
 5257SOL    HW116670   5.160   0.163   2.028
 5257SOL    HW216671   5.173   0.325   2.018
 5258SOL     OW16672   5.961   3.145   1.645
 5258SOL    HW116673   5.933   3.169   1.738
 5258SOL    HW216674   5.930   3.216   1.582
 5259SOL     OW16675   5.068   6.417   2.415
 5259SOL    HW116676   5.162   6.383   2.417
 5259SOL    HW216677   5.059   6.488   2.346
 5260SOL     OW16678   4.513   3.332   0.369
 5260SOL    HW116679   4.444   3.310   0.438
 5260SOL    HW216680   4.602   3.342   0.413
 5261SOL     OW16681   0.604   3.690   6.661
 5261SOL    HW116682   0.602   3.723   6.755
 5261SOL    HW216683   0.512   3.698   6.621
 5262SOL     OW16684   2.803   0.948   3.391
 5262SOL    HW116685   2.844   0.891   3.320
 5262SOL    HW216686   2.849   0.931   3.478
 5263SOL     OW16687   2.237   1.604   3.799
 5263SOL    HW116688   2.233   1.618   3.700
 5263SOL    HW216689   2.253   1.507   3.818
 5264SOL     OW16690   6.903   2.459   2.351
 5264SOL    HW116691   6.803   2.454   2.342
 5264SOL    HW216692   6.926   2.479   2.447
 5265SOL     OW16693   6.469   3.812   4.073
 5265SOL    HW116694   6.501   3.819   4.167
 5265SOL    HW216695   6.520   3.875   4.015
 5266SOL     OW16696   3.157   5.504   0.828
 5266SOL    HW116697   3.073   5.493   0.775
 5266SOL    HW216698   3.141   5.475   0.923
 5267SOL     OW16699   5.435   3.382   5.561
 5267SOL    HW116700   5.514   3.342   5.607
 5267SOL    HW216701   5.407   3.324   5.485
 5268SOL     OW16702   5.763   1.198   6.742
 5268SOL    HW116703   5.803   1.147   6.665
 5268SOL    HW216704   5.796   1.158   6.828
 5269SOL     OW16705   1.551   6.152   3.103
 5269SOL    HW116706   1.633   6.095   3.092
 5269SOL    HW216707   1.557   6.203   3.189
 5270SOL     OW16708   6.061   0.783   1.175
 5270SOL    HW116709   6.001   0.861   1.160
 5270SOL    HW216710   6.049   0.747   1.267
 5271SOL     OW16711   6.129   5.668   5.260
 5271SOL    HW116712   6.213   5.715   5.286
 5271SOL    HW216713   6.080   5.723   5.192
 5272SOL     OW16714   3.013   5.589   2.143
 5272SOL    HW116715   3.057   5.509   2.182
 5272SOL    HW216716   2.983   5.569   2.049
 5273SOL     OW16717   6.834   2.946   3.791
 5273SOL    HW116718   6.812   2.980   3.883
 5273SOL    HW216719   6.759   2.965   3.729
 5274SOL     OW16720   6.839   6.537   2.691
 5274SOL    HW116721   6.823   6.532   2.790
 5274SOL    HW216722   6.916   6.597   2.673
 5275SOL     OW16723   3.608   2.205   1.317
 5275SOL    HW116724   3.580   2.125   1.264
 5275SOL    HW216725   3.605   2.184   1.414
 5276SOL     OW16726   2.129   0.381   1.238
 5276SOL    HW116727   2.188   0.308   1.204
 5276SOL    HW216728   2.145   0.464   1.184
 5277SOL     OW16729   1.594   1.371   2.431
 5277SOL    HW116730   1.661   1.438   2.398
 5277SOL    HW216731   1.505   1.416   2.443
 5278SOL     OW16732   6.133   6.992   3.668
 5278SOL    HW116733   6.147   0.067   3.642
 5278SOL    HW216734   6.181   6.933   3.604
 5279SOL     OW16735   2.068   4.762   6.435
 5279SOL    HW116736   2.133   4.752   6.511
 5279SOL    HW216737   2.099   4.705   6.358
 5280SOL     OW16738   2.284   6.335   5.012
 5280SOL    HW116739   2.252   6.271   5.082
 5280SOL    HW216740   2.380   6.357   5.029
 5281SOL     OW16741   6.950   2.477   2.847
 5281SOL    HW116742   6.989   2.472   2.755
 5281SOL    HW216743   6.994   2.550   2.899
 5282SOL     OW16744   2.846   1.924   3.641
 5282SOL    HW116745   2.765   1.874   3.673
 5282SOL    HW216746   2.922   1.861   3.630
 5283SOL     OW16747   4.277   6.765   1.168
 5283SOL    HW116748   4.255   6.669   1.153
 5283SOL    HW216749   4.328   6.775   1.253
 5284SOL     OW16750   4.810   3.963   3.378
 5284SOL    HW116751   4.863   3.881   3.355
 5284SOL    HW216752   4.738   3.938   3.443
 5285SOL     OW16753   2.702   4.923   3.880
 5285SOL    HW116754   2.757   4.905   3.962
 5285SOL    HW216755   2.704   5.021   3.860
 5286SOL     OW16756   1.467   4.688   0.388
 5286SOL    HW116757   1.435   4.758   0.452
 5286SOL    HW216758   1.567   4.684   0.391
 5287SOL     OW16759   2.424   6.519   0.805
 5287SOL    HW116760   2.399   6.422   0.812
 5287SOL    HW216761   2.491   6.540   0.876
 5288SOL     OW16762   3.286   0.541   1.824
 5288SOL    HW116763   3.322   0.570   1.735
 5288SOL    HW216764   3.262   0.444   1.820
 5289SOL     OW16765   1.619   4.818   6.104
 5289SOL    HW116766   1.606   4.777   6.194
 5289SOL    HW216767   1.712   4.801   6.072
 5290SOL     OW16768   1.383   5.335   5.209
 5290SOL    HW116769   1.379   5.248   5.258
 5290SOL    HW216770   1.455   5.331   5.139
 5291SOL     OW16771   2.206   4.953   6.268
 5291SOL    HW116772   2.189   4.942   6.366
 5291SOL    HW216773   2.146   4.891   6.217
 5292SOL     OW16774   6.053   3.173   6.882
 5292SOL    HW116775   6.127   3.123   6.838
 5292SOL    HW216776   5.986   3.108   6.918
 5293SOL     OW16777   0.596   0.363   5.095
 5293SOL    HW116778   0.566   0.378   5.001
 5293SOL    HW216779   0.551   0.282   5.132
 5294SOL     OW16780   4.656   3.391   5.741
 5294SOL    HW116781   4.754   3.397   5.723
 5294SOL    HW216782   4.612   3.476   5.715
 5295SOL     OW16783   5.846   0.735   2.928
 5295SOL    HW116784   5.926   0.796   2.925
 5295SOL    HW216785   5.766   0.787   2.957
 5296SOL     OW16786   2.477   5.170   0.304
 5296SOL    HW116787   2.392   5.175   0.356
 5296SOL    HW216788   2.458   5.139   0.211
 5297SOL     OW16789   2.093   2.286   1.908
 5297SOL    HW116790   2.115   2.249   1.998
 5297SOL    HW216791   2.118   2.383   1.904
 5298SOL     OW16792   0.978   5.519   0.708
 5298SOL    HW116793   1.075   5.514   0.685
 5298SOL    HW216794   0.938   5.427   0.701
 5299SOL     OW16795   2.805   2.334   0.594
 5299SOL    HW116796   2.846   2.406   0.539
 5299SOL    HW216797   2.832   2.344   0.689
 5300SOL     OW16798   0.594   5.789   2.659
 5300SOL    HW116799   0.646   5.759   2.738
 5300SOL    HW216800   0.615   5.730   2.581
 5301SOL     OW16801   4.450   1.756   0.557
 5301SOL    HW116802   4.435   1.835   0.498
 5301SOL    HW216803   4.505   1.688   0.509
 5302SOL     OW16804   5.577   4.382   2.957
 5302SOL    HW116805   5.649   4.377   3.027
 5302SOL    HW216806   5.585   4.303   2.896
 5303SOL     OW16807   6.533   6.222   3.453
 5303SOL    HW116808   6.513   6.196   3.547
 5303SOL    HW216809   6.631   6.211   3.436
 5304SOL     OW16810   6.744   1.745   5.720
 5304SOL    HW116811   6.793   1.744   5.807
 5304SOL    HW216812   6.653   1.784   5.733
 5305SOL     OW16813   1.581   6.955   4.559
 5305SOL    HW116814   1.557   6.882   4.623
 5305SOL    HW216815   1.507   0.002   4.557
 5306SOL     OW16816   0.320   5.717   5.173
 5306SOL    HW116817   0.310   5.678   5.265
 5306SOL    HW216818   0.319   5.643   5.106
 5307SOL     OW16819   4.467   6.868   6.876
 5307SOL    HW116820   4.455   6.823   6.965
 5307SOL    HW216821   4.432   6.961   6.881
 5308SOL     OW16822   0.546   6.837   4.991
 5308SOL    HW116823   0.484   6.795   4.925
 5308SOL    HW216824   0.609   6.768   5.027
 5309SOL     OW16825   3.336   3.612   2.319
 5309SOL    HW116826   3.421   3.577   2.357
 5309SOL    HW216827   3.336   3.712   2.321
 5310SOL     OW16828   5.663   2.704   1.960
 5310SOL    HW116829   5.656   2.604   1.957
 5310SOL    HW216830   5.572   2.744   1.952
 5311SOL     OW16831   0.121   5.795   1.111
 5311SOL    HW116832   0.169   5.707   1.117
 5311SOL    HW216833   0.184   5.869   1.135
 5312SOL     OW16834   0.236   4.157   2.539
 5312SOL    HW116835   0.139   4.142   2.521
 5312SOL    HW216836   0.285   4.168   2.452
 5313SOL     OW16837   0.997   5.739   6.934
 5313SOL    HW116838   1.091   5.746   6.968
 5313SOL    HW216839   0.983   5.648   6.895
 5314SOL     OW16840   3.408   4.771   0.329
 5314SOL    HW116841   3.339   4.703   0.303
 5314SOL    HW216842   3.369   4.831   0.399
 5315SOL     OW16843   3.883   4.058   1.018
 5315SOL    HW116844   3.891   4.148   0.975
 5315SOL    HW216845   3.949   3.996   0.977
 5316SOL     OW16846   6.771   5.001   5.129
 5316SOL    HW116847   6.678   4.976   5.102
 5316SOL    HW216848   6.778   5.004   5.229
 5317SOL     OW16849   6.754   1.103   4.672
 5317SOL    HW116850   6.773   1.044   4.593
 5317SOL    HW216851   6.739   1.046   4.753
 5318SOL     OW16852   0.409   1.993   5.781
 5318SOL    HW116853   0.473   1.920   5.805
 5318SOL    HW216854   0.407   2.061   5.854
 5319SOL     OW16855   5.132   6.729   0.211
 5319SOL    HW116856   5.073   6.659   0.250
 5319SOL    HW216857   5.115   6.816   0.257
 5320SOL     OW16858   5.667   5.119   6.543
 5320SOL    HW116859   5.679   5.140   6.446
 5320SOL    HW216860   5.617   5.033   6.552
 5321SOL     OW16861   0.936   4.708   2.997
 5321SOL    HW116862   0.920   4.801   3.030
 5321SOL    HW216863   1.023   4.704   2.948
 5322SOL     OW16864   3.736   6.661   5.903
 5322SOL    HW116865   3.746   6.703   5.994
 5322SOL    HW216866   3.771   6.724   5.834
 5323SOL     OW16867   3.552   2.881   1.064
 5323SOL    HW116868   3.513   2.790   1.057
 5323SOL    HW216869   3.484   2.944   1.101
 5324SOL     OW16870   3.644   2.479   1.709
 5324SOL    HW116871   3.646   2.562   1.764
 5324SOL    HW216872   3.674   2.401   1.764
 5325SOL     OW16873   6.191   6.463   3.279
 5325SOL    HW116874   6.126   6.415   3.221
 5325SOL    HW216875   6.143   6.501   3.359
 5326SOL     OW16876   6.647   5.203   2.678
 5326SOL    HW116877   6.730   5.150   2.661
 5326SOL    HW216878   6.637   5.273   2.607
 5327SOL     OW16879   0.320   5.482   5.875
 5327SOL    HW116880   0.324   5.453   5.971
 5327SOL    HW216881   0.412   5.479   5.835
 5328SOL     OW16882   4.290   2.684   5.901
 5328SOL    HW116883   4.329   2.773   5.877
 5328SOL    HW216884   4.311   2.663   5.996
 5329SOL     OW16885   0.028   3.653   6.487
 5329SOL    HW116886   0.086   3.585   6.442
 5329SOL    HW216887   0.083   3.707   6.550
 5330SOL     OW16888   3.180   5.071   6.707
 5330SOL    HW116889   3.096   5.025   6.735
 5330SOL    HW216890   3.237   5.086   6.788
 5331SOL     OW16891   5.463   1.588   1.164
 5331SOL    HW116892   5.422   1.678   1.177
 5331SOL    HW216893   5.487   1.577   1.067
 5332SOL     OW16894   6.395   4.271   6.949
 5332SOL    HW116895   6.390   4.172   6.961
 5332SOL    HW216896   6.456   4.310   7.019
 5333SOL     OW16897   1.141   0.359   3.645
 5333SOL    HW116898   1.105   0.271   3.613
 5333SOL    HW216899   1.069   0.409   3.694
 5334SOL     OW16900   3.841   5.292   5.109
 5334SOL    HW116901   3.926   5.313   5.060
 5334SOL    HW216902   3.858   5.289   5.207
 5335SOL     OW16903   0.504   5.217   2.461
 5335SOL    HW116904   0.415   5.263   2.459
 5335SOL    HW216905   0.556   5.247   2.542
 5336SOL     OW16906   1.976   2.218   3.502
 5336SOL    HW116907   1.970   2.167   3.416
 5336SOL    HW216908   1.886   2.255   3.525
 5337SOL     OW16909   5.788   4.472   1.236
 5337SOL    HW116910   5.877   4.441   1.202
 5337SOL    HW216911   5.762   4.418   1.316
 5338SOL     OW16912   5.292   1.179   6.501
 5338SOL    HW116913   5.243   1.093   6.484
 5338SOL    HW216914   5.256   1.251   6.441
 5339SOL     OW16915   5.934   1.359   3.065
 5339SOL    HW116916   6.008   1.410   3.022
 5339SOL    HW216917   5.970   1.274   3.103
 5340SOL     OW16918   5.542   3.889   1.290
 5340SOL    HW116919   5.580   3.882   1.383
 5340SOL    HW216920   5.613   3.866   1.223
 5341SOL     OW16921   3.274   4.878   5.289
 5341SOL    HW116922   3.350   4.888   5.224
 5341SOL    HW216923   3.284   4.792   5.338
 5342SOL     OW16924   5.256   6.553   4.552
 5342SOL    HW116925   5.169   6.600   4.540
 5342SOL    HW216926   5.245   6.479   4.619
 5343SOL     OW16927   3.782   3.606   4.704
 5343SOL    HW116928   3.871   3.576   4.672
 5343SOL    HW216929   3.777   3.706   4.701
 5344SOL     OW16930   0.461   1.275   0.182
 5344SOL    HW116931   0.415   1.289   0.270
 5344SOL    HW216932   0.541   1.218   0.195
 5345SOL     OW16933   5.056   0.555   6.647
 5345SOL    HW116934   4.989   0.628   6.658
 5345SOL    HW216935   5.141   0.592   6.610
 5346SOL     OW16936   2.707   5.249   4.497
 5346SOL    HW116937   2.650   5.166   4.495
 5346SOL    HW216938   2.740   5.265   4.590
 5347SOL     OW16939   6.420   3.616   3.495
 5347SOL    HW116940   6.409   3.542   3.561
 5347SOL    HW216941   6.517   3.624   3.470
 5348SOL     OW16942   0.053   1.001   5.967
 5348SOL    HW116943   6.975   0.992   5.978
 5348SOL    HW216944   0.083   0.946   5.889
 5349SOL     OW16945   2.482   3.506   1.198
 5349SOL    HW116946   2.514   3.494   1.291
 5349SOL    HW216947   2.511   3.596   1.163
 5350SOL     OW16948   2.421   6.700   5.259
 5350SOL    HW116949   2.353   6.673   5.191
 5350SOL    HW216950   2.393   6.669   5.349
 5351SOL     OW16951   0.126   5.282   2.389
 5351SOL    HW116952   0.120   5.204   2.451
 5351SOL    HW216953   0.191   5.349   2.425
 5352SOL     OW16954   2.398   4.805   3.021
 5352SOL    HW116955   2.425   4.795   3.116
 5352SOL    HW216956   2.333   4.881   3.012
 5353SOL     OW16957   3.750   5.637   3.857
 5353SOL    HW116958   3.724   5.675   3.768
 5353SOL    HW216959   3.815   5.563   3.844
 5354SOL     OW16960   2.115   4.732   0.597
 5354SOL    HW116961   2.192   4.774   0.645
 5354SOL    HW216962   2.058   4.683   0.663
 5355SOL     OW16963   5.878   4.714   4.425
 5355SOL    HW116964   5.929   4.756   4.499
 5355SOL    HW216965   5.780   4.727   4.441
 5356SOL     OW16966   6.558   3.344   2.479
 5356SOL    HW116967   6.556   3.267   2.415
 5356SOL    HW216968   6.628   3.410   2.450
 5357SOL     OW16969   4.170   4.574   1.052
 5357SOL    HW116970   4.261   4.538   1.072
 5357SOL    HW216971   4.139   4.631   1.128
 5358SOL     OW16972   4.762   2.301   1.363
 5358SOL    HW116973   4.750   2.215   1.313
 5358SOL    HW216974   4.794   2.282   1.455
 5359SOL     OW16975   2.514   1.701   5.968
 5359SOL    HW116976   2.534   1.697   5.870
 5359SOL    HW216977   2.417   1.681   5.982
 5360SOL     OW16978   5.320   6.055   3.733
 5360SOL    HW116979   5.311   6.144   3.689
 5360SOL    HW216980   5.234   6.004   3.722
 5361SOL     OW16981   2.432   6.749   4.091
 5361SOL    HW116982   2.418   6.837   4.137
 5361SOL    HW216983   2.475   6.685   4.154
 5362SOL     OW16984   6.413   5.972   2.557
 5362SOL    HW116985   6.449   5.907   2.623
 5362SOL    HW216986   6.313   5.972   2.562
 5363SOL     OW16987   5.524   6.466   5.729
 5363SOL    HW116988   5.458   6.539   5.707
 5363SOL    HW216989   5.616   6.504   5.730
 5364SOL     OW16990   6.039   6.740   1.759
 5364SOL    HW116991   6.029   6.640   1.767
 5364SOL    HW216992   5.965   6.785   1.809
 5365SOL     OW16993   3.351   2.875   2.397
 5365SOL    HW116994   3.373   2.869   2.494
 5365SOL    HW216995   3.429   2.844   2.343
 5366SOL     OW16996   6.880   6.932   2.194
 5366SOL    HW116997   6.852   0.005   2.176
 5366SOL    HW216998   6.980   6.927   2.199
 5367SOL     OW16999   6.745   6.312   1.082
 5367SOL    HW117000   6.780   6.311   1.175
 5367SOL    HW217001   6.754   6.404   1.044
 5368SOL     OW17002   6.523   6.903   2.505
 5368SOL    HW117003   6.432   6.869   2.527
 5368SOL    HW217004   6.519   6.956   2.420
 5369SOL     OW17005   2.804   6.094   1.138
 5369SOL    HW117006   2.900   6.122   1.142
 5369SOL    HW217007   2.764   6.104   1.229
 5370SOL     OW17008   4.190   3.554   1.138
 5370SOL    HW117009   4.242   3.524   1.058
 5370SOL    HW217010   4.094   3.564   1.114
 5371SOL     OW17011   6.771   5.043   5.396
 5371SOL    HW117012   6.715   5.118   5.432
 5371SOL    HW217013   6.807   4.989   5.471
 5372SOL     OW17014   1.239   6.510   2.730
 5372SOL    HW117015   1.189   6.426   2.751
 5372SOL    HW217016   1.319   6.487   2.673
 5373SOL     OW17017   4.306   6.701   5.747
 5373SOL    HW117018   4.361   6.617   5.749
 5373SOL    HW217019   4.226   6.689   5.805
 5374SOL     OW17020   2.377   4.404   0.446
 5374SOL    HW117021   2.370   4.392   0.545
 5374SOL    HW217022   2.470   4.382   0.416
 5375SOL     OW17023   0.590   5.699   6.132
 5375SOL    HW117024   0.576   5.619   6.191
 5375SOL    HW217025   0.516   5.765   6.148
 5376SOL     OW17026   1.207   2.554   1.484
 5376SOL    HW117027   1.230   2.583   1.392
 5376SOL    HW217028   1.288   2.513   1.527
 5377SOL     OW17029   1.266   0.186   3.100
 5377SOL    HW117030   1.352   0.205   3.148
 5377SOL    HW217031   1.193   0.242   3.139
 5378SOL     OW17032   6.938   0.141   1.646
 5378SOL    HW117033   6.960   0.044   1.656
 5378SOL    HW217034   6.943   0.167   1.550
 5379SOL     OW17035   1.416   3.573   4.931
 5379SOL    HW117036   1.473   3.550   5.011
 5379SOL    HW217037   1.411   3.672   4.921
 5380SOL     OW17038   2.571   6.966   1.073
 5380SOL    HW117039   2.634   7.001   1.142
 5380SOL    HW217040   2.615   6.969   0.983
 5381SOL     OW17041   6.712   6.036   2.161
 5381SOL    HW117042   6.623   6.000   2.189
 5381SOL    HW217043   6.767   5.961   2.123
 5382SOL     OW17044   2.829   2.194   2.577
 5382SOL    HW117045   2.750   2.197   2.638
 5382SOL    HW217046   2.798   2.183   2.483
 5383SOL     OW17047   1.182   2.612   4.318
 5383SOL    HW117048   1.149   2.672   4.246
 5383SOL    HW217049   1.117   2.536   4.330
 5384SOL     OW17050   4.377   5.510   4.482
 5384SOL    HW117051   4.336   5.527   4.572
 5384SOL    HW217052   4.475   5.493   4.493
 5385SOL     OW17053   5.522   2.746   5.423
 5385SOL    HW117054   5.587   2.680   5.460
 5385SOL    HW217055   5.451   2.766   5.491
 5386SOL     OW17056   5.896   1.362   4.188
 5386SOL    HW117057   5.922   1.334   4.280
 5386SOL    HW217058   5.806   1.326   4.166
 5387SOL     OW17059   2.537   6.696   3.410
 5387SOL    HW117060   2.571   6.763   3.344
 5387SOL    HW217061   2.612   6.635   3.437
 5388SOL     OW17062   1.401   6.752   2.578
 5388SOL    HW117063   1.436   6.783   2.666
 5388SOL    HW217064   1.408   6.652   2.573
 5389SOL     OW17065   3.911   1.871   4.680
 5389SOL    HW117066   3.829   1.824   4.649
 5389SOL    HW217067   3.893   1.917   4.767
 5390SOL     OW17068   5.197   4.366   3.635
 5390SOL    HW117069   5.171   4.427   3.561
 5390SOL    HW217070   5.271   4.306   3.604
 5391SOL     OW17071   2.688   1.843   6.869
 5391SOL    HW117072   2.747   1.771   6.832
 5391SOL    HW217073   2.697   1.925   6.813
 5392SOL     OW17074   5.364   3.910   1.539
 5392SOL    HW117075   5.418   3.882   1.460
 5392SOL    HW217076   5.335   4.005   1.528
 5393SOL     OW17077   4.878   0.866   5.175
 5393SOL    HW117078   4.829   0.922   5.108
 5393SOL    HW217079   4.962   0.914   5.203
 5394SOL     OW17080   0.871   5.664   1.184
 5394SOL    HW117081   0.784   5.710   1.197
 5394SOL    HW217082   0.917   5.702   1.103
 5395SOL     OW17083   4.857   0.776   1.380
 5395SOL    HW117084   4.867   0.846   1.311
 5395SOL    HW217085   4.940   0.721   1.386
 5396SOL     OW17086   5.630   5.067   1.743
 5396SOL    HW117087   5.573   5.140   1.782
 5396SOL    HW217088   5.704   5.045   1.808
 5397SOL     OW17089   0.187   2.247   2.008
 5397SOL    HW117090   0.140   2.208   2.088
 5397SOL    HW217091   0.171   2.345   2.004
 5398SOL     OW17092   2.930   2.276   3.765
 5398SOL    HW117093   2.899   2.183   3.787
 5398SOL    HW217094   2.850   2.333   3.747
 5399SOL     OW17095   2.822   0.091   6.354
 5399SOL    HW117096   2.842   0.009   6.408
 5399SOL    HW217097   2.847   0.075   6.259
 5400SOL     OW17098   2.928   3.455   0.571
 5400SOL    HW117099   2.894   3.511   0.494
 5400SOL    HW217100   2.850   3.412   0.617
 5401SOL     OW17101   5.887   4.181   2.272
 5401SOL    HW117102   5.804   4.170   2.217
 5401SOL    HW217103   5.934   4.265   2.244
 5402SOL     OW17104   2.319   6.261   0.808
 5402SOL    HW117105   2.353   6.167   0.796
 5402SOL    HW217106   2.219   6.261   0.804
 5403SOL     OW17107   5.093   3.651   6.409
 5403SOL    HW117108   5.048   3.645   6.320
 5403SOL    HW217109   5.146   3.735   6.415
 5404SOL     OW17110   0.936   0.105   1.502
 5404SOL    HW117111   0.859   0.094   1.566
 5404SOL    HW217112   0.985   0.018   1.495
 5405SOL     OW17113   5.668   5.046   6.871
 5405SOL    HW117114   5.594   5.068   6.807
 5405SOL    HW217115   5.630   4.994   6.948
 5406SOL     OW17116   2.091   0.909   4.921
 5406SOL    HW117117   2.046   0.998   4.913
 5406SOL    HW217118   2.150   0.909   5.001
 5407SOL     OW17119   3.442   1.396   0.886
 5407SOL    HW117120   3.476   1.303   0.867
 5407SOL    HW217121   3.415   1.440   0.801
 5408SOL     OW17122   3.661   1.243   4.876
 5408SOL    HW117123   3.735   1.179   4.894
 5408SOL    HW217124   3.682   1.331   4.919
 5409SOL     OW17125   6.584   1.509   2.430
 5409SOL    HW117126   6.498   1.497   2.478
 5409SOL    HW217127   6.654   1.451   2.472
 5410SOL     OW17128   0.760   2.465   6.496
 5410SOL    HW117129   0.829   2.475   6.568
 5410SOL    HW217130   0.669   2.481   6.534
 5411SOL     OW17131   5.017   5.092   6.132
 5411SOL    HW117132   5.033   5.107   6.035
 5411SOL    HW217133   5.011   4.994   6.151
 5412SOL     OW17134   2.709   1.208   6.396
 5412SOL    HW117135   2.715   1.295   6.347
 5412SOL    HW217136   2.622   1.203   6.445
 5413SOL     OW17137   0.652   6.716   6.864
 5413SOL    HW117138   0.600   6.687   6.945
 5413SOL    HW217139   0.733   6.767   6.892
 5414SOL     OW17140   6.215   4.642   5.309
 5414SOL    HW117141   6.278   4.578   5.354
 5414SOL    HW217142   6.210   4.726   5.363
 5415SOL     OW17143   2.603   6.051   0.706
 5415SOL    HW117144   2.670   6.086   0.772
 5415SOL    HW217145   2.587   6.121   0.636
 5416SOL     OW17146   2.395   4.582   5.095
 5416SOL    HW117147   2.330   4.602   5.168
 5416SOL    HW217148   2.483   4.557   5.135
 5417SOL     OW17149   3.749   0.274   5.166
 5417SOL    HW117150   3.797   0.292   5.080
 5417SOL    HW217151   3.650   0.271   5.149
 5418SOL     OW17152   5.566   5.577   5.160
 5418SOL    HW117153   5.593   5.501   5.100
 5418SOL    HW217154   5.487   5.550   5.215
 5419SOL     OW17155   4.027   6.075   0.480
 5419SOL    HW117156   3.930   6.082   0.501
 5419SOL    HW217157   4.041   6.007   0.408
 5420SOL     OW17158   1.899   2.191   0.878
 5420SOL    HW117159   1.882   2.166   0.783
 5420SOL    HW217160   1.832   2.147   0.937
 5421SOL     OW17161   3.374   5.323   1.182
 5421SOL    HW117162   3.292   5.283   1.142
 5421SOL    HW217163   3.424   5.254   1.234
 5422SOL     OW17164   1.634   5.305   5.093
 5422SOL    HW117165   1.665   5.281   5.001
 5422SOL    HW217166   1.713   5.329   5.150
 5423SOL     OW17167   5.533   4.883   0.542
 5423SOL    HW117168   5.529   4.976   0.578
 5423SOL    HW217169   5.506   4.818   0.613
 5424SOL     OW17170   5.076   3.992   4.380
 5424SOL    HW117171   5.090   4.090   4.397
 5424SOL    HW217172   5.164   3.945   4.387
 5425SOL     OW17173   6.509   2.550   4.514
 5425SOL    HW117174   6.412   2.526   4.507
 5425SOL    HW217175   6.525   2.635   4.464
 5426SOL     OW17176   4.653   5.445   2.274
 5426SOL    HW117177   4.728   5.484   2.220
 5426SOL    HW217178   4.566   5.474   2.235
 5427SOL     OW17179   5.375   3.109   0.548
 5427SOL    HW117180   5.385   3.209   0.542
 5427SOL    HW217181   5.449   3.066   0.496
 5428SOL     OW17182   5.146   6.512   2.111
 5428SOL    HW117183   5.174   6.605   2.086
 5428SOL    HW217184   5.059   6.491   2.067
 5429SOL     OW17185   1.982   0.173   5.042
 5429SOL    HW117186   2.068   0.170   5.094
 5429SOL    HW217187   1.907   0.140   5.099
 5430SOL     OW17188   1.960   3.153   4.765
 5430SOL    HW117189   1.996   3.199   4.846
 5430SOL    HW217190   1.861   3.137   4.777
 5431SOL     OW17191   3.211   3.647   6.679
 5431SOL    HW117192   3.151   3.640   6.758
 5431SOL    HW217193   3.252   3.558   6.660
 5432SOL     OW17194   4.534   5.425   6.409
 5432SOL    HW117195   4.630   5.425   6.436
 5432SOL    HW217196   4.485   5.353   6.458
 5433SOL     OW17197   0.816   6.967   1.285
 5433SOL    HW117198   0.807   0.038   1.323
 5433SOL    HW217199   0.910   6.952   1.257
 5434SOL     OW17200   4.265   1.034   4.744
 5434SOL    HW117201   4.282   1.132   4.757
 5434SOL    HW217202   4.256   1.014   4.646
 5435SOL     OW17203   6.350   4.030   0.770
 5435SOL    HW117204   6.388   3.937   0.773
 5435SOL    HW217205   6.424   4.096   0.759
 5436SOL     OW17206   6.400   4.263   4.028
 5436SOL    HW117207   6.380   4.223   4.117
 5436SOL    HW217208   6.315   4.287   3.982
 5437SOL     OW17209   3.009   5.088   5.517
 5437SOL    HW117210   3.041   5.168   5.567
 5437SOL    HW217211   3.040   5.093   5.422
 5438SOL     OW17212   5.326   4.938   1.909
 5438SOL    HW117213   5.415   4.911   1.945
 5438SOL    HW217214   5.260   4.942   1.984
 5439SOL     OW17215   0.675   3.621   7.011
 5439SOL    HW117216   0.773   3.609   0.003
 5439SOL    HW217217   0.639   3.544   6.958
 5440SOL     OW17218   6.512   6.532   4.038
 5440SOL    HW117219   6.473   6.552   3.948
 5440SOL    HW217220   6.610   6.551   4.036
 5441SOL     OW17221   5.178   3.550   3.010
 5441SOL    HW117222   5.236   3.503   2.944
 5441SOL    HW217223   5.185   3.503   3.099
 5442SOL     OW17224   4.227   6.880   3.778
 5442SOL    HW117225   4.204   6.888   3.681
 5442SOL    HW217226   4.321   6.911   3.793
 5443SOL     OW17227   4.709   5.845   3.975
 5443SOL    HW117228   4.645   5.802   4.039
 5443SOL    HW217229   4.800   5.850   4.017
 5444SOL     OW17230   0.068   1.189   3.634
 5444SOL    HW117231   0.120   1.271   3.610
 5444SOL    HW217232   0.017   1.158   3.554
 5445SOL     OW17233   5.537   4.744   3.500
 5445SOL    HW117234   5.502   4.806   3.430
 5445SOL    HW217235   5.508   4.651   3.479
 5446SOL     OW17236   5.921   5.140   4.613
 5446SOL    HW117237   5.923   5.172   4.518
 5446SOL    HW217238   5.886   5.047   4.615
 5447SOL     OW17239   1.910   1.562   1.077
 5447SOL    HW117240   1.994   1.548   1.026
 5447SOL    HW217241   1.919   1.644   1.134
 5448SOL     OW17242   4.267   4.698   3.731
 5448SOL    HW117243   4.324   4.769   3.772
 5448SOL    HW217244   4.185   4.685   3.786
 5449SOL     OW17245   1.834   1.157   1.317
 5449SOL    HW117246   1.785   1.104   1.248
 5449SOL    HW217247   1.806   1.253   1.312
 5450SOL     OW17248   3.379   6.557   1.165
 5450SOL    HW117249   3.345   6.649   1.148
 5450SOL    HW217250   3.312   6.490   1.131
 5451SOL     OW17251   1.881   5.795   3.830
 5451SOL    HW117252   1.832   5.881   3.840
 5451SOL    HW217253   1.966   5.810   3.779
 5452SOL     OW17254   2.788   4.449   1.419
 5452SOL    HW117255   2.716   4.476   1.355
 5452SOL    HW217256   2.747   4.429   1.508
 5453SOL     OW17257   5.489   3.931   2.277
 5453SOL    HW117258   5.421   3.969   2.339
 5453SOL    HW217259   5.444   3.899   2.193
 5454SOL     OW17260   5.607   5.617   1.446
 5454SOL    HW117261   5.592   5.520   1.465
 5454SOL    HW217262   5.526   5.655   1.403
 5455SOL     OW17263   0.454   1.840   3.592
 5455SOL    HW117264   0.426   1.863   3.685
 5455SOL    HW217265   0.473   1.742   3.587
 5456SOL     OW17266   3.358   1.722   6.515
 5456SOL    HW117267   3.372   1.656   6.441
 5456SOL    HW217268   3.271   1.769   6.501
 5457SOL     OW17269   6.653   2.052   0.933
 5457SOL    HW117270   6.660   1.967   0.985
 5457SOL    HW217271   6.737   2.106   0.945
 5458SOL     OW17272   6.918   4.723   0.670
 5458SOL    HW117273   6.863   4.695   0.749
 5458SOL    HW217274   6.868   4.792   0.618
 5459SOL     OW17275   1.970   5.106   5.151
 5459SOL    HW117276   1.930   5.017   5.127
 5459SOL    HW217277   2.033   5.135   5.080
 5460SOL     OW17278   2.938   0.080   2.150
 5460SOL    HW117279   2.923   0.118   2.241
 5460SOL    HW217280   2.981   7.012   2.157
 5461SOL     OW17281   1.068   0.913   4.618
 5461SOL    HW117282   1.108   0.893   4.708
 5461SOL    HW217283   1.091   0.839   4.555
 5462SOL     OW17284   5.571   5.912   6.659
 5462SOL    HW117285   5.608   5.971   6.587
 5462SOL    HW217286   5.496   5.857   6.622
 5463SOL     OW17287   0.348   1.532   0.106
 5463SOL    HW117288   0.281   1.581   0.161
 5463SOL    HW217289   0.333   1.433   0.116
 5464SOL     OW17290   6.097   6.106   5.036
 5464SOL    HW117291   6.136   6.109   5.128
 5464SOL    HW217292   6.152   6.044   4.979
 5465SOL     OW17293   6.393   0.288   3.082
 5465SOL    HW117294   6.311   0.327   3.126
 5465SOL    HW217295   6.469   0.351   3.092
 5466SOL     OW17296   6.067   2.806   5.869
 5466SOL    HW117297   5.982   2.753   5.863
 5466SOL    HW217298   6.050   2.890   5.921
 5467SOL     OW17299   5.835   3.932   2.897
 5467SOL    HW117300   5.932   3.932   2.922
 5467SOL    HW217301   5.794   3.844   2.921
 5468SOL     OW17302   0.232   2.193   4.139
 5468SOL    HW117303   0.202   2.174   4.233
 5468SOL    HW217304   0.276   2.283   4.136
 5469SOL     OW17305   3.062   5.680   5.905
 5469SOL    HW117306   3.087   5.584   5.919
 5469SOL    HW217307   3.040   5.694   5.809
 5470SOL     OW17308   3.926   5.102   4.110
 5470SOL    HW117309   3.997   5.148   4.163
 5470SOL    HW217310   3.953   5.100   4.013
 5471SOL     OW17311   5.735   0.536   2.246
 5471SOL    HW117312   5.637   0.558   2.246
 5471SOL    HW217313   5.748   0.443   2.212
 5472SOL     OW17314   3.090   3.880   6.553
 5472SOL    HW117315   3.142   3.807   6.596
 5472SOL    HW217316   3.003   3.893   6.601
 5473SOL     OW17317   1.255   3.733   0.368
 5473SOL    HW117318   1.282   3.642   0.336
 5473SOL    HW217319   1.237   3.792   0.289
 5474SOL     OW17320   0.902   5.514   4.518
 5474SOL    HW117321   0.862   5.469   4.437
 5474SOL    HW217322   0.841   5.501   4.596
 5475SOL     OW17323   1.570   1.881   0.326
 5475SOL    HW117324   1.601   1.814   0.394
 5475SOL    HW217325   1.552   1.969   0.371
 5476SOL     OW17326   1.617   4.378   5.103
 5476SOL    HW117327   1.627   4.433   5.020
 5476SOL    HW217328   1.529   4.331   5.102
 5477SOL     OW17329   2.252   3.965   3.259
 5477SOL    HW117330   2.294   4.047   3.220
 5477SOL    HW217331   2.214   3.909   3.186
 5478SOL     OW17332   4.582   6.629   5.460
 5478SOL    HW117333   4.514   6.672   5.399
 5478SOL    HW217334   4.617   6.546   5.416
 5479SOL     OW17335   4.814   1.970   4.894
 5479SOL    HW117336   4.822   2.011   4.803
 5479SOL    HW217337   4.884   2.009   4.954
 5480SOL     OW17338   5.268   5.011   5.364
 5480SOL    HW117339   5.234   4.929   5.320
 5480SOL    HW217340   5.307   5.073   5.296
 5481SOL     OW17341   4.772   1.552   4.725
 5481SOL    HW117342   4.812   1.584   4.811
 5481SOL    HW217343   4.760   1.630   4.664
 5482SOL     OW17344   3.712   3.771   2.015
 5482SOL    HW117345   3.737   3.679   2.044
 5482SOL    HW217346   3.631   3.801   2.065
 5483SOL     OW17347   0.526   2.152   5.353
 5483SOL    HW117348   0.622   2.177   5.364
 5483SOL    HW217349   0.493   2.185   5.265
 5484SOL     OW17350   5.618   0.286   4.064
 5484SOL    HW117351   5.701   0.266   4.011
 5484SOL    HW217352   5.539   0.246   4.018
 5485SOL     OW17353   2.872   6.850   5.040
 5485SOL    HW117354   2.796   6.886   5.095
 5485SOL    HW217355   2.928   6.926   5.006
 5486SOL     OW17356   1.737   5.910   4.505
 5486SOL    HW117357   1.651   5.860   4.496
 5486SOL    HW217358   1.758   5.923   4.602
 5487SOL     OW17359   5.253   3.068   6.754
 5487SOL    HW117360   5.188   2.999   6.722
 5487SOL    HW217361   5.328   3.077   6.689
 5488SOL     OW17362   5.031   1.167   0.780
 5488SOL    HW117363   5.035   1.089   0.842
 5488SOL    HW217364   4.959   1.229   0.810
 5489SOL     OW17365   1.002   5.026   0.832
 5489SOL    HW117366   1.102   5.025   0.840
 5489SOL    HW217367   0.966   4.935   0.853
 5490SOL     OW17368   3.556   0.341   0.875
 5490SOL    HW117369   3.568   0.250   0.915
 5490SOL    HW217370   3.512   0.333   0.786
 5491SOL     OW17371   1.903   3.977   6.833
 5491SOL    HW117372   1.841   4.049   6.800
 5491SOL    HW217373   1.886   3.960   6.930
 5492SOL     OW17374   0.696   1.978   6.638
 5492SOL    HW117375   0.787   1.975   6.597
 5492SOL    HW217376   0.683   1.897   6.696
 5493SOL     OW17377   3.996   3.650   3.855
 5493SOL    HW117378   4.044   3.664   3.769
 5493SOL    HW217379   3.927   3.579   3.844
 5494SOL     OW17380   6.488   2.659   6.606
 5494SOL    HW117381   6.505   2.600   6.527
 5494SOL    HW217382   6.493   2.605   6.690
 5495SOL     OW17383   3.693   2.463   1.432
 5495SOL    HW117384   3.660   2.379   1.387
 5495SOL    HW217385   3.667   2.461   1.528
 5496SOL     OW17386   2.436   0.344   3.390
 5496SOL    HW117387   2.425   0.310   3.483
 5496SOL    HW217388   2.449   0.267   3.328
 5497SOL     OW17389   0.496   2.177   3.731
 5497SOL    HW117390   0.570   2.115   3.702
 5497SOL    HW217391   0.518   2.215   3.820
 5498SOL     OW17392   5.310   6.574   1.421
 5498SOL    HW117393   5.346   6.516   1.494
 5498SOL    HW217394   5.296   6.667   1.456
 5499SOL     OW17395   0.085   1.027   4.071
 5499SOL    HW117396   0.133   1.081   4.140
 5499SOL    HW217397   7.008   1.045   4.076
 5500SOL     OW17398   1.843   6.950   0.401
 5500SOL    HW117399   1.814   6.919   0.492
 5500SOL    HW217400   1.831   6.876   0.335
 5501SOL     OW17401   3.945   6.946   0.761
 5501SOL    HW117402   3.959   0.014   0.718
 5501SOL    HW217403   3.974   6.950   0.857
 5502SOL     OW17404   5.747   4.160   6.847
 5502SOL    HW117405   5.729   4.089   6.915
 5502SOL    HW217406   5.693   4.241   6.869
 5503SOL     OW17407   6.429   5.684   3.460
 5503SOL    HW117408   6.390   5.656   3.548
 5503SOL    HW217409   6.513   5.736   3.476
 5504SOL     OW17410   4.357   1.313   4.838
 5504SOL    HW117411   4.408   1.385   4.792
 5504SOL    HW217412   4.259   1.330   4.830
 5505SOL     OW17413   1.851   5.625   4.523
 5505SOL    HW117414   1.895   5.714   4.530
 5505SOL    HW217415   1.817   5.611   4.430
 5506SOL     OW17416   1.059   1.264   6.310
 5506SOL    HW117417   1.061   1.165   6.293
 5506SOL    HW217418   1.129   1.287   6.379
 5507SOL     OW17419   2.357   0.368   3.691
 5507SOL    HW117420   2.352   0.271   3.671
 5507SOL    HW217421   2.406   0.382   3.777
 5508SOL     OW17422   2.290   0.784   6.588
 5508SOL    HW117423   2.234   0.705   6.564
 5508SOL    HW217424   2.237   0.868   6.573
 5509SOL     OW17425   0.700   6.500   0.624
 5509SOL    HW117426   0.717   6.412   0.580
 5509SOL    HW217427   0.787   6.543   0.647
 5510SOL     OW17428   4.982   6.269   0.704
 5510SOL    HW117429   4.999   6.367   0.719
 5510SOL    HW217430   4.888   6.256   0.674
 5511SOL     OW17431   2.700   0.546   4.320
 5511SOL    HW117432   2.735   0.586   4.405
 5511SOL    HW217433   2.600   0.554   4.318
 5512SOL     OW17434   5.919   2.133   1.642
 5512SOL    HW117435   5.997   2.182   1.681
 5512SOL    HW217436   5.922   2.139   1.543
 5513SOL     OW17437   3.872   4.597   6.358
 5513SOL    HW117438   3.776   4.609   6.333
 5513SOL    HW217439   3.906   4.682   6.398
 5514SOL     OW17440   4.633   6.164   2.767
 5514SOL    HW117441   4.587   6.248   2.793
 5514SOL    HW217442   4.625   6.097   2.841
 5515SOL     OW17443   6.932   4.615   1.406
 5515SOL    HW117444   6.880   4.677   1.464
 5515SOL    HW217445   6.935   4.524   1.447
 5516SOL     OW17446   1.231   3.792   6.096
 5516SOL    HW117447   1.316   3.843   6.079
 5516SOL    HW217448   1.232   3.756   6.189
 5517SOL     OW17449   2.108   3.325   2.080
 5517SOL    HW117450   2.141   3.417   2.058
 5517SOL    HW217451   2.163   3.257   2.031
 5518SOL     OW17452   5.791   0.034   6.530
 5518SOL    HW117453   5.870   0.024   6.471
 5518SOL    HW217454   5.708   0.034   6.475
 5519SOL     OW17455   5.230   2.963   2.844
 5519SOL    HW117456   5.320   2.990   2.877
 5519SOL    HW217457   5.239   2.917   2.755
 5520SOL     OW17458   6.751   5.748   2.338
 5520SOL    HW117459   6.670   5.690   2.341
 5520SOL    HW217460   6.758   5.791   2.248
 5521SOL     OW17461   4.717   0.028   1.570
 5521SOL    HW117462   4.669   0.012   1.484
 5521SOL    HW217463   4.654   0.013   1.646
 5522SOL     OW17464   0.081   5.310   0.975
 5522SOL    HW117465   0.027   5.381   0.929
 5522SOL    HW217466   0.059   5.221   0.936
 5523SOL     OW17467   3.785   0.223   2.043
 5523SOL    HW117468   3.821   0.268   1.961
 5523SOL    HW217469   3.752   0.293   2.107
 5524SOL     OW17470   4.964   5.332   5.090
 5524SOL    HW117471   5.025   5.349   5.167
 5524SOL    HW217472   4.875   5.301   5.124
 5525SOL     OW17473   6.778   2.885   0.222
 5525SOL    HW117474   6.833   2.920   0.298
 5525SOL    HW217475   6.735   2.961   0.174
 5526SOL     OW17476   4.892   4.833   4.715
 5526SOL    HW117477   4.843   4.891   4.650
 5526SOL    HW217478   4.930   4.754   4.667
 5527SOL     OW17479   6.286   3.552   4.695
 5527SOL    HW117480   6.224   3.491   4.646
 5527SOL    HW217481   6.355   3.497   4.742
 5528SOL     OW17482   1.063   1.744   6.765
 5528SOL    HW117483   1.006   1.669   6.798
 5528SOL    HW217484   1.103   1.719   6.677
 5529SOL     OW17485   2.090   0.580   4.083
 5529SOL    HW117486   2.123   0.636   4.159
 5529SOL    HW217487   1.994   0.603   4.065
 5530SOL     OW17488   0.146   2.489   2.212
 5530SOL    HW117489   0.074   2.473   2.279
 5530SOL    HW217490   0.111   2.549   2.140
 5531SOL     OW17491   4.073   3.186   2.417
 5531SOL    HW117492   4.136   3.215   2.488
 5531SOL    HW217493   4.011   3.117   2.453
 5532SOL     OW17494   1.316   2.389   0.354
 5532SOL    HW117495   1.370   2.377   0.438
 5532SOL    HW217496   1.227   2.344   0.365
 5533SOL     OW17497   3.684   0.870   3.134
 5533SOL    HW117498   3.620   0.806   3.177
 5533SOL    HW217499   3.776   0.856   3.172
 5534SOL     OW17500   0.604   1.878   6.035
 5534SOL    HW117501   0.538   1.866   6.108
 5534SOL    HW217502   0.661   1.958   6.054
 5535SOL     OW17503   0.275   3.081   4.320
 5535SOL    HW117504   0.177   3.066   4.305
 5535SOL    HW217505   0.289   3.141   4.398
 5536SOL     OW17506   2.594   0.898   4.313
 5536SOL    HW117507   2.685   0.906   4.273
 5536SOL    HW217508   2.535   0.972   4.277
 5537SOL     OW17509   2.702   0.519   3.135
 5537SOL    HW117510   2.655   0.598   3.095
 5537SOL    HW217511   2.732   0.542   3.228
 5538SOL     OW17512   2.863   0.147   5.190
 5538SOL    HW117513   2.878   0.245   5.195
 5538SOL    HW217514   2.908   0.102   5.267
 5539SOL     OW17515   1.358   3.282   0.201
 5539SOL    HW117516   1.449   3.317   0.179
 5539SOL    HW217517   1.334   3.308   0.294
 5540SOL     OW17518   5.653   3.647   3.630
 5540SOL    HW117519   5.567   3.604   3.601
 5540SOL    HW217520   5.728   3.580   3.623
 5541SOL     OW17521   5.834   1.073   5.948
 5541SOL    HW117522   5.792   1.132   5.879
 5541SOL    HW217523   5.877   0.994   5.904
 5542SOL     OW17524   6.203   5.259   6.375
 5542SOL    HW117525   6.226   5.184   6.313
 5542SOL    HW217526   6.262   5.255   6.456
 5543SOL     OW17527   3.412   5.393   5.736
 5543SOL    HW117528   3.335   5.409   5.798
 5543SOL    HW217529   3.421   5.295   5.719
 5544SOL     OW17530   5.548   6.713   5.967
 5544SOL    HW117531   5.644   6.690   5.978
 5544SOL    HW217532   5.492   6.631   5.983
 5545SOL     OW17533   4.261   1.759   3.044
 5545SOL    HW117534   4.197   1.809   2.986
 5545SOL    HW217535   4.281   1.670   3.003
 5546SOL     OW17536   1.012   6.702   4.832
 5546SOL    HW117537   0.984   6.779   4.888
 5546SOL    HW217538   0.941   6.631   4.835
 5547SOL     OW17539   3.587   0.328   4.503
 5547SOL    HW117540   3.669   0.335   4.447
 5547SOL    HW217541   3.538   0.415   4.502
 5548SOL     OW17542   5.902   3.557   5.700
 5548SOL    HW117543   5.892   3.491   5.625
 5548SOL    HW217544   5.840   3.534   5.774
 5549SOL     OW17545   5.171   3.827   1.095
 5549SOL    HW117546   5.138   3.922   1.102
 5549SOL    HW217547   5.189   3.792   1.187
 5550SOL     OW17548   2.256   4.663   2.329
 5550SOL    HW117549   2.298   4.704   2.247
 5550SOL    HW217550   2.313   4.587   2.361
 5551SOL     OW17551   2.180   5.532   2.985
 5551SOL    HW117552   2.133   5.580   2.911
 5551SOL    HW217553   2.162   5.580   3.071
 5552SOL     OW17554   6.354   0.295   0.187
 5552SOL    HW117555   6.334   0.244   0.271
 5552SOL    HW217556   6.453   0.296   0.172
 5553SOL     OW17557   5.202   6.237   0.198
 5553SOL    HW117558   5.131   6.170   0.218
 5553SOL    HW217559   5.291   6.198   0.220
 5554SOL     OW17560   4.781   1.599   6.046
 5554SOL    HW117561   4.789   1.542   5.964
 5554SOL    HW217562   4.704   1.662   6.035
 5555SOL     OW17563   1.811   4.047   3.806
 5555SOL    HW117564   1.843   4.099   3.885
 5555SOL    HW217565   1.848   4.086   3.723
 5556SOL     OW17566   6.865   1.406   3.385
 5556SOL    HW117567   6.940   1.473   3.379
 5556SOL    HW217568   6.790   1.445   3.437
 5557SOL     OW17569   3.581   6.757   3.325
 5557SOL    HW117570   3.496   6.803   3.349
 5557SOL    HW217571   3.562   6.679   3.265
 5558SOL     OW17572   4.592   3.812   6.117
 5558SOL    HW117573   4.556   3.831   6.208
 5558SOL    HW217574   4.517   3.809   6.051
 5559SOL     OW17575   1.774   0.334   2.164
 5559SOL    HW117576   1.771   0.307   2.260
 5559SOL    HW217577   1.793   0.432   2.158
 5560SOL     OW17578   1.153   6.845   2.495
 5560SOL    HW117579   1.122   6.784   2.422
 5560SOL    HW217580   1.243   6.816   2.527
 5561SOL     OW17581   1.112   1.717   4.077
 5561SOL    HW117582   1.016   1.742   4.067
 5561SOL    HW217583   1.120   1.619   4.090
 5562SOL     OW17584   3.507   2.363   6.632
 5562SOL    HW117585   3.456   2.280   6.611
 5562SOL    HW217586   3.566   2.347   6.711
 5563SOL     OW17587   4.214   5.322   2.275
 5563SOL    HW117588   4.124   5.295   2.240
 5563SOL    HW217589   4.216   5.312   2.374
 5564SOL     OW17590   4.433   0.637   1.546
 5564SOL    HW117591   4.499   0.597   1.481
 5564SOL    HW217592   4.482   0.669   1.627
 5565SOL     OW17593   4.653   1.478   6.270
 5565SOL    HW117594   4.692   1.531   6.345
 5565SOL    HW217595   4.713   1.485   6.190
 5566SOL     OW17596   1.756   5.233   6.918
 5566SOL    HW117597   1.807   5.152   6.889
 5566SOL    HW217598   1.713   5.215   7.007
 5567SOL     OW17599   0.270   3.172   1.519
 5567SOL    HW117600   0.361   3.175   1.479
 5567SOL    HW217601   0.207   3.125   1.456
 5568SOL     OW17602   4.494   1.548   3.979
 5568SOL    HW117603   4.449   1.560   3.891
 5568SOL    HW217604   4.441   1.484   4.036
 5569SOL     OW17605   1.868   1.622   2.353
 5569SOL    HW117606   1.919   1.541   2.381
 5569SOL    HW217607   1.777   1.594   2.320
 5570SOL     OW17608   6.219   4.552   4.617
 5570SOL    HW117609   6.246   4.520   4.526
 5570SOL    HW217610   6.144   4.618   4.608
 5571SOL     OW17611   6.959   5.743   0.696
 5571SOL    HW117612   7.013   5.810   0.748
 5571SOL    HW217613   6.864   5.773   0.693
 5572SOL     OW17614   1.255   2.154   5.191
 5572SOL    HW117615   1.224   2.128   5.282
 5572SOL    HW217616   1.228   2.248   5.172
 5573SOL     OW17617   1.941   4.521   5.801
 5573SOL    HW117618   1.979   4.562   5.718
 5573SOL    HW217619   1.991   4.437   5.822
 5574SOL     OW17620   6.598   1.781   2.513
 5574SOL    HW117621   6.614   1.683   2.509
 5574SOL    HW217622   6.503   1.798   2.540
 5575SOL     OW17623   6.835   1.346   1.059
 5575SOL    HW117624   6.743   1.310   1.068
 5575SOL    HW217625   6.858   1.358   0.963
 5576SOL     OW17626   1.197   5.389   2.329
 5576SOL    HW117627   1.281   5.338   2.346
 5576SOL    HW217628   1.155   5.357   2.245
 5577SOL     OW17629   2.875   2.966   5.379
 5577SOL    HW117630   2.794   2.908   5.389
 5577SOL    HW217631   2.940   2.921   5.318
 5578SOL     OW17632   3.598   3.697   6.982
 5578SOL    HW117633   3.506   3.658   6.978
 5578SOL    HW217634   3.613   3.756   6.903
 5579SOL     OW17635   1.099   3.296   5.924
 5579SOL    HW117636   1.110   3.204   5.886
 5579SOL    HW217637   1.001   3.319   5.926
 5580SOL     OW17638   5.338   2.270   6.129
 5580SOL    HW117639   5.308   2.284   6.035
 5580SOL    HW217640   5.281   2.325   6.191
 5581SOL     OW17641   2.123   0.416   2.101
 5581SOL    HW117642   2.047   0.481   2.104
 5581SOL    HW217643   2.206   0.463   2.071
 5582SOL     OW17644   3.277   3.534   4.715
 5582SOL    HW117645   3.286   3.608   4.782
 5582SOL    HW217646   3.182   3.502   4.713
 5583SOL     OW17647   4.379   0.679   2.711
 5583SOL    HW117648   4.292   0.728   2.719
 5583SOL    HW217649   4.443   0.713   2.779
 5584SOL     OW17650   5.989   4.478   4.042
 5584SOL    HW117651   5.981   4.539   3.963
 5584SOL    HW217652   5.899   4.443   4.066
 5585SOL     OW17653   4.993   6.117   3.807
 5585SOL    HW117654   5.004   6.019   3.787
 5585SOL    HW217655   5.081   6.155   3.836
 5586SOL     OW17656   0.028   2.338   6.807
 5586SOL    HW117657   0.011   2.422   6.859
 5586SOL    HW217658   0.075   2.272   6.866
 5587SOL     OW17659   3.954   5.926   2.698
 5587SOL    HW117660   4.047   5.940   2.665
 5587SOL    HW217661   3.902   5.875   2.630
 5588SOL     OW17662   2.285   6.288   2.747
 5588SOL    HW117663   2.213   6.287   2.816
 5588SOL    HW217664   2.361   6.344   2.778
 5589SOL     OW17665   5.810   4.015   5.139
 5589SOL    HW117666   5.710   4.016   5.137
 5589SOL    HW217667   5.845   4.052   5.053
 5590SOL     OW17668   6.429   5.371   4.071
 5590SOL    HW117669   6.347   5.317   4.050
 5590SOL    HW217670   6.427   5.397   4.168
 5591SOL     OW17671   5.642   1.302   0.071
 5591SOL    HW117672   5.640   1.301   0.171
 5591SOL    HW217673   5.724   1.254   0.039
 5592SOL     OW17674   6.712   5.032   3.060
 5592SOL    HW117675   6.727   4.950   3.115
 5592SOL    HW217676   6.757   5.022   2.971
 5593SOL     OW17677   0.201   3.011   6.308
 5593SOL    HW117678   0.206   3.058   6.219
 5593SOL    HW217679   0.194   3.079   6.381
 5594SOL     OW17680   3.554   1.054   6.643
 5594SOL    HW117681   3.545   0.956   6.657
 5594SOL    HW217682   3.542   1.102   6.730
 5595SOL     OW17683   6.356   0.679   5.485
 5595SOL    HW117684   6.397   0.591   5.509
 5595SOL    HW217685   6.409   0.721   5.410
 5596SOL     OW17686   5.099   0.442   2.958
 5596SOL    HW117687   5.111   0.348   2.926
 5596SOL    HW217688   5.117   0.447   3.056
 5597SOL     OW17689   5.971   1.851   5.596
 5597SOL    HW117690   5.947   1.766   5.549
 5597SOL    HW217691   5.956   1.929   5.535
 5598SOL     OW17692   5.968   3.349   3.812
 5598SOL    HW117693   6.065   3.331   3.795
 5598SOL    HW217694   5.958   3.401   3.897
 5599SOL     OW17695   1.027   3.034   1.956
 5599SOL    HW117696   1.002   3.126   1.985
 5599SOL    HW217697   1.019   3.027   1.856
 5600SOL     OW17698   2.215   0.050   2.454
 5600SOL    HW117699   2.219   0.136   2.403
 5600SOL    HW217700   2.122   0.014   2.451
 5601SOL     OW17701   2.983   1.238   6.519
 5601SOL    HW117702   2.885   1.223   6.506
 5601SOL    HW217703   3.011   1.201   6.608
 5602SOL     OW17704   0.458   0.164   1.731
 5602SOL    HW117705   0.463   0.196   1.825
 5602SOL    HW217706   0.374   0.112   1.718
 5603SOL     OW17707   5.499   2.494   0.168
 5603SOL    HW117708   5.529   2.571   0.112
 5603SOL    HW217709   5.400   2.497   0.178
 5604SOL     OW17710   6.452   2.602   5.090
 5604SOL    HW117711   6.444   2.521   5.149
 5604SOL    HW217712   6.496   2.676   5.140
 5605SOL     OW17713   0.814   0.727   4.389
 5605SOL    HW117714   0.897   0.706   4.440
 5605SOL    HW217715   0.756   0.789   4.443
 5606SOL     OW17716   5.370   0.510   0.856
 5606SOL    HW117717   5.441   0.559   0.908
 5606SOL    HW217718   5.327   0.441   0.913
 5607SOL     OW17719   5.900   1.132   3.792
 5607SOL    HW117720   5.995   1.139   3.820
 5607SOL    HW217721   5.895   1.103   3.696
 5608SOL     OW17722   6.602   0.873   2.774
 5608SOL    HW117723   6.653   0.959   2.780
 5608SOL    HW217724   6.657   0.799   2.813
 5609SOL     OW17725   4.746   5.730   2.148
 5609SOL    HW117726   4.744   5.787   2.065
 5609SOL    HW217727   4.809   5.654   2.134
 5610SOL     OW17728   5.097   4.501   1.594
 5610SOL    HW117729   5.171   4.528   1.655
 5610SOL    HW217730   5.034   4.440   1.642
 5611SOL     OW17731   0.909   5.182   3.516
 5611SOL    HW117732   0.979   5.254   3.519
 5611SOL    HW217733   0.830   5.210   3.571
 5612SOL     OW17734   4.395   3.218   6.684
 5612SOL    HW117735   4.492   3.211   6.663
 5612SOL    HW217736   4.345   3.246   6.602
 5613SOL     OW17737   5.154   5.564   4.982
 5613SOL    HW117738   5.084   5.609   4.928
 5613SOL    HW217739   5.182   5.479   4.937
 5614SOL     OW17740   5.561   2.996   5.154
 5614SOL    HW117741   5.655   2.992   5.186
 5614SOL    HW217742   5.553   2.950   5.066
 5615SOL     OW17743   6.759   1.326   3.983
 5615SOL    HW117744   6.850   1.334   4.026
 5615SOL    HW217745   6.698   1.276   4.044
 5616SOL     OW17746   1.890   2.474   5.003
 5616SOL    HW117747   1.935   2.557   5.038
 5616SOL    HW217748   1.950   2.396   5.017
 5617SOL     OW17749   2.180   4.619   5.278
 5617SOL    HW117750   2.139   4.695   5.328
 5617SOL    HW217751   2.161   4.629   5.180
 5618SOL     OW17752   6.873   4.742   4.110
 5618SOL    HW117753   6.854   4.837   4.134
 5618SOL    HW217754   6.959   4.713   4.151
 5619SOL     OW17755   3.826   3.631   4.257
 5619SOL    HW117756   3.877   3.553   4.293
 5619SOL    HW217757   3.888   3.695   4.212
 5620SOL     OW17758   4.209   4.237   6.849
 5620SOL    HW117759   4.180   4.161   6.907
 5620SOL    HW217760   4.291   4.211   6.798
 5621SOL     OW17761   1.797   3.170   6.995
 5621SOL    HW117762   1.822   3.091   0.030
 5621SOL    HW217763   1.717   3.215   0.014
 5622SOL     OW17764   4.263   0.058   5.890
 5622SOL    HW117765   4.270   0.142   5.943
 5622SOL    HW217766   4.340   7.020   5.913
 5623SOL     OW17767   4.706   6.264   4.618
 5623SOL    HW117768   4.790   6.285   4.669
 5623SOL    HW217769   4.698   6.165   4.608
 5624SOL     OW17770   0.152   4.536   3.789
 5624SOL    HW117771   0.135   4.456   3.846
 5624SOL    HW217772   0.185   4.612   3.845
 5625SOL     OW17773   0.125   6.930   5.790
 5625SOL    HW117774   0.157   6.902   5.699
 5625SOL    HW217775   0.035   6.891   5.807
 5626SOL     OW17776   2.451   6.271   3.927
 5626SOL    HW117777   2.383   6.297   3.859
 5626SOL    HW217778   2.478   6.176   3.912
 5627SOL     OW17779   0.374   4.825   6.501
 5627SOL    HW117780   0.370   4.924   6.506
 5627SOL    HW217781   0.344   4.786   6.588
 5628SOL     OW17782   1.698   3.041   1.458
 5628SOL    HW117783   1.775   3.035   1.394
 5628SOL    HW217784   1.642   2.959   1.451
 5629SOL     OW17785   4.586   3.278   1.669
 5629SOL    HW117786   4.676   3.314   1.645
 5629SOL    HW217787   4.597   3.201   1.732
 5630SOL     OW17788   1.795   4.228   6.729
 5630SOL    HW117789   1.698   4.241   6.708
 5630SOL    HW217790   1.844   4.314   6.712
 5631SOL     OW17791   4.952   1.595   2.056
 5631SOL    HW117792   4.930   1.541   1.976
 5631SOL    HW217793   4.869   1.617   2.106
 5632SOL     OW17794   3.118   2.219   5.368
 5632SOL    HW117795   3.189   2.207   5.437
 5632SOL    HW217796   3.146   2.289   5.302
 5633SOL     OW17797   5.573   4.788   4.570
 5633SOL    HW117798   5.476   4.766   4.586
 5633SOL    HW217799   5.630   4.716   4.610
 5634SOL     OW17800   1.868   5.042   4.348
 5634SOL    HW117801   1.935   4.969   4.342
 5634SOL    HW217802   1.914   5.126   4.378
 5635SOL     OW17803   1.631   6.588   6.699
 5635SOL    HW117804   1.617   6.676   6.654
 5635SOL    HW217805   1.658   6.604   6.794
 5636SOL     OW17806   5.826   6.893   5.047
 5636SOL    HW117807   5.904   6.954   5.036
 5636SOL    HW217808   5.779   6.883   4.958
 5637SOL     OW17809   4.468   6.393   3.432
 5637SOL    HW117810   4.389   6.437   3.475
 5637SOL    HW217811   4.503   6.320   3.491
 5638SOL     OW17812   6.847   3.612   1.163
 5638SOL    HW117813   6.869   3.669   1.085
 5638SOL    HW217814   6.919   3.621   1.232
 5639SOL     OW17815   2.941   0.269   2.355
 5639SOL    HW117816   2.961   0.190   2.413
 5639SOL    HW217817   2.892   0.338   2.408
 5640SOL     OW17818   3.617   0.898   2.570
 5640SOL    HW117819   3.670   0.980   2.547
 5640SOL    HW217820   3.670   0.840   2.632
 5641SOL     OW17821   0.438   4.658   5.347
 5641SOL    HW117822   0.532   4.648   5.315
 5641SOL    HW217823   0.386   4.710   5.279
 5642SOL     OW17824   0.068   5.857   5.425
 5642SOL    HW117825   0.011   5.810   5.492
 5642SOL    HW217826   0.120   5.929   5.472
 5643SOL     OW17827   3.785   0.884   4.196
 5643SOL    HW117828   3.761   0.787   4.204
 5643SOL    HW217829   3.882   0.893   4.174
 5644SOL     OW17830   3.479   7.018   4.979
 5644SOL    HW117831   3.514   0.038   4.895
 5644SOL    HW217832   3.412   0.058   5.021
 5645SOL     OW17833   5.246   5.086   2.710
 5645SOL    HW117834   5.216   4.996   2.681
 5645SOL    HW217835   5.303   5.077   2.792
 5646SOL     OW17836   0.597   5.724   3.604
 5646SOL    HW117837   0.573   5.797   3.540
 5646SOL    HW217838   0.581   5.636   3.560
 5647SOL     OW17839   4.506   6.931   0.685
 5647SOL    HW117840   4.571   6.862   0.654
 5647SOL    HW217841   4.448   6.892   0.757
 5648SOL     OW17842   1.771   0.032   3.820
 5648SOL    HW117843   1.687   7.001   3.803
 5648SOL    HW217844   1.764   0.080   3.907
 5649SOL     OW17845   0.569   0.332   4.798
 5649SOL    HW117846   0.543   0.397   4.727
 5649SOL    HW217847   0.652   0.284   4.771
 5650SOL     OW17848   1.340   5.162   0.644
 5650SOL    HW117849   1.304   5.196   0.731
 5650SOL    HW217850   1.434   5.195   0.632
 5651SOL     OW17851   1.182   1.210   1.391
 5651SOL    HW117852   1.171   1.111   1.393
 5651SOL    HW217853   1.097   1.252   1.359
 5652SOL     OW17854   6.770   6.716   2.297
 5652SOL    HW117855   6.820   6.796   2.263
 5652SOL    HW217856   6.684   6.708   2.247
 5653SOL     OW17857   7.011   6.337   6.662
 5653SOL    HW117858   0.011   6.361   6.567
 5653SOL    HW217859   0.011   6.240   6.677
 5654SOL     OW17860   6.428   0.434   5.549
 5654SOL    HW117861   6.487   0.354   5.565
 5654SOL    HW217862   6.332   0.407   5.555
 5655SOL     OW17863   1.183   3.687   4.599
 5655SOL    HW117864   1.165   3.779   4.565
 5655SOL    HW217865   1.152   3.679   4.693
 5656SOL     OW17866   0.149   3.808   6.676
 5656SOL    HW117867   0.164   3.751   6.756
 5656SOL    HW217868   0.106   3.894   6.703
 5657SOL     OW17869   5.563   1.843   0.544
 5657SOL    HW117870   5.605   1.876   0.460
 5657SOL    HW217871   5.464   1.849   0.537
 5658SOL     OW17872   3.965   4.174   6.385
 5658SOL    HW117873   3.997   4.265   6.359
 5658SOL    HW217874   4.030   4.105   6.353
 5659SOL     OW17875   4.025   3.153   4.460
 5659SOL    HW117876   4.041   3.055   4.466
 5659SOL    HW217877   4.012   3.191   4.551
 5660SOL     OW17878   5.360   0.006   0.710
 5660SOL    HW117879   5.383   0.101   0.735
 5660SOL    HW217880   5.434   6.988   0.656
 5661SOL     OW17881   1.604   5.156   5.344
 5661SOL    HW117882   1.660   5.073   5.356
 5661SOL    HW217883   1.616   5.191   5.251
 5662SOL     OW17884   2.814   6.182   3.507
 5662SOL    HW117885   2.862   6.125   3.439
 5662SOL    HW217886   2.875   6.204   3.582
 5663SOL     OW17887   2.130   3.215   0.315
 5663SOL    HW117888   2.150   3.273   0.394
 5663SOL    HW217889   2.216   3.187   0.272
 5664SOL     OW17890   6.768   4.242   4.916
 5664SOL    HW117891   6.701   4.316   4.926
 5664SOL    HW217892   6.751   4.193   4.830
 5665SOL     OW17893   1.889   1.288   0.217
 5665SOL    HW117894   1.955   1.279   0.293
 5665SOL    HW217895   1.844   1.201   0.202
 5666SOL     OW17896   6.184   6.238   2.273
 5666SOL    HW117897   6.099   6.276   2.308
 5666SOL    HW217898   6.214   6.291   2.193
 5667SOL     OW17899   1.008   5.385   4.226
 5667SOL    HW117900   0.925   5.334   4.245
 5667SOL    HW217901   1.063   5.392   4.310
 5668SOL     OW17902   5.456   2.151   4.361
 5668SOL    HW117903   5.488   2.238   4.398
 5668SOL    HW217904   5.359   2.140   4.380
 5669SOL     OW17905   0.040   3.226   0.020
 5669SOL    HW117906   0.010   3.210   6.948
 5669SOL    HW217907   0.116   3.165   0.042
 5670SOL     OW17908   6.825   2.614   3.730
 5670SOL    HW117909   6.855   2.621   3.826
 5670SOL    HW217910   6.729   2.639   3.723
 5671SOL     OW17911   6.706   6.323   6.773
 5671SOL    HW117912   6.714   6.247   6.838
 5671SOL    HW217913   6.795   6.368   6.763
 5672SOL     OW17914   3.633   4.536   6.635
 5672SOL    HW117915   3.615   4.571   6.543
 5672SOL    HW217916   3.548   4.497   6.673
 5673SOL     OW17917   0.767   6.900   2.315
 5673SOL    HW117918   0.669   6.884   2.322
 5673SOL    HW217919   0.795   6.899   2.219
 5674SOL     OW17920   0.363   5.075   4.924
 5674SOL    HW117921   0.430   5.002   4.939
 5674SOL    HW217922   0.290   5.042   4.864
 5675SOL     OW17923   3.924   2.502   6.634
 5675SOL    HW117924   3.856   2.574   6.642
 5675SOL    HW217925   3.907   2.431   6.703
 5676SOL     OW17926   1.781   3.022   2.108
 5676SOL    HW117927   1.851   2.956   2.133
 5676SOL    HW217928   1.696   2.974   2.086
 5677SOL     OW17929   0.545   1.184   0.731
 5677SOL    HW117930   0.505   1.115   0.792
 5677SOL    HW217931   0.611   1.239   0.783
 5678SOL     OW17932   3.998   6.435   2.714
 5678SOL    HW117933   4.008   6.534   2.724
 5678SOL    HW217934   3.998   6.392   2.805
 5679SOL     OW17935   0.400   1.170   3.663
 5679SOL    HW117936   0.341   1.103   3.710
 5679SOL    HW217937   0.342   1.234   3.613
 5680SOL     OW17938   1.410   5.083   5.774
 5680SOL    HW117939   1.500   5.040   5.782
 5680SOL    HW217940   1.345   5.036   5.833
 5681SOL     OW17941   6.955   4.361   0.706
 5681SOL    HW117942   0.030   4.386   0.714
 5681SOL    HW217943   6.927   4.310   0.788
 5682SOL     OW17944   2.463   4.700   5.420
 5682SOL    HW117945   2.373   4.736   5.392
 5682SOL    HW217946   2.472   4.606   5.389
 5683SOL     OW17947   3.945   0.853   6.170
 5683SOL    HW117948   4.021   0.893   6.221
 5683SOL    HW217949   3.906   0.777   6.224
 5684SOL     OW17950   2.787   3.022   5.624
 5684SOL    HW117951   2.829   3.017   5.533
 5684SOL    HW217952   2.777   3.118   5.651
 5685SOL     OW17953   1.793   3.245   2.287
 5685SOL    HW117954   1.887   3.277   2.299
 5685SOL    HW217955   1.792   3.165   2.228
 5686SOL     OW17956   3.184   1.187   5.930
 5686SOL    HW117957   3.111   1.169   5.864
 5686SOL    HW217958   3.155   1.259   5.993
 5687SOL     OW17959   0.761   4.750   6.646
 5687SOL    HW117960   0.856   4.721   6.638
 5687SOL    HW217961   0.734   4.753   6.742
 5688SOL     OW17962   0.566   2.295   1.154
 5688SOL    HW117963   0.663   2.291   1.178
 5688SOL    HW217964   0.520   2.212   1.186
 5689SOL     OW17965   3.965   1.063   0.599
 5689SOL    HW117966   3.946   1.079   0.502
 5689SOL    HW217967   4.001   0.970   0.610
 5690SOL     OW17968   2.587   6.241   0.144
 5690SOL    HW117969   2.512   6.179   0.167
 5690SOL    HW217970   2.646   6.253   0.224
 5691SOL     OW17971   3.059   0.625   1.945
 5691SOL    HW117972   2.989   0.627   1.874
 5691SOL    HW217973   3.147   0.599   1.905
 5692SOL     OW17974   5.965   3.595   0.790
 5692SOL    HW117975   5.891   3.528   0.793
 5692SOL    HW217976   5.928   3.687   0.795
 5693SOL     OW17977   5.917   2.345   2.247
 5693SOL    HW117978   5.948   2.291   2.169
 5693SOL    HW217979   5.843   2.296   2.294
 5694SOL     OW17980   0.847   1.465   3.163
 5694SOL    HW117981   0.871   1.539   3.227
 5694SOL    HW217982   0.858   1.377   3.209
 5695SOL     OW17983   1.272   2.723   2.941
 5695SOL    HW117984   1.333   2.800   2.929
 5695SOL    HW217985   1.192   2.734   2.882
 5696SOL     OW17986   1.276   1.508   2.966
 5696SOL    HW117987   1.222   1.436   3.010
 5696SOL    HW217988   1.293   1.582   3.031
 5697SOL     OW17989   6.021   2.208   1.390
 5697SOL    HW117990   6.092   2.197   1.320
 5697SOL    HW217991   5.935   2.233   1.345
 5698SOL     OW17992   0.743   3.784   3.783
 5698SOL    HW117993   0.744   3.700   3.838
 5698SOL    HW217994   0.733   3.863   3.842
 5699SOL     OW17995   0.871   2.273   3.248
 5699SOL    HW117996   0.801   2.312   3.189
 5699SOL    HW217997   0.832   2.196   3.300
 5700SOL     OW17998   6.861   6.984   3.313
 5700SOL    HW117999   6.775   0.008   3.336
 5700SOL    HW218000   6.846   6.921   3.237
 5701SOL     OW18001   1.015   0.882   2.210
 5701SOL    HW118002   1.046   0.817   2.141
 5701SOL    HW218003   0.928   0.852   2.248
 5702SOL     OW18004   2.383   5.926   5.151
 5702SOL    HW118005   2.313   5.879   5.097
 5702SOL    HW218006   2.355   6.021   5.166
 5703SOL     OW18007   6.625   4.610   1.863
 5703SOL    HW118008   6.542   4.663   1.879
 5703SOL    HW218009   6.693   4.632   1.933
 5704SOL     OW18010   4.723   4.808   2.296
 5704SOL    HW118011   4.774   4.755   2.364
 5704SOL    HW218012   4.647   4.854   2.341
 5705SOL     OW18013   4.972   0.582   0.261
 5705SOL    HW118014   5.054   0.531   0.234
 5705SOL    HW218015   4.988   0.626   0.349
 5706SOL     OW18016   6.882   3.910   0.881
 5706SOL    HW118017   6.828   3.908   0.797
 5706SOL    HW218018   6.930   3.823   0.893
 5707SOL     OW18019   0.282   6.558   0.216
 5707SOL    HW118020   0.245   6.500   0.143
 5707SOL    HW218021   0.364   6.515   0.254
 5708SOL     OW18022   5.251   5.972   1.767
 5708SOL    HW118023   5.194   6.053   1.749
 5708SOL    HW218024   5.313   5.992   1.844
 5709SOL     OW18025   1.149   0.498   2.453
 5709SOL    HW118026   1.175   0.583   2.500
 5709SOL    HW218027   1.230   0.458   2.410
 5710SOL     OW18028   2.902   3.126   0.573
 5710SOL    HW118029   2.824   3.066   0.592
 5710SOL    HW218030   2.874   3.198   0.510
 5711SOL     OW18031   5.653   1.136   2.027
 5711SOL    HW118032   5.628   1.230   2.048
 5711SOL    HW218033   5.629   1.116   1.932
 5712SOL     OW18034   6.640   0.145   6.472
 5712SOL    HW118035   6.584   0.201   6.533
 5712SOL    HW218036   6.735   0.148   6.502
 5713SOL     OW18037   3.171   2.688   1.533
 5713SOL    HW118038   3.150   2.760   1.467
 5713SOL    HW218039   3.270   2.681   1.545
 5714SOL     OW18040   0.209   5.827   0.368
 5714SOL    HW118041   0.307   5.810   0.365
 5714SOL    HW218042   0.163   5.745   0.403
 5715SOL     OW18043   0.940   6.890   3.252
 5715SOL    HW118044   0.897   6.811   3.207
 5715SOL    HW218045   1.038   6.890   3.232
 5716SOL     OW18046   1.611   4.205   0.033
 5716SOL    HW118047   1.615   4.304   0.018
 5716SOL    HW218048   1.516   4.174   0.024
 5717SOL     OW18049   1.663   5.150   1.132
 5717SOL    HW118050   1.604   5.088   1.184
 5717SOL    HW218051   1.606   5.221   1.089
 5718SOL     OW18052   0.386   2.769   5.220
 5718SOL    HW118053   0.392   2.778   5.320
 5718SOL    HW218054   0.477   2.748   5.183
 5719SOL     OW18055   2.754   2.027   6.617
 5719SOL    HW118056   2.833   1.970   6.642
 5719SOL    HW218057   2.749   2.034   6.518
 5720SOL     OW18058   1.373   5.232   4.697
 5720SOL    HW118059   1.414   5.278   4.618
 5720SOL    HW218060   1.317   5.156   4.666
 5721SOL     OW18061   0.342   3.699   1.025
 5721SOL    HW118062   0.267   3.655   1.075
 5721SOL    HW218063   0.322   3.796   1.014
 5722SOL     OW18064   6.598   1.421   4.784
 5722SOL    HW118065   6.561   1.513   4.771
 5722SOL    HW218066   6.698   1.424   4.771
 5723SOL     OW18067   4.036   3.350   0.796
 5723SOL    HW118068   3.975   3.298   0.737
 5723SOL    HW218069   4.010   3.446   0.796
 5724SOL     OW18070   5.609   2.903   4.908
 5724SOL    HW118071   5.603   2.889   4.809
 5724SOL    HW218072   5.687   2.853   4.944
 5725SOL     OW18073   4.981   5.547   4.326
 5725SOL    HW118074   4.931   5.474   4.281
 5725SOL    HW218075   4.980   5.532   4.425
 5726SOL     OW18076   0.517   4.754   4.603
 5726SOL    HW118077   0.595   4.804   4.641
 5726SOL    HW218078   0.434   4.809   4.613
 5727SOL     OW18079   6.575   1.385   3.768
 5727SOL    HW118080   6.500   1.410   3.831
 5727SOL    HW218081   6.660   1.375   3.820
 5728SOL     OW18082   3.731   0.599   6.718
 5728SOL    HW118083   3.720   0.514   6.769
 5728SOL    HW218084   3.820   0.640   6.740
 5729SOL     OW18085   1.242   1.153   0.693
 5729SOL    HW118086   1.297   1.196   0.764
 5729SOL    HW218087   1.145   1.168   0.712
 5730SOL     OW18088   4.448   5.043   6.123
 5730SOL    HW118089   4.516   5.088   6.180
 5730SOL    HW218090   4.433   5.096   6.040
 5731SOL     OW18091   0.125   6.764   3.785
 5731SOL    HW118092   0.121   6.863   3.802
 5731SOL    HW218093   0.205   6.742   3.730
 5732SOL     OW18094   6.676   5.324   4.819
 5732SOL    HW118095   6.593   5.308   4.767
 5732SOL    HW218096   6.736   5.244   4.812
 5733SOL     OW18097   4.373   6.597   5.152
 5733SOL    HW118098   4.418   6.677   5.191
 5733SOL    HW218099   4.390   6.593   5.054
 5734SOL     OW18100   1.244   6.784   5.394
 5734SOL    HW118101   1.337   6.746   5.393
 5734SOL    HW218102   1.226   6.826   5.482
 5735SOL     OW18103   4.289   2.297   2.321
 5735SOL    HW118104   4.326   2.385   2.291
 5735SOL    HW218105   4.286   2.234   2.243
 5736SOL     OW18106   6.076   4.603   0.309
 5736SOL    HW118107   6.012   4.528   0.324
 5736SOL    HW218108   6.052   4.679   0.370
 5737SOL     OW18109   5.302   6.894   0.950
 5737SOL    HW118110   5.301   6.799   0.918
 5737SOL    HW218111   5.306   6.956   0.871
 5738SOL     OW18112   2.509   3.190   5.901
 5738SOL    HW118113   2.422   3.156   5.864
 5738SOL    HW218114   2.566   3.113   5.929
 5739SOL     OW18115   1.407   0.636   5.396
 5739SOL    HW118116   1.413   0.715   5.457
 5739SOL    HW218117   1.499   0.604   5.375
 5740SOL     OW18118   4.429   3.779   1.538
 5740SOL    HW118119   4.386   3.708   1.593
 5740SOL    HW218120   4.387   3.868   1.559
 5741SOL     OW18121   0.356   3.767   4.493
 5741SOL    HW118122   0.404   3.849   4.462
 5741SOL    HW218123   0.335   3.777   4.591
 5742SOL     OW18124   5.270   6.791   2.164
 5742SOL    HW118125   5.275   6.877   2.215
 5742SOL    HW218126   5.360   6.748   2.161
 5743SOL     OW18127   2.712   4.981   5.230
 5743SOL    HW118128   2.715   4.901   5.289
 5743SOL    HW218129   2.805   5.014   5.213
 5744SOL     OW18130   4.830   0.936   2.092
 5744SOL    HW118131   4.760   1.005   2.109
 5744SOL    HW218132   4.839   0.922   1.993
 5745SOL     OW18133   1.617   0.771   4.337
 5745SOL    HW118134   1.711   0.779   4.304
 5745SOL    HW218135   1.570   0.859   4.327
 5746SOL     OW18136   6.238   6.872   1.657
 5746SOL    HW118137   6.182   6.804   1.703
 5746SOL    HW218138   6.307   6.826   1.602
 5747SOL     OW18139   7.006   4.336   3.076
 5747SOL    HW118140   6.939   4.348   3.149
 5747SOL    HW218141   7.010   4.420   3.021
 5748SOL     OW18142   1.527   5.507   0.286
 5748SOL    HW118143   1.568   5.507   0.195
 5748SOL    HW218144   1.473   5.591   0.298
 5749SOL     OW18145   1.429   6.937   4.997
 5749SOL    HW118146   1.481   6.925   5.081
 5749SOL    HW218147   1.464   7.016   4.947
 5750SOL     OW18148   5.879   6.361   4.683
 5750SOL    HW118149   5.793   6.360   4.735
 5750SOL    HW218150   5.941   6.428   4.724
 5751SOL     OW18151   2.971   2.232   4.285
 5751SOL    HW118152   3.007   2.255   4.194
 5751SOL    HW218153   2.871   2.235   4.283
 5752SOL     OW18154   6.207   0.608   0.555
 5752SOL    HW118155   6.183   0.524   0.506
 5752SOL    HW218156   6.287   0.593   0.612
 5753SOL     OW18157   3.837   3.392   5.108
 5753SOL    HW118158   3.831   3.380   5.207
 5753SOL    HW218159   3.778   3.468   5.081
 5754SOL     OW18160   6.623   4.148   1.021
 5754SOL    HW118161   6.695   4.099   1.069
 5754SOL    HW218162   6.653   4.172   0.929
 5755SOL     OW18163   2.112   3.121   6.416
 5755SOL    HW118164   2.021   3.138   6.377
 5755SOL    HW218165   2.181   3.132   6.346
 5756SOL     OW18166   6.195   6.709   3.783
 5756SOL    HW118167   6.214   6.611   3.789
 5756SOL    HW218168   6.139   6.728   3.702
 5757SOL     OW18169   6.751   6.126   2.916
 5757SOL    HW118170   6.652   6.128   2.903
 5757SOL    HW218171   6.797   6.164   2.836
 5758SOL     OW18172   2.392   1.049   4.911
 5758SOL    HW118173   2.453   0.995   4.852
 5758SOL    HW218174   2.442   1.128   4.946
 5759SOL     OW18175   4.783   1.300   6.614
 5759SOL    HW118176   4.865   1.354   6.595
 5759SOL    HW218177   4.809   1.204   6.630
 5760SOL     OW18178   0.486   4.648   1.215
 5760SOL    HW118179   0.432   4.629   1.297
 5760SOL    HW218180   0.450   4.729   1.170
 5761SOL     OW18181   5.713   6.736   6.537
 5761SOL    HW118182   5.617   6.753   6.514
 5761SOL    HW218183   5.740   6.798   6.610
 5762SOL     OW18184   4.712   6.078   0.224
 5762SOL    HW118185   4.717   6.112   0.318
 5762SOL    HW218186   4.676   5.984   0.224
 5763SOL     OW18187   0.140   0.505   6.638
 5763SOL    HW118188   0.217   0.559   6.604
 5763SOL    HW218189   0.153   0.409   6.613
 5764SOL     OW18190   4.679   5.244   5.799
 5764SOL    HW118191   4.738   5.253   5.879
 5764SOL    HW218192   4.727   5.193   5.727
 5765SOL     OW18193   6.798   3.617   0.033
 5765SOL    HW118194   6.733   3.650   0.102
 5765SOL    HW218195   6.847   3.694   7.014
 5766SOL     OW18196   2.302   2.463   0.049
 5766SOL    HW118197   2.234   2.535   0.062
 5766SOL    HW218198   2.268   2.378   0.088
 5767SOL     OW18199   2.005   0.298   0.469
 5767SOL    HW118200   2.014   0.286   0.370
 5767SOL    HW218201   2.030   0.213   0.515
 5768SOL     OW18202   0.173   6.775   3.393
 5768SOL    HW118203   0.110   6.811   3.461
 5768SOL    HW218204   0.201   6.682   3.419
 5769SOL     OW18205   2.245   5.801   4.694
 5769SOL    HW118206   2.282   5.739   4.625
 5769SOL    HW218207   2.209   5.883   4.650
 5770SOL     OW18208   5.535   0.383   0.394
 5770SOL    HW118209   5.455   0.339   0.434
 5770SOL    HW218210   5.609   0.387   0.461
 5771SOL     OW18211   1.552   6.285   3.333
 5771SOL    HW118212   1.625   6.352   3.348
 5771SOL    HW218213   1.526   6.243   3.420
 5772SOL     OW18214   6.312   2.548   0.889
 5772SOL    HW118215   6.284   2.500   0.973
 5772SOL    HW218216   6.230   2.580   0.841
 5773SOL     OW18217   4.642   1.160   3.892
 5773SOL    HW118218   4.657   1.233   3.959
 5773SOL    HW218219   4.696   1.180   3.810
 5774SOL     OW18220   3.040   5.744   4.076
 5774SOL    HW118221   3.044   5.733   3.977
 5774SOL    HW218222   3.129   5.775   4.110
 5775SOL     OW18223   1.729   0.862   2.084
 5775SOL    HW118224   1.703   0.795   2.015
 5775SOL    HW218225   1.652   0.925   2.100
 5776SOL     OW18226   6.504   0.792   5.711
 5776SOL    HW118227   6.497   0.892   5.710
 5776SOL    HW218228   6.459   0.754   5.631
 5777SOL     OW18229   6.453   0.423   5.057
 5777SOL    HW118230   6.546   0.458   5.054
 5777SOL    HW218231   6.455   0.326   5.082
 5778SOL     OW18232   1.973   0.212   1.547
 5778SOL    HW118233   1.980   0.293   1.604
 5778SOL    HW218234   1.947   0.239   1.454
 5779SOL     OW18235   4.119   1.653   0.728
 5779SOL    HW118236   4.206   1.609   0.706
 5779SOL    HW218237   4.060   1.587   0.776
 5780SOL     OW18238   6.106   5.332   3.149
 5780SOL    HW118239   6.161   5.265   3.200
 5780SOL    HW218240   6.023   5.353   3.201
 5781SOL     OW18241   0.646   3.956   4.584
 5781SOL    HW118242   0.745   3.961   4.592
 5781SOL    HW218243   0.606   3.931   4.672
 5782SOL     OW18244   1.859   0.707   1.295
 5782SOL    HW118245   1.770   0.662   1.293
 5782SOL    HW218246   1.911   0.681   1.214
 5783SOL     OW18247   1.771   0.738   1.668
 5783SOL    HW118248   1.819   0.659   1.631
 5783SOL    HW218249   1.812   0.822   1.631
 5784SOL     OW18250   6.765   6.328   0.350
 5784SOL    HW118251   6.676   6.327   0.396
 5784SOL    HW218252   6.753   6.353   0.254
 5785SOL     OW18253   1.487   1.784   1.158
 5785SOL    HW118254   1.518   1.844   1.232
 5785SOL    HW218255   1.422   1.717   1.195
 5786SOL     OW18256   0.805   4.185   0.399
 5786SOL    HW118257   0.900   4.186   0.428
 5786SOL    HW218258   0.801   4.188   0.299
 5787SOL     OW18259   4.540   2.536   5.098
 5787SOL    HW118260   4.521   2.462   5.162
 5787SOL    HW218261   4.512   2.509   5.006
 5788SOL     OW18262   3.117   1.129   1.500
 5788SOL    HW118263   3.082   1.221   1.515
 5788SOL    HW218264   3.161   1.124   1.410
 5789SOL     OW18265   3.501   3.445   6.190
 5789SOL    HW118266   3.452   3.510   6.132
 5789SOL    HW218267   3.490   3.353   6.154
 5790SOL     OW18268   0.307   4.764   5.124
 5790SOL    HW118269   0.272   4.672   5.104
 5790SOL    HW218270   0.385   4.783   5.064
 5791SOL     OW18271   3.008   2.051   2.358
 5791SOL    HW118272   2.934   2.119   2.355
 5791SOL    HW218273   3.070   2.066   2.281
 5792SOL     OW18274   5.715   2.961   1.970
 5792SOL    HW118275   5.633   2.977   2.024
 5792SOL    HW218276   5.732   2.863   1.962
 5793SOL     OW18277   6.045   0.609   4.247
 5793SOL    HW118278   6.091   0.646   4.328
 5793SOL    HW218279   5.951   0.641   4.245
 5794SOL     OW18280   2.855   0.299   6.599
 5794SOL    HW118281   2.907   0.257   6.525
 5794SOL    HW218282   2.787   0.234   6.632
 5795SOL     OW18283   6.600   0.250   1.423
 5795SOL    HW118284   6.664   0.311   1.376
 5795SOL    HW218285   6.527   0.224   1.360
 5796SOL     OW18286   4.353   0.860   6.399
 5796SOL    HW118287   4.380   0.885   6.492
 5796SOL    HW218288   4.283   0.788   6.403
 5797SOL     OW18289   5.263   1.846   0.560
 5797SOL    HW118290   5.251   1.747   0.572
 5797SOL    HW218291   5.243   1.892   0.647
 5798SOL     OW18292   0.200   5.087   4.683
 5798SOL    HW118293   0.221   5.156   4.613
 5798SOL    HW218294   0.138   5.126   4.751
 5799SOL     OW18295   0.185   0.342   4.264
 5799SOL    HW118296   0.232   0.341   4.176
 5799SOL    HW218297   0.124   0.421   4.268
 5800SOL     OW18298   0.968   6.610   1.941
 5800SOL    HW118299   0.965   6.653   1.851
 5800SOL    HW218300   0.994   6.514   1.932
 5801SOL     OW18301   2.264   2.372   3.753
 5801SOL    HW118302   2.170   2.407   3.756
 5801SOL    HW218303   2.269   2.288   3.806
 5802SOL     OW18304   6.280   3.166   2.749
 5802SOL    HW118305   6.198   3.112   2.729
 5802SOL    HW218306   6.310   3.149   2.843
 5803SOL     OW18307   2.130   5.690   3.218
 5803SOL    HW118308   2.032   5.704   3.230
 5803SOL    HW218309   2.175   5.779   3.205
 5804SOL     OW18310   6.907   5.795   3.432
 5804SOL    HW118311   7.000   5.823   3.407
 5804SOL    HW218312   6.841   5.859   3.391
 5805SOL     OW18313   1.716   3.011   0.665
 5805SOL    HW118314   1.791   3.077   0.678
 5805SOL    HW218315   1.739   2.925   0.711
 5806SOL     OW18316   0.250   4.839   4.621
 5806SOL    HW118317   0.192   4.790   4.686
 5806SOL    HW218318   0.223   4.935   4.618
 5807SOL     OW18319   1.085   5.526   0.402
 5807SOL    HW118320   1.146   5.507   0.479
 5807SOL    HW218321   1.103   5.461   0.329
 5808SOL     OW18322   6.857   6.561   4.291
 5808SOL    HW118323   6.829   6.481   4.238
 5808SOL    HW218324   6.956   6.559   4.305
 5809SOL     OW18325   6.774   2.000   5.210
 5809SOL    HW118326   6.706   2.057   5.165
 5809SOL    HW218327   6.746   1.904   5.205
 5810SOL     OW18328   4.857   0.801   5.449
 5810SOL    HW118329   4.818   0.715   5.482
 5810SOL    HW218330   4.867   0.797   5.349
 5811SOL     OW18331   3.633   1.508   4.969
 5811SOL    HW118332   3.545   1.504   5.015
 5811SOL    HW218333   3.692   1.575   5.015
 5812SOL     OW18334   4.890   3.218   6.059
 5812SOL    HW118335   4.954   3.184   6.128
 5812SOL    HW218336   4.809   3.254   6.105
 5813SOL     OW18337   2.608   0.435   0.679
 5813SOL    HW118338   2.512   0.466   0.674
 5813SOL    HW218339   2.611   0.344   0.719
 5814SOL     OW18340   0.326   3.187   2.164
 5814SOL    HW118341   0.234   3.165   2.132
 5814SOL    HW218342   0.338   3.286   2.166
 5815SOL     OW18343   4.329   1.583   4.349
 5815SOL    HW118344   4.362   1.659   4.405
 5815SOL    HW218345   4.381   1.500   4.371
 5816SOL     OW18346   4.969   4.614   0.245
 5816SOL    HW118347   4.900   4.657   0.186
 5816SOL    HW218348   4.925   4.577   0.327
 5817SOL     OW18349   5.921   4.901   5.373
 5817SOL    HW118350   5.897   4.967   5.302
 5817SOL    HW218351   6.020   4.905   5.389
 5818SOL     OW18352   6.806   5.739   5.357
 5818SOL    HW118353   6.803   5.733   5.257
 5818SOL    HW218354   6.730   5.687   5.396
 5819SOL     OW18355   3.473   6.292   6.732
 5819SOL    HW118356   3.540   6.244   6.787
 5819SOL    HW218357   3.381   6.264   6.759
 5820SOL     OW18358   4.377   4.686   2.534
 5820SOL    HW118359   4.454   4.713   2.591
 5820SOL    HW218360   4.291   4.701   2.584
 5821SOL     OW18361   6.947   1.141   1.828
 5821SOL    HW118362   6.895   1.057   1.844
 5821SOL    HW218363   6.980   1.142   1.734
 5822SOL     OW18364   1.787   2.916   1.715
 5822SOL    HW118365   1.764   3.001   1.762
 5822SOL    HW218366   1.747   2.916   1.624
 5823SOL     OW18367   2.734   0.080   4.659
 5823SOL    HW118368   2.821   0.095   4.612
 5823SOL    HW218369   2.740   0.116   4.752
 5824SOL     OW18370   0.135   6.311   3.437
 5824SOL    HW118371   0.088   6.322   3.349
 5824SOL    HW218372   0.103   6.227   3.481
 5825SOL     OW18373   0.352   6.233   4.669
 5825SOL    HW118374   0.418   6.162   4.642
 5825SOL    HW218375   0.292   6.253   4.592
 5826SOL     OW18376   0.447   6.354   6.054
 5826SOL    HW118377   0.355   6.352   6.091
 5826SOL    HW218378   0.513   6.357   6.129
 5827SOL     OW18379   1.830   3.487   4.440
 5827SOL    HW118380   1.791   3.486   4.532
 5827SOL    HW218381   1.929   3.497   4.446
 5828SOL     OW18382   5.053   1.505   2.460
 5828SOL    HW118383   5.028   1.431   2.523
 5828SOL    HW218384   5.149   1.496   2.434
 5829SOL     OW18385   1.794   0.581   4.542
 5829SOL    HW118386   1.732   0.614   4.471
 5829SOL    HW218387   1.845   0.502   4.508
 5830SOL     OW18388   5.356   6.929   5.699
 5830SOL    HW118389   5.448   6.922   5.736
 5830SOL    HW218390   5.351   7.007   5.637
 5831SOL     OW18391   1.176   0.777   5.947
 5831SOL    HW118392   1.155   0.703   6.011
 5831SOL    HW218393   1.119   0.856   5.968
 5832SOL     OW18394   3.219   4.412   0.005
 5832SOL    HW118395   3.140   4.352   7.015
 5832SOL    HW218396   3.285   4.369   0.067
 5833SOL     OW18397   3.951   3.154   5.017
 5833SOL    HW118398   3.911   3.245   5.025
 5833SOL    HW218399   3.966   3.116   5.108
 5834SOL     OW18400   6.572   4.078   6.624
 5834SOL    HW118401   6.513   4.004   6.590
 5834SOL    HW218402   6.517   4.160   6.638
 5835SOL     OW18403   5.348   2.484   2.706
 5835SOL    HW118404   5.327   2.457   2.612
 5835SOL    HW218405   5.277   2.451   2.767
 5836SOL     OW18406   3.077   0.320   1.455
 5836SOL    HW118407   3.150   0.380   1.421
 5836SOL    HW218408   3.113   0.227   1.464
 5837SOL     OW18409   3.805   2.759   0.107
 5837SOL    HW118410   3.763   2.849   0.115
 5837SOL    HW218411   3.734   2.688   0.112
 5838SOL     OW18412   2.744   1.729   1.172
 5838SOL    HW118413   2.772   1.781   1.091
 5838SOL    HW218414   2.764   1.632   1.158
 5839SOL     OW18415   0.645   1.996   0.507
 5839SOL    HW118416   0.677   1.980   0.600
 5839SOL    HW218417   0.710   1.957   0.442
 5840SOL     OW18418   1.012   4.073   6.837
 5840SOL    HW118419   1.091   4.107   6.888
 5840SOL    HW218420   0.933   4.132   6.853
 5841SOL     OW18421   5.325   1.205   1.909
 5841SOL    HW118422   5.249   1.219   1.972
 5841SOL    HW218423   5.362   1.294   1.881
 5842SOL     OW18424   4.711   2.940   1.540
 5842SOL    HW118425   4.780   2.957   1.610
 5842SOL    HW218426   4.620   2.946   1.581
 5843SOL     OW18427   1.312   4.549   1.948
 5843SOL    HW118428   1.317   4.495   1.864
 5843SOL    HW218429   1.340   4.492   2.026
 5844SOL     OW18430   1.594   5.879   6.175
 5844SOL    HW118431   1.560   5.857   6.266
 5844SOL    HW218432   1.534   5.838   6.106
 5845SOL     OW18433   0.686   0.021   1.655
 5845SOL    HW118434   0.693   6.978   1.578
 5845SOL    HW218435   0.592   0.054   1.662
 5846SOL     OW18436   6.394   3.573   5.734
 5846SOL    HW118437   6.377   3.639   5.807
 5846SOL    HW218438   6.319   3.507   5.730
 5847SOL     OW18439   2.648   2.487   1.835
 5847SOL    HW118440   2.742   2.472   1.864
 5847SOL    HW218441   2.588   2.419   1.877
 5848SOL     OW18442   1.813   5.616   3.281
 5848SOL    HW118443   1.849   5.538   3.332
 5848SOL    HW218444   1.812   5.697   3.340
 5849SOL     OW18445   1.893   0.381   5.550
 5849SOL    HW118446   1.903   0.476   5.581
 5849SOL    HW218447   1.898   0.379   5.450
 5850SOL     OW18448   0.393   3.447   2.156
 5850SOL    HW118449   0.300   3.473   2.129
 5850SOL    HW218450   0.403   3.457   2.255
 5851SOL     OW18451   5.240   3.828   3.988
 5851SOL    HW118452   5.216   3.816   3.891
 5851SOL    HW218453   5.212   3.748   4.040
 5852SOL     OW18454   5.282   6.506   2.616
 5852SOL    HW118455   5.273   6.413   2.579
 5852SOL    HW218456   5.199   6.558   2.596
 5853SOL     OW18457   3.910   5.377   5.359
 5853SOL    HW118458   4.007   5.354   5.361
 5853SOL    HW218459   3.891   5.450   5.424
 5854SOL     OW18460   4.171   3.732   5.462
 5854SOL    HW118461   4.117   3.653   5.431
 5854SOL    HW218462   4.248   3.745   5.400
 5855SOL     OW18463   1.506   1.020   4.364
 5855SOL    HW118464   1.571   1.089   4.398
 5855SOL    HW218465   1.413   1.052   4.379
 5856SOL     OW18466   1.211   5.718   3.910
 5856SOL    HW118467   1.209   5.736   4.008
 5856SOL    HW218468   1.299   5.679   3.885
 5857SOL     OW18469   6.372   3.339   5.222
 5857SOL    HW118470   6.433   3.418   5.224
 5857SOL    HW218471   6.414   3.263   5.271
 5858SOL     OW18472   2.132   2.311   2.516
 5858SOL    HW118473   2.054   2.373   2.508
 5858SOL    HW218474   2.115   2.230   2.460
 5859SOL     OW18475   6.463   6.128   1.259
 5859SOL    HW118476   6.441   6.167   1.170
 5859SOL    HW218477   6.540   6.065   1.249
 5860SOL     OW18478   6.759   5.187   3.410
 5860SOL    HW118479   6.776   5.114   3.476
 5860SOL    HW218480   6.791   5.274   3.447
 5861SOL     OW18481   5.708   1.083   3.975
 5861SOL    HW118482   5.754   1.104   3.888
 5861SOL    HW218483   5.648   1.004   3.963
 5862SOL     OW18484   5.947   5.297   0.925
 5862SOL    HW118485   5.881   5.284   0.999
 5862SOL    HW218486   5.923   5.238   0.848
 5863SOL     OW18487   2.835   2.339   4.785
 5863SOL    HW118488   2.848   2.294   4.874
 5863SOL    HW218489   2.913   2.319   4.726
 5864SOL     OW18490   3.030   3.918   2.656
 5864SOL    HW118491   2.940   3.953   2.682
 5864SOL    HW218492   3.019   3.828   2.614
 5865SOL     OW18493   5.637   0.633   5.042
 5865SOL    HW118494   5.619   0.570   5.118
 5865SOL    HW218495   5.550   0.660   5.001
 5866SOL     OW18496   3.349   3.061   1.195
 5866SOL    HW118497   3.382   3.082   1.287
 5866SOL    HW218498   3.278   3.126   1.170
 5867SOL     OW18499   2.264   3.532   1.408
 5867SOL    HW118500   2.274   3.453   1.468
 5867SOL    HW218501   2.200   3.511   1.334
 5868SOL     OW18502   2.054   1.677   5.759
 5868SOL    HW118503   2.087   1.634   5.842
 5868SOL    HW218504   2.112   1.755   5.736
 5869SOL     OW18505   2.309   5.814   2.858
 5869SOL    HW118506   2.393   5.760   2.866
 5869SOL    HW218507   2.241   5.762   2.805
 5870SOL     OW18508   5.487   6.309   5.138
 5870SOL    HW118509   5.438   6.264   5.064
 5870SOL    HW218510   5.502   6.245   5.213
 5871SOL     OW18511   3.541   3.461   1.965
 5871SOL    HW118512   3.464   3.522   1.985
 5871SOL    HW218513   3.586   3.490   1.881
 5872SOL     OW18514   4.265   6.943   1.585
 5872SOL    HW118515   4.202   6.867   1.596
 5872SOL    HW218516   4.226   0.004   1.626
 5873SOL     OW18517   3.444   6.858   2.213
 5873SOL    HW118518   3.530   6.867   2.163
 5873SOL    HW218519   3.406   6.949   2.230
 5874SOL     OW18520   2.305   4.346   5.277
 5874SOL    HW118521   2.309   4.249   5.303
 5874SOL    HW218522   2.234   4.392   5.330
 5875SOL     OW18523   4.264   1.411   0.220
 5875SOL    HW118524   4.333   1.482   0.207
 5875SOL    HW218525   4.173   1.448   0.201
 5876SOL     OW18526   3.975   3.475   1.721
 5876SOL    HW118527   3.876   3.470   1.733
 5876SOL    HW218528   3.996   3.541   1.649
 5877SOL     OW18529   6.802   6.591   1.036
 5877SOL    HW118530   6.775   6.599   0.940
 5877SOL    HW218531   6.885   6.645   1.052
 5878SOL     OW18532   0.110   5.583   4.517
 5878SOL    HW118533   0.090   5.487   4.498
 5878SOL    HW218534   0.071   5.609   4.606
 5879SOL     OW18535   1.909   4.373   0.058
 5879SOL    HW118536   1.981   4.309   0.085
 5879SOL    HW218537   1.829   4.322   0.028
 5880SOL     OW18538   4.469   4.143   6.788
 5880SOL    HW118539   4.540   4.195   6.836
 5880SOL    HW218540   4.494   4.046   6.787
 5881SOL     OW18541   0.682   6.522   3.039
 5881SOL    HW118542   0.588   6.556   3.044
 5881SOL    HW218543   0.681   6.424   3.023
 5882SOL     OW18544   0.227   5.984   1.540
 5882SOL    HW118545   0.141   5.968   1.492
 5882SOL    HW218546   0.210   5.995   1.638
 5883SOL     OW18547   1.219   1.074   6.033
 5883SOL    HW118548   1.295   1.024   5.990
 5883SOL    HW218549   1.235   1.172   6.022
 5884SOL     OW18550   2.852   1.725   4.617
 5884SOL    HW118551   2.919   1.799   4.617
 5884SOL    HW218552   2.765   1.758   4.579
 5885SOL     OW18553   0.635   0.674   3.345
 5885SOL    HW118554   0.616   0.578   3.364
 5885SOL    HW218555   0.631   0.691   3.247
 5886SOL     OW18556   0.911   1.960   5.161
 5886SOL    HW118557   0.950   1.913   5.241
 5886SOL    HW218558   0.883   1.893   5.093
 5887SOL     OW18559   2.905   1.591   3.454
 5887SOL    HW118560   2.818   1.583   3.404
 5887SOL    HW218561   2.940   1.499   3.474
 5888SOL     OW18562   2.860   0.955   1.809
 5888SOL    HW118563   2.790   1.027   1.809
 5888SOL    HW218564   2.873   0.921   1.716
 5889SOL     OW18565   1.360   6.645   0.723
 5889SOL    HW118566   1.314   6.732   0.741
 5889SOL    HW218567   1.309   6.594   0.654
 5890SOL     OW18568   2.269   1.326   3.859
 5890SOL    HW118569   2.277   1.349   3.956
 5890SOL    HW218570   2.336   1.256   3.836
 5891SOL     OW18571   3.709   3.310   5.983
 5891SOL    HW118572   3.755   3.304   5.895
 5891SOL    HW218573   3.692   3.217   6.017
 5892SOL     OW18574   0.673   5.027   1.736
 5892SOL    HW118575   0.637   5.071   1.818
 5892SOL    HW218576   0.736   4.955   1.762
 5893SOL     OW18577   1.858   3.892   4.177
 5893SOL    HW118578   1.773   3.842   4.158
 5893SOL    HW218579   1.863   3.911   4.275
 5894SOL     OW18580   6.632   4.871   4.446
 5894SOL    HW118581   6.702   4.941   4.434
 5894SOL    HW218582   6.675   4.780   4.440
 5895SOL     OW18583   5.302   3.827   4.458
 5895SOL    HW118584   5.268   3.837   4.551
 5895SOL    HW218585   5.344   3.914   4.429
 5896SOL     OW18586   4.476   0.501   0.090
 5896SOL    HW118587   4.559   0.535   0.134
 5896SOL    HW218588   4.454   0.410   0.126
 5897SOL     OW18589   4.168   0.655   1.495
 5897SOL    HW118590   4.267   0.669   1.488
 5897SOL    HW218591   4.139   0.590   1.426
 5898SOL     OW18592   1.921   6.688   3.208
 5898SOL    HW118593   1.874   6.777   3.206
 5898SOL    HW218594   2.013   6.699   3.246
 5899SOL     OW18595   5.143   5.830   6.027
 5899SOL    HW118596   5.208   5.819   5.952
 5899SOL    HW218597   5.190   5.865   6.108
 5900SOL     OW18598   5.431   5.040   3.611
 5900SOL    HW118599   5.410   4.959   3.666
 5900SOL    HW218600   5.506   5.019   3.548
 5901SOL     OW18601   2.685   0.529   0.449
 5901SOL    HW118602   2.601   0.573   0.415
 5901SOL    HW218603   2.672   0.503   0.544
 5902SOL     OW18604   6.544   2.787   5.954
 5902SOL    HW118605   6.506   2.708   5.906
 5902SOL    HW218606   6.632   2.811   5.914
 5903SOL     OW18607   4.535   4.549   0.025
 5903SOL    HW118608   4.535   4.542   6.947
 5903SOL    HW218609   4.616   4.502   0.062
 5904SOL     OW18610   1.045   4.173   1.659
 5904SOL    HW118611   1.110   4.200   1.730
 5904SOL    HW218612   1.095   4.152   1.574
 5905SOL     OW18613   6.457   6.033   3.152
 5905SOL    HW118614   6.403   5.952   3.131
 5905SOL    HW218615   6.452   6.098   3.076
 5906SOL     OW18616   4.112   2.147   3.844
 5906SOL    HW118617   4.152   2.175   3.931
 5906SOL    HW218618   4.178   2.089   3.794
 5907SOL     OW18619   0.502   5.095   1.290
 5907SOL    HW118620   0.434   5.038   1.338
 5907SOL    HW218621   0.577   5.117   1.352
 5908SOL     OW18622   0.360   2.511   6.231
 5908SOL    HW118623   0.272   2.526   6.186
 5908SOL    HW218624   0.407   2.435   6.187
 5909SOL     OW18625   6.686   5.775   0.607
 5909SOL    HW118626   6.642   5.686   0.620
 5909SOL    HW218627   6.689   5.796   0.509
 5910SOL     OW18628   6.934   3.645   3.745
 5910SOL    HW118629   6.920   3.742   3.726
 5910SOL    HW218630   6.917   3.626   3.841
 5911SOL     OW18631   6.466   6.532   6.328
 5911SOL    HW118632   6.504   6.621   6.352
 5911SOL    HW218633   6.424   6.491   6.409
 5912SOL     OW18634   6.829   0.914   5.780
 5912SOL    HW118635   6.767   0.883   5.851
 5912SOL    HW218636   6.808   0.868   5.694
 5913SOL     OW18637   4.737   2.886   6.382
 5913SOL    HW118638   4.684   2.847   6.457
 5913SOL    HW218639   4.797   2.958   6.417
 5914SOL     OW18640   1.534   4.965   6.526
 5914SOL    HW118641   1.457   4.961   6.463
 5914SOL    HW218642   1.524   5.044   6.586
 5915SOL     OW18643   4.569   5.826   1.187
 5915SOL    HW118644   4.482   5.872   1.167
 5915SOL    HW218645   4.598   5.848   1.280
 5916SOL     OW18646   5.703   6.378   3.887
 5916SOL    HW118647   5.722   6.376   3.985
 5916SOL    HW218648   5.668   6.468   3.862
 5917SOL     OW18649   3.076   3.327   4.476
 5917SOL    HW118650   3.152   3.289   4.424
 5917SOL    HW218651   3.111   3.385   4.549
 5918SOL     OW18652   2.004   4.026   5.343
 5918SOL    HW118653   1.993   3.966   5.264
 5918SOL    HW218654   1.923   4.019   5.402
 5919SOL     OW18655   3.766   2.931   3.138
 5919SOL    HW118656   3.834   2.959   3.206
 5919SOL    HW218657   3.696   3.001   3.131
 5920SOL     OW18658   4.406   0.913   6.655
 5920SOL    HW118659   4.432   0.878   6.745
 5920SOL    HW218660   4.450   1.001   6.639
 5921SOL     OW18661   3.506   5.330   6.244
 5921SOL    HW118662   3.464   5.400   6.186
 5921SOL    HW218663   3.500   5.241   6.200
 5922SOL     OW18664   5.326   3.990   3.152
 5922SOL    HW118665   5.409   3.977   3.207
 5922SOL    HW218666   5.264   4.052   3.200
 5923SOL     OW18667   0.154   1.717   1.994
 5923SOL    HW118668   0.180   1.682   2.084
 5923SOL    HW218669   0.203   1.802   1.976
 5924SOL     OW18670   6.804   6.976   2.825
 5924SOL    HW118671   6.821   0.050   2.802
 5924SOL    HW218672   6.782   6.925   2.741
 5925SOL     OW18673   4.012   6.852   1.856
 5925SOL    HW118674   3.933   6.900   1.818
 5925SOL    HW218675   3.980   6.782   1.920
 5926SOL     OW18676   4.052   5.582   2.035
 5926SOL    HW118677   4.005   5.494   2.026
 5926SOL    HW218678   4.092   5.607   1.947
 5927SOL     OW18679   1.565   4.669   2.484
 5927SOL    HW118680   1.532   4.711   2.568
 5927SOL    HW218681   1.487   4.639   2.429
 5928SOL     OW18682   3.509   6.806   1.298
 5928SOL    HW118683   3.427   6.831   1.247
 5928SOL    HW218684   3.587   6.797   1.235
 5929SOL     OW18685   6.606   0.443   5.987
 5929SOL    HW118686   6.642   0.355   6.016
 5929SOL    HW218687   6.659   0.477   5.909
 5930SOL     OW18688   6.520   3.782   3.053
 5930SOL    HW118689   6.609   3.757   3.091
 5930SOL    HW218690   6.450   3.774   3.124
 5931SOL     OW18691   6.881   5.947   3.109
 5931SOL    HW118692   6.955   5.990   3.161
 5931SOL    HW218693   6.844   6.014   3.044
 5932SOL     OW18694   3.335   0.134   1.001
 5932SOL    HW118695   3.286   0.184   0.930
 5932SOL    HW218696   3.276   0.122   1.081
 5933SOL     OW18697   6.548   4.899   3.868
 5933SOL    HW118698   6.555   4.800   3.885
 5933SOL    HW218699   6.493   4.914   3.786
 5934SOL     OW18700   3.568   2.977   4.752
 5934SOL    HW118701   3.563   2.923   4.836
 5934SOL    HW218702   3.631   3.054   4.765
 5935SOL     OW18703   6.505   5.088   6.398
 5935SOL    HW118704   6.508   5.040   6.310
 5935SOL    HW218705   6.513   5.022   6.473
 5936SOL     OW18706   3.081   2.445   1.410
 5936SOL    HW118707   3.136   2.479   1.486
 5936SOL    HW218708   2.986   2.433   1.441
 5937SOL     OW18709   6.349   3.319   2.112
 5937SOL    HW118710   6.276   3.263   2.152
 5937SOL    HW218711   6.353   3.407   2.159
 5938SOL     OW18712   6.532   5.383   2.977
 5938SOL    HW118713   6.617   5.384   3.029
 5938SOL    HW218714   6.553   5.394   2.879
 5939SOL     OW18715   2.351   6.531   3.140
 5939SOL    HW118716   2.357   6.485   3.229
 5939SOL    HW218717   2.390   6.623   3.147
 5940SOL     OW18718   4.623   5.179   2.382
 5940SOL    HW118719   4.570   5.127   2.315
 5940SOL    HW218720   4.628   5.275   2.353
 5941SOL     OW18721   5.607   3.260   2.131
 5941SOL    HW118722   5.666   3.340   2.145
 5941SOL    HW218723   5.517   3.291   2.099
 5942SOL     OW18724   5.423   3.895   0.199
 5942SOL    HW118725   5.389   3.802   0.216
 5942SOL    HW218726   5.363   3.961   0.245
 5943SOL     OW18727   3.372   4.013   5.812
 5943SOL    HW118728   3.284   3.967   5.828
 5943SOL    HW218729   3.415   4.034   5.900
 5944SOL     OW18730   0.015   2.335   0.778
 5944SOL    HW118731   0.106   2.353   0.817
 5944SOL    HW218732   6.987   2.421   0.767
 5945SOL     OW18733   6.715   4.704   5.379
 5945SOL    HW118734   6.699   4.661   5.291
 5945SOL    HW218735   6.801   4.756   5.376
 5946SOL     OW18736   3.669   3.578   5.906
 5946SOL    HW118737   3.694   3.487   5.940
 5946SOL    HW218738   3.719   3.648   5.956
 5947SOL     OW18739   3.412   3.180   2.390
 5947SOL    HW118740   3.396   3.081   2.385
 5947SOL    HW218741   3.325   3.227   2.404
 5948SOL     OW18742   4.201   5.023   2.404
 5948SOL    HW118743   4.205   4.945   2.467
 5948SOL    HW218744   4.164   5.102   2.452
 5949SOL     OW18745   5.308   4.191   1.489
 5949SOL    HW118746   5.250   4.256   1.441
 5949SOL    HW218747   5.336   4.229   1.578
 5950SOL     OW18748   5.573   1.091   5.496
 5950SOL    HW118749   5.525   1.170   5.534
 5950SOL    HW218750   5.541   1.075   5.402
 5951SOL     OW18751   1.559   5.436   3.598
 5951SOL    HW118752   1.610   5.366   3.547
 5951SOL    HW218753   1.498   5.391   3.663
 5952SOL     OW18754   5.324   5.179   3.171
 5952SOL    HW118755   5.250   5.116   3.195
 5952SOL    HW218756   5.309   5.215   3.080
 5953SOL     OW18757   6.516   3.583   5.234
 5953SOL    HW118758   6.515   3.659   5.169
 5953SOL    HW218759   6.494   3.617   5.325
 5954SOL     OW18760   6.119   5.160   5.501
 5954SOL    HW118761   6.049   5.172   5.432
 5954SOL    HW218762   6.078   5.166   5.592
 5955SOL     OW18763   4.820   5.632   2.488
 5955SOL    HW118764   4.742   5.623   2.425
 5955SOL    HW218765   4.862   5.722   2.477
 5956SOL     OW18766   4.560   1.907   4.557
 5956SOL    HW118767   4.471   1.864   4.566
 5956SOL    HW218768   4.632   1.843   4.585
 5957SOL     OW18769   3.195   1.137   4.847
 5957SOL    HW118770   3.143   1.223   4.848
 5957SOL    HW218771   3.132   1.060   4.855
 5958SOL     OW18772   5.283   6.275   2.888
 5958SOL    HW118773   5.193   6.247   2.854
 5958SOL    HW218774   5.342   6.297   2.811
 5959SOL     OW18775   4.185   2.966   5.334
 5959SOL    HW118776   4.097   3.012   5.320
 5959SOL    HW218777   4.170   2.867   5.343
 5960SOL     OW18778   4.012   5.422   4.879
 5960SOL    HW118779   4.077   5.460   4.813
 5960SOL    HW218780   3.962   5.347   4.837
 5961SOL     OW18781   4.825   2.102   2.924
 5961SOL    HW118782   4.858   2.195   2.941
 5961SOL    HW218783   4.759   2.103   2.849
 5962SOL     OW18784   5.992   5.933   6.998
 5962SOL    HW118785   6.079   5.979   6.982
 5962SOL    HW218786   5.918   5.983   6.953
 5963SOL     OW18787   3.564   3.464   6.533
 5963SOL    HW118788   3.591   3.539   6.594
 5963SOL    HW218789   3.480   3.490   6.485
 5964SOL     OW18790   0.994   6.199   5.510
 5964SOL    HW118791   0.954   6.116   5.550
 5964SOL    HW218792   1.090   6.205   5.536
 5965SOL     OW18793   1.878   1.626   0.228
 5965SOL    HW118794   1.824   1.569   0.290
 5965SOL    HW218795   1.818   1.694   0.184
 5966SOL     OW18796   2.367   6.165   5.914
 5966SOL    HW118797   2.282   6.129   5.953
 5966SOL    HW218798   2.390   6.114   5.832
 5967SOL     OW18799   2.895   0.375   5.942
 5967SOL    HW118800   2.878   0.466   5.906
 5967SOL    HW218801   2.877   0.307   5.871
 5968SOL     OW18802   5.359   2.352   0.652
 5968SOL    HW118803   5.368   2.452   0.654
 5968SOL    HW218804   5.373   2.316   0.744
 5969SOL     OW18805   6.151   0.126   6.663
 5969SOL    HW118806   6.074   0.140   6.725
 5969SOL    HW218807   6.194   0.214   6.643
 5970SOL     OW18808   0.262   4.292   3.050
 5970SOL    HW118809   0.168   4.307   3.080
 5970SOL    HW218810   0.262   4.243   2.963
 5971SOL     OW18811   0.382   1.515   2.436
 5971SOL    HW118812   0.299   1.563   2.407
 5971SOL    HW218813   0.460   1.576   2.425
 5972SOL     OW18814   5.618   6.020   6.198
 5972SOL    HW118815   5.715   5.998   6.196
 5972SOL    HW218816   5.571   5.971   6.124
 5973SOL     OW18817   1.702   3.445   1.676
 5973SOL    HW118818   1.624   3.397   1.716
 5973SOL    HW218819   1.775   3.453   1.745
 5974SOL     OW18820   5.584   5.346   6.590
 5974SOL    HW118821   5.626   5.378   6.674
 5974SOL    HW218822   5.612   5.252   6.571
 5975SOL     OW18823   4.399   0.173   1.230
 5975SOL    HW118824   4.469   0.117   1.275
 5975SOL    HW218825   4.308   0.139   1.256
 5976SOL     OW18826   4.004   2.595   6.114
 5976SOL    HW118827   3.979   2.618   6.020
 5976SOL    HW218828   4.103   2.597   6.124
 5977SOL     OW18829   1.468   5.960   0.097
 5977SOL    HW118830   1.409   5.990   0.172
 5977SOL    HW218831   1.498   6.040   0.044
 5978SOL     OW18832   4.276   5.332   1.917
 5978SOL    HW118833   4.261   5.427   1.945
 5978SOL    HW218834   4.364   5.300   1.951
 5979SOL     OW18835   5.739   0.719   2.664
 5979SOL    HW118836   5.798   0.685   2.591
 5979SOL    HW218837   5.779   0.696   2.753
 5980SOL     OW18838   3.308   4.096   0.878
 5980SOL    HW118839   3.278   4.190   0.898
 5980SOL    HW218840   3.401   4.098   0.841
 5981SOL     OW18841   5.618   1.969   1.654
 5981SOL    HW118842   5.638   2.055   1.702
 5981SOL    HW218843   5.573   1.906   1.717
 5982SOL     OW18844   6.262   2.336   1.533
 5982SOL    HW118845   6.282   2.257   1.591
 5982SOL    HW218846   6.198   2.309   1.461
 5983SOL     OW18847   1.040   1.366   3.496
 5983SOL    HW118848   1.060   1.464   3.505
 5983SOL    HW218849   0.972   1.340   3.564
 5984SOL     OW18850   5.823   5.695   3.258
 5984SOL    HW118851   5.847   5.772   3.317
 5984SOL    HW218852   5.766   5.726   3.183
 5985SOL     OW18853   6.796   3.339   3.789
 5985SOL    HW118854   6.893   3.339   3.812
 5985SOL    HW218855   6.785   3.343   3.689
 5986SOL     OW18856   3.214   4.096   4.287
 5986SOL    HW118857   3.305   4.105   4.327
 5986SOL    HW218858   3.223   4.075   4.189
 5987SOL     OW18859   5.574   6.940   3.769
 5987SOL    HW118860   5.524   6.925   3.854
 5987SOL    HW218861   5.615   0.010   3.769
 5988SOL     OW18862   4.268   0.472   5.749
 5988SOL    HW118863   4.274   0.561   5.794
 5988SOL    HW218864   4.328   0.472   5.669
 5989SOL     OW18865   2.379   5.793   6.499
 5989SOL    HW118866   2.431   5.729   6.556
 5989SOL    HW218867   2.433   5.875   6.484
 5990SOL     OW18868   3.179   3.556   0.650
 5990SOL    HW118869   3.085   3.525   0.636
 5990SOL    HW218870   3.190   3.588   0.745
 5991SOL     OW18871   3.620   5.185   6.687
 5991SOL    HW118872   3.711   5.198   6.650
 5991SOL    HW218873   3.572   5.115   6.634
 5992SOL     OW18874   3.605   0.391   1.816
 5992SOL    HW118875   3.656   0.471   1.848
 5992SOL    HW218876   3.558   0.414   1.730
 5993SOL     OW18877   3.730   4.316   6.160
 5993SOL    HW118878   3.754   4.323   6.063
 5993SOL    HW218879   3.798   4.260   6.207
 5994SOL     OW18880   6.965   2.394   1.379
 5994SOL    HW118881   0.003   2.469   1.410
 5994SOL    HW218882   7.013   2.307   1.393
 5995SOL     OW18883   4.952   3.560   2.348
 5995SOL    HW118884   4.992   3.472   2.322
 5995SOL    HW218885   4.956   3.623   2.270
 5996SOL     OW18886   0.741   6.310   1.101
 5996SOL    HW118887   0.670   6.242   1.122
 5996SOL    HW218888   0.804   6.317   1.178
 5997SOL     OW18889   0.131   5.603   2.621
 5997SOL    HW118890   0.042   5.610   2.578
 5997SOL    HW218891   0.201   5.641   2.560
 5998SOL     OW18892   6.428   1.408   3.302
 5998SOL    HW118893   6.419   1.355   3.386
 5998SOL    HW218894   6.432   1.347   3.224
 5999SOL     OW18895   2.459   2.817   1.826
 5999SOL    HW118896   2.532   2.763   1.783
 5999SOL    HW218897   2.426   2.769   1.907
 6000SOL     OW18898   2.571   6.865   0.473
 6000SOL    HW118899   2.624   6.862   0.388
 6000SOL    HW218900   2.552   6.772   0.504
 6001SOL     OW18901   0.068   4.631   6.779
 6001SOL    HW118902   0.165   4.655   6.789
 6001SOL    HW218903   0.055   4.581   6.693
 6002SOL     OW18904   5.720   0.654   0.730
 6002SOL    HW118905   5.637   0.709   0.736
 6002SOL    HW218906   5.797   0.712   0.703
 6003SOL     OW18907   5.985   1.841   4.533
 6003SOL    HW118908   5.964   1.784   4.613
 6003SOL    HW218909   6.015   1.782   4.458
 6004SOL     OW18910   6.801   3.706   3.097
 6004SOL    HW118911   6.842   3.792   3.067
 6004SOL    HW218912   6.873   3.642   3.126
 6005SOL     OW18913   4.918   5.151   4.219
 6005SOL    HW118914   4.855   5.228   4.205
 6005SOL    HW218915   4.866   5.070   4.243
 6006SOL     OW18916   2.878   1.468   5.302
 6006SOL    HW118917   2.888   1.379   5.347
 6006SOL    HW218918   2.928   1.537   5.355
 6007SOL     OW18919   5.275   3.873   5.916
 6007SOL    HW118920   5.250   3.815   5.994
 6007SOL    HW218921   5.230   3.840   5.834
 6008SOL     OW18922   2.521   4.483   5.303
 6008SOL    HW118923   2.603   4.426   5.301
 6008SOL    HW218924   2.441   4.427   5.285
 6009SOL     OW18925   2.365   0.920   3.064
 6009SOL    HW118926   2.328   0.877   3.147
 6009SOL    HW218927   2.379   1.018   3.082
 6010SOL     OW18928   1.213   5.049   4.077
 6010SOL    HW118929   1.191   5.052   4.175
 6010SOL    HW218930   1.194   4.957   4.042
 6011SOL     OW18931   5.497   2.952   2.868
 6011SOL    HW118932   5.527   2.939   2.963
 6011SOL    HW218933   5.517   2.870   2.815
 6012SOL     OW18934   5.739   1.062   0.525
 6012SOL    HW118935   5.757   0.987   0.589
 6012SOL    HW218936   5.739   1.149   0.575
 6013SOL     OW18937   5.332   1.936   2.672
 6013SOL    HW118938   5.311   1.920   2.769
 6013SOL    HW218939   5.271   1.880   2.616
 6014SOL     OW18940   4.057   3.794   2.779
 6014SOL    HW118941   4.098   3.813   2.690
 6014SOL    HW218942   4.048   3.695   2.791
 6015SOL     OW18943   6.341   3.723   4.475
 6015SOL    HW118944   6.326   3.675   4.562
 6015SOL    HW218945   6.307   3.817   4.482
 6016SOL     OW18946   6.299   1.598   5.626
 6016SOL    HW118947   6.205   1.614   5.656
 6016SOL    HW218948   6.354   1.565   5.703
 6017SOL     OW18949   6.541   4.592   3.855
 6017SOL    HW118950   6.582   4.604   3.765
 6017SOL    HW218951   6.442   4.598   3.848
 6018SOL     OW18952   3.947   0.577   6.284
 6018SOL    HW118953   3.960   0.514   6.208
 6018SOL    HW218954   3.873   0.544   6.343
 6019SOL     OW18955   0.740   2.811   4.344
 6019SOL    HW118956   0.840   2.817   4.339
 6019SOL    HW218957   0.706   2.755   4.269
 6020SOL     OW18958   0.838   4.814   1.206
 6020SOL    HW118959   0.922   4.862   1.232
 6020SOL    HW218960   0.824   4.736   1.267
 6021SOL     OW18961   4.363   0.429   2.715
 6021SOL    HW118962   4.372   0.529   2.712
 6021SOL    HW218963   4.454   0.388   2.712
 6022SOL     OW18964   5.506   1.750   3.779
 6022SOL    HW118965   5.524   1.659   3.816
 6022SOL    HW218966   5.563   1.817   3.826
 6023SOL     OW18967   5.870   1.252   1.431
 6023SOL    HW118968   5.849   1.263   1.528
 6023SOL    HW218969   5.967   1.276   1.416
 6024SOL     OW18970   2.222   4.739   2.755
 6024SOL    HW118971   2.232   4.640   2.743
 6024SOL    HW218972   2.127   4.765   2.738
 6025SOL     OW18973   3.955   1.626   3.283
 6025SOL    HW118974   4.054   1.640   3.287
 6025SOL    HW218975   3.910   1.689   3.346
 6026SOL     OW18976   6.808   4.177   5.389
 6026SOL    HW118977   6.844   4.270   5.389
 6026SOL    HW218978   6.811   4.140   5.297
 6027SOL     OW18979   0.834   3.058   5.705
 6027SOL    HW118980   0.782   3.113   5.640
 6027SOL    HW218981   0.915   3.020   5.660
 6028SOL     OW18982   6.808   4.745   0.399
 6028SOL    HW118983   6.828   4.693   0.315
 6028SOL    HW218984   6.721   4.713   0.437
 6029SOL     OW18985   2.477   6.934   4.935
 6029SOL    HW118986   2.395   6.988   4.914
 6029SOL    HW218987   2.518   6.901   4.850
 6030SOL     OW18988   4.146   5.485   2.772
 6030SOL    HW118989   4.177   5.501   2.678
 6030SOL    HW218990   4.073   5.417   2.772
 6031SOL     OW18991   2.824   5.638   4.630
 6031SOL    HW118992   2.779   5.679   4.709
 6031SOL    HW218993   2.782   5.673   4.546
 6032SOL     OW18994   2.446   4.403   2.744
 6032SOL    HW118995   2.498   4.440   2.667
 6032SOL    HW218996   2.472   4.451   2.828
 6033SOL     OW18997   2.585   2.179   2.737
 6033SOL    HW118998   2.571   2.081   2.725
 6033SOL    HW218999   2.548   2.208   2.825
 6034SOL     OW19000   1.114   6.969   5.229
 6034SOL    HW119001   1.148   0.033   5.268
 6034SOL    HW219002   1.163   6.892   5.270
 6035SOL     OW19003   0.567   1.740   1.859
 6035SOL    HW119004   0.508   1.698   1.929
 6035SOL    HW219005   0.561   1.839   1.866
 6036SOL     OW19006   5.120   4.850   2.984
 6036SOL    HW119007   5.097   4.789   2.908
 6036SOL    HW219008   5.220   4.851   2.996
 6037SOL     OW19009   4.372   6.300   0.543
 6037SOL    HW119010   4.454   6.334   0.495
 6037SOL    HW219011   4.350   6.208   0.511
 6038SOL     OW19012   1.873   2.719   5.812
 6038SOL    HW119013   1.786   2.671   5.801
 6038SOL    HW219014   1.871   2.775   5.895
 6039SOL     OW19015   3.165   3.062   3.025
 6039SOL    HW119016   3.088   3.106   3.072
 6039SOL    HW219017   3.194   2.982   3.076
 6040SOL     OW19018   1.231   1.509   0.511
 6040SOL    HW119019   1.198   1.495   0.604
 6040SOL    HW219020   1.330   1.495   0.507
 6041SOL     OW19021   2.926   0.474   5.204
 6041SOL    HW119022   2.871   0.552   5.234
 6041SOL    HW219023   3.010   0.506   5.161
 6042SOL     OW19024   4.513   6.929   2.358
 6042SOL    HW119025   4.419   6.932   2.391
 6042SOL    HW219026   4.519   6.866   2.281
 6043SOL     OW19027   0.949   5.267   5.705
 6043SOL    HW119028   0.994   5.178   5.706
 6043SOL    HW219029   0.855   5.257   5.738
 6044SOL     OW19030   1.365   2.720   1.166
 6044SOL    HW119031   1.446   2.755   1.213
 6044SOL    HW219032   1.298   2.793   1.157
 6045SOL     OW19033   6.372   4.109   2.620
 6045SOL    HW119034   6.305   4.056   2.672
 6045SOL    HW219035   6.394   4.061   2.535
 6046SOL     OW19036   3.763   2.489   0.367
 6046SOL    HW119037   3.664   2.477   0.369
 6046SOL    HW219038   3.802   2.463   0.455
 6047SOL     OW19039   5.308   1.832   2.031
 6047SOL    HW119040   5.289   1.915   2.084
 6047SOL    HW219041   5.286   1.752   2.087
 6048SOL     OW19042   4.492   5.348   5.329
 6048SOL    HW119043   4.477   5.265   5.384
 6048SOL    HW219044   4.484   5.429   5.387
 6049SOL     OW19045   4.811   3.480   0.215
 6049SOL    HW119046   4.897   3.505   0.170
 6049SOL    HW219047   4.734   3.522   0.167
 6050SOL     OW19048   3.386   5.808   5.852
 6050SOL    HW119049   3.477   5.770   5.832
 6050SOL    HW219050   3.316   5.740   5.831
 6051SOL     OW19051   1.940   6.322   3.861
 6051SOL    HW119052   1.892   6.365   3.785
 6051SOL    HW219053   2.037   6.345   3.857
 6052SOL     OW19054   5.897   1.103   0.219
 6052SOL    HW119055   5.844   1.073   0.298
 6052SOL    HW219056   5.959   1.030   0.190
 6053SOL     OW19057   4.540   1.205   6.589
 6053SOL    HW119058   4.612   1.273   6.597
 6053SOL    HW219059   4.459   1.247   6.547
 6054SOL     OW19060   2.346   3.113   0.228
 6054SOL    HW119061   2.424   3.175   0.234
 6054SOL    HW219062   2.368   3.027   0.275
 6055SOL     OW19063   4.945   6.603   5.243
 6055SOL    HW119064   4.860   6.609   5.296
 6055SOL    HW219065   5.006   6.536   5.285
 6056SOL     OW19066   5.136   3.321   4.729
 6056SOL    HW119067   5.113   3.288   4.820
 6056SOL    HW219068   5.187   3.407   4.737
 6057SOL     OW19069   6.539   1.997   3.190
 6057SOL    HW119070   6.592   1.925   3.145
 6057SOL    HW219071   6.587   2.027   3.273
 6058SOL     OW19072   4.662   3.557   1.739
 6058SOL    HW119073   4.597   3.488   1.708
 6058SOL    HW219074   4.653   3.639   1.682
 6059SOL     OW19075   4.926   4.891   5.745
 6059SOL    HW119076   4.898   4.962   5.680
 6059SOL    HW219077   4.852   4.876   5.811
 6060SOL     OW19078   2.628   3.403   6.598
 6060SOL    HW119079   2.704   3.340   6.613
 6060SOL    HW219080   2.652   3.493   6.633
 6061SOL     OW19081   3.505   2.707   0.781
 6061SOL    HW119082   3.453   2.713   0.866
 6061SOL    HW219083   3.526   2.612   0.760
 6062SOL     OW19084   2.510   1.366   5.010
 6062SOL    HW119085   2.414   1.357   5.036
 6062SOL    HW219086   2.556   1.427   5.074
 6063SOL     OW19087   4.273   2.894   6.250
 6063SOL    HW119088   4.180   2.897   6.286
 6063SOL    HW219089   4.283   2.961   6.176
 6064SOL     OW19090   0.691   6.261   1.408
 6064SOL    HW119091   0.670   6.220   1.496
 6064SOL    HW219092   0.647   6.207   1.335
 6065SOL     OW19093   0.630   6.504   2.038
 6065SOL    HW119094   0.618   6.602   2.020
 6065SOL    HW219095   0.654   6.458   1.953
 6066SOL     OW19096   4.667   1.223   5.966
 6066SOL    HW119097   4.692   1.178   6.052
 6066SOL    HW219098   4.727   1.301   5.950
 6067SOL     OW19099   6.004   0.988   5.366
 6067SOL    HW119100   6.037   0.901   5.328
 6067SOL    HW219101   6.063   1.016   5.442
 6068SOL     OW19102   5.457   3.229   4.998
 6068SOL    HW119103   5.407   3.183   4.925
 6068SOL    HW219104   5.506   3.162   5.052
 6069SOL     OW19105   5.952   2.999   4.912
 6069SOL    HW119106   5.855   2.980   4.899
 6069SOL    HW219107   5.966   3.098   4.919
 6070SOL     OW19108   2.875   2.487   0.832
 6070SOL    HW119109   2.911   2.466   0.923
 6070SOL    HW219110   2.936   2.552   0.787
 6071SOL     OW19111   5.553   5.738   4.754
 6071SOL    HW119112   5.637   5.783   4.785
 6071SOL    HW219113   5.565   5.704   4.661
 6072SOL     OW19114   6.239   6.691   1.352
 6072SOL    HW119115   6.308   6.647   1.410
 6072SOL    HW219116   6.157   6.709   1.407
 6073SOL     OW19117   5.711   3.216   0.191
 6073SOL    HW119118   5.806   3.222   0.161
 6073SOL    HW219119   5.652   3.263   0.126
 6074SOL     OW19120   0.967   6.399   2.540
 6074SOL    HW119121   0.905   6.462   2.493
 6074SOL    HW219122   1.012   6.341   2.472
 6075SOL     OW19123   5.507   0.588   5.620
 6075SOL    HW119124   5.556   0.583   5.533
 6075SOL    HW219125   5.559   0.644   5.685
 6076SOL     OW19126   3.414   5.631   4.286
 6076SOL    HW119127   3.368   5.619   4.374
 6076SOL    HW219128   3.510   5.653   4.301
 6077SOL     OW19129   6.238   5.466   0.641
 6077SOL    HW119130   6.254   5.545   0.582
 6077SOL    HW219131   6.140   5.454   0.655
 6078SOL     OW19132   4.839   5.038   0.540
 6078SOL    HW119133   4.802   4.982   0.465
 6078SOL    HW219134   4.805   5.003   0.627
 6079SOL     OW19135   4.365   3.818   5.956
 6079SOL    HW119136   4.344   3.893   5.894
 6079SOL    HW219137   4.398   3.739   5.904
 6080SOL     OW19138   0.067   6.512   1.220
 6080SOL    HW119139   0.084   6.505   1.121
 6080SOL    HW219140   0.116   6.591   1.257
 6081SOL     OW19141   6.784   2.707   5.437
 6081SOL    HW119142   6.794   2.615   5.475
 6081SOL    HW219143   6.867   2.731   5.387
 6082SOL     OW19144   1.906   1.410   3.459
 6082SOL    HW119145   1.904   1.311   3.445
 6082SOL    HW219146   1.934   1.430   3.553
 6083SOL     OW19147   6.262   5.704   0.050
 6083SOL    HW119148   6.297   5.762   0.124
 6083SOL    HW219149   6.173   5.667   0.076
 6084SOL     OW19150   0.545   6.928   3.479
 6084SOL    HW119151   0.485   6.965   3.550
 6084SOL    HW219152   0.493   6.912   3.396
 6085SOL     OW19153   0.207   6.080   0.384
 6085SOL    HW119154   0.209   5.980   0.374
 6085SOL    HW219155   0.115   6.109   0.407
 6086SOL     OW19156   3.280   0.928   5.957
 6086SOL    HW119157   3.257   1.022   5.932
 6086SOL    HW219158   3.207   0.890   6.014
 6087SOL     OW19159   3.730   5.636   1.250
 6087SOL    HW119160   3.674   5.573   1.304
 6087SOL    HW219161   3.716   5.619   1.153
 6088SOL     OW19162   5.383   6.103   4.435
 6088SOL    HW119163   5.290   6.091   4.470
 6088SOL    HW219164   5.421   6.190   4.468
 6089SOL     OW19165   5.214   2.988   2.086
 6089SOL    HW119166   5.261   2.975   2.173
 6089SOL    HW219167   5.147   3.062   2.095
 6090SOL     OW19168   2.096   5.754   5.352
 6090SOL    HW119169   2.189   5.762   5.388
 6090SOL    HW219170   2.060   5.845   5.329
 6091SOL     OW19171   1.740   1.082   0.185
 6091SOL    HW119172   1.648   1.104   0.217
 6091SOL    HW219173   1.756   0.984   0.195
 6092SOL     OW19174   4.223   0.098   2.367
 6092SOL    HW119175   4.234   0.179   2.424
 6092SOL    HW219176   4.173   0.027   2.417
 6093SOL     OW19177   1.992   3.481   1.806
 6093SOL    HW119178   2.011   3.403   1.747
 6093SOL    HW219179   2.068   3.493   1.871
 6094SOL     OW19180   2.251   6.506   2.118
 6094SOL    HW119181   2.223   6.414   2.089
 6094SOL    HW219182   2.318   6.542   2.054
 6095SOL     OW19183   5.424   4.063   1.143
 6095SOL    HW119184   5.467   3.998   1.206
 6095SOL    HW219185   5.328   4.077   1.170
 6096SOL     OW19186   5.912   6.598   4.002
 6096SOL    HW119187   5.852   6.664   3.957
 6096SOL    HW219188   6.006   6.632   4.002
 6097SOL     OW19189   2.203   5.777   1.989
 6097SOL    HW119190   2.116   5.826   1.983
 6097SOL    HW219191   2.265   5.829   2.049
 6098SOL     OW19192   1.424   1.219   5.161
 6098SOL    HW119193   1.507   1.245   5.112
 6098SOL    HW219194   1.344   1.250   5.110
 6099SOL     OW19195   5.863   6.290   0.322
 6099SOL    HW119196   5.941   6.257   0.269
 6099SOL    HW219197   5.810   6.354   0.267
 6100SOL     OW19198   5.608   6.169   0.692
 6100SOL    HW119199   5.581   6.254   0.737
 6100SOL    HW219200   5.529   6.130   0.645
 6101SOL     OW19201   6.367   3.427   3.676
 6101SOL    HW119202   6.301   3.483   3.726
 6101SOL    HW219203   6.429   3.383   3.740
 6102SOL     OW19204   3.301   6.430   2.708
 6102SOL    HW119205   3.287   6.404   2.803
 6102SOL    HW219206   3.378   6.378   2.670
 6103SOL     OW19207   6.578   1.991   1.214
 6103SOL    HW119208   6.592   1.906   1.163
 6103SOL    HW219209   6.524   2.055   1.160
 6104SOL     OW19210   6.144   0.806   5.580
 6104SOL    HW119211   6.168   0.902   5.595
 6104SOL    HW219212   6.228   0.753   5.570
 6105SOL     OW19213   3.384   6.483   0.044
 6105SOL    HW119214   3.297   6.475   7.018
 6105SOL    HW219215   3.417   6.577   0.038
 6106SOL     OW19216   1.424   3.747   6.576
 6106SOL    HW119217   1.341   3.791   6.609
 6106SOL    HW219218   1.490   3.741   6.651
 6107SOL     OW19219   3.948   5.710   4.422
 6107SOL    HW119220   3.943   5.801   4.462
 6107SOL    HW219221   4.003   5.714   4.338
 6108SOL     OW19222   1.955   3.266   1.605
 6108SOL    HW119223   1.885   3.221   1.661
 6108SOL    HW219224   1.929   3.260   1.509
 6109SOL     OW19225   5.746   2.019   5.148
 6109SOL    HW119226   5.800   1.938   5.129
 6109SOL    HW219227   5.783   2.097   5.097
 6110SOL     OW19228   3.561   4.049   0.773
 6110SOL    HW119229   3.505   4.030   0.692
 6110SOL    HW219230   3.650   4.005   0.764
 6111SOL     OW19231   1.964   4.072   2.508
 6111SOL    HW119232   1.899   4.018   2.561
 6111SOL    HW219233   2.052   4.025   2.504
 6112SOL     OW19234   3.722   0.088   2.434
 6112SOL    HW119235   3.732   0.186   2.450
 6112SOL    HW219236   3.747   0.037   2.516
 6113SOL     OW19237   2.687   1.437   6.644
 6113SOL    HW119238   2.605   1.402   6.691
 6113SOL    HW219239   2.703   1.384   6.561
 6114SOL     OW19240   5.416   4.876   1.590
 6114SOL    HW119241   5.475   4.934   1.646
 6114SOL    HW219242   5.329   4.862   1.637
 6115SOL     OW19243   5.434   0.029   4.145
 6115SOL    HW119244   5.423   0.110   4.202
 6115SOL    HW219245   5.530   0.003   4.142
 6116SOL     OW19246   4.107   1.449   6.249
 6116SOL    HW119247   4.196   1.494   6.261
 6116SOL    HW219248   4.109   1.394   6.165
 6117SOL     OW19249   1.616   1.203   3.143
 6117SOL    HW119250   1.686   1.214   3.072
 6117SOL    HW219251   1.635   1.121   3.197
 6118SOL     OW19252   6.927   0.687   2.122
 6118SOL    HW119253   7.014   0.737   2.122
 6118SOL    HW219254   6.854   0.746   2.154
 6119SOL     OW19255   0.634   4.093   6.733
 6119SOL    HW119256   0.639   4.056   6.640
 6119SOL    HW219257   0.599   4.187   6.730
 6120SOL     OW19258   3.412   6.413   5.280
 6120SOL    HW119259   3.485   6.368   5.330
 6120SOL    HW219260   3.323   6.379   5.312
 6121SOL     OW19261   0.652   3.413   5.525
 6121SOL    HW119262   0.705   3.461   5.595
 6121SOL    HW219263   0.640   3.471   5.445
 6122SOL     OW19264   4.399   5.394   0.387
 6122SOL    HW119265   4.398   5.305   0.433
 6122SOL    HW219266   4.431   5.382   0.293
 6123SOL     OW19267   5.230   6.911   6.715
 6123SOL    HW119268   5.215   7.000   6.759
 6123SOL    HW219269   5.168   6.902   6.637
 6124SOL     OW19270   2.176   6.960   5.822
 6124SOL    HW119271   2.207   6.996   5.733
 6124SOL    HW219272   2.174   0.013   5.888
 6125SOL     OW19273   2.009   4.563   0.779
 6125SOL    HW119274   1.914   4.590   0.765
 6125SOL    HW219275   2.029   4.483   0.722
 6126SOL     OW19276   0.964   6.795   4.463
 6126SOL    HW119277   0.939   6.708   4.420
 6126SOL    HW219278   0.891   6.824   4.525
 6127SOL     OW19279   3.144   0.287   0.831
 6127SOL    HW119280   3.195   0.365   0.796
 6127SOL    HW219281   3.064   0.319   0.881
 6128SOL     OW19282   5.577   4.138   0.078
 6128SOL    HW119283   5.537   4.056   0.118
 6128SOL    HW219284   5.543   4.218   0.128
 6129SOL     OW19285   6.936   3.404   3.026
 6129SOL    HW119286   6.875   3.381   2.950
 6129SOL    HW219287   6.994   3.481   3.000
 6130SOL     OW19288   5.823   2.522   2.694
 6130SOL    HW119289   5.867   2.517   2.604
 6130SOL    HW219290   5.793   2.616   2.710
 6131SOL     OW19291   0.296   1.535   5.176
 6131SOL    HW119292   0.381   1.488   5.151
 6131SOL    HW219293   0.218   1.477   5.153
 6132SOL     OW19294   4.873   1.896   0.217
 6132SOL    HW119295   4.937   1.954   0.269
 6132SOL    HW219296   4.918   1.863   0.134
 6133SOL     OW19297   1.865   3.499   2.159
 6133SOL    HW119298   1.818   3.419   2.197
 6133SOL    HW219299   1.960   3.476   2.141
 6134SOL     OW19300   3.985   4.817   6.424
 6134SOL    HW119301   3.979   4.884   6.498
 6134SOL    HW219302   4.050   4.848   6.355
 6135SOL     OW19303   0.131   0.679   0.901
 6135SOL    HW119304   0.066   0.618   0.945
 6135SOL    HW219305   0.198   0.711   0.968
 6136SOL     OW19306   1.532   3.318   1.849
 6136SOL    HW119307   1.575   3.363   1.927
 6136SOL    HW219308   1.433   3.325   1.857
 6137SOL     OW19309   6.585   3.222   2.960
 6137SOL    HW119310   6.576   3.142   2.901
 6137SOL    HW219311   6.608   3.302   2.904
 6138SOL     OW19312   3.661   6.328   2.911
 6138SOL    HW119313   3.611   6.288   2.834
 6138SOL    HW219314   3.759   6.314   2.899
 6139SOL     OW19315   1.922   6.765   6.209
 6139SOL    HW119316   1.852   6.694   6.221
 6139SOL    HW219317   1.913   6.834   6.280
 6140SOL     OW19318   0.735   6.290   1.837
 6140SOL    HW119319   0.738   6.381   1.796
 6140SOL    HW219320   0.718   6.221   1.766
 6141SOL     OW19321   0.280   6.778   6.731
 6141SOL    HW119322   0.219   6.708   6.770
 6141SOL    HW219323   0.320   6.832   6.805
 6142SOL     OW19324   1.168   6.820   0.086
 6142SOL    HW119325   1.149   6.821   0.184
 6142SOL    HW219326   1.191   6.727   0.057
 6143SOL     OW19327   6.847   3.709   1.721
 6143SOL    HW119328   6.783   3.786   1.717
 6143SOL    HW219329   6.797   3.625   1.738
 6144SOL     OW19330   5.236   4.628   3.196
 6144SOL    HW119331   5.278   4.714   3.168
 6144SOL    HW219332   5.162   4.605   3.134
 6145SOL     OW19333   4.919   5.010   3.054
 6145SOL    HW119334   5.001   4.953   3.046
 6145SOL    HW219335   4.917   5.055   3.143
 6146SOL     OW19336   3.497   5.915   3.810
 6146SOL    HW119337   3.459   5.914   3.717
 6146SOL    HW219338   3.477   5.827   3.854
 6147SOL     OW19339   2.246   2.150   4.192
 6147SOL    HW119340   2.288   2.173   4.104
 6147SOL    HW219341   2.177   2.218   4.215
 6148SOL     OW19342   5.233   6.710   5.013
 6148SOL    HW119343   5.323   6.729   5.052
 6148SOL    HW219344   5.165   6.768   5.059
 6149SOL     OW19345   2.668   6.008   1.412
 6149SOL    HW119346   2.582   5.994   1.364
 6149SOL    HW219347   2.650   6.016   1.510
 6150SOL     OW19348   4.641   5.384   6.930
 6150SOL    HW119349   4.584   5.433   6.865
 6150SOL    HW219350   4.726   5.355   6.885
 6151SOL     OW19351   6.060   4.737   6.557
 6151SOL    HW119352   5.983   4.763   6.615
 6151SOL    HW219353   6.138   4.712   6.615
 6152SOL     OW19354   6.366   5.082   4.598
 6152SOL    HW119355   6.380   5.177   4.625
 6152SOL    HW219356   6.398   5.068   4.505
 6153SOL     OW19357   4.962   4.266   1.354
 6153SOL    HW119358   5.018   4.347   1.372
 6153SOL    HW219359   4.867   4.295   1.338
 6154SOL     OW19360   5.493   2.143   2.590
 6154SOL    HW119361   5.442   2.058   2.606
 6154SOL    HW219362   5.523   2.181   2.678
 6155SOL     OW19363   1.576   1.629   3.696
 6155SOL    HW119364   1.665   1.669   3.672
 6155SOL    HW219365   1.581   1.530   3.689
 6156SOL     OW19366   4.174   4.177   1.459
 6156SOL    HW119367   4.136   4.227   1.381
 6156SOL    HW219368   4.139   4.216   1.544
 6157SOL     OW19369   0.053   0.947   4.467
 6157SOL    HW119370   0.136   0.996   4.493
 6157SOL    HW219371   0.021   0.893   4.544
 6158SOL     OW19372   3.570   2.074   6.075
 6158SOL    HW119373   3.645   2.015   6.103
 6158SOL    HW219374   3.594   2.170   6.094
 6159SOL     OW19375   5.540   2.413   2.207
 6159SOL    HW119376   5.536   2.400   2.108
 6159SOL    HW219377   5.578   2.331   2.250
 6160SOL     OW19378   5.137   1.706   6.486
 6160SOL    HW119379   5.220   1.679   6.437
 6160SOL    HW219380   5.076   1.755   6.425
 6161SOL     OW19381   4.575   1.481   5.246
 6161SOL    HW119382   4.552   1.435   5.332
 6161SOL    HW219383   4.491   1.496   5.194
 6162SOL     OW19384   0.528   5.919   3.400
 6162SOL    HW119385   0.601   5.882   3.343
 6162SOL    HW219386   0.504   6.011   3.369
 6163SOL     OW19387   6.513   6.735   0.919
 6163SOL    HW119388   6.483   6.788   0.998
 6163SOL    HW219389   6.558   6.795   0.853
 6164SOL     OW19390   3.884   4.004   2.309
 6164SOL    HW119391   3.837   3.994   2.221
 6164SOL    HW219392   3.978   4.034   2.293
 6165SOL     OW19393   5.085   1.538   6.850
 6165SOL    HW119394   5.105   1.512   6.944
 6165SOL    HW219395   5.146   1.611   6.821
 6166SOL     OW19396   5.523   1.508   6.586
 6166SOL    HW119397   5.508   1.517   6.685
 6166SOL    HW219398   5.610   1.461   6.570
 6167SOL     OW19399   1.095   5.584   3.336
 6167SOL    HW119400   1.032   5.583   3.259
 6167SOL    HW219401   1.121   5.491   3.361
 6168SOL     OW19402   1.890   4.046   2.141
 6168SOL    HW119403   1.908   4.124   2.201
 6168SOL    HW219404   1.960   4.042   2.069
 6169SOL     OW19405   0.585   2.219   0.344
 6169SOL    HW119406   0.612   2.163   0.422
 6169SOL    HW219407   0.637   2.191   0.263
 6170SOL     OW19408   1.475   4.182   5.277
 6170SOL    HW119409   1.386   4.140   5.296
 6170SOL    HW219410   1.479   4.272   5.322
 6171SOL     OW19411   0.960   3.188   0.800
 6171SOL    HW119412   1.041   3.175   0.742
 6171SOL    HW219413   0.969   3.274   0.850
 6172SOL     OW19414   1.497   2.950   2.593
 6172SOL    HW119415   1.475   2.861   2.554
 6172SOL    HW219416   1.533   3.010   2.522
 6173SOL     OW19417   6.816   5.450   2.094
 6173SOL    HW119418   6.859   5.370   2.052
 6173SOL    HW219419   6.887   5.508   2.135
 6174SOL     OW19420   5.784   4.799   3.638
 6174SOL    HW119421   5.707   4.743   3.607
 6174SOL    HW219422   5.777   4.890   3.597
 6175SOL     OW19423   4.672   0.404   3.453
 6175SOL    HW119424   4.676   0.442   3.546
 6175SOL    HW219425   4.584   0.426   3.412
 6176SOL     OW19426   4.936   3.941   6.055
 6176SOL    HW119427   4.932   3.913   6.151
 6176SOL    HW219428   4.910   3.864   5.997
 6177SOL     OW19429   5.617   0.872   1.283
 6177SOL    HW119430   5.556   0.917   1.349
 6177SOL    HW219431   5.566   0.846   1.202
 6178SOL     OW19432   4.735   5.166   2.639
 6178SOL    HW119433   4.663   5.179   2.570
 6178SOL    HW219434   4.797   5.094   2.609
 6179SOL     OW19435   6.798   4.293   3.582
 6179SOL    HW119436   6.738   4.269   3.658
 6179SOL    HW219437   6.893   4.294   3.614
 6180SOL     OW19438   3.405   4.340   0.184
 6180SOL    HW119439   3.477   4.364   0.120
 6180SOL    HW219440   3.446   4.315   0.272
 6181SOL     OW19441   4.078   6.930   1.046
 6181SOL    HW119442   4.136   7.003   1.082
 6181SOL    HW219443   4.080   6.852   1.108
 6182SOL     OW19444   5.392   3.234   5.340
 6182SOL    HW119445   5.364   3.305   5.275
 6182SOL    HW219446   5.476   3.191   5.308
 6183SOL     OW19447   1.347   2.176   3.221
 6183SOL    HW119448   1.427   2.198   3.277
 6183SOL    HW219449   1.376   2.151   3.129
 6184SOL     OW19450   2.004   6.872   6.693
 6184SOL    HW119451   2.082   6.888   6.633
 6184SOL    HW219452   1.949   6.797   6.658
 6185SOL     OW19453   0.598   3.602   5.748
 6185SOL    HW119454   0.665   3.619   5.821
 6185SOL    HW219455   0.624   3.655   5.667
 6186SOL     OW19456   6.921   0.201   0.020
 6186SOL    HW119457   6.842   0.190   0.080
 6186SOL    HW219458   6.968   0.287   0.042
 6187SOL     OW19459   4.944   4.767   3.315
 6187SOL    HW119460   4.925   4.704   3.240
 6187SOL    HW219461   4.974   4.855   3.278
 6188SOL     OW19462   2.171   0.930   0.641
 6188SOL    HW119463   2.270   0.912   0.639
 6188SOL    HW219464   2.134   0.902   0.729
 6189SOL     OW19465   4.624   4.408   3.244
 6189SOL    HW119466   4.647   4.436   3.151
 6189SOL    HW219467   4.600   4.489   3.298
 6190SOL     OW19468   0.768   3.927   5.687
 6190SOL    HW119469   0.859   3.969   5.689
 6190SOL    HW219470   0.772   3.839   5.639
 6191SOL     OW19471   3.156   1.768   0.076
 6191SOL    HW119472   3.136   1.858   0.038
 6191SOL    HW219473   3.071   1.716   0.086
 6192SOL     OW19474   3.430   2.426   5.774
 6192SOL    HW119475   3.373   2.463   5.847
 6192SOL    HW219476   3.379   2.424   5.689
 6193SOL     OW19477   5.240   0.837   2.148
 6193SOL    HW119478   5.323   0.887   2.173
 6193SOL    HW219479   5.218   0.856   2.052
 6194SOL     OW19480   1.507   0.050   1.861
 6194SOL    HW119481   1.523   0.136   1.910
 6194SOL    HW219482   1.586   7.011   1.873
 6195SOL     OW19483   3.896   6.274   6.084
 6195SOL    HW119484   3.910   6.345   6.153
 6195SOL    HW219485   3.805   6.284   6.043
 6196SOL     OW19486   5.656   3.161   1.357
 6196SOL    HW119487   5.686   3.155   1.453
 6196SOL    HW219488   5.649   3.257   1.331
 6197SOL     OW19489   4.101   4.618   0.792
 6197SOL    HW119490   4.134   4.600   0.885
 6197SOL    HW219491   4.016   4.670   0.797
 6198SOL     OW19492   4.112   6.220   2.415
 6198SOL    HW119493   4.161   6.306   2.426
 6198SOL    HW219494   4.017   6.231   2.443
 6199SOL     OW19495   0.782   1.145   0.567
 6199SOL    HW119496   0.689   1.141   0.603
 6199SOL    HW219497   0.809   1.054   0.534
 6200SOL     OW19498   1.378   1.651   6.007
 6200SOL    HW119499   1.367   1.609   6.097
 6200SOL    HW219500   1.471   1.635   5.975
 6201SOL     OW19501   0.915   3.712   5.114
 6201SOL    HW119502   0.834   3.662   5.083
 6201SOL    HW219503   0.990   3.698   5.050
 6202SOL     OW19504   3.643   1.640   2.098
 6202SOL    HW119505   3.551   1.680   2.097
 6202SOL    HW219506   3.645   1.563   2.161
 6203SOL     OW19507   0.040   6.246   2.486
 6203SOL    HW119508   0.050   6.155   2.527
 6203SOL    HW219509   0.130   6.285   2.467
 6204SOL     OW19510   0.726   4.874   4.709
 6204SOL    HW119511   0.751   4.922   4.794
 6204SOL    HW219512   0.753   4.930   4.631
 6205SOL     OW19513   6.352   5.517   0.261
 6205SOL    HW119514   6.365   5.421   0.236
 6205SOL    HW219515   6.273   5.554   0.211
 6206SOL     OW19516   6.180   1.957   3.527
 6206SOL    HW119517   6.117   1.879   3.531
 6206SOL    HW219518   6.207   1.973   3.432
 6207SOL     OW19519   0.685   5.021   4.984
 6207SOL    HW119520   0.723   5.113   4.976
 6207SOL    HW219521   0.679   4.995   5.080
 6208SOL     OW19522   5.554   2.108   5.884
 6208SOL    HW119523   5.490   2.031   5.880
 6208SOL    HW219524   5.516   2.185   5.832
 6209SOL     OW19525   4.265   5.706   6.655
 6209SOL    HW119526   4.334   5.778   6.656
 6209SOL    HW219527   4.181   5.741   6.614
 6210SOL     OW19528   5.309   3.529   3.734
 6210SOL    HW119529   5.333   3.459   3.667
 6210SOL    HW219530   5.225   3.502   3.782
 6211SOL     OW19531   2.856   6.320   5.545
 6211SOL    HW119532   2.820   6.259   5.616
 6211SOL    HW219533   2.781   6.370   5.503
 6212SOL     OW19534   2.287   5.200   4.532
 6212SOL    HW119535   2.264   5.274   4.595
 6212SOL    HW219536   2.305   5.116   4.584
 6213SOL     OW19537   6.444   0.524   0.691
 6213SOL    HW119538   6.543   0.526   0.705
 6213SOL    HW219539   6.400   0.474   0.765
 6214SOL     OW19540   4.698   4.943   4.292
 6214SOL    HW119541   4.661   5.036   4.289
 6214SOL    HW219542   4.643   4.887   4.354
 6215SOL     OW19543   4.042   1.824   0.548
 6215SOL    HW119544   4.133   1.851   0.515
 6215SOL    HW219545   4.052   1.754   0.619
 6216SOL     OW19546   6.420   1.638   2.246
 6216SOL    HW119547   6.495   1.596   2.296
 6216SOL    HW219548   6.415   1.599   2.154
 6217SOL     OW19549   0.322   3.638   2.827
 6217SOL    HW119550   0.350   3.722   2.872
 6217SOL    HW219551   0.243   3.599   2.874
 6218SOL     OW19552   3.928   6.084   6.897
 6218SOL    HW119553   3.946   5.994   6.936
 6218SOL    HW219554   3.991   6.099   6.820
 6219SOL     OW19555   1.345   2.004   4.621
 6219SOL    HW119556   1.249   2.020   4.644
 6219SOL    HW219557   1.398   2.086   4.640
 6220SOL     OW19558   1.958   1.549   4.484
 6220SOL    HW119559   2.005   1.585   4.564
 6220SOL    HW219560   1.880   1.607   4.461
 6221SOL     OW19561   5.963   5.751   6.790
 6221SOL    HW119562   5.974   5.807   6.872
 6221SOL    HW219563   5.986   5.805   6.709
 6222SOL     OW19564   1.002   6.181   1.456
 6222SOL    HW119565   1.069   6.250   1.433
 6222SOL    HW219566   0.910   6.219   1.446
 6223SOL     OW19567   1.331   5.057   3.833
 6223SOL    HW119568   1.316   4.961   3.809
 6223SOL    HW219569   1.296   5.074   3.926
 6224SOL     OW19570   2.882   1.530   5.963
 6224SOL    HW119571   2.952   1.500   6.029
 6224SOL    HW219572   2.793   1.492   5.989
 6225SOL     OW19573   4.062   3.567   6.743
 6225SOL    HW119574   4.075   3.630   6.666
 6225SOL    HW219575   4.086   3.474   6.714
 6226SOL     OW19576   0.011   1.940   5.447
 6226SOL    HW119577   0.084   2.008   5.451
 6226SOL    HW219578   0.051   1.849   5.434
 6227SOL     OW19579   3.201   5.506   5.175
 6227SOL    HW119580   3.288   5.486   5.220
 6227SOL    HW219581   3.213   5.580   5.109
 6228SOL     OW19582   1.472   3.290   2.161
 6228SOL    HW119583   1.532   3.258   2.234
 6228SOL    HW219584   1.417   3.214   2.127
 6229SOL     OW19585   0.766   1.958   3.315
 6229SOL    HW119586   0.758   1.876   3.370
 6229SOL    HW219587   0.679   2.008   3.315
 6230SOL     OW19588   0.531   1.584   3.289
 6230SOL    HW119589   0.498   1.661   3.234
 6230SOL    HW219590   0.547   1.506   3.229
 6231SOL     OW19591   6.158   5.920   0.375
 6231SOL    HW119592   6.135   5.992   0.440
 6231SOL    HW219593   6.085   5.911   0.307
 6232SOL     OW19594   6.715   0.794   0.434
 6232SOL    HW119595   6.678   0.836   0.517
 6232SOL    HW219596   6.639   0.771   0.372
 6233SOL     OW19597   6.892   1.629   1.276
 6233SOL    HW119598   6.933   1.711   1.237
 6233SOL    HW219599   6.942   1.548   1.243
 6234SOL     OW19600   6.781   0.819   5.374
 6234SOL    HW119601   6.880   0.811   5.359
 6234SOL    HW219602   6.761   0.907   5.418
 6235SOL     OW19603   0.135   6.733   0.896
 6235SOL    HW119604   0.229   6.767   0.900
 6235SOL    HW219605   0.076   6.791   0.953
 6236SOL     OW19606   1.151   3.910   0.932
 6236SOL    HW119607   1.067   3.886   0.981
 6236SOL    HW219608   1.198   3.984   0.980
 6237SOL     OW19609   3.732   0.515   6.430
 6237SOL    HW119610   3.692   0.513   6.522
 6237SOL    HW219611   3.719   0.426   6.387
 6238SOL     OW19612   4.032   5.176   2.904
 6238SOL    HW119613   3.975   5.236   2.849
 6238SOL    HW219614   4.060   5.223   2.988
 6239SOL     OW19615   2.932   0.837   1.560
 6239SOL    HW119616   3.006   0.904   1.552
 6239SOL    HW219617   2.853   0.868   1.507
 6240SOL     OW19618   1.960   3.572   5.751
 6240SOL    HW119619   1.920   3.537   5.667
 6240SOL    HW219620   2.059   3.575   5.742
 6241SOL     OW19621   3.191   0.084   1.241
 6241SOL    HW119622   3.099   0.119   1.260
 6241SOL    HW219623   3.236   0.058   1.326
 6242SOL     OW19624   4.380   0.498   3.880
 6242SOL    HW119625   4.352   0.405   3.903
 6242SOL    HW219626   4.308   0.543   3.827
 6243SOL     OW19627   6.446   6.527   5.116
 6243SOL    HW119628   6.511   6.576   5.057
 6243SOL    HW219629   6.401   6.455   5.063
 6244SOL     OW19630   6.634   2.466   2.378
 6244SOL    HW119631   6.629   2.380   2.428
 6244SOL    HW219632   6.630   2.542   2.443
 6245SOL     OW19633   1.786   4.217   0.430
 6245SOL    HW119634   1.690   4.190   0.424
 6245SOL    HW219635   1.840   4.162   0.366
 6246SOL     OW19636   1.440   2.117   5.588
 6246SOL    HW119637   1.520   2.099   5.529
 6246SOL    HW219638   1.465   2.101   5.683
 6247SOL     OW19639   0.115   5.261   4.440
 6247SOL    HW119640   0.107   5.264   4.341
 6247SOL    HW219641   0.031   5.222   4.479
 6248SOL     OW19642   3.351   3.288   0.156
 6248SOL    HW119643   3.382   3.203   0.112
 6248SOL    HW219644   3.351   3.275   0.255
 6249SOL     OW19645   6.884   4.025   0.318
 6249SOL    HW119646   6.953   3.962   0.282
 6249SOL    HW219647   6.922   4.117   0.322
 6250SOL     OW19648   6.652   0.241   0.175
 6250SOL    HW119649   6.699   0.311   0.229
 6250SOL    HW219650   6.678   0.151   0.208
 6251SOL     OW19651   3.782   5.981   6.349
 6251SOL    HW119652   3.791   6.073   6.388
 6251SOL    HW219653   3.873   5.948   6.322
 6252SOL     OW19654   2.367   6.027   5.680
 6252SOL    HW119655   2.379   6.021   5.581
 6252SOL    HW219656   2.340   5.937   5.716
 6253SOL     OW19657   2.373   4.934   3.941
 6253SOL    HW119658   2.461   4.945   3.987
 6253SOL    HW219659   2.368   4.995   3.862
 6254SOL     OW19660   5.628   1.237   1.262
 6254SOL    HW119661   5.709   1.213   1.315
 6254SOL    HW219662   5.597   1.329   1.288
 6255SOL     OW19663   3.233   0.506   0.684
 6255SOL    HW119664   3.280   0.584   0.723
 6255SOL    HW219665   3.167   0.538   0.615
 6256SOL     OW19666   3.691   5.351   1.598
 6256SOL    HW119667   3.776   5.364   1.547
 6256SOL    HW219668   3.673   5.254   1.609
 6257SOL     OW19669   5.057   2.252   0.986
 6257SOL    HW119670   5.092   2.343   1.010
 6257SOL    HW219671   5.004   2.258   0.901
 6258SOL     OW19672   3.493   0.687   3.274
 6258SOL    HW119673   3.435   0.695   3.355
 6258SOL    HW219674   3.453   0.622   3.210
 6259SOL     OW19675   1.728   2.567   0.109
 6259SOL    HW119676   1.660   2.528   0.172
 6259SOL    HW219677   1.684   2.635   0.051
 6260SOL     OW19678   3.427   5.748   0.144
 6260SOL    HW119679   3.508   5.717   0.095
 6260SOL    HW219680   3.453   5.778   0.236
 6261SOL     OW19681   3.970   1.593   6.928
 6261SOL    HW119682   3.873   1.576   6.910
 6261SOL    HW219683   4.025   1.520   6.888
 6262SOL     OW19684   2.691   6.434   1.690
 6262SOL    HW119685   2.597   6.428   1.722
 6262SOL    HW219686   2.695   6.418   1.592
 6263SOL     OW19687   0.122   0.571   4.729
 6263SOL    HW119688   0.163   0.642   4.787
 6263SOL    HW219689   0.175   0.486   4.738
 6264SOL     OW19690   1.607   0.279   1.977
 6264SOL    HW119691   1.661   0.296   1.894
 6264SOL    HW219692   1.663   0.294   2.058
 6265SOL     OW19693   3.812   3.162   0.659
 6265SOL    HW119694   3.847   3.086   0.603
 6265SOL    HW219695   3.758   3.125   0.735
 6266SOL     OW19696   4.066   0.837   4.019
 6266SOL    HW119697   4.047   0.740   4.007
 6266SOL    HW219698   4.158   0.848   4.058
 6267SOL     OW19699   2.512   6.846   5.942
 6267SOL    HW119700   2.529   6.764   5.889
 6267SOL    HW219701   2.423   6.838   5.989
 6268SOL     OW19702   2.761   0.160   3.285
 6268SOL    HW119703   2.857   0.158   3.315
 6268SOL    HW219704   2.757   0.187   3.189
 6269SOL     OW19705   0.275   6.676   2.016
 6269SOL    HW119706   0.211   6.753   2.020
 6269SOL    HW219707   0.368   6.711   2.012
 6270SOL     OW19708   1.809   0.446   6.260
 6270SOL    HW119709   1.768   0.423   6.348
 6270SOL    HW219710   1.769   0.388   6.189
 6271SOL     OW19711   6.130   2.165   6.481
 6271SOL    HW119712   6.203   2.232   6.469
 6271SOL    HW219713   6.052   2.189   6.424
 6272SOL     OW19714   0.445   2.611   0.201
 6272SOL    HW119715   0.349   2.622   0.174
 6272SOL    HW219716   0.451   2.603   0.300
 6273SOL     OW19717   0.789   6.245   2.738
 6273SOL    HW119718   0.811   6.300   2.658
 6273SOL    HW219719   0.781   6.149   2.712
 6274SOL     OW19720   3.448   6.213   5.925
 6274SOL    HW119721   3.391   6.248   5.999
 6274SOL    HW219722   3.464   6.115   5.938
 6275SOL     OW19723   2.446   6.419   6.712
 6275SOL    HW119724   2.414   6.466   6.630
 6275SOL    HW219725   2.374   6.360   6.747
 6276SOL     OW19726   2.122   4.491   3.860
 6276SOL    HW119727   2.025   4.469   3.850
 6276SOL    HW219728   2.154   4.458   3.949
 6277SOL     OW19729   4.852   3.445   1.087
 6277SOL    HW119730   4.943   3.462   1.048
 6277SOL    HW219731   4.859   3.381   1.163
 6278SOL     OW19732   5.517   6.768   5.071
 6278SOL    HW119733   5.551   6.681   5.036
 6278SOL    HW219734   5.584   6.809   5.132
 6279SOL     OW19735   3.927   6.474   6.706
 6279SOL    HW119736   3.968   6.556   6.667
 6279SOL    HW219737   3.993   6.398   6.701
 6280SOL     OW19738   1.052   1.737   5.253
 6280SOL    HW119739   1.083   1.716   5.345
 6280SOL    HW219740   1.121   1.707   5.187
 6281SOL     OW19741   0.294   4.659   4.055
 6281SOL    HW119742   0.354   4.716   4.111
 6281SOL    HW219743   0.234   4.605   4.114
 6282SOL     OW19744   0.042   5.865   5.937
 6282SOL    HW119745   6.970   5.859   5.902
 6282SOL    HW219746   0.106   5.832   5.868
 6283SOL     OW19747   6.922   3.558   4.913
 6283SOL    HW119748   6.947   3.477   4.859
 6283SOL    HW219749   6.942   3.541   5.009
 6284SOL     OW19750   0.760   5.177   4.708
 6284SOL    HW119751   0.670   5.182   4.751
 6284SOL    HW219752   0.798   5.270   4.699
 6285SOL     OW19753   0.117   3.586   4.497
 6285SOL    HW119754   0.180   3.642   4.444
 6285SOL    HW219755   0.116   3.618   4.592
 6286SOL     OW19756   6.242   1.681   4.342
 6286SOL    HW119757   6.289   1.687   4.255
 6286SOL    HW219758   6.149   1.648   4.328
 6287SOL     OW19759   3.530   4.993   4.854
 6287SOL    HW119760   3.507   4.986   4.757
 6287SOL    HW219761   3.547   5.089   4.877
 6288SOL     OW19762   5.149   4.506   2.373
 6288SOL    HW119763   5.100   4.428   2.334
 6288SOL    HW219764   5.191   4.480   2.460
 6289SOL     OW19765   1.923   4.797   1.130
 6289SOL    HW119766   1.944   4.890   1.101
 6289SOL    HW219767   2.006   4.752   1.163
 6290SOL     OW19768   6.641   5.204   5.910
 6290SOL    HW119769   6.710   5.275   5.922
 6290SOL    HW219770   6.561   5.224   5.966
 6291SOL     OW19771   3.995   3.377   4.325
 6291SOL    HW119772   4.003   3.294   4.379
 6291SOL    HW219773   3.961   3.355   4.234
 6292SOL     OW19774   1.338   1.914   4.883
 6292SOL    HW119775   1.381   1.967   4.811
 6292SOL    HW219776   1.258   1.963   4.918
 6293SOL     OW19777   4.393   1.015   0.738
 6293SOL    HW119778   4.394   0.940   0.672
 6293SOL    HW219779   4.325   1.083   0.710
 6294SOL     OW19780   3.559   6.619   4.117
 6294SOL    HW119781   3.655   6.609   4.090
 6294SOL    HW219782   3.546   6.710   4.157
 6295SOL     OW19783   5.759   4.291   5.719
 6295SOL    HW119784   5.846   4.256   5.686
 6295SOL    HW219785   5.764   4.305   5.818
 6296SOL     OW19786   0.645   6.387   5.853
 6296SOL    HW119787   0.663   6.478   5.814
 6296SOL    HW219788   0.568   6.393   5.917
 6297SOL     OW19789   5.513   0.866   4.416
 6297SOL    HW119790   5.604   0.901   4.393
 6297SOL    HW219791   5.479   0.914   4.496
 6298SOL     OW19792   1.586   3.441   6.892
 6298SOL    HW119793   1.487   3.449   6.880
 6298SOL    HW219794   1.619   3.364   6.837
 6299SOL     OW19795   6.176   1.993   0.938
 6299SOL    HW119796   6.117   1.926   0.984
 6299SOL    HW219797   6.122   2.072   0.910
 6300SOL     OW19798   6.726   1.112   0.000
 6300SOL    HW119799   6.709   1.048   0.076
 6300SOL    HW219800   6.751   1.201   0.037
 6301SOL     OW19801   4.003   6.934   0.305
 6301SOL    HW119802   3.938   7.010   0.298
 6301SOL    HW219803   4.018   6.912   0.401
 6302SOL     OW19804   1.642   0.359   3.657
 6302SOL    HW119805   1.618   0.273   3.612
 6302SOL    HW219806   1.722   0.344   3.717
 6303SOL     OW19807   1.738   1.042   3.651
 6303SOL    HW119808   1.760   1.067   3.745
 6303SOL    HW219809   1.737   0.943   3.642
 6304SOL     OW19810   2.343   1.437   1.284
 6304SOL    HW119811   2.355   1.378   1.203
 6304SOL    HW219812   2.425   1.491   1.298
 6305SOL     OW19813   6.412   6.882   0.571
 6305SOL    HW119814   6.317   6.851   0.583
 6305SOL    HW219815   6.435   6.945   0.645
 6306SOL     OW19816   0.288   4.308   3.990
 6306SOL    HW119817   0.305   4.247   3.912
 6306SOL    HW219818   0.195   4.294   4.024
 6307SOL     OW19819   3.647   4.141   4.813
 6307SOL    HW119820   3.655   4.221   4.872
 6307SOL    HW219821   3.567   4.087   4.839
 6308SOL     OW19822   2.104   1.955   4.472
 6308SOL    HW119823   2.155   2.031   4.512
 6308SOL    HW219824   2.006   1.973   4.480
 6309SOL     OW19825   5.831   4.689   5.170
 6309SOL    HW119826   5.890   4.762   5.206
 6309SOL    HW219827   5.776   4.651   5.244
 6310SOL     OW19828   2.285   5.905   3.121
 6310SOL    HW119829   2.322   5.997   3.126
 6310SOL    HW219830   2.281   5.876   3.025
 6311SOL     OW19831   5.282   1.168   5.835
 6311SOL    HW119832   5.274   1.157   5.934
 6311SOL    HW219833   5.332   1.252   5.815
 6312SOL     OW19834   6.739   6.306   5.448
 6312SOL    HW119835   6.677   6.383   5.433
 6312SOL    HW219836   6.709   6.254   5.528
 6313SOL     OW19837   6.712   5.728   4.308
 6313SOL    HW119838   6.801   5.714   4.351
 6313SOL    HW219839   6.725   5.770   4.218
 6314SOL     OW19840   3.949   6.885   1.435
 6314SOL    HW119841   3.898   6.834   1.365
 6314SOL    HW219842   3.984   6.822   1.504
 6315SOL     OW19843   1.994   2.553   5.315
 6315SOL    HW119844   2.093   2.551   5.327
 6315SOL    HW219845   1.970   2.621   5.246
 6316SOL     OW19846   5.224   2.046   6.706
 6316SOL    HW119847   5.202   2.067   6.801
 6316SOL    HW219848   5.321   2.063   6.689
 6317SOL     OW19849   4.676   5.025   1.404
 6317SOL    HW119850   4.599   5.005   1.464
 6317SOL    HW219851   4.657   4.989   1.313
 6318SOL     OW19852   3.761   0.020   5.851
 6318SOL    HW119853   3.706   6.995   5.781
 6318SOL    HW219854   3.755   0.119   5.837
 6319SOL     OW19855   6.407   1.977   4.755
 6319SOL    HW119856   6.502   1.946   4.762
 6319SOL    HW219857   6.405   2.077   4.751
 6320SOL     OW19858   6.284   6.508   5.506
 6320SOL    HW119859   6.195   6.531   5.544
 6320SOL    HW219860   6.290   6.409   5.492
 6321SOL     OW19861   3.795   3.914   0.738
 6321SOL    HW119862   3.804   3.830   0.792
 6321SOL    HW219863   3.882   3.933   0.692
 6322SOL     OW19864   2.265   2.644   0.797
 6322SOL    HW119865   2.329   2.616   0.726
 6322SOL    HW219866   2.190   2.578   0.803
 6323SOL     OW19867   2.644   2.700   1.656
 6323SOL    HW119868   2.652   2.611   1.701
 6323SOL    HW219869   2.705   2.702   1.577
 6324SOL     OW19870   5.022   0.717   0.491
 6324SOL    HW119871   5.091   0.702   0.562
 6324SOL    HW219872   4.983   0.808   0.502
 6325SOL     OW19873   1.829   3.175   2.595
 6325SOL    HW119874   1.825   3.076   2.584
 6325SOL    HW219875   1.914   3.210   2.555
 6326SOL     OW19876   5.056   4.912   1.598
 6326SOL    HW119877   5.017   4.858   1.674
 6326SOL    HW219878   5.062   4.854   1.517
 6327SOL     OW19879   0.503   1.084   4.962
 6327SOL    HW119880   0.506   1.174   5.005
 6327SOL    HW219881   0.594   1.042   4.969
 6328SOL     OW19882   3.299   3.691   0.300
 6328SOL    HW119883   3.329   3.616   0.358
 6328SOL    HW219884   3.220   3.737   0.342
 6329SOL     OW19885   1.812   2.734   3.069
 6329SOL    HW119886   1.787   2.761   2.976
 6329SOL    HW219887   1.739   2.761   3.131
 6330SOL     OW19888   5.147   0.341   1.668
 6330SOL    HW119889   5.095   0.311   1.747
 6330SOL    HW219890   5.109   0.299   1.585
 6331SOL     OW19891   6.268   2.463   5.500
 6331SOL    HW119892   6.215   2.388   5.540
 6331SOL    HW219893   6.207   2.526   5.453
 6332SOL     OW19894   0.393   3.046   0.600
 6332SOL    HW119895   0.348   3.008   0.681
 6332SOL    HW219896   0.418   2.971   0.538
 6333SOL     OW19897   4.647   6.182   5.035
 6333SOL    HW119898   4.695   6.123   4.971
 6333SOL    HW219899   4.708   6.206   5.110
 6334SOL     OW19900   2.838   0.874   2.117
 6334SOL    HW119901   2.831   0.881   2.018
 6334SOL    HW219902   2.932   0.853   2.143
 6335SOL     OW19903   4.310   0.486   0.406
 6335SOL    HW119904   4.249   0.448   0.336
 6335SOL    HW219905   4.315   0.586   0.395
 6336SOL     OW19906   1.236   2.596   6.394
 6336SOL    HW119907   1.195   2.633   6.311
 6336SOL    HW219908   1.181   2.623   6.473
 6337SOL     OW19909   4.932   4.821   5.369
 6337SOL    HW119910   4.913   4.740   5.313
 6337SOL    HW219911   4.983   4.794   5.450
 6338SOL     OW19912   3.588   2.127   4.203
 6338SOL    HW119913   3.612   2.133   4.300
 6338SOL    HW219914   3.488   2.123   4.194
 6339SOL     OW19915   0.705   3.660   3.548
 6339SOL    HW119916   0.712   3.728   3.621
 6339SOL    HW219917   0.792   3.656   3.498
 6340SOL     OW19918   1.882   5.189   1.943
 6340SOL    HW119919   1.846   5.225   2.029
 6340SOL    HW219920   1.941   5.110   1.962
 6341SOL     OW19921   0.165   4.086   4.440
 6341SOL    HW119922   0.236   4.029   4.398
 6341SOL    HW219923   0.196   4.181   4.445
 6342SOL     OW19924   1.935   0.924   2.263
 6342SOL    HW119925   1.884   0.921   2.178
 6342SOL    HW219926   1.904   0.851   2.324
 6343SOL     OW19927   4.833   1.740   6.326
 6343SOL    HW119928   4.807   1.723   6.421
 6343SOL    HW219929   4.873   1.657   6.287
 6344SOL     OW19930   5.154   2.022   4.644
 6344SOL    HW119931   5.170   2.093   4.575
 6344SOL    HW219932   5.060   1.988   4.635
 6345SOL     OW19933   6.074   3.052   2.602
 6345SOL    HW119934   6.122   2.991   2.539
 6345SOL    HW219935   5.990   3.085   2.558
 6346SOL     OW19936   7.013   5.475   3.960
 6346SOL    HW119937   0.070   5.477   3.898
 6346SOL    HW219938   6.940   5.420   3.919
 6347SOL     OW19939   1.801   0.863   0.845
 6347SOL    HW119940   1.730   0.798   0.871
 6347SOL    HW219941   1.761   0.953   0.833
 6348SOL     OW19942   1.716   2.861   6.082
 6348SOL    HW119943   1.734   2.776   6.132
 6348SOL    HW219944   1.671   2.927   6.142
 6349SOL     OW19945   2.286   0.657   1.351
 6349SOL    HW119946   2.311   0.602   1.431
 6349SOL    HW219947   2.215   0.723   1.376
 6350SOL     OW19948   0.509   5.067   4.325
 6350SOL    HW119949   0.500   5.088   4.423
 6350SOL    HW219950   0.445   5.122   4.273
 6351SOL     OW19951   6.173   3.570   3.815
 6351SOL    HW119952   6.090   3.608   3.775
 6351SOL    HW219953   6.194   3.618   3.901
 6352SOL     OW19954   3.540   6.467   4.945
 6352SOL    HW119955   3.474   6.459   4.871
 6352SOL    HW219956   3.573   6.562   4.950
 6353SOL     OW19957   1.537   6.815   6.121
 6353SOL    HW119958   1.524   6.809   6.022
 6353SOL    HW219959   1.612   6.879   6.141
 6354SOL     OW19960   2.700   5.234   2.912
 6354SOL    HW119961   2.728   5.315   2.964
 6354SOL    HW219962   2.781   5.179   2.890
 6355SOL     OW19963   0.861   5.036   6.981
 6355SOL    HW119964   0.910   4.958   7.020
 6355SOL    HW219965   0.854   5.107   0.029
 6356SOL     OW19966   5.001   5.635   1.846
 6356SOL    HW119967   5.096   5.607   1.831
 6356SOL    HW219968   4.999   5.716   1.905
 6357SOL     OW19969   6.157   3.569   2.531
 6357SOL    HW119970   6.060   3.547   2.529
 6357SOL    HW219971   6.208   3.492   2.569
 6358SOL     OW19972   0.247   2.308   6.616
 6358SOL    HW119973   0.278   2.307   6.711
 6358SOL    HW219974   0.148   2.298   6.614
 6359SOL     OW19975   6.211   0.536   0.267
 6359SOL    HW119976   6.242   0.448   0.232
 6359SOL    HW219977   6.213   0.603   0.193
 6360SOL     OW19978   1.289   4.640   4.175
 6360SOL    HW119979   1.218   4.571   4.189
 6360SOL    HW219980   1.294   4.700   4.255
 6361SOL     OW19981   1.204   6.442   0.868
 6361SOL    HW119982   1.241   6.532   0.843
 6361SOL    HW219983   1.271   6.372   0.846
 6362SOL     OW19984   6.839   6.129   6.956
 6362SOL    HW119985   6.875   6.167   0.020
 6362SOL    HW219986   6.775   6.055   6.976
 6363SOL     OW19987   1.903   5.211   3.743
 6363SOL    HW119988   1.892   5.160   3.828
 6363SOL    HW219989   1.884   5.308   3.760
 6364SOL     OW19990   2.487   1.686   5.428
 6364SOL    HW119991   2.483   1.767   5.370
 6364SOL    HW219992   2.397   1.643   5.431
 6365SOL     OW19993   5.883   0.246   3.978
 6365SOL    HW119994   5.932   0.162   3.955
 6365SOL    HW219995   5.937   0.299   4.043
 6366SOL     OW19996   1.289   5.997   5.929
 6366SOL    HW119997   1.386   6.003   5.952
 6366SOL    HW219998   1.278   5.946   5.843
 6367SOL     OW19999   3.553   1.405   4.673
 6367SOL    HW120000   3.587   1.329   4.727
 6367SOL    HW220001   3.604   1.488   4.696
 6368SOL     OW20002   3.290   5.209   3.526
 6368SOL    HW120003   3.307   5.118   3.566
 6368SOL    HW220004   3.220   5.255   3.579
 6369SOL     OW20005   2.527   6.205   4.314
 6369SOL    HW120006   2.449   6.247   4.361
 6369SOL    HW220007   2.495   6.128   4.260
 6370SOL     OW20008   0.095   3.346   3.382
 6370SOL    HW120009   0.054   3.287   3.451
 6370SOL    HW220010   0.163   3.405   3.425
 6371SOL     OW20011   4.696   4.570   3.007
 6371SOL    HW120012   4.673   4.507   2.933
 6371SOL    HW220013   4.629   4.645   3.009
 6372SOL     OW20014   2.000   1.003   1.717
 6372SOL    HW120015   1.968   0.996   1.623
 6372SOL    HW220016   2.033   1.096   1.735
 6373SOL     OW20017   4.696   4.278   2.374
 6373SOL    HW120018   4.629   4.242   2.440
 6373SOL    HW220019   4.788   4.252   2.402
 6374SOL     OW20020   4.062   3.832   3.040
 6374SOL    HW120021   4.035   3.820   2.945
 6374SOL    HW220022   4.150   3.880   3.044
 6375SOL     OW20023   0.140   1.638   3.464
 6375SOL    HW120024   0.119   1.720   3.516
 6375SOL    HW220025   0.107   1.648   3.370
 6376SOL     OW20026   5.385   2.549   4.864
 6376SOL    HW120027   5.436   2.585   4.942
 6376SOL    HW220028   5.294   2.589   4.861
 6377SOL     OW20029   0.038   1.746   5.127
 6377SOL    HW120030   0.069   1.715   5.217
 6377SOL    HW220031   6.980   1.691   5.099
 6378SOL     OW20032   4.544   4.761   4.092
 6378SOL    HW120033   4.628   4.744   4.143
 6378SOL    HW220034   4.470   4.706   4.130
 6379SOL     OW20035   1.155   4.308   4.617
 6379SOL    HW120036   1.138   4.405   4.636
 6379SOL    HW220037   1.242   4.280   4.658
 6380SOL     OW20038   0.542   1.890   5.325
 6380SOL    HW120039   0.559   1.989   5.333
 6380SOL    HW220040   0.464   1.875   5.263
 6381SOL     OW20041   3.953   3.102   1.909
 6381SOL    HW120042   3.906   3.113   1.997
 6381SOL    HW220043   3.948   3.006   1.881
 6382SOL     OW20044   2.304   1.935   0.598
 6382SOL    HW120045   2.279   1.857   0.540
 6382SOL    HW220046   2.378   1.987   0.554
 6383SOL     OW20047   2.032   2.736   2.852
 6383SOL    HW120048   2.023   2.637   2.850
 6383SOL    HW220049   2.116   2.764   2.807
 6384SOL     OW20050   6.420   4.046   3.037
 6384SOL    HW120051   6.469   3.960   3.021
 6384SOL    HW220052   6.466   4.121   2.990
 6385SOL     OW20053   0.134   3.970   3.643
 6385SOL    HW120054   0.046   3.963   3.690
 6385SOL    HW220055   0.195   3.897   3.674
 6386SOL     OW20056   2.354   4.572   5.909
 6386SOL    HW120057   2.335   4.666   5.881
 6386SOL    HW220058   2.330   4.510   5.835
 6387SOL     OW20059   6.733   1.542   6.306
 6387SOL    HW120060   6.676   1.615   6.269
 6387SOL    HW220061   6.679   1.485   6.368
 6388SOL     OW20062   4.058   6.234   2.152
 6388SOL    HW120063   4.125   6.290   2.104
 6388SOL    HW220064   4.067   6.249   2.251
 6389SOL     OW20065   0.017   5.542   2.261
 6389SOL    HW120066   0.091   5.476   2.278
 6389SOL    HW220067   6.968   5.533   2.332
 6390SOL     OW20068   0.507   0.626   5.761
 6390SOL    HW120069   0.537   0.557   5.695
 6390SOL    HW220070   0.432   0.680   5.722
 6391SOL     OW20071   2.933   0.031   6.098
 6391SOL    HW120072   2.933   0.092   6.018
 6391SOL    HW220073   2.889   6.966   6.074
 6392SOL     OW20074   2.781   5.532   2.660
 6392SOL    HW120075   2.849   5.473   2.704
 6392SOL    HW220076   2.782   5.622   2.703
 6393SOL     OW20077   0.083   6.331   1.991
 6393SOL    HW120078   0.112   6.278   2.071
 6393SOL    HW220079   7.016   6.374   2.010
 6394SOL     OW20080   2.355   5.323   0.759
 6394SOL    HW120081   2.386   5.371   0.676
 6394SOL    HW220082   2.255   5.327   0.764
 6395SOL     OW20083   0.322   2.648   1.723
 6395SOL    HW120084   0.316   2.739   1.680
 6395SOL    HW220085   0.230   2.615   1.744
 6396SOL     OW20086   5.227   3.821   6.737
 6396SOL    HW120087   5.310   3.809   6.682
 6396SOL    HW220088   5.248   3.804   6.833
 6397SOL     OW20089   6.123   1.588   0.891
 6397SOL    HW120090   6.204   1.596   0.949
 6397SOL    HW220091   6.110   1.673   0.841
 6398SOL     OW20092   3.072   6.991   1.526
 6398SOL    HW120093   3.170   6.976   1.541
 6398SOL    HW220094   3.021   6.966   1.608
 6399SOL     OW20095   1.622   6.505   6.441
 6399SOL    HW120096   1.527   6.526   6.420
 6399SOL    HW220097   1.638   6.518   6.539
 6400SOL     OW20098   2.729   5.996   2.047
 6400SOL    HW120099   2.649   5.963   2.096
 6400SOL    HW220100   2.749   5.936   1.970
 6401SOL     OW20101   5.205   5.493   3.404
 6401SOL    HW120102   5.178   5.473   3.498
 6401SOL    HW220103   5.299   5.462   3.389
 6402SOL     OW20104   3.063   2.206   3.433
 6402SOL    HW120105   3.132   2.155   3.381
 6402SOL    HW220106   3.107   2.282   3.480
 6403SOL     OW20107   7.020   5.922   6.376
 6403SOL    HW120108   0.067   5.856   6.344
 6403SOL    HW220109   6.981   5.891   6.462
 6404SOL     OW20110   4.547   0.678   2.487
 6404SOL    HW120111   4.515   0.641   2.400
 6404SOL    HW220112   4.474   0.672   2.555
 6405SOL     OW20113   3.136   0.357   3.857
 6405SOL    HW120114   3.135   0.352   3.957
 6405SOL    HW220115   3.218   0.311   3.823
 6406SOL     OW20116   0.893   2.956   2.325
 6406SOL    HW120117   0.805   2.998   2.304
 6406SOL    HW220118   0.924   2.902   2.247
 6407SOL     OW20119   2.828   6.655   3.999
 6407SOL    HW120120   2.770   6.574   4.005
 6407SOL    HW220121   2.909   6.634   3.944
 6408SOL     OW20122   5.605   1.231   0.338
 6408SOL    HW120123   5.580   1.302   0.404
 6408SOL    HW220124   5.651   1.156   0.386
 6409SOL     OW20125   6.748   4.058   3.464
 6409SOL    HW120126   6.779   4.148   3.496
 6409SOL    HW220127   6.691   4.069   3.383
 6410SOL     OW20128   1.980   1.465   6.713
 6410SOL    HW120129   1.959   1.421   6.626
 6410SOL    HW220130   1.916   1.433   6.783
 6411SOL     OW20131   0.835   2.987   3.126
 6411SOL    HW120132   0.764   2.996   3.196
 6411SOL    HW220133   0.920   3.030   3.160
 6412SOL     OW20134   0.667   1.711   4.635
 6412SOL    HW120135   0.702   1.723   4.542
 6412SOL    HW220136   0.588   1.770   4.649
 6413SOL     OW20137   3.668   4.938   3.704
 6413SOL    HW120138   3.751   4.886   3.683
 6413SOL    HW220139   3.655   4.941   3.803
 6414SOL     OW20140   5.713   0.862   0.333
 6414SOL    HW120141   5.638   0.892   0.392
 6414SOL    HW220142   5.798   0.860   0.386
 6415SOL     OW20143   2.038   3.361   2.891
 6415SOL    HW120144   2.039   3.318   2.802
 6415SOL    HW220145   1.944   3.382   2.917
 6416SOL     OW20146   0.885   1.179   6.658
 6416SOL    HW120147   0.791   1.205   6.676
 6416SOL    HW220148   0.887   1.099   6.598
 6417SOL     OW20149   5.828   5.102   0.739
 6417SOL    HW120150   5.852   5.098   0.642
 6417SOL    HW220151   5.738   5.061   0.754
 6418SOL     OW20152   4.836   3.933   2.198
 6418SOL    HW120153   4.759   3.908   2.257
 6418SOL    HW220154   4.802   3.989   2.122
 6419SOL     OW20155   1.924   4.555   3.185
 6419SOL    HW120156   1.967   4.464   3.185
 6419SOL    HW220157   1.994   4.624   3.205
 6420SOL     OW20158   2.596   6.061   4.644
 6420SOL    HW120159   2.561   6.083   4.553
 6420SOL    HW220160   2.654   6.135   4.676
 6421SOL     OW20161   5.210   0.097   3.178
 6421SOL    HW120162   5.162   0.159   3.240
 6421SOL    HW220163   5.203   0.003   3.213
 6422SOL     OW20164   0.127   0.758   4.063
 6422SOL    HW120165   0.042   0.706   4.064
 6422SOL    HW220166   0.107   0.856   4.068
 6423SOL     OW20167   4.915   5.289   3.403
 6423SOL    HW120168   4.901   5.358   3.474
 6423SOL    HW220169   4.998   5.237   3.422
 6424SOL     OW20170   0.362   5.327   6.135
 6424SOL    HW120171   0.276   5.338   6.185
 6424SOL    HW220172   0.371   5.232   6.105
 6425SOL     OW20173   6.310   6.094   3.404
 6425SOL    HW120174   6.389   6.152   3.428
 6425SOL    HW220175   6.337   5.998   3.408
 6426SOL     OW20176   1.345   4.996   2.867
 6426SOL    HW120177   1.416   5.067   2.867
 6426SOL    HW220178   1.362   4.934   2.790
 6427SOL     OW20179   3.539   3.824   4.768
 6427SOL    HW120180   3.566   3.846   4.675
 6427SOL    HW220181   3.611   3.852   4.831
 6428SOL     OW20182   5.909   3.802   5.928
 6428SOL    HW120183   5.846   3.742   5.977
 6428SOL    HW220184   5.950   3.751   5.852
 6429SOL     OW20185   1.363   1.814   5.752
 6429SOL    HW120186   1.385   1.911   5.741
 6429SOL    HW220187   1.384   1.785   5.845
 6430SOL     OW20188   6.132   1.096   2.898
 6430SOL    HW120189   6.082   1.152   2.832
 6430SOL    HW220190   6.090   1.105   2.988
 6431SOL     OW20191   4.908   6.771   4.033
 6431SOL    HW120192   4.928   6.865   4.008
 6431SOL    HW220193   4.822   6.767   4.083
 6432SOL     OW20194   4.524   4.509   5.860
 6432SOL    HW120195   4.467   4.430   5.835
 6432SOL    HW220196   4.465   4.584   5.889
 6433SOL     OW20197   1.683   5.298   6.025
 6433SOL    HW120198   1.645   5.343   5.944
 6433SOL    HW220199   1.628   5.219   6.049
 6434SOL     OW20200   2.467   4.485   6.625
 6434SOL    HW120201   2.553   4.489   6.676
 6434SOL    HW220202   2.403   4.425   6.673
 6435SOL     OW20203   4.870   6.505   0.915
 6435SOL    HW120204   4.788   6.484   0.862
 6435SOL    HW220205   4.844   6.528   1.008
 6436SOL     OW20206   1.448   3.089   2.950
 6436SOL    HW120207   1.457   2.994   2.920
 6436SOL    HW220208   1.500   3.148   2.888
 6437SOL     OW20209   2.543   1.301   0.630
 6437SOL    HW120210   2.572   1.388   0.669
 6437SOL    HW220211   2.597   1.227   0.670
 6438SOL     OW20212   6.383   4.245   5.583
 6438SOL    HW120213   6.313   4.312   5.558
 6438SOL    HW220214   6.399   4.249   5.682
 6439SOL     OW20215   5.844   1.374   1.888
 6439SOL    HW120216   5.905   1.447   1.858
 6439SOL    HW220217   5.837   1.305   1.817
 6440SOL     OW20218   2.284   1.846   5.708
 6440SOL    HW120219   2.290   1.944   5.689
 6440SOL    HW220220   2.372   1.802   5.689
 6441SOL     OW20221   6.499   6.485   1.666
 6441SOL    HW120222   6.509   6.459   1.570
 6441SOL    HW220223   6.582   6.459   1.716
 6442SOL     OW20224   2.389   1.779   4.663
 6442SOL    HW120225   2.331   1.735   4.594
 6442SOL    HW220226   2.332   1.817   4.735
 6443SOL     OW20227   3.905   2.221   5.748
 6443SOL    HW120228   3.856   2.301   5.782
 6443SOL    HW220229   3.844   2.166   5.691
 6444SOL     OW20230   5.656   2.669   4.238
 6444SOL    HW120231   5.578   2.713   4.194
 6444SOL    HW220232   5.737   2.682   4.181
 6445SOL     OW20233   4.118   3.331   4.836
 6445SOL    HW120234   4.177   3.262   4.877
 6445SOL    HW220235   4.031   3.290   4.809
 6446SOL     OW20236   1.116   1.030   0.013
 6446SOL    HW120237   1.099   1.066   0.105
 6446SOL    HW220238   1.099   1.102   6.967
 6447SOL     OW20239   5.194   5.041   3.781
 6447SOL    HW120240   5.262   4.968   3.787
 6447SOL    HW220241   5.123   5.026   3.849
 6448SOL     OW20242   4.182   5.680   2.295
 6448SOL    HW120243   4.135   5.664   2.208
 6448SOL    HW220244   4.183   5.778   2.315
 6449SOL     OW20245   3.861   6.113   1.020
 6449SOL    HW120246   3.930   6.185   1.020
 6449SOL    HW220247   3.887   6.042   1.086
 6450SOL     OW20248   0.496   3.956   0.809
 6450SOL    HW120249   0.581   3.998   0.777
 6450SOL    HW220250   0.464   3.890   0.741
 6451SOL     OW20251   2.298   0.841   4.574
 6451SOL    HW120252   2.336   0.933   4.567
 6451SOL    HW220253   2.323   0.788   4.494
 6452SOL     OW20254   4.545   5.692   4.119
 6452SOL    HW120255   4.579   5.735   4.202
 6452SOL    HW220256   4.528   5.595   4.137
 6453SOL     OW20257   2.281   6.415   1.721
 6453SOL    HW120258   2.333   6.368   1.650
 6453SOL    HW220259   2.343   6.470   1.777
 6454SOL     OW20260   1.074   2.214   3.049
 6454SOL    HW120261   0.985   2.205   3.092
 6454SOL    HW220262   1.146   2.214   3.119
 6455SOL     OW20263   6.787   3.262   3.515
 6455SOL    HW120264   6.702   3.211   3.501
 6455SOL    HW220265   6.807   3.316   3.433
 6456SOL     OW20266   0.857   0.576   3.464
 6456SOL    HW120267   0.905   0.649   3.513
 6456SOL    HW220268   0.779   0.615   3.415
 6457SOL     OW20269   5.099   1.712   1.310
 6457SOL    HW120270   5.044   1.780   1.263
 6457SOL    HW220271   5.128   1.747   1.399
 6458SOL     OW20272   1.113   6.436   4.618
 6458SOL    HW120273   1.173   6.488   4.678
 6458SOL    HW220274   1.127   6.466   4.523
 6459SOL     OW20275   6.352   3.175   1.152
 6459SOL    HW120276   6.297   3.179   1.235
 6459SOL    HW220277   6.407   3.259   1.145
 6460SOL     OW20278   5.955   6.230   6.045
 6460SOL    HW120279   5.910   6.158   6.098
 6460SOL    HW220280   5.935   6.217   5.948
 6461SOL     OW20281   2.130   4.697   6.106
 6461SOL    HW120282   2.181   4.743   6.034
 6461SOL    HW220283   2.164   4.604   6.118
 6462SOL     OW20284   2.328   2.415   4.329
 6462SOL    HW120285   2.304   2.488   4.264
 6462SOL    HW220286   2.289   2.329   4.299
 6463SOL     OW20287   6.124   2.839   6.951
 6463SOL    HW120288   6.062   2.873   0.001
 6463SOL    HW220289   6.213   2.817   6.991
 6464SOL     OW20290   1.067   5.619   4.991
 6464SOL    HW120291   1.063   5.584   5.084
 6464SOL    HW220292   1.122   5.557   4.935
 6465SOL     OW20293   6.941   3.031   2.822
 6465SOL    HW120294   6.880   3.110   2.817
 6465SOL    HW220295   7.002   3.040   2.901
 6466SOL     OW20296   0.874   0.971   6.477
 6466SOL    HW120297   0.899   1.015   6.390
 6466SOL    HW220298   0.941   0.900   6.499
 6467SOL     OW20299   3.289   1.829   0.295
 6467SOL    HW120300   3.228   1.817   0.216
 6467SOL    HW220301   3.235   1.825   0.379
 6468SOL     OW20302   3.027   6.346   0.515
 6468SOL    HW120303   3.069   6.285   0.581
 6468SOL    HW220304   3.090   6.362   0.439
 6469SOL     OW20305   4.483   1.479   4.677
 6469SOL    HW120306   4.449   1.442   4.590
 6469SOL    HW220307   4.583   1.476   4.678
 6470SOL     OW20308   6.196   3.033   0.512
 6470SOL    HW120309   6.262   3.102   0.539
 6470SOL    HW220310   6.105   3.074   0.507
 6471SOL     OW20311   6.607   6.447   5.805
 6471SOL    HW120312   6.577   6.365   5.757
 6471SOL    HW220313   6.559   6.526   5.768
 6472SOL     OW20314   0.265   5.429   1.697
 6472SOL    HW120315   0.247   5.523   1.726
 6472SOL    HW220316   0.182   5.388   1.661
 6473SOL     OW20317   3.131   1.417   4.341
 6473SOL    HW120318   3.171   1.402   4.251
 6473SOL    HW220319   3.204   1.432   4.408
 6474SOL     OW20320   2.786   4.287   5.786
 6474SOL    HW120321   2.777   4.375   5.738
 6474SOL    HW220322   2.871   4.243   5.758
 6475SOL     OW20323   5.699   5.344   3.871
 6475SOL    HW120324   5.749   5.266   3.833
 6475SOL    HW220325   5.676   5.408   3.797
 6476SOL     OW20326   4.044   3.633   1.505
 6476SOL    HW120327   4.069   3.554   1.450
 6476SOL    HW220328   3.992   3.698   1.449
 6477SOL     OW20329   6.065   5.022   1.000
 6477SOL    HW120330   6.073   5.096   0.934
 6477SOL    HW220331   5.973   4.985   0.999
 6478SOL     OW20332   3.496   0.475   1.593
 6478SOL    HW120333   3.435   0.419   1.537
 6478SOL    HW220334   3.512   0.562   1.548
 6479SOL     OW20335   4.350   5.273   3.705
 6479SOL    HW120336   4.335   5.367   3.738
 6479SOL    HW220337   4.419   5.229   3.762
 6480SOL     OW20338   2.693   1.456   6.313
 6480SOL    HW120339   2.761   1.524   6.339
 6480SOL    HW220340   2.670   1.467   6.216
 6481SOL     OW20341   3.609   2.077   2.286
 6481SOL    HW120342   3.511   2.057   2.276
 6481SOL    HW220343   3.638   2.136   2.210
 6482SOL     OW20344   6.558   0.712   6.364
 6482SOL    HW120345   6.600   0.801   6.349
 6482SOL    HW220346   6.611   0.642   6.316
 6483SOL     OW20347   0.999   6.703   2.304
 6483SOL    HW120348   0.940   6.784   2.292
 6483SOL    HW220349   0.945   6.628   2.343
 6484SOL     OW20350   3.283   6.801   1.138
 6484SOL    HW120351   3.340   6.828   1.061
 6484SOL    HW220352   3.196   6.850   1.134
 6485SOL     OW20353   2.029   4.993   3.424
 6485SOL    HW120354   2.050   4.898   3.400
 6485SOL    HW220355   1.979   4.995   3.510
 6486SOL     OW20356   2.450   4.434   3.654
 6486SOL    HW120357   2.541   4.438   3.694
 6486SOL    HW220358   2.395   4.510   3.687
 6487SOL     OW20359   0.363   6.445   5.219
 6487SOL    HW120360   0.430   6.394   5.165
 6487SOL    HW220361   0.381   6.543   5.211
 6488SOL     OW20362   3.533   6.034   4.401
 6488SOL    HW120363   3.611   6.007   4.344
 6488SOL    HW220364   3.470   6.090   4.347
 6489SOL     OW20365   3.274   2.616   6.268
 6489SOL    HW120366   3.201   2.684   6.262
 6489SOL    HW220367   3.243   2.530   6.227
 6490SOL     OW20368   4.301   0.584   6.882
 6490SOL    HW120369   4.286   0.675   6.843
 6490SOL    HW220370   4.351   0.592   6.968
 6491SOL     OW20371   4.029   0.806   0.593
 6491SOL    HW120372   3.993   0.760   0.513
 6491SOL    HW220373   4.039   0.741   0.668
 6492SOL     OW20374   4.087   4.761   6.757
 6492SOL    HW120375   4.087   4.711   6.844
 6492SOL    HW220376   4.181   4.768   6.722
 6493SOL     OW20377   1.077   4.806   5.112
 6493SOL    HW120378   1.153   4.862   5.146
 6493SOL    HW220379   1.014   4.787   5.187
 6494SOL     OW20380   0.050   0.324   3.939
 6494SOL    HW120381   0.056   0.344   3.841
 6494SOL    HW220382   0.143   0.313   3.976
 6495SOL     OW20383   5.791   0.128   4.769
 6495SOL    HW120384   5.872   0.137   4.827
 6495SOL    HW220385   5.710   0.157   4.820
 6496SOL     OW20386   6.358   0.534   2.790
 6496SOL    HW120387   6.273   0.541   2.843
 6496SOL    HW220388   6.384   0.624   2.757
 6497SOL     OW20389   1.175   1.517   0.812
 6497SOL    HW120390   1.227   1.434   0.832
 6497SOL    HW220391   1.215   1.595   0.862
 6498SOL     OW20392   1.755   3.136   3.836
 6498SOL    HW120393   1.853   3.114   3.832
 6498SOL    HW220394   1.743   3.235   3.838
 6499SOL     OW20395   5.542   2.951   5.629
 6499SOL    HW120396   5.581   2.959   5.538
 6499SOL    HW220397   5.511   3.040   5.660
 6500SOL     OW20398   6.934   3.922   4.347
 6500SOL    HW120399   6.887   3.915   4.435
 6500SOL    HW220400   7.021   3.970   4.360
 6501SOL     OW20401   6.894   1.723   6.735
 6501SOL    HW120402   6.940   1.723   6.647
 6501SOL    HW220403   6.941   1.660   6.798
 6502SOL     OW20404   6.953   1.946   1.558
 6502SOL    HW120405   6.882   1.969   1.491
 6502SOL    HW220406   0.011   2.005   1.545
 6503SOL     OW20407   5.028   1.192   3.351
 6503SOL    HW120408   5.008   1.094   3.356
 6503SOL    HW220409   5.127   1.207   3.358
 6504SOL     OW20410   4.098   6.211   5.386
 6504SOL    HW120411   4.130   6.156   5.309
 6504SOL    HW220412   4.157   6.291   5.397
 6505SOL     OW20413   5.367   6.053   0.573
 6505SOL    HW120414   5.283   6.060   0.628
 6505SOL    HW220415   5.376   5.960   0.538
 6506SOL     OW20416   6.331   2.409   2.718
 6506SOL    HW120417   6.247   2.357   2.701
 6506SOL    HW220418   6.308   2.504   2.738
 6507SOL     OW20419   1.409   5.214   5.531
 6507SOL    HW120420   1.477   5.178   5.468
 6507SOL    HW220421   1.402   5.155   5.611
 6508SOL     OW20422   1.573   0.728   2.624
 6508SOL    HW120423   1.611   0.665   2.557
 6508SOL    HW220424   1.586   0.692   2.716
 6509SOL     OW20425   3.660   1.898   4.481
 6509SOL    HW120426   3.739   1.948   4.447
 6509SOL    HW220427   3.577   1.951   4.463
 6510SOL     OW20428   6.542   5.424   6.916
 6510SOL    HW120429   6.553   5.391   7.010
 6510SOL    HW220430   6.562   5.350   6.852
 6511SOL     OW20431   4.101   1.574   4.497
 6511SOL    HW120432   4.047   1.654   4.469
 6511SOL    HW220433   4.193   1.580   4.457
 6512SOL     OW20434   4.453   6.485   1.968
 6512SOL    HW120435   4.494   6.564   2.012
 6512SOL    HW220436   4.426   6.508   1.875
 6513SOL     OW20437   2.974   5.131   2.823
 6513SOL    HW120438   2.946   5.114   2.729
 6513SOL    HW220439   3.018   5.049   2.860
 6514SOL     OW20440   6.433   1.011   3.641
 6514SOL    HW120441   6.533   1.006   3.651
 6514SOL    HW220442   6.390   0.982   3.727
 6515SOL     OW20443   0.085   4.591   4.231
 6515SOL    HW120444   0.055   4.512   4.176
 6515SOL    HW220445   0.101   4.561   4.325
 6516SOL     OW20446   7.006   3.485   1.398
 6516SOL    HW120447   0.034   3.429   1.464
 6516SOL    HW220448   6.908   3.465   1.404
 6517SOL     OW20449   6.414   1.201   1.437
 6517SOL    HW120450   6.390   1.131   1.369
 6517SOL    HW220451   6.470   1.272   1.394
 6518SOL     OW20452   6.914   0.750   0.022
 6518SOL    HW120453   6.819   0.748   7.012
 6518SOL    HW220454   6.956   0.661   0.007
 6519SOL     OW20455   1.197   2.085   3.431
 6519SOL    HW120456   1.231   2.126   3.347
 6519SOL    HW220457   1.253   2.114   3.508
 6520SOL     OW20458   5.556   5.764   2.182
 6520SOL    HW120459   5.494   5.697   2.222
 6520SOL    HW220460   5.545   5.764   2.082
 6521SOL     OW20461   1.841   2.211   3.807
 6521SOL    HW120462   1.814   2.267   3.729
 6521SOL    HW220463   1.761   2.189   3.862
 6522SOL     OW20464   3.121   5.437   6.153
 6522SOL    HW120465   3.154   5.382   6.230
 6522SOL    HW220466   3.022   5.428   6.146
 6523SOL     OW20467   3.977   1.125   6.493
 6523SOL    HW120468   4.018   1.207   6.534
 6523SOL    HW220469   3.982   1.049   6.558
 6524SOL     OW20470   3.153   3.765   1.676
 6524SOL    HW120471   3.115   3.818   1.752
 6524SOL    HW220472   3.247   3.737   1.699
 6525SOL     OW20473   2.629   5.038   2.508
 6525SOL    HW120474   2.724   5.068   2.513
 6525SOL    HW220475   2.621   4.944   2.542
 6526SOL     OW20476   2.193   0.073   6.822
 6526SOL    HW120477   2.191   0.173   6.819
 6526SOL    HW220478   2.100   0.038   6.824
 6527SOL     OW20479   0.739   2.197   4.604
 6527SOL    HW120480   0.744   2.168   4.508
 6527SOL    HW220481   0.678   2.135   4.654
 6528SOL     OW20482   0.241   0.654   5.405
 6528SOL    HW120483   0.240   0.574   5.466
 6528SOL    HW220484   0.278   0.733   5.454
 6529SOL     OW20485   1.464   0.967   2.560
 6529SOL    HW120486   1.509   0.889   2.604
 6529SOL    HW220487   1.388   0.998   2.616
 6530SOL     OW20488   6.639   3.732   0.226
 6530SOL    HW120489   6.643   3.805   0.295
 6530SOL    HW220490   6.544   3.714   0.201
 6531SOL     OW20491   5.797   2.975   5.287
 6531SOL    HW120492   5.858   3.041   5.330
 6531SOL    HW220493   5.846   2.890   5.270
 6532SOL     OW20494   6.890   1.131   0.657
 6532SOL    HW120495   6.858   1.210   0.709
 6532SOL    HW220496   6.883   1.048   0.713
 6533SOL     OW20497   4.572   6.963   1.296
 6533SOL    HW120498   4.631   6.969   1.215
 6533SOL    HW220499   4.544   6.869   1.309
 6534SOL     OW20500   3.659   4.754   1.406
 6534SOL    HW120501   3.747   4.708   1.421
 6534SOL    HW220502   3.617   4.774   1.494
 6535SOL     OW20503   6.081   4.343   4.259
 6535SOL    HW120504   6.041   4.387   4.179
 6535SOL    HW220505   6.011   4.332   4.330
 6536SOL     OW20506   1.403   1.253   5.818
 6536SOL    HW120507   1.355   1.312   5.883
 6536SOL    HW220508   1.477   1.304   5.774
 6537SOL     OW20509   6.838   5.576   0.266
 6537SOL    HW120510   6.780   5.656   0.253
 6537SOL    HW220511   6.784   5.493   0.255
 6538SOL     OW20512   2.764   4.129   6.722
 6538SOL    HW120513   2.743   4.068   6.799
 6538SOL    HW220514   2.855   4.168   6.733
 6539SOL     OW20515   4.062   0.304   5.861
 6539SOL    HW120516   4.087   0.390   5.818
 6539SOL    HW220517   4.053   0.233   5.792
 6540SOL     OW20518   4.586   1.825   6.035
 6540SOL    HW120519   4.626   1.910   6.070
 6540SOL    HW220520   4.488   1.825   6.051
 6541SOL     OW20521   4.930   2.702   5.203
 6541SOL    HW120522   4.933   2.710   5.103
 6541SOL    HW220523   5.023   2.708   5.239
 6542SOL     OW20524   6.214   3.698   4.078
 6542SOL    HW120525   6.146   3.760   4.039
 6542SOL    HW220526   6.304   3.740   4.071
 6543SOL     OW20527   5.701   2.983   5.864
 6543SOL    HW120528   5.712   2.892   5.904
 6543SOL    HW220529   5.625   2.982   5.798
 6544SOL     OW20530   0.777   6.261   3.026
 6544SOL    HW120531   0.775   6.262   2.926
 6544SOL    HW220532   0.871   6.275   3.058
 6545SOL     OW20533   3.816   2.470   0.645
 6545SOL    HW120534   3.725   2.428   0.652
 6545SOL    HW220535   3.808   2.568   0.663
 6546SOL     OW20536   2.700   4.671   0.392
 6546SOL    HW120537   2.657   4.595   0.440
 6546SOL    HW220538   2.797   4.651   0.377
 6547SOL     OW20539   4.752   1.084   5.467
 6547SOL    HW120540   4.791   0.993   5.455
 6547SOL    HW220541   4.706   1.089   5.556
 6548SOL     OW20542   1.098   4.043   0.278
 6548SOL    HW120543   1.066   3.996   0.196
 6548SOL    HW220544   1.040   4.018   0.355
 6549SOL     OW20545   4.666   0.976   1.540
 6549SOL    HW120546   4.659   0.947   1.444
 6549SOL    HW220547   4.741   1.042   1.549
 6550SOL     OW20548   0.091   6.555   4.294
 6550SOL    HW120549   0.168   6.492   4.300
 6550SOL    HW220550   0.096   6.606   4.208
 6551SOL     OW20551   1.867   5.043   2.465
 6551SOL    HW120552   1.963   5.064   2.481
 6551SOL    HW220553   1.812   5.125   2.480
 6552SOL     OW20554   1.903   6.617   6.672
 6552SOL    HW120555   1.808   6.589   6.681
 6552SOL    HW220556   1.959   6.539   6.644
 6553SOL     OW20557   0.307   2.178   3.294
 6553SOL    HW120558   0.285   2.257   3.351
 6553SOL    HW220559   0.229   2.115   3.293
 6554SOL     OW20560   0.368   1.372   4.584
 6554SOL    HW120561   0.374   1.356   4.682
 6554SOL    HW220562   0.446   1.426   4.554
 6555SOL     OW20563   6.111   2.249   2.678
 6555SOL    HW120564   6.083   2.167   2.629
 6555SOL    HW220565   6.078   2.246   2.772
 6556SOL     OW20566   5.217   4.770   4.951
 6556SOL    HW120567   5.279   4.694   4.971
 6556SOL    HW220568   5.124   4.734   4.940
 6557SOL     OW20569   3.320   6.635   2.124
 6557SOL    HW120570   3.292   6.662   2.032
 6557SOL    HW220571   3.367   6.711   2.168
 6558SOL     OW20572   0.033   4.819   6.414
 6558SOL    HW120573   0.054   4.834   6.510
 6558SOL    HW220574   6.977   4.877   6.387
 6559SOL     OW20575   0.772   3.672   6.252
 6559SOL    HW120576   0.787   3.720   6.339
 6559SOL    HW220577   0.704   3.599   6.265
 6560SOL     OW20578   4.495   5.233   1.277
 6560SOL    HW120579   4.470   5.279   1.362
 6560SOL    HW220580   4.549   5.295   1.221
 6561SOL     OW20581   3.526   3.937   1.273
 6561SOL    HW120582   3.592   4.003   1.310
 6561SOL    HW220583   3.528   3.853   1.328
 6562SOL     OW20584   5.985   3.732   1.127
 6562SOL    HW120585   6.021   3.789   1.201
 6562SOL    HW220586   6.060   3.709   1.064
 6563SOL     OW20587   5.509   6.393   0.349
 6563SOL    HW120588   5.589   6.414   0.294
 6563SOL    HW220589   5.466   6.309   0.315
 6564SOL     OW20590   6.851   4.410   3.339
 6564SOL    HW120591   6.818   4.361   3.420
 6564SOL    HW220592   6.914   4.483   3.368
 6565SOL     OW20593   6.020   2.264   3.590
 6565SOL    HW120594   6.088   2.293   3.522
 6565SOL    HW220595   6.063   2.205   3.658
 6566SOL     OW20596   3.424   6.101   2.477
 6566SOL    HW120597   3.388   6.140   2.392
 6566SOL    HW220598   3.521   6.078   2.464
 6567SOL     OW20599   4.194   1.137   2.125
 6567SOL    HW120600   4.146   1.056   2.159
 6567SOL    HW220601   4.239   1.183   2.202
 6568SOL     OW20602   3.787   1.116   3.528
 6568SOL    HW120603   3.863   1.051   3.528
 6568SOL    HW220604   3.703   1.067   3.501
 6569SOL     OW20605   3.138   3.369   6.383
 6569SOL    HW120606   3.169   3.280   6.417
 6569SOL    HW220607   3.138   3.368   6.283
 6570SOL     OW20608   3.797   0.653   2.448
 6570SOL    HW120609   3.862   0.577   2.447
 6570SOL    HW220610   3.741   0.650   2.365
 6571SOL     OW20611   3.072   5.904   1.549
 6571SOL    HW120612   3.047   5.837   1.619
 6571SOL    HW220613   3.050   5.996   1.581
 6572SOL     OW20614   6.490   5.109   5.709
 6572SOL    HW120615   6.473   5.018   5.745
 6572SOL    HW220616   6.562   5.153   5.763
 6573SOL     OW20617   2.315   1.435   2.312
 6573SOL    HW120618   2.376   1.426   2.233
 6573SOL    HW220619   2.224   1.401   2.288
 6574SOL     OW20620   3.203   5.819   2.903
 6574SOL    HW120621   3.147   5.743   2.936
 6574SOL    HW220622   3.219   5.809   2.805
 6575SOL     OW20623   1.062   0.277   2.850
 6575SOL    HW120624   0.991   0.213   2.880
 6575SOL    HW220625   1.067   0.353   2.913
 6576SOL     OW20626   2.138   5.766   6.393
 6576SOL    HW120627   2.153   5.716   6.308
 6576SOL    HW220628   2.226   5.783   6.438
 6577SOL     OW20629   0.697   1.226   4.362
 6577SOL    HW120630   0.607   1.190   4.339
 6577SOL    HW220631   0.715   1.212   4.460
 6578SOL     OW20632   1.467   5.175   3.216
 6578SOL    HW120633   1.432   5.269   3.223
 6578SOL    HW220634   1.519   5.153   3.299
 6579SOL     OW20635   6.444   3.733   5.001
 6579SOL    HW120636   6.452   3.827   4.967
 6579SOL    HW220637   6.511   3.675   4.953
 6580SOL     OW20638   0.336   2.239   0.479
 6580SOL    HW120639   0.327   2.171   0.551
 6580SOL    HW220640   0.411   2.213   0.418
 6581SOL     OW20641   2.705   0.671   6.824
 6581SOL    HW120642   2.733   0.695   6.730
 6581SOL    HW220643   2.635   0.735   6.855
 6582SOL     OW20644   0.794   1.510   1.839
 6582SOL    HW120645   0.876   1.493   1.893
 6582SOL    HW220646   0.736   1.577   1.886
 6583SOL     OW20647   4.264   0.905   5.018
 6583SOL    HW120648   4.241   0.813   4.986
 6583SOL    HW220649   4.269   0.967   4.940
 6584SOL     OW20650   4.656   2.286   0.964
 6584SOL    HW120651   4.577   2.283   1.025
 6584SOL    HW220652   4.721   2.355   0.997
 6585SOL     OW20653   5.644   6.752   0.158
 6585SOL    HW120654   5.551   6.718   0.152
 6585SOL    HW220655   5.666   6.805   0.076
 6586SOL     OW20656   0.499   1.628   5.526
 6586SOL    HW120657   0.522   1.707   5.469
 6586SOL    HW220658   0.517   1.649   5.622
 6587SOL     OW20659   2.061   6.929   4.799
 6587SOL    HW120660   2.043   6.919   4.896
 6587SOL    HW220661   2.141   6.874   4.774
 6588SOL     OW20662   0.569   4.064   1.658
 6588SOL    HW120663   0.594   3.974   1.620
 6588SOL    HW220664   0.636   4.132   1.629
 6589SOL     OW20665   5.131   1.063   0.344
 6589SOL    HW120666   5.195   1.015   0.284
 6589SOL    HW220667   5.172   1.073   0.435
 6590SOL     OW20668   1.058   0.665   5.734
 6590SOL    HW120669   1.096   0.699   5.820
 6590SOL    HW220670   0.960   0.683   5.731
 6591SOL     OW20671   5.396   5.419   1.970
 6591SOL    HW120672   5.422   5.462   2.056
 6591SOL    HW220673   5.313   5.366   1.983
 6592SOL     OW20674   6.189   0.416   3.768
 6592SOL    HW120675   6.241   0.398   3.851
 6592SOL    HW220676   6.183   0.332   3.714
 6593SOL     OW20677   2.303   2.101   2.360
 6593SOL    HW120678   2.284   2.060   2.449
 6593SOL    HW220679   2.382   2.162   2.368
 6594SOL     OW20680   3.341   2.103   7.000
 6594SOL    HW120681   3.269   2.061   6.945
 6594SOL    HW220682   3.431   2.073   6.967
 6595SOL     OW20683   0.568   3.887   6.885
 6595SOL    HW120684   0.586   3.978   6.847
 6595SOL    HW220685   0.639   3.864   6.951
 6596SOL     OW20686   3.267   6.400   4.414
 6596SOL    HW120687   3.209   6.398   4.495
 6596SOL    HW220688   3.214   6.430   4.335
 6597SOL     OW20689   1.818   5.533   1.471
 6597SOL    HW120690   1.719   5.518   1.483
 6597SOL    HW220691   1.853   5.584   1.550
 6598SOL     OW20692   1.682   6.247   4.663
 6598SOL    HW120693   1.583   6.238   4.646
 6598SOL    HW220694   1.722   6.157   4.678
 6599SOL     OW20695   4.488   6.202   6.030
 6599SOL    HW120696   4.401   6.217   6.076
 6599SOL    HW220697   4.485   6.115   5.980
 6600SOL     OW20698   5.130   5.167   5.561
 6600SOL    HW120699   5.164   5.102   5.493
 6600SOL    HW220700   5.207   5.216   5.601
 6601SOL     OW20701   1.134   1.474   5.502
 6601SOL    HW120702   1.205   1.536   5.469
 6601SOL    HW220703   1.177   1.393   5.542
 6602SOL     OW20704   0.672   0.860   2.213
 6602SOL    HW120705   0.681   0.952   2.175
 6602SOL    HW220706   0.599   0.859   2.281
 6603SOL     OW20707   6.900   2.657   3.984
 6603SOL    HW120708   6.837   2.588   4.020
 6603SOL    HW220709   6.870   2.748   4.013
 6604SOL     OW20710   2.285   6.968   1.329
 6604SOL    HW120711   2.214   7.018   1.380
 6604SOL    HW220712   2.248   6.881   1.299
 6605SOL     OW20713   5.529   3.594   1.464
 6605SOL    HW120714   5.539   3.541   1.548
 6605SOL    HW220715   5.571   3.545   1.388
 6606SOL     OW20716   6.755   5.875   1.522
 6606SOL    HW120717   6.727   5.784   1.492
 6606SOL    HW220718   6.716   5.944   1.460
 6607SOL     OW20719   1.746   3.463   2.474
 6607SOL    HW120720   1.756   3.371   2.434
 6607SOL    HW220721   1.775   3.461   2.569
 6608SOL     OW20722   6.096   5.893   0.773
 6608SOL    HW120723   6.006   5.889   0.817
 6608SOL    HW220724   6.166   5.863   0.838
 6609SOL     OW20725   4.365   1.237   5.716
 6609SOL    HW120726   4.372   1.254   5.617
 6609SOL    HW220727   4.351   1.139   5.731
 6610SOL     OW20728   2.797   0.119   6.968
 6610SOL    HW120729   2.719   0.056   6.961
 6610SOL    HW220730   2.771   0.198   0.002
 6611SOL     OW20731   5.645   3.014   3.569
 6611SOL    HW120732   5.712   3.044   3.638
 6611SOL    HW220733   5.614   2.921   3.592
 6612SOL     OW20734   6.079   2.160   6.061
 6612SOL    HW120735   6.024   2.152   6.144
 6612SOL    HW220736   6.168   2.199   6.083
 6613SOL     OW20737   6.400   6.154   4.732
 6613SOL    HW120738   6.478   6.172   4.792
 6613SOL    HW220739   6.368   6.240   4.692
 6614SOL     OW20740   5.260   6.727   0.539
 6614SOL    HW120741   5.307   6.739   0.626
 6614SOL    HW220742   5.296   6.793   0.472
 6615SOL     OW20743   1.233   4.930   2.485
 6615SOL    HW120744   1.222   4.831   2.476
 6615SOL    HW220745   1.277   4.966   2.403
 6616SOL     OW20746   4.039   0.965   5.648
 6616SOL    HW120747   3.999   1.047   5.690
 6616SOL    HW220748   4.119   0.936   5.700
 6617SOL     OW20749   4.249   4.914   3.090
 6617SOL    HW120750   4.278   4.908   2.995
 6617SOL    HW220751   4.256   5.008   3.122
 6618SOL     OW20752   1.467   2.507   2.403
 6618SOL    HW120753   1.446   2.413   2.375
 6618SOL    HW220754   1.521   2.551   2.331
 6619SOL     OW20755   6.362   6.858   4.150
 6619SOL    HW120756   6.386   6.898   4.061
 6619SOL    HW220757   6.432   6.883   4.217
 6620SOL     OW20758   1.664   3.185   4.820
 6620SOL    HW120759   1.607   3.106   4.839
 6620SOL    HW220760   1.626   3.236   4.743
 6621SOL     OW20761   2.783   2.961   6.257
 6621SOL    HW120762   2.864   3.006   6.219
 6621SOL    HW220763   2.738   3.023   6.322
 6622SOL     OW20764   5.941   6.612   1.166
 6622SOL    HW120765   5.865   6.618   1.102
 6622SOL    HW220766   5.958   6.516   1.189
 6623SOL     OW20767   3.065   3.131   5.898
 6623SOL    HW120768   3.125   3.155   5.822
 6623SOL    HW220769   2.980   3.183   5.890
 6624SOL     OW20770   0.772   5.188   6.031
 6624SOL    HW120771   0.768   5.092   6.060
 6624SOL    HW220772   0.750   5.194   5.933
 6625SOL     OW20773   4.890   2.081   5.527
 6625SOL    HW120774   4.796   2.083   5.562
 6625SOL    HW220775   4.889   2.097   5.429
 6626SOL     OW20776   4.849   5.108   5.606
 6626SOL    HW120777   4.806   5.140   5.522
 6626SOL    HW220778   4.946   5.132   5.605
 6627SOL     OW20779   2.327   6.721   4.797
 6627SOL    HW120780   2.358   6.754   4.707
 6627SOL    HW220781   2.254   6.655   4.784
 6628SOL     OW20782   4.566   4.627   5.043
 6628SOL    HW120783   4.605   4.579   5.122
 6628SOL    HW220784   4.468   4.611   5.039
 6629SOL     OW20785   4.460   5.798   0.420
 6629SOL    HW120786   4.417   5.889   0.424
 6629SOL    HW220787   4.394   5.731   0.387
 6630SOL     OW20788   3.781   0.877   1.956
 6630SOL    HW120789   3.867   0.876   1.905
 6630SOL    HW220790   3.798   0.913   2.048
 6631SOL     OW20791   2.782   5.665   3.694
 6631SOL    HW120792   2.734   5.750   3.670
 6631SOL    HW220793   2.878   5.686   3.711
 6632SOL     OW20794   6.891   6.345   1.336
 6632SOL    HW120795   6.940   6.431   1.327
 6632SOL    HW220796   6.861   6.333   1.430
 6633SOL     OW20797   0.722   4.309   6.300
 6633SOL    HW120798   0.740   4.259   6.215
 6633SOL    HW220799   0.625   4.332   6.304
 6634SOL     OW20800   5.530   2.154   4.086
 6634SOL    HW120801   5.513   2.151   4.185
 6634SOL    HW220802   5.547   2.248   4.057
 6635SOL     OW20803   4.524   4.773   3.030
 6635SOL    HW120804   4.461   4.736   3.098
 6635SOL    HW220805   4.539   4.870   3.048
 6636SOL     OW20806   5.137   2.622   5.954
 6636SOL    HW120807   5.204   2.688   5.987
 6636SOL    HW220808   5.048   2.666   5.946
 6637SOL     OW20809   1.534   0.252   6.371
 6637SOL    HW120810   1.460   0.286   6.313
 6637SOL    HW220811   1.499   0.178   6.429
 6638SOL     OW20812   3.265   3.566   3.901
 6638SOL    HW120813   3.242   3.546   3.996
 6638SOL    HW220814   3.274   3.665   3.889
 6639SOL     OW20815   5.218   4.580   6.711
 6639SOL    HW120816   5.260   4.554   6.625
 6639SOL    HW220817   5.277   4.645   6.759
 6640SOL     OW20818   1.606   1.351   5.010
 6640SOL    HW120819   1.604   1.450   5.022
 6640SOL    HW220820   1.700   1.318   5.014
 6641SOL     OW20821   2.169   1.941   6.591
 6641SOL    HW120822   2.144   1.970   6.683
 6641SOL    HW220823   2.259   1.896   6.593
 6642SOL     OW20824   2.574   5.671   6.677
 6642SOL    HW120825   2.548   5.583   6.717
 6642SOL    HW220826   2.649   5.710   6.730
 6643SOL     OW20827   5.809   5.071   0.221
 6643SOL    HW120828   5.744   5.140   0.187
 6643SOL    HW220829   5.759   4.993   0.258
 6644SOL     OW20830   2.442   5.387   2.037
 6644SOL    HW120831   2.364   5.419   1.982
 6644SOL    HW220832   2.491   5.466   2.073
 6645SOL     OW20833   6.370   5.135   0.612
 6645SOL    HW120834   6.435   5.061   0.627
 6645SOL    HW220835   6.383   5.205   0.683
 6646SOL     OW20836   4.521   6.884   4.949
 6646SOL    HW120837   4.523   6.947   5.027
 6646SOL    HW220838   4.431   6.841   4.943
 6647SOL     OW20839   4.809   0.951   1.809
 6647SOL    HW120840   4.832   0.930   1.715
 6647SOL    HW220841   4.740   1.023   1.811
 6648SOL     OW20842   4.575   6.576   3.250
 6648SOL    HW120843   4.606   6.648   3.311
 6648SOL    HW220844   4.564   6.491   3.301
 6649SOL     OW20845   4.889   0.771   6.688
 6649SOL    HW120846   4.845   0.844   6.636
 6649SOL    HW220847   4.901   0.800   6.783
 6650SOL     OW20848   3.601   1.415   5.323
 6650SOL    HW120849   3.698   1.436   5.312
 6650SOL    HW220850   3.553   1.436   5.238
 6651SOL     OW20851   2.154   2.039   5.466
 6651SOL    HW120852   2.100   2.032   5.383
 6651SOL    HW220853   2.124   1.969   5.531
 6652SOL     OW20854   0.589   4.550   0.696
 6652SOL    HW120855   0.670   4.502   0.661
 6652SOL    HW220856   0.592   4.549   0.796
 6653SOL     OW20857   2.873   3.415   2.534
 6653SOL    HW120858   2.940   3.341   2.543
 6653SOL    HW220859   2.848   3.427   2.438
 6654SOL     OW20860   1.155   4.304   1.331
 6654SOL    HW120861   1.152   4.368   1.408
 6654SOL    HW220862   1.190   4.351   1.250
 6655SOL     OW20863   0.835   6.908   3.514
 6655SOL    HW120864   0.897   6.887   3.438
 6655SOL    HW220865   0.742   6.923   3.478
 6656SOL     OW20866   5.835   1.786   3.763
 6656SOL    HW120867   5.838   1.748   3.856
 6656SOL    HW220868   5.817   1.884   3.768
 6657SOL     OW20869   5.386   5.486   6.440
 6657SOL    HW120870   5.310   5.424   6.456
 6657SOL    HW220871   5.471   5.442   6.470
 6658SOL     OW20872   6.555   1.047   4.430
 6658SOL    HW120873   6.538   1.145   4.444
 6658SOL    HW220874   6.648   1.033   4.396
 6659SOL     OW20875   2.116   2.384   0.289
 6659SOL    HW120876   2.134   2.331   0.206
 6659SOL    HW220877   2.147   2.333   0.369
 6660SOL     OW20878   1.086   4.903   1.322
 6660SOL    HW120879   1.145   4.831   1.358
 6660SOL    HW220880   1.050   4.958   1.397
 6661SOL     OW20881   0.974   6.566   5.196
 6661SOL    HW120882   1.064   6.579   5.155
 6661SOL    HW220883   0.962   6.469   5.219
 6662SOL     OW20884   1.117   0.710   0.195
 6662SOL    HW120885   1.182   0.772   0.239
 6662SOL    HW220886   1.167   0.641   0.142
 6663SOL     OW20887   6.483   4.624   4.275
 6663SOL    HW120888   6.556   4.591   4.214
 6663SOL    HW220889   6.413   4.670   4.221
 6664SOL     OW20890   2.017   6.184   0.484
 6664SOL    HW120891   2.031   6.233   0.398
 6664SOL    HW220892   1.922   6.153   0.489
 6665SOL     OW20893   2.016   6.139   4.111
 6665SOL    HW120894   1.984   6.117   4.019
 6665SOL    HW220895   1.938   6.144   4.173
 6666SOL     OW20896   6.513   6.834   5.405
 6666SOL    HW120897   6.441   6.795   5.347
 6666SOL    HW220898   6.491   6.929   5.425
 6667SOL     OW20899   6.669   5.985   6.553
 6667SOL    HW120900   6.645   6.077   6.523
 6667SOL    HW220901   6.635   5.918   6.486
 6668SOL     OW20902   0.343   5.288   1.446
 6668SOL    HW120903   0.307   5.354   1.512
 6668SOL    HW220904   0.269   5.253   1.389
 6669SOL     OW20905   1.581   2.983   3.704
 6669SOL    HW120906   1.501   2.950   3.753
 6669SOL    HW220907   1.637   3.038   3.766
 6670SOL     OW20908   3.637   2.075   5.348
 6670SOL    HW120909   3.562   2.136   5.325
 6670SOL    HW220910   3.617   1.982   5.318
 6671SOL     OW20911   6.411   5.701   0.459
 6671SOL    HW120912   6.370   5.688   0.369
 6671SOL    HW220913   6.449   5.793   0.465
 6672SOL     OW20914   6.473   2.025   6.225
 6672SOL    HW120915   6.444   2.032   6.130
 6672SOL    HW220916   6.395   1.999   6.282
 6673SOL     OW20917   5.634   5.534   4.550
 6673SOL    HW120918   5.625   5.607   4.482
 6673SOL    HW220919   5.605   5.447   4.510
 6674SOL     OW20920   0.752   4.915   6.085
 6674SOL    HW120921   0.715   4.897   6.176
 6674SOL    HW220922   0.794   4.832   6.049
 6675SOL     OW20923   4.757   3.867   1.783
 6675SOL    HW120924   4.793   3.781   1.821
 6675SOL    HW220925   4.758   3.862   1.683
 6676SOL     OW20926   0.028   3.344   5.421
 6676SOL    HW120927   0.123   3.330   5.394
 6676SOL    HW220928   0.021   3.428   5.475
 6677SOL     OW20929   1.256   1.331   6.529
 6677SOL    HW120930   1.234   1.248   6.581
 6677SOL    HW220931   1.300   1.397   6.590
 6678SOL     OW20932   3.228   3.173   6.516
 6678SOL    HW120933   3.211   3.075   6.524
 6678SOL    HW220934   3.326   3.191   6.528
 6679SOL     OW20935   2.955   1.133   4.203
 6679SOL    HW120936   2.997   1.127   4.293
 6679SOL    HW220937   3.015   1.183   4.141
 6680SOL     OW20938   4.916   6.862   6.890
 6680SOL    HW120939   4.872   6.951   6.881
 6680SOL    HW220940   4.852   6.798   6.933
 6681SOL     OW20941   4.172   5.983   1.544
 6681SOL    HW120942   4.156   6.081   1.531
 6681SOL    HW220943   4.240   5.969   1.615
 6682SOL     OW20944   0.176   4.623   2.720
 6682SOL    HW120945   0.218   4.546   2.674
 6682SOL    HW220946   0.247   4.690   2.744
 6683SOL     OW20947   5.930   2.767   5.502
 6683SOL    HW120948   5.999   2.721   5.445
 6683SOL    HW220949   5.843   2.719   5.495
 6684SOL     OW20950   2.820   0.414   1.514
 6684SOL    HW120951   2.914   0.383   1.497
 6684SOL    HW220952   2.788   0.467   1.435
 6685SOL     OW20953   6.574   3.661   5.532
 6685SOL    HW120954   6.549   3.757   5.543
 6685SOL    HW220955   6.515   3.605   5.591
 6686SOL     OW20956   5.534   5.936   4.255
 6686SOL    HW120957   5.470   5.996   4.303
 6686SOL    HW220958   5.490   5.898   4.174
 6687SOL     OW20959   1.051   3.432   0.126
 6687SOL    HW120960   1.024   3.525   0.151
 6687SOL    HW220961   1.149   3.419   0.144
 6688SOL     OW20962   0.479   3.900   2.887
 6688SOL    HW120963   0.575   3.927   2.881
 6688SOL    HW220964   0.439   3.897   2.795
 6689SOL     OW20965   4.617   2.830   0.530
 6689SOL    HW120966   4.688   2.759   0.527
 6689SOL    HW220967   4.640   2.904   0.467
 6690SOL     OW20968   2.075   0.860   0.889
 6690SOL    HW120969   2.103   0.782   0.943
 6690SOL    HW220970   1.976   0.857   0.875
 6691SOL     OW20971   2.643   6.437   1.077
 6691SOL    HW120972   2.597   6.525   1.091
 6691SOL    HW220973   2.742   6.450   1.083
 6692SOL     OW20974   3.888   4.053   4.976
 6692SOL    HW120975   3.939   4.035   5.060
 6692SOL    HW220976   3.889   4.151   4.957
 6693SOL     OW20977   4.111   3.756   4.826
 6693SOL    HW120978   4.210   3.763   4.837
 6693SOL    HW220979   4.091   3.696   4.748
 6694SOL     OW20980   4.063   6.256   1.116
 6694SOL    HW120981   4.135   6.201   1.159
 6694SOL    HW220982   4.036   6.329   1.179
 6695SOL     OW20983   3.373   1.570   0.358
 6695SOL    HW120984   3.349   1.663   0.331
 6695SOL    HW220985   3.336   1.551   0.449
 6696SOL     OW20986   2.099   3.242   5.609
 6696SOL    HW120987   2.047   3.157   5.610
 6696SOL    HW220988   2.197   3.222   5.598
 6697SOL     OW20989   4.647   2.466   2.418
 6697SOL    HW120990   4.589   2.491   2.495
 6697SOL    HW220991   4.596   2.479   2.333
 6698SOL     OW20992   2.830   2.659   1.471
 6698SOL    HW120993   2.926   2.668   1.444
 6698SOL    HW220994   2.771   2.674   1.392
 6699SOL     OW20995   2.404   5.039   6.478
 6699SOL    HW120996   2.377   5.014   6.386
 6699SOL    HW220997   2.499   5.012   6.494
 6700SOL     OW20998   6.716   6.898   1.118
 6700SOL    HW120999   6.719   6.884   1.019
 6700SOL    HW221000   6.809   6.892   1.156
 6701SOL     OW21001   5.529   3.434   1.666
 6701SOL    HW121002   5.467   3.488   1.723
 6701SOL    HW221003   5.513   3.337   1.683
 6702SOL     OW21004   3.337   1.823   1.849
 6702SOL    HW121005   3.238   1.826   1.836
 6702SOL    HW221006   3.357   1.788   1.941
 6703SOL     OW21007   6.503   1.907   6.811
 6703SOL    HW121008   6.458   1.824   6.844
 6703SOL    HW221009   6.434   1.977   6.791
 6704SOL     OW21010   3.496   2.065   3.198
 6704SOL    HW121011   3.502   2.103   3.105
 6704SOL    HW221012   3.587   2.058   3.238
 6705SOL     OW21013   6.709   2.506   1.374
 6705SOL    HW121014   6.793   2.453   1.368
 6705SOL    HW221015   6.675   2.504   1.468
 6706SOL     OW21016   1.401   4.075   2.026
 6706SOL    HW121017   1.362   3.990   2.060
 6706SOL    HW221018   1.470   4.055   1.957
 6707SOL     OW21019   6.308   5.575   3.722
 6707SOL    HW121020   6.230   5.636   3.711
 6707SOL    HW221021   6.358   5.599   3.805
 6708SOL     OW21022   6.839   5.002   1.778
 6708SOL    HW121023   6.842   4.909   1.742
 6708SOL    HW221024   6.748   5.040   1.764
 6709SOL     OW21025   2.655   6.885   3.255
 6709SOL    HW121026   2.699   6.891   3.165
 6709SOL    HW221027   2.720   6.912   3.326
 6710SOL     OW21028   3.552   1.008   6.248
 6710SOL    HW121029   3.604   0.932   6.207
 6710SOL    HW221030   3.603   1.046   6.325
 6711SOL     OW21031   4.716   5.556   6.106
 6711SOL    HW121032   4.805   5.601   6.097
 6711SOL    HW221033   4.655   5.587   6.034
 6712SOL     OW21034   5.210   4.208   0.023
 6712SOL    HW121035   5.150   4.128   0.022
 6712SOL    HW221036   5.251   4.218   0.113
 6713SOL     OW21037   1.904   0.288   2.446
 6713SOL    HW121038   1.973   0.358   2.432
 6713SOL    HW221039   1.922   0.210   2.387
 6714SOL     OW21040   6.472   1.372   6.177
 6714SOL    HW121041   6.437   1.466   6.165
 6714SOL    HW221042   6.453   1.319   6.094
 6715SOL     OW21043   0.147   0.022   6.688
 6715SOL    HW121044   0.061   0.029   6.738
 6715SOL    HW221045   0.161   6.949   6.658
 6716SOL     OW21046   0.451   5.894   1.415
 6716SOL    HW121047   0.361   5.916   1.452
 6716SOL    HW221048   0.443   5.821   1.348
 6717SOL     OW21049   4.635   2.858   6.671
 6717SOL    HW121050   4.636   2.926   6.744
 6717SOL    HW221051   4.565   2.881   6.603
 6718SOL     OW21052   4.890   0.085   0.220
 6718SOL    HW121053   4.843   0.171   0.203
 6718SOL    HW221054   4.989   0.101   0.224
 6719SOL     OW21055   2.473   0.251   6.914
 6719SOL    HW121056   2.419   0.259   6.998
 6719SOL    HW221057   2.543   0.322   6.912
 6720SOL     OW21058   0.679   6.805   3.969
 6720SOL    HW121059   0.713   6.839   3.881
 6720SOL    HW221060   0.670   6.706   3.965
 6721SOL     OW21061   6.449   0.385   6.298
 6721SOL    HW121062   6.534   0.437   6.309
 6721SOL    HW221063   6.390   0.431   6.231
 6722SOL     OW21064   0.103   3.043   1.339
 6722SOL    HW121065   0.112   3.065   1.242
 6722SOL    HW221066   0.006   3.037   1.362
 6723SOL     OW21067   2.506   6.778   2.997
 6723SOL    HW121068   2.527   6.752   2.903
 6723SOL    HW221069   2.585   6.826   3.037
 6724SOL     OW21070   1.574   3.659   5.749
 6724SOL    HW121071   1.633   3.739   5.763
 6724SOL    HW221072   1.610   3.583   5.803
 6725SOL     OW21073   0.417   3.728   1.424
 6725SOL    HW121074   0.327   3.742   1.382
 6725SOL    HW221075   0.482   3.795   1.388
 6726SOL     OW21076   0.805   2.155   5.313
 6726SOL    HW121077   0.834   2.248   5.292
 6726SOL    HW221078   0.830   2.094   5.238
 6727SOL     OW21079   6.212   3.981   5.135
 6727SOL    HW121080   6.140   3.912   5.121
 6727SOL    HW221081   6.213   4.009   5.231
 6728SOL     OW21082   4.090   1.387   3.347
 6728SOL    HW121083   4.074   1.357   3.441
 6728SOL    HW221084   4.006   1.427   3.311
 6729SOL     OW21085   7.019   1.262   2.489
 6729SOL    HW121086   6.977   1.172   2.487
 6729SOL    HW221087   0.055   1.271   2.571
 6730SOL     OW21088   2.428   6.406   0.037
 6730SOL    HW121089   2.471   6.453   6.981
 6730SOL    HW221090   2.491   6.337   0.074
 6731SOL     OW21091   1.025   6.152   1.872
 6731SOL    HW121092   1.047   6.066   1.827
 6731SOL    HW221093   0.944   6.192   1.829
 6732SOL     OW21094   5.565   5.274   5.629
 6732SOL    HW121095   5.611   5.360   5.650
 6732SOL    HW221096   5.514   5.243   5.710
 6733SOL     OW21097   3.867   4.896   0.046
 6733SOL    HW121098   3.829   4.899   6.974
 6733SOL    HW221099   3.917   4.810   0.058
 6734SOL     OW21100   6.611   2.148   5.034
 6734SOL    HW121101   6.553   2.175   5.110
 6734SOL    HW221102   6.569   2.176   4.948
 6735SOL     OW21103   0.075   4.272   4.614
 6735SOL    HW121104   0.038   4.245   4.703
 6735SOL    HW221105   0.105   4.191   4.564
 6736SOL     OW21106   3.105   3.620   6.936
 6736SOL    HW121107   3.196   3.593   6.968
 6736SOL    HW221108   3.061   3.543   6.891
 6737SOL     OW21109   1.979   2.550   0.515
 6737SOL    HW121110   1.974   2.564   0.614
 6737SOL    HW221111   2.056   2.490   0.494
 6738SOL     OW21112   1.602   5.008   2.607
 6738SOL    HW121113   1.653   4.939   2.659
 6738SOL    HW221114   1.627   5.001   2.510
 6739SOL     OW21115   3.520   6.014   5.578
 6739SOL    HW121116   3.515   5.922   5.539
 6739SOL    HW221117   3.455   6.023   5.653
 6740SOL     OW21118   1.548   1.027   4.084
 6740SOL    HW121119   1.523   1.027   4.181
 6740SOL    HW221120   1.466   1.045   4.029
 6741SOL     OW21121   4.096   1.090   5.394
 6741SOL    HW121122   4.124   1.182   5.422
 6741SOL    HW221123   4.087   1.032   5.475
 6742SOL     OW21124   6.473   5.776   2.823
 6742SOL    HW121125   6.518   5.747   2.908
 6742SOL    HW221126   6.379   5.743   2.823
 6743SOL     OW21127   4.335   4.706   0.332
 6743SOL    HW121128   4.315   4.757   0.248
 6743SOL    HW221129   4.250   4.673   0.372
 6744SOL     OW21130   5.417   5.051   6.734
 6744SOL    HW121131   5.337   5.034   6.677
 6744SOL    HW221132   5.401   5.130   6.792
 6745SOL     OW21133   6.939   0.218   2.835
 6745SOL    HW121134   6.873   0.222   2.911
 6745SOL    HW221135   0.010   0.205   2.871
 6746SOL     OW21136   1.346   1.242   3.120
 6746SOL    HW121137   1.445   1.230   3.131
 6746SOL    HW221138   1.312   1.178   3.051
 6747SOL     OW21139   5.799   0.843   5.030
 6747SOL    HW121140   5.718   0.785   5.038
 6747SOL    HW221141   5.869   0.811   5.094
 6748SOL     OW21142   1.391   0.477   3.609
 6748SOL    HW121143   1.312   0.416   3.621
 6748SOL    HW221144   1.474   0.422   3.602
 6749SOL     OW21145   2.725   6.266   0.357
 6749SOL    HW121146   2.656   6.283   0.427
 6749SOL    HW221147   2.817   6.275   0.397
 6750SOL     OW21148   4.085   2.324   5.495
 6750SOL    HW121149   4.052   2.231   5.508
 6750SOL    HW221150   4.102   2.366   5.584
 6751SOL     OW21151   4.586   0.189   3.679
 6751SOL    HW121152   4.567   0.120   3.749
 6751SOL    HW221153   4.578   0.148   3.589
 6752SOL     OW21154   0.469   2.496   2.877
 6752SOL    HW121155   0.418   2.578   2.907
 6752SOL    HW221156   0.428   2.415   2.919
 6753SOL     OW21157   4.427   0.710   6.154
 6753SOL    HW121158   4.413   0.762   6.237
 6753SOL    HW221159   4.355   0.641   6.146
 6754SOL     OW21160   0.504   1.295   6.928
 6754SOL    HW121161   0.507   1.287   0.006
 6754SOL    HW221162   0.498   1.391   6.902
 6755SOL     OW21163   4.152   0.600   3.433
 6755SOL    HW121164   4.173   0.572   3.339
 6755SOL    HW221165   4.072   0.548   3.465
 6756SOL     OW21166   3.909   5.644   5.193
 6756SOL    HW121167   3.967   5.619   5.116
 6756SOL    HW221168   3.900   5.567   5.256
 6757SOL     OW21169   4.325   0.338   1.587
 6757SOL    HW121170   4.399   0.332   1.655
 6757SOL    HW221171   4.325   0.429   1.547
 6758SOL     OW21172   0.103   2.584   1.474
 6758SOL    HW121173   0.195   2.563   1.439
 6758SOL    HW221174   0.103   2.578   1.574
 6759SOL     OW21175   0.580   4.871   4.021
 6759SOL    HW121176   0.525   4.805   4.072
 6759SOL    HW221177   0.590   4.840   3.926
 6760SOL     OW21178   6.600   4.591   3.589
 6760SOL    HW121179   6.519   4.601   3.532
 6760SOL    HW221180   6.680   4.622   3.538
 6761SOL     OW21181   6.349   2.082   5.957
 6761SOL    HW121182   6.421   2.152   5.962
 6761SOL    HW221183   6.313   2.078   5.864
 6762SOL     OW21184   6.896   5.377   3.591
 6762SOL    HW121185   6.988   5.356   3.561
 6762SOL    HW221186   6.885   5.476   3.603
 6763SOL     OW21187   0.150   5.309   3.518
 6763SOL    HW121188   0.190   5.330   3.429
 6763SOL    HW221189   0.203   5.237   3.562
 6764SOL     OW21190   2.653   5.013   6.575
 6764SOL    HW121191   2.714   5.084   6.540
 6764SOL    HW221192   2.635   5.029   6.672
 6765SOL     OW21193   4.760   4.603   4.055
 6765SOL    HW121194   4.732   4.518   4.101
 6765SOL    HW221195   4.846   4.635   4.095
 6766SOL     OW21196   5.007   6.155   6.270
 6766SOL    HW121197   5.084   6.177   6.210
 6766SOL    HW221198   4.933   6.115   6.216
 6767SOL     OW21199   0.993   2.636   0.176
 6767SOL    HW121200   0.908   2.640   0.122
 6767SOL    HW221201   1.003   2.720   0.229
 6768SOL     OW21202   0.783   6.337   3.351
 6768SOL    HW121203   0.774   6.297   3.259
 6768SOL    HW221204   0.871   6.384   3.359
 6769SOL     OW21205   3.065   6.990   5.780
 6769SOL    HW121206   3.029   0.057   5.749
 6769SOL    HW221207   3.141   7.006   5.842
 6770SOL     OW21208   5.999   2.025   2.975
 6770SOL    HW121209   5.969   1.937   3.012
 6770SOL    HW221210   5.920   2.073   2.936
 6771SOL     OW21211   3.733   1.317   2.005
 6771SOL    HW121212   3.669   1.241   1.993
 6771SOL    HW221213   3.710   1.367   2.088
 6772SOL     OW21214   4.642   2.212   2.347
 6772SOL    HW121215   4.585   2.172   2.419
 6772SOL    HW221216   4.659   2.308   2.367
 6773SOL     OW21217   0.077   6.351   1.645
 6773SOL    HW121218   0.140   6.305   1.582
 6773SOL    HW221219   0.108   6.445   1.659
 6774SOL     OW21220   1.370   3.154   4.302
 6774SOL    HW121221   1.377   3.054   4.311
 6774SOL    HW221222   1.461   3.193   4.293
 6775SOL     OW21223   0.926   1.890   3.089
 6775SOL    HW121224   0.855   1.933   3.145
 6775SOL    HW221225   1.014   1.896   3.136
 6776SOL     OW21226   4.341   3.740   1.281
 6776SOL    HW121227   4.290   3.665   1.238
 6776SOL    HW221228   4.357   3.717   1.377
 6777SOL     OW21229   4.591   5.498   0.580
 6777SOL    HW121230   4.513   5.447   0.544
 6777SOL    HW221231   4.603   5.582   0.527
 6778SOL     OW21232   6.081   3.981   2.234
 6778SOL    HW121233   6.050   3.915   2.302
 6778SOL    HW221234   6.007   4.044   2.212
 6779SOL     OW21235   5.185   4.531   6.211
 6779SOL    HW121236   5.186   4.566   6.118
 6779SOL    HW221237   5.112   4.463   6.221
 6780SOL     OW21238   0.911   3.770   2.839
 6780SOL    HW121239   0.838   3.744   2.902
 6780SOL    HW221240   1.000   3.754   2.883
 6781SOL     OW21241   6.628   1.810   3.905
 6781SOL    HW121242   6.716   1.856   3.919
 6781SOL    HW221243   6.627   1.766   3.816
 6782SOL     OW21244   0.580   1.361   3.088
 6782SOL    HW121245   0.559   1.269   3.123
 6782SOL    HW221246   0.666   1.393   3.128
 6783SOL     OW21247   1.257   3.079   6.125
 6783SOL    HW121248   1.188   3.022   6.082
 6783SOL    HW221249   1.232   3.175   6.116
 6784SOL     OW21250   2.647   4.030   0.759
 6784SOL    HW121251   2.680   4.110   0.809
 6784SOL    HW221252   2.588   4.060   0.684
 6785SOL     OW21253   5.751   4.976   5.576
 6785SOL    HW121254   5.821   4.939   5.515
 6785SOL    HW221255   5.661   4.959   5.538
 6786SOL     OW21256   0.589   3.003   6.480
 6786SOL    HW121257   0.621   2.910   6.499
 6786SOL    HW221258   0.598   3.022   6.382
 6787SOL     OW21259   3.233   2.001   1.156
 6787SOL    HW121260   3.217   1.990   1.254
 6787SOL    HW221261   3.331   2.013   1.139
 6788SOL     OW21262   0.317   4.413   2.630
 6788SOL    HW121263   0.405   4.424   2.677
 6788SOL    HW221264   0.314   4.323   2.586
 6789SOL     OW21265   0.133   4.083   4.084
 6789SOL    HW121266   0.059   4.026   4.117
 6789SOL    HW221267   0.220   4.036   4.097
 6790SOL     OW21268   0.234   4.397   6.908
 6790SOL    HW121269   0.332   4.413   6.920
 6790SOL    HW221270   0.217   4.365   6.814
 6791SOL     OW21271   4.256   2.301   2.580
 6791SOL    HW121272   4.260   2.310   2.481
 6791SOL    HW221273   4.163   2.320   2.612
 6792SOL     OW21274   5.088   6.974   5.497
 6792SOL    HW121275   5.002   6.941   5.536
 6792SOL    HW221276   5.150   7.000   5.570
 6793SOL     OW21277   3.194   0.408   6.793
 6793SOL    HW121278   3.135   0.371   6.865
 6793SOL    HW221279   3.250   0.334   6.756
 6794SOL     OW21280   5.286   1.262   5.340
 6794SOL    HW121281   5.228   1.215   5.407
 6794SOL    HW221282   5.230   1.291   5.263
 6795SOL     OW21283   0.774   6.314   0.167
 6795SOL    HW121284   0.772   6.409   0.136
 6795SOL    HW221285   0.692   6.267   0.135
 6796SOL     OW21286   5.889   0.065   2.247
 6796SOL    HW121287   5.959   0.113   2.300
 6796SOL    HW221288   5.933   0.002   2.183
 6797SOL     OW21289   6.476   1.626   0.612
 6797SOL    HW121290   6.500   1.718   0.643
 6797SOL    HW221291   6.514   1.611   0.521
 6798SOL     OW21292   6.217   0.553   1.499
 6798SOL    HW121293   6.200   0.483   1.569
 6798SOL    HW221294   6.277   0.516   1.429
 6799SOL     OW21295   5.628   0.001   2.358
 6799SOL    HW121296   5.705   0.021   2.298
 6799SOL    HW221297   5.545   0.045   2.322
 6800SOL     OW21298   2.426   2.668   2.052
 6800SOL    HW121299   2.514   2.621   2.051
 6800SOL    HW221300   2.408   2.703   2.144
 6801SOL     OW21301   1.018   6.764   3.943
 6801SOL    HW121302   0.955   6.828   3.899
 6801SOL    HW221303   1.025   6.786   4.041
 6802SOL     OW21304   3.715   6.118   1.384
 6802SOL    HW121305   3.728   6.044   1.318
 6802SOL    HW221306   3.691   6.079   1.473
 6803SOL     OW21307   4.104   4.440   6.663
 6803SOL    HW121308   4.124   4.354   6.710
 6803SOL    HW221309   4.028   4.487   6.709
 6804SOL     OW21310   3.637   5.218   3.119
 6804SOL    HW121311   3.728   5.179   3.103
 6804SOL    HW221312   3.576   5.148   3.155
 6805SOL     OW21313   0.531   5.336   6.920
 6805SOL    HW121314   0.537   5.237   6.902
 6805SOL    HW221315   0.472   5.352   6.999
 6806SOL     OW21316   6.879   0.668   4.162
 6806SOL    HW121317   6.839   0.656   4.072
 6806SOL    HW221318   6.806   0.686   4.229
 6807SOL     OW21319   3.855   3.997   3.136
 6807SOL    HW121320   3.936   3.944   3.113
 6807SOL    HW221321   3.775   3.959   3.089
 6808SOL     OW21322   6.658   1.227   5.025
 6808SOL    HW121323   6.713   1.151   4.990
 6808SOL    HW221324   6.608   1.269   4.950
 6809SOL     OW21325   6.488   3.645   0.486
 6809SOL    HW121326   6.567   3.664   0.543
 6809SOL    HW221327   6.449   3.556   0.510
 6810SOL     OW21328   3.113   0.851   2.121
 6810SOL    HW121329   3.177   0.849   2.198
 6810SOL    HW221330   3.133   0.774   2.060
 6811SOL     OW21331   6.284   2.935   2.379
 6811SOL    HW121332   6.342   2.896   2.451
 6811SOL    HW221333   6.297   2.883   2.295
 6812SOL     OW21334   3.540   4.218   5.069
 6812SOL    HW121335   3.481   4.197   5.147
 6812SOL    HW221336   3.500   4.181   4.985
 6813SOL     OW21337   5.816   3.140   2.548
 6813SOL    HW121338   5.741   3.200   2.572
 6813SOL    HW221339   5.790   3.082   2.470
 6814SOL     OW21340   4.739   1.714   6.582
 6814SOL    HW121341   4.748   1.649   6.657
 6814SOL    HW221342   4.716   1.804   6.618
 6815SOL     OW21343   2.572   6.172   6.692
 6815SOL    HW121344   2.668   6.184   6.668
 6815SOL    HW221345   2.525   6.260   6.690
 6816SOL     OW21346   6.832   1.387   5.149
 6816SOL    HW121347   6.774   1.340   5.083
 6816SOL    HW221348   6.793   1.377   5.241
 6817SOL     OW21349   2.401   2.658   4.019
 6817SOL    HW121350   2.379   2.649   3.922
 6817SOL    HW221351   2.497   2.634   4.034
 6818SOL     OW21352   1.915   6.684   0.240
 6818SOL    HW121353   1.972   6.748   0.188
 6818SOL    HW221354   1.964   6.658   0.324
 6819SOL     OW21355   4.737   1.515   3.116
 6819SOL    HW121356   4.760   1.475   3.027
 6819SOL    HW221357   4.818   1.559   3.155
 6820SOL     OW21358   1.285   5.730   1.711
 6820SOL    HW121359   1.202   5.700   1.758
 6820SOL    HW221360   1.366   5.700   1.763
 6821SOL     OW21361   4.549   2.950   5.543
 6821SOL    HW121362   4.576   2.864   5.585
 6821SOL    HW221363   4.453   2.968   5.562
 6822SOL     OW21364   6.144   2.519   5.907
 6822SOL    HW121365   6.241   2.495   5.902
 6822SOL    HW221366   6.135   2.618   5.922
 6823SOL     OW21367   5.875   4.520   6.506
 6823SOL    HW121368   5.914   4.466   6.432
 6823SOL    HW221369   5.935   4.598   6.525
 6824SOL     OW21370   1.511   1.438   0.496
 6824SOL    HW121371   1.479   1.477   0.410
 6824SOL    HW221372   1.606   1.408   0.485
 6825SOL     OW21373   6.016   0.250   0.189
 6825SOL    HW121374   6.056   0.313   0.122
 6825SOL    HW221375   6.071   0.167   0.192
 6826SOL     OW21376   1.532   3.772   3.390
 6826SOL    HW121377   1.594   3.753   3.314
 6826SOL    HW221378   1.568   3.732   3.474
 6827SOL     OW21379   5.020   5.512   5.761
 6827SOL    HW121380   5.026   5.561   5.848
 6827SOL    HW221381   5.059   5.569   5.688
 6828SOL     OW21382   3.791   1.519   2.598
 6828SOL    HW121383   3.761   1.570   2.678
 6828SOL    HW221384   3.777   1.575   2.516
 6829SOL     OW21385   5.378   6.642   5.421
 6829SOL    HW121386   5.460   6.696   5.438
 6829SOL    HW221387   5.304   6.701   5.390
 6830SOL     OW21388   5.431   0.555   3.521
 6830SOL    HW121389   5.442   0.568   3.422
 6830SOL    HW221390   5.423   0.457   3.540
 6831SOL     OW21391   1.627   1.085   5.566
 6831SOL    HW121392   1.715   1.098   5.613
 6831SOL    HW221393   1.593   0.993   5.585
 6832SOL     OW21394   2.518   4.110   0.538
 6832SOL    HW121395   2.476   4.034   0.488
 6832SOL    HW221396   2.539   4.184   0.474
 6833SOL     OW21397   2.512   4.538   6.343
 6833SOL    HW121398   2.520   4.638   6.338
 6833SOL    HW221399   2.493   4.510   6.437
 6834SOL     OW21400   6.186   6.930   0.857
 6834SOL    HW121401   6.281   6.956   0.872
 6834SOL    HW221402   6.147   6.896   0.942
 6835SOL     OW21403   3.355   1.461   4.480
 6835SOL    HW121404   3.381   1.402   4.404
 6835SOL    HW221405   3.421   1.451   4.554
 6836SOL     OW21406   2.348   3.837   6.284
 6836SOL    HW121407   2.420   3.791   6.232
 6836SOL    HW221408   2.386   3.918   6.329
 6837SOL     OW21409   0.570   1.915   2.701
 6837SOL    HW121410   0.648   1.957   2.657
 6837SOL    HW221411   0.571   1.936   2.799
 6838SOL     OW21412   2.839   3.994   6.292
 6838SOL    HW121413   2.765   4.062   6.300
 6838SOL    HW221414   2.893   4.014   6.211
 6839SOL     OW21415   5.227   1.248   4.922
 6839SOL    HW121416   5.210   1.323   4.858
 6839SOL    HW221417   5.191   1.272   5.012
 6840SOL     OW21418   3.117   6.744   5.522
 6840SOL    HW121419   3.030   6.776   5.485
 6840SOL    HW221420   3.103   6.657   5.569
 6841SOL     OW21421   4.045   5.154   0.493
 6841SOL    HW121422   4.062   5.073   0.549
 6841SOL    HW221423   4.073   5.235   0.543
 6842SOL     OW21424   2.434   2.710   0.057
 6842SOL    HW121425   2.424   2.611   0.048
 6842SOL    HW221426   2.360   2.746   0.115
 6843SOL     OW21427   5.265   0.380   2.284
 6843SOL    HW121428   5.189   0.362   2.346
 6843SOL    HW221429   5.229   0.393   2.191
 6844SOL     OW21430   5.971   6.284   3.851
 6844SOL    HW121431   6.036   6.295   3.927
 6844SOL    HW221432   5.889   6.338   3.870
 6845SOL     OW21433   5.171   4.310   2.627
 6845SOL    HW121434   5.256   4.262   2.604
 6845SOL    HW221435   5.164   4.320   2.727
 6846SOL     OW21436   4.014   3.161   1.588
 6846SOL    HW121437   4.072   3.161   1.507
 6846SOL    HW221438   3.977   3.069   1.602
 6847SOL     OW21439   6.921   4.097   2.035
 6847SOL    HW121440   6.861   4.099   2.115
 6847SOL    HW221441   6.866   4.105   1.952
 6848SOL     OW21442   3.281   6.623   3.411
 6848SOL    HW121443   3.287   6.614   3.312
 6848SOL    HW221444   3.372   6.613   3.451
 6849SOL     OW21445   2.879   5.373   4.700
 6849SOL    HW121446   2.875   5.461   4.653
 6849SOL    HW221447   2.890   5.388   4.798
 6850SOL     OW21448   5.406   3.524   2.276
 6850SOL    HW121449   5.369   3.455   2.213
 6850SOL    HW221450   5.379   3.615   2.245
 6851SOL     OW21451   1.397   2.834   3.907
 6851SOL    HW121452   1.345   2.769   3.963
 6851SOL    HW221453   1.387   2.926   3.945
 6852SOL     OW21454   1.078   4.538   1.062
 6852SOL    HW121455   1.036   4.555   1.151
 6852SOL    HW221456   1.141   4.613   1.041
 6853SOL     OW21457   6.802   3.346   6.378
 6853SOL    HW121458   6.718   3.326   6.327
 6853SOL    HW221459   6.778   3.379   6.470
 6854SOL     OW21460   6.313   1.908   5.638
 6854SOL    HW121461   6.323   1.893   5.540
 6854SOL    HW221462   6.250   1.841   5.677
 6855SOL     OW21463   3.464   5.773   2.493
 6855SOL    HW121464   3.513   5.851   2.532
 6855SOL    HW221465   3.441   5.793   2.398
 6856SOL     OW21466   5.361   4.776   5.664
 6856SOL    HW121467   5.319   4.827   5.738
 6856SOL    HW221468   5.398   4.690   5.699
 6857SOL     OW21469   3.391   1.737   7.002
 6857SOL    HW121470   3.452   1.662   0.008
 6857SOL    HW221471   3.307   1.733   0.035
 6858SOL     OW21472   3.850   3.277   4.063
 6858SOL    HW121473   3.772   3.333   4.035
 6858SOL    HW221474   3.818   3.203   4.122
 6859SOL     OW21475   1.338   6.796   1.188
 6859SOL    HW121476   1.373   6.709   1.221
 6859SOL    HW221477   1.251   6.816   1.233
 6860SOL     OW21478   5.935   5.366   1.284
 6860SOL    HW121479   6.029   5.337   1.299
 6860SOL    HW221480   5.914   5.445   1.342
 6861SOL     OW21481   6.018   4.286   0.617
 6861SOL    HW121482   5.966   4.354   0.668
 6861SOL    HW221483   5.957   4.213   0.586
 6862SOL     OW21484   2.006   4.379   4.913
 6862SOL    HW121485   2.069   4.371   4.991
 6862SOL    HW221486   2.056   4.361   4.828
 6863SOL     OW21487   5.634   1.403   4.815
 6863SOL    HW121488   5.718   1.351   4.802
 6863SOL    HW221489   5.628   1.475   4.746
 6864SOL     OW21490   3.597   5.967   3.408
 6864SOL    HW121491   3.646   5.913   3.477
 6864SOL    HW221492   3.656   5.979   3.328
 6865SOL     OW21493   6.707   5.519   2.724
 6865SOL    HW121494   6.765   5.500   2.803
 6865SOL    HW221495   6.698   5.618   2.713
 6866SOL     OW21496   6.409   4.562   2.151
 6866SOL    HW121497   6.395   4.563   2.250
 6866SOL    HW221498   6.388   4.471   2.115
 6867SOL     OW21499   1.223   4.714   1.456
 6867SOL    HW121500   1.261   4.676   1.372
 6867SOL    HW221501   1.201   4.641   1.520
 6868SOL     OW21502   1.199   5.370   5.916
 6868SOL    HW121503   1.216   5.449   5.975
 6868SOL    HW221504   1.128   5.394   5.849
 6869SOL     OW21505   6.170   1.314   5.206
 6869SOL    HW121506   6.217   1.389   5.253
 6869SOL    HW221507   6.078   1.304   5.244
 6870SOL     OW21508   0.108   4.881   2.123
 6870SOL    HW121509   0.053   4.872   2.040
 6870SOL    HW221510   0.110   4.792   2.170
 6871SOL     OW21511   5.661   4.921   2.299
 6871SOL    HW121512   5.749   4.919   2.346
 6871SOL    HW221513   5.588   4.934   2.366
 6872SOL     OW21514   1.227   3.732   0.736
 6872SOL    HW121515   1.216   3.792   0.815
 6872SOL    HW221516   1.151   3.746   0.673
 6873SOL     OW21517   6.461   4.015   4.959
 6873SOL    HW121518   6.381   4.019   5.019
 6873SOL    HW221519   6.544   4.033   5.013
 6874SOL     OW21520   1.056   5.123   2.856
 6874SOL    HW121521   1.058   5.156   2.762
 6874SOL    HW221522   1.135   5.064   2.873
 6875SOL     OW21523   0.990   2.682   3.619
 6875SOL    HW121524   1.081   2.649   3.593
 6875SOL    HW221525   0.931   2.604   3.640
 6876SOL     OW21526   4.246   6.137   5.089
 6876SOL    HW121527   4.247   6.048   5.044
 6876SOL    HW221528   4.289   6.205   5.029
 6877SOL     OW21529   3.000   4.446   6.716
 6877SOL    HW121530   2.966   4.526   6.765
 6877SOL    HW221531   3.026   4.375   6.782
 6878SOL     OW21532   2.573   2.571   5.290
 6878SOL    HW121533   2.643   2.552   5.359
 6878SOL    HW221534   2.584   2.507   5.213
 6879SOL     OW21535   0.720   2.133   0.115
 6879SOL    HW121536   0.795   2.174   0.065
 6879SOL    HW221537   0.737   2.035   0.128
 6880SOL     OW21538   1.889   3.595   5.337
 6880SOL    HW121539   1.973   3.638   5.369
 6880SOL    HW221540   1.856   3.531   5.406
 6881SOL     OW21541   0.400   3.947   2.636
 6881SOL    HW121542   0.444   3.906   2.557
 6881SOL    HW221543   0.388   4.045   2.620
 6882SOL     OW21544   3.176   0.558   5.848
 6882SOL    HW121545   3.078   0.574   5.841
 6882SOL    HW221546   3.226   0.629   5.798
 6883SOL     OW21547   4.091   1.889   0.872
 6883SOL    HW121548   3.994   1.902   0.895
 6883SOL    HW221549   4.102   1.804   0.821
 6884SOL     OW21550   1.650   3.909   4.403
 6884SOL    HW121551   1.613   3.826   4.362
 6884SOL    HW221552   1.590   3.940   4.476
 6885SOL     OW21553   4.279   5.824   4.659
 6885SOL    HW121554   4.255   5.839   4.563
 6885SOL    HW221555   4.347   5.892   4.688
 6886SOL     OW21556   6.917   0.552   3.672
 6886SOL    HW121557   7.005   0.599   3.669
 6886SOL    HW221558   6.932   0.454   3.684
 6887SOL     OW21559   4.956   6.425   5.934
 6887SOL    HW121560   4.868   6.399   5.974
 6887SOL    HW221561   4.957   6.524   5.919
 6888SOL     OW21562   5.279   6.429   6.878
 6888SOL    HW121563   5.248   6.334   6.873
 6888SOL    HW221564   5.203   6.488   6.906
 6889SOL     OW21565   1.615   2.481   5.088
 6889SOL    HW121566   1.593   2.574   5.118
 6889SOL    HW221567   1.712   2.476   5.062
 6890SOL     OW21568   3.627   6.487   1.270
 6890SOL    HW121569   3.538   6.522   1.241
 6890SOL    HW221570   3.636   6.392   1.240
 6891SOL     OW21571   2.221   4.236   4.451
 6891SOL    HW121572   2.285   4.279   4.387
 6891SOL    HW221573   2.146   4.194   4.400
 6892SOL     OW21574   3.439   1.156   3.333
 6892SOL    HW121575   3.504   1.159   3.256
 6892SOL    HW221576   3.449   1.240   3.387
 6893SOL     OW21577   5.411   5.394   0.152
 6893SOL    HW121578   5.360   5.480   0.152
 6893SOL    HW221579   5.377   5.335   0.226
 6894SOL     OW21580   6.113   5.011   0.195
 6894SOL    HW121581   6.146   5.045   0.283
 6894SOL    HW221582   6.015   5.029   0.187
 6895SOL     OW21583   2.492   5.277   6.604
 6895SOL    HW121584   2.448   5.189   6.590
 6895SOL    HW221585   2.476   5.335   6.525
 6896SOL     OW21586   2.218   6.964   3.898
 6896SOL    HW121587   2.309   6.953   3.856
 6896SOL    HW221588   2.187   6.875   3.931
 6897SOL     OW21589   2.883   3.391   0.066
 6897SOL    HW121590   2.855   3.295   0.069
 6897SOL    HW221591   2.983   3.397   0.064
 6898SOL     OW21592   3.964   1.694   2.363
 6898SOL    HW121593   3.880   1.748   2.367
 6898SOL    HW221594   3.959   1.630   2.286
 6899SOL     OW21595   5.183   6.690   1.172
 6899SOL    HW121596   5.242   6.664   1.249
 6899SOL    HW221597   5.225   6.659   1.086
 6900SOL     OW21598   6.413   0.767   6.034
 6900SOL    HW121599   6.362   0.685   6.057
 6900SOL    HW221600   6.427   0.772   5.936
 6901SOL     OW21601   0.547   6.982   6.150
 6901SOL    HW121602   0.531   0.051   6.111
 6901SOL    HW221603   0.585   6.921   6.080
 6902SOL     OW21604   6.015   6.785   0.341
 6902SOL    HW121605   6.068   6.837   0.409
 6902SOL    HW221606   6.071   6.710   0.306
 6903SOL     OW21607   4.100   5.307   4.542
 6903SOL    HW121608   4.051   5.385   4.581
 6903SOL    HW221609   4.122   5.325   4.446
 6904SOL     OW21610   5.918   2.079   4.075
 6904SOL    HW121611   5.877   2.082   4.166
 6904SOL    HW221612   5.961   2.167   4.055
 6905SOL     OW21613   5.867   6.758   6.899
 6905SOL    HW121614   5.782   6.726   6.858
 6905SOL    HW221615   5.932   6.683   6.904
 6906SOL     OW21616   4.236   0.922   4.499
 6906SOL    HW121617   4.307   0.855   4.476
 6906SOL    HW221618   4.146   0.879   4.493
 6907SOL     OW21619   5.148   2.073   1.190
 6907SOL    HW121620   5.086   2.013   1.241
 6907SOL    HW221621   5.095   2.125   1.123
 6908SOL     OW21622   1.227   6.522   5.746
 6908SOL    HW121623   1.264   6.432   5.769
 6908SOL    HW221624   1.189   6.565   5.828
 6909SOL     OW21625   5.698   4.428   1.636
 6909SOL    HW121626   5.675   4.349   1.579
 6909SOL    HW221627   5.727   4.503   1.577
 6910SOL     OW21628   0.213   2.106   3.706
 6910SOL    HW121629   0.303   2.118   3.747
 6910SOL    HW221630   0.200   2.172   3.632
 6911SOL     OW21631   4.939   6.344   3.441
 6911SOL    HW121632   5.013   6.365   3.505
 6911SOL    HW221633   4.967   6.271   3.380
 6912SOL     OW21634   4.275   5.239   6.983
 6912SOL    HW121635   4.327   5.221   6.900
 6912SOL    HW221636   4.209   5.165   6.999
 6913SOL     OW21637   5.215   4.959   5.842
 6913SOL    HW121638   5.278   5.035   5.831
 6913SOL    HW221639   5.121   4.993   5.842
 6914SOL     OW21640   5.467   4.889   0.100
 6914SOL    HW121641   5.426   4.978   0.079
 6914SOL    HW221642   5.425   4.851   0.182
 6915SOL     OW21643   6.346   4.385   1.861
 6915SOL    HW121644   6.307   4.395   1.770
 6915SOL    HW221645   6.285   4.330   1.918
 6916SOL     OW21646   5.894   3.771   6.960
 6916SOL    HW121647   5.894   3.854   6.903
 6916SOL    HW221648   5.930   3.793   0.029
 6917SOL     OW21649   3.481   5.918   0.878
 6917SOL    HW121650   3.578   5.925   0.852
 6917SOL    HW221651   3.469   5.839   0.939
 6918SOL     OW21652   0.885   3.108   4.534
 6918SOL    HW121653   0.912   3.128   4.439
 6918SOL    HW221654   0.836   3.187   4.571
 6919SOL     OW21655   0.433   6.169   3.307
 6919SOL    HW121656   0.481   6.254   3.331
 6919SOL    HW221657   0.341   6.191   3.274
 6920SOL     OW21658   4.101   5.644   5.454
 6920SOL    HW121659   4.020   5.618   5.507
 6920SOL    HW221660   4.075   5.714   5.387
 6921SOL     OW21661   5.255   6.159   3.242
 6921SOL    HW121662   5.159   6.137   3.262
 6921SOL    HW221663   5.260   6.249   3.200
 6922SOL     OW21664   2.486   5.429   6.824
 6922SOL    HW121665   2.400   5.405   6.870
 6922SOL    HW221666   2.494   5.376   6.740
 6923SOL     OW21667   4.856   5.237   3.823
 6923SOL    HW121668   4.896   5.148   3.847
 6923SOL    HW221669   4.922   5.309   3.842
 6924SOL     OW21670   1.248   4.323   6.855
 6924SOL    HW121671   1.166   4.368   6.890
 6924SOL    HW221672   1.307   4.296   6.931
 6925SOL     OW21673   3.906   5.986   4.538
 6925SOL    HW121674   3.958   6.068   4.557
 6925SOL    HW221675   3.811   5.999   4.566
 6926SOL     OW21676   3.020   3.167   2.335
 6926SOL    HW121677   2.924   3.160   2.307
 6926SOL    HW221678   3.075   3.108   2.276
 6927SOL     OW21679   5.412   3.388   5.894
 6927SOL    HW121680   5.342   3.431   5.951
 6927SOL    HW221681   5.453   3.456   5.834
 6928SOL     OW21682   6.923   6.166   0.972
 6928SOL    HW121683   6.863   6.235   1.013
 6928SOL    HW221684   6.897   6.151   0.877
 6929SOL     OW21685   4.699   5.375   1.145
 6929SOL    HW121686   4.771   5.401   1.210
 6929SOL    HW221687   4.650   5.456   1.115
 6930SOL     OW21688   6.865   0.202   2.142
 6930SOL    HW121689   6.791   0.234   2.201
 6930SOL    HW221690   6.850   0.235   2.049
 6931SOL     OW21691   1.690   0.556   2.423
 6931SOL    HW121692   1.707   0.462   2.452
 6931SOL    HW221693   1.684   0.560   2.323
 6932SOL     OW21694   3.944   0.199   0.707
 6932SOL    HW121695   3.988   0.229   0.622
 6932SOL    HW221696   3.852   0.239   0.713
 6933SOL     OW21697   3.047   5.670   5.353
 6933SOL    HW121698   3.013   5.708   5.267
 6933SOL    HW221699   3.115   5.598   5.334
 6934SOL     OW21700   4.844   4.176   5.940
 6934SOL    HW121701   4.888   4.245   5.998
 6934SOL    HW221702   4.873   4.085   5.970
 6935SOL     OW21703   4.499   5.665   3.586
 6935SOL    HW121704   4.401   5.685   3.590
 6935SOL    HW221705   4.527   5.653   3.491
 6936SOL     OW21706   6.572   2.610   3.049
 6936SOL    HW121707   6.574   2.510   3.049
 6936SOL    HW221708   6.535   2.642   3.137
 6937SOL     OW21709   6.657   6.077   0.556
 6937SOL    HW121710   6.651   5.986   0.515
 6937SOL    HW221711   6.614   6.143   0.495
 6938SOL     OW21712   5.000   3.384   5.816
 6938SOL    HW121713   4.937   3.361   5.890
 6938SOL    HW221714   5.078   3.321   5.818
 6939SOL     OW21715   0.135   4.202   1.065
 6939SOL    HW121716   0.184   4.115   1.059
 6939SOL    HW221717   0.198   4.274   1.093
 6940SOL     OW21718   4.800   1.393   0.337
 6940SOL    HW121719   4.840   1.478   0.303
 6940SOL    HW221720   4.858   1.356   0.410
 6941SOL     OW21721   3.360   2.906   3.286
 6941SOL    HW121722   3.448   2.925   3.330
 6941SOL    HW221723   3.376   2.871   3.194
 6942SOL     OW21724   6.141   2.800   0.835
 6942SOL    HW121725   6.167   2.848   0.918
 6942SOL    HW221726   6.058   2.840   0.797
 6943SOL     OW21727   4.917   6.181   6.826
 6943SOL    HW121728   4.889   6.263   6.777
 6943SOL    HW221729   4.837   6.138   6.869
 6944SOL     OW21730   1.754   4.362   6.087
 6944SOL    HW121731   1.808   4.315   6.156
 6944SOL    HW221732   1.671   4.399   6.129
 6945SOL     OW21733   5.898   3.421   6.294
 6945SOL    HW121734   5.810   3.384   6.263
 6945SOL    HW221735   5.972   3.368   6.252
 6946SOL     OW21736   6.004   6.718   1.483
 6946SOL    HW121737   6.014   6.752   1.576
 6946SOL    HW221738   5.947   6.636   1.483
 6947SOL     OW21739   3.317   6.866   5.670
 6947SOL    HW121740   3.244   6.832   5.611
 6947SOL    HW221741   3.282   6.942   5.726
 6948SOL     OW21742   5.622   0.774   6.372
 6948SOL    HW121743   5.672   0.822   6.300
 6948SOL    HW221744   5.671   0.689   6.395
 6949SOL     OW21745   4.989   0.007   3.966
 6949SOL    HW121746   4.928   0.070   3.918
 6949SOL    HW221747   5.083   0.021   3.934
 6950SOL     OW21748   1.911   0.225   3.734
 6950SOL    HW121749   1.957   0.213   3.645
 6950SOL    HW221750   1.853   0.146   3.752
 6951SOL     OW21751   6.692   6.352   6.209
 6951SOL    HW121752   6.608   6.396   6.240
 6951SOL    HW221753   6.767   6.374   6.272
 6952SOL     OW21754   6.957   5.710   4.030
 6952SOL    HW121755   6.978   5.618   3.998
 6952SOL    HW221756   0.004   5.738   4.098
 6953SOL     OW21757   5.050   0.259   6.662
 6953SOL    HW121758   5.092   0.247   6.752
 6953SOL    HW221759   4.995   0.343   6.662
 6954SOL     OW21760   0.471   3.971   4.343
 6954SOL    HW121761   0.562   3.958   4.380
 6954SOL    HW221762   0.476   4.025   4.259
 6955SOL     OW21763   6.374   0.478   2.118
 6955SOL    HW121764   6.442   0.502   2.049
 6955SOL    HW221765   6.353   0.558   2.173
 6956SOL     OW21766   4.971   6.110   3.278
 6956SOL    HW121767   4.926   6.045   3.339
 6956SOL    HW221768   4.920   6.117   3.192
 6957SOL     OW21769   5.806   4.874   0.996
 6957SOL    HW121770   5.767   4.782   1.001
 6957SOL    HW221771   5.733   4.941   0.984
 6958SOL     OW21772   2.919   3.990   5.062
 6958SOL    HW121773   2.938   3.912   5.003
 6958SOL    HW221774   2.820   4.002   5.069
 6959SOL     OW21775   2.599   1.693   4.844
 6959SOL    HW121776   2.541   1.705   4.764
 6959SOL    HW221777   2.695   1.690   4.815
 6960SOL     OW21778   1.349   5.639   1.269
 6960SOL    HW121779   1.332   5.555   1.322
 6960SOL    HW221780   1.338   5.719   1.328
 6961SOL     OW21781   6.673   2.549   4.067
 6961SOL    HW121782   6.701   2.537   4.162
 6961SOL    HW221783   6.639   2.463   4.031
 6962SOL     OW21784   5.709   6.030   1.946
 6962SOL    HW121785   5.631   5.969   1.960
 6962SOL    HW221786   5.794   5.981   1.963
 6963SOL     OW21787   6.561   5.231   1.116
 6963SOL    HW121788   6.604   5.249   1.204
 6963SOL    HW221789   6.608   5.156   1.069
 6964SOL     OW21790   3.714   6.233   5.088
 6964SOL    HW121791   3.693   6.156   5.028
 6964SOL    HW221792   3.633   6.291   5.095
 6965SOL     OW21793   0.408   3.347   6.788
 6965SOL    HW121794   0.418   3.329   6.690
 6965SOL    HW221795   0.494   3.329   6.835
 6966SOL     OW21796   6.792   2.321   3.614
 6966SOL    HW121797   6.878   2.372   3.619
 6966SOL    HW221798   6.796   2.255   3.538
 6967SOL     OW21799   1.669   0.572   5.350
 6967SOL    HW121800   1.690   0.667   5.325
 6967SOL    HW221801   1.727   0.510   5.297
 6968SOL     OW21802   4.533   6.406   2.843
 6968SOL    HW121803   4.583   6.471   2.786
 6968SOL    HW221804   4.498   6.453   2.924
 6969SOL     OW21805   2.543   2.381   1.122
 6969SOL    HW121806   2.482   2.315   1.167
 6969SOL    HW221807   2.637   2.349   1.130
 6970SOL     OW21808   3.807   4.194   6.704
 6970SOL    HW121809   3.876   4.136   6.660
 6970SOL    HW221810   3.787   4.272   6.646
 6971SOL     OW21811   6.556   4.252   1.297
 6971SOL    HW121812   6.622   4.308   1.248
 6971SOL    HW221813   6.506   4.194   1.232
 6972SOL     OW21814   5.387   4.515   3.391
 6972SOL    HW121815   5.339   4.538   3.307
 6972SOL    HW221816   5.474   4.471   3.369
 6973SOL     OW21817   1.162   3.660   5.649
 6973SOL    HW121818   1.150   3.670   5.748
 6973SOL    HW221819   1.252   3.621   5.630
 6974SOL     OW21820   3.394   2.870   3.021
 6974SOL    HW121821   3.366   2.950   2.968
 6974SOL    HW221822   3.447   2.808   2.964
 6975SOL     OW21823   1.915   5.926   6.520
 6975SOL    HW121824   1.867   5.989   6.459
 6975SOL    HW221825   1.967   5.860   6.466
 6976SOL     OW21826   4.445   5.612   4.953
 6976SOL    HW121827   4.496   5.698   4.957
 6976SOL    HW221828   4.374   5.612   5.024
 6977SOL     OW21829   4.496   2.506   1.910
 6977SOL    HW121830   4.523   2.410   1.912
 6977SOL    HW221831   4.518   2.545   1.820
 6978SOL     OW21832   4.754   1.699   2.182
 6978SOL    HW121833   4.695   1.626   2.217
 6978SOL    HW221834   4.739   1.782   2.236
 6979SOL     OW21835   1.316   4.306   0.823
 6979SOL    HW121836   1.407   4.265   0.830
 6979SOL    HW221837   1.319   4.381   0.757
 6980SOL     OW21838   1.185   1.173   3.324
 6980SOL    HW121839   1.135   1.233   3.386
 6980SOL    HW221840   1.258   1.224   3.279
 6981SOL     OW21841   3.722   3.173   6.339
 6981SOL    HW121842   3.626   3.188   6.363
 6981SOL    HW221843   3.731   3.170   6.239
 6982SOL     OW21844   1.419   0.513   4.325
 6982SOL    HW121845   1.333   0.526   4.277
 6982SOL    HW221846   1.461   0.602   4.344
 6983SOL     OW21847   4.567   2.085   4.319
 6983SOL    HW121848   4.491   2.062   4.258
 6983SOL    HW221849   4.569   2.020   4.395
 6984SOL     OW21850   2.318   1.732   4.052
 6984SOL    HW121851   2.307   1.692   3.961
 6984SOL    HW221852   2.230   1.735   4.098
 6985SOL     OW21853   4.108   5.802   1.364
 6985SOL    HW121854   4.147   5.874   1.421
 6985SOL    HW221855   4.143   5.713   1.395
 6986SOL     OW21856   2.326   6.482   6.477
 6986SOL    HW121857   2.379   6.464   6.394
 6986SOL    HW221858   2.229   6.467   6.458
 6987SOL     OW21859   0.493   2.174   6.032
 6987SOL    HW121860   0.573   2.144   6.083
 6987SOL    HW221861   0.413   2.121   6.061
 6988SOL     OW21862   6.799   1.071   5.457
 6988SOL    HW121863   6.869   1.084   5.528
 6988SOL    HW221864   6.769   1.160   5.423
 6989SOL     OW21865   0.576   3.602   4.421
 6989SOL    HW121866   0.644   3.644   4.480
 6989SOL    HW221867   0.496   3.662   4.414
 6990SOL     OW21868   5.352   2.609   1.682
 6990SOL    HW121869   5.273   2.548   1.692
 6990SOL    HW221870   5.330   2.681   1.616
 6991SOL     OW21871   3.003   4.905   4.333
 6991SOL    HW121872   3.001   4.855   4.420
 6991SOL    HW221873   2.941   4.983   4.337
 6992SOL     OW21874   5.350   6.661   5.731
 6992SOL    HW121875   5.259   6.636   5.701
 6992SOL    HW221876   5.358   6.761   5.735
 6993SOL     OW21877   6.902   0.939   3.063
 6993SOL    HW121878   6.883   0.856   3.011
 6993SOL    HW221879   6.838   0.947   3.139
 6994SOL     OW21880   0.496   3.046   4.686
 6994SOL    HW121881   0.513   2.979   4.613
 6994SOL    HW221882   0.451   3.126   4.648
 6995SOL     OW21883   6.610   4.684   5.834
 6995SOL    HW121884   6.642   4.768   5.878
 6995SOL    HW221885   6.658   4.672   5.746
 6996SOL     OW21886   2.366   0.560   6.939
 6996SOL    HW121887   2.440   0.587   7.000
 6996SOL    HW221888   2.278   0.584   6.980
 6997SOL     OW21889   6.032   6.366   5.420
 6997SOL    HW121890   6.071   6.398   5.333
 6997SOL    HW221891   5.934   6.352   5.408
 6998SOL     OW21892   1.456   2.092   1.110
 6998SOL    HW121893   1.522   2.022   1.082
 6998SOL    HW221894   1.456   2.166   1.044
 6999SOL     OW21895   2.576   2.583   5.682
 6999SOL    HW121896   2.484   2.621   5.690
 6999SOL    HW221897   2.576   2.508   5.615
 7000SOL     OW21898   6.385   6.113   1.535
 7000SOL    HW121899   6.392   6.127   1.436
 7000SOL    HW221900   6.474   6.083   1.571
 7001SOL     OW21901   2.274   3.184   5.286
 7001SOL    HW121902   2.343   3.124   5.247
 7001SOL    HW221903   2.225   3.136   5.359
 7002SOL     OW21904   2.691   4.918   3.597
 7002SOL    HW121905   2.655   4.920   3.691
 7002SOL    HW221906   2.617   4.937   3.533
 7003SOL     OW21907   4.089   5.483   6.706
 7003SOL    HW121908   4.170   5.540   6.691
 7003SOL    HW221909   4.065   5.484   6.803
 7004SOL     OW21910   1.631   4.995   2.023
 7004SOL    HW121911   1.704   5.063   2.034
 7004SOL    HW221912   1.621   4.943   2.108
 7005SOL     OW21913   1.454   6.842   0.382
 7005SOL    HW121914   1.446   6.937   0.352
 7005SOL    HW221915   1.517   6.792   0.322
 7006SOL     OW21916   4.621   4.661   4.541
 7006SOL    HW121917   4.631   4.687   4.637
 7006SOL    HW221918   4.540   4.707   4.503
 7007SOL     OW21919   4.380   6.577   4.106
 7007SOL    HW121920   4.283   6.553   4.112
 7007SOL    HW221921   4.426   6.514   4.044
 7008SOL     OW21922   1.220   4.611   4.962
 7008SOL    HW121923   1.258   4.546   5.028
 7008SOL    HW221924   1.178   4.687   5.012
 7009SOL     OW21925   6.463   5.698   2.373
 7009SOL    HW121926   6.449   5.609   2.417
 7009SOL    HW221927   6.436   5.771   2.435
 7010SOL     OW21928   5.096   4.725   5.584
 7010SOL    HW121929   5.054   4.793   5.644
 7010SOL    HW221930   5.196   4.731   5.592
 7011SOL     OW21931   3.994   6.664   6.155
 7011SOL    HW121932   4.045   6.747   6.172
 7011SOL    HW221933   3.896   6.685   6.149
 7012SOL     OW21934   1.683   1.539   2.052
 7012SOL    HW121935   1.640   1.557   2.140
 7012SOL    HW221936   1.749   1.464   2.062
 7013SOL     OW21937   0.741   0.652   0.795
 7013SOL    HW121938   0.649   0.613   0.795
 7013SOL    HW221939   0.795   0.610   0.722
 7014SOL     OW21940   4.146   3.418   1.368
 7014SOL    HW121941   4.171   3.467   1.284
 7014SOL    HW221942   4.228   3.378   1.409
 7015SOL     OW21943   5.720   4.568   2.087
 7015SOL    HW121944   5.759   4.638   2.027
 7015SOL    HW221945   5.656   4.611   2.151
 7016SOL     OW21946   3.587   4.832   1.645
 7016SOL    HW121947   3.592   4.762   1.716
 7016SOL    HW221948   3.492   4.844   1.617
 7017SOL     OW21949   2.399   6.205   2.339
 7017SOL    HW121950   2.327   6.263   2.379
 7017SOL    HW221951   2.445   6.154   2.411
 7018SOL     OW21952   6.074   4.309   3.591
 7018SOL    HW121953   5.989   4.362   3.596
 7018SOL    HW221954   6.125   4.321   3.677
 7019SOL     OW21955   2.449   3.902   6.793
 7019SOL    HW121956   2.452   3.991   6.746
 7019SOL    HW221957   2.365   3.896   6.847
 7020SOL     OW21958   5.619   7.000   6.817
 7020SOL    HW121959   5.555   6.923   6.820
 7020SOL    HW221960   5.661   7.004   6.726
 7021SOL     OW21961   1.373   1.548   6.251
 7021SOL    HW121962   1.419   1.460   6.250
 7021SOL    HW221963   1.422   1.610   6.313
 7022SOL     OW21964   4.683   5.960   0.503
 7022SOL    HW121965   4.758   5.924   0.559
 7022SOL    HW221966   4.614   5.888   0.490
 7023SOL     OW21967   0.542   1.813   3.080
 7023SOL    HW121968   0.639   1.788   3.084
 7023SOL    HW221969   0.531   1.895   3.024
 7024SOL     OW21970   1.450   4.727   5.440
 7024SOL    HW121971   1.367   4.720   5.496
 7024SOL    HW221972   1.530   4.732   5.500
 7025SOL     OW21973   2.514   0.864   6.932
 7025SOL    HW121974   2.421   0.858   6.969
 7025SOL    HW221975   2.509   0.881   6.834
 7026SOL     OW21976   3.305   2.122   1.848
 7026SOL    HW121977   3.353   2.155   1.929
 7026SOL    HW221978   3.315   2.023   1.842
 7027SOL     OW21979   2.576   5.118   4.139
 7027SOL    HW121980   2.489   5.150   4.178
 7027SOL    HW221981   2.639   5.195   4.129
 7028SOL     OW21982   4.785   0.064   4.176
 7028SOL    HW121983   4.740   0.148   4.147
 7028SOL    HW221984   4.876   0.059   4.135
 7029SOL     OW21985   5.331   5.153   6.276
 7029SOL    HW121986   5.278   5.203   6.208
 7029SOL    HW221987   5.312   5.055   6.268
 7030SOL     OW21988   0.364   1.805   5.116
 7030SOL    HW121989   0.360   1.712   5.151
 7030SOL    HW221990   0.324   1.808   5.025
 7031SOL     OW21991   1.976   6.236   5.179
 7031SOL    HW121992   1.931   6.271   5.097
 7031SOL    HW221993   1.907   6.196   5.240
 7032SOL     OW21994   3.515   0.472   3.559
 7032SOL    HW121995   3.511   0.374   3.540
 7032SOL    HW221996   3.424   0.511   3.551
 7033SOL     OW21997   1.481   2.690   3.126
 7033SOL    HW121998   1.402   2.677   3.186
 7033SOL    HW221999   1.451   2.705   3.032
 7034SOL     OW22000   6.153   0.269   2.901
 7034SOL    HW122001   6.191   0.353   2.941
 7034SOL    HW222002   6.208   0.191   2.929
 7035SOL     OW22003   1.923   6.552   1.868
 7035SOL    HW122004   1.959   6.550   1.775
 7035SOL    HW222005   1.841   6.495   1.873
 7036SOL     OW22006   0.464   0.761   2.753
 7036SOL    HW122007   0.380   0.809   2.779
 7036SOL    HW222008   0.487   0.692   2.822
 7037SOL     OW22009   1.842   0.644   6.490
 7037SOL    HW122010   1.870   0.636   6.395
 7037SOL    HW222011   1.774   0.573   6.511
 7038SOL     OW22012   1.410   3.574   4.399
 7038SOL    HW122013   1.348   3.546   4.326
 7038SOL    HW222014   1.357   3.613   4.475
 7039SOL     OW22015   2.758   4.807   1.392
 7039SOL    HW122016   2.841   4.860   1.405
 7039SOL    HW222017   2.716   4.788   1.481
 7040SOL     OW22018   6.639   2.436   4.724
 7040SOL    HW122019   6.590   2.486   4.653
 7040SOL    HW222020   6.668   2.499   4.796
 7041SOL     OW22021   0.622   2.386   1.676
 7041SOL    HW122022   0.691   2.455   1.699
 7041SOL    HW222023   0.648   2.298   1.717
 7042SOL     OW22024   5.523   5.648   6.070
 7042SOL    HW122025   5.447   5.676   6.128
 7042SOL    HW222026   5.539   5.550   6.080
 7043SOL     OW22027   2.037   3.550   2.358
 7043SOL    HW122028   2.015   3.628   2.417
 7043SOL    HW222029   1.976   3.551   2.279
 7044SOL     OW22030   4.744   5.070   3.303
 7044SOL    HW122031   4.815   5.131   3.339
 7044SOL    HW222032   4.745   4.984   3.354
 7045SOL     OW22033   5.421   5.762   3.082
 7045SOL    HW122034   5.402   5.726   2.990
 7045SOL    HW222035   5.339   5.807   3.118
 7046SOL     OW22036   3.427   1.630   3.382
 7046SOL    HW122037   3.458   1.645   3.289
 7046SOL    HW222038   3.327   1.630   3.385
 7047SOL     OW22039   1.008   2.819   2.113
 7047SOL    HW122040   0.930   2.764   2.084
 7047SOL    HW222041   1.009   2.905   2.062
 7048SOL     OW22042   6.473   6.233   2.960
 7048SOL    HW122043   6.414   6.206   2.885
 7048SOL    HW222044   6.417   6.268   3.036
 7049SOL     OW22045   3.118   1.219   0.983
 7049SOL    HW122046   3.165   1.305   1.001
 7049SOL    HW222047   3.168   1.166   0.916
 7050SOL     OW22048   3.754   4.146   1.821
 7050SOL    HW122049   3.677   4.136   1.758
 7050SOL    HW222050   3.779   4.057   1.859
 7051SOL     OW22051   6.873   0.416   1.293
 7051SOL    HW122052   6.954   0.474   1.277
 7051SOL    HW222053   6.790   0.470   1.280
 7052SOL     OW22054   5.463   2.843   4.036
 7052SOL    HW122055   5.386   2.902   4.013
 7052SOL    HW222056   5.542   2.898   4.063
 7053SOL     OW22057   0.720   3.518   4.709
 7053SOL    HW122058   0.758   3.591   4.652
 7053SOL    HW222059   0.788   3.446   4.721
 7054SOL     OW22060   0.490   6.358   0.783
 7054SOL    HW122061   0.540   6.437   0.820
 7054SOL    HW222062   0.490   6.362   0.684
 7055SOL     OW22063   3.607   6.283   5.435
 7055SOL    HW122064   3.703   6.303   5.416
 7055SOL    HW222065   3.591   6.185   5.427
 7056SOL     OW22066   6.212   5.985   2.228
 7056SOL    HW122067   6.155   5.939   2.159
 7056SOL    HW222068   6.174   6.076   2.246
 7057SOL     OW22069   1.234   5.899   3.658
 7057SOL    HW122070   1.249   5.852   3.570
 7057SOL    HW222071   1.231   5.831   3.731
 7058SOL     OW22072   6.823   5.659   6.185
 7058SOL    HW122073   6.883   5.612   6.250
 7058SOL    HW222074   6.825   5.757   6.202
 7059SOL     OW22075   6.362   1.066   4.193
 7059SOL    HW122076   6.318   1.021   4.116
 7059SOL    HW222077   6.418   1.000   4.244
 7060SOL     OW22078   4.148   0.144   1.691
 7060SOL    HW122079   4.106   0.157   1.781
 7060SOL    HW222080   4.193   0.229   1.663
 7061SOL     OW22081   1.213   3.401   3.835
 7061SOL    HW122082   1.239   3.333   3.767
 7061SOL    HW222083   1.150   3.467   3.794
 7062SOL     OW22084   4.899   1.183   5.238
 7062SOL    HW122085   4.832   1.127   5.189
 7062SOL    HW222086   4.887   1.171   5.336
 7063SOL     OW22087   0.926   0.440   1.800
 7063SOL    HW122088   0.999   0.509   1.799
 7063SOL    HW222089   0.863   0.457   1.724
 7064SOL     OW22090   4.075   2.162   1.222
 7064SOL    HW122091   4.054   2.151   1.319
 7064SOL    HW222092   4.089   2.072   1.181
 7065SOL     OW22093   3.847   3.727   6.059
 7065SOL    HW122094   3.892   3.766   5.978
 7065SOL    HW222095   3.814   3.802   6.117
 7066SOL     OW22096   4.268   7.008   0.533
 7066SOL    HW122097   4.199   6.956   0.583
 7066SOL    HW222098   4.350   7.018   0.589
 7067SOL     OW22099   1.754   1.832   4.921
 7067SOL    HW122100   1.704   1.914   4.891
 7067SOL    HW222101   1.829   1.815   4.858
 7068SOL     OW22102   6.882   4.505   3.732
 7068SOL    HW122103   6.808   4.471   3.674
 7068SOL    HW222104   6.918   4.430   3.788
 7069SOL     OW22105   5.339   1.468   4.477
 7069SOL    HW122106   5.383   1.530   4.412
 7069SOL    HW222107   5.310   1.385   4.428
 7070SOL     OW22108   6.746   6.140   4.944
 7070SOL    HW122109   6.810   6.195   4.890
 7070SOL    HW222110   6.717   6.192   5.024
 7071SOL     OW22111   1.788   6.258   6.705
 7071SOL    HW122112   1.714   6.191   6.698
 7071SOL    HW222113   1.781   6.305   6.793
 7072SOL     OW22114   1.065   6.485   6.827
 7072SOL    HW122115   0.965   6.481   6.822
 7072SOL    HW222116   1.099   6.543   6.753
 7073SOL     OW22117   4.763   0.214   4.416
 7073SOL    HW122118   4.839   0.231   4.478
 7073SOL    HW222119   4.795   0.160   4.338
 7074SOL     OW22120   4.582   2.248   1.987
 7074SOL    HW122121   4.669   2.217   1.948
 7074SOL    HW222122   4.532   2.169   2.023
 7075SOL     OW22123   1.887   4.825   5.208
 7075SOL    HW122124   1.912   4.772   5.127
 7075SOL    HW222125   1.789   4.813   5.226
 7076SOL     OW22126   5.533   1.948   7.005
 7076SOL    HW122127   5.510   2.038   6.969
 7076SOL    HW222128   5.460   1.916   0.044
 7077SOL     OW22129   2.405   4.364   4.297
 7077SOL    HW122130   2.388   4.448   4.246
 7077SOL    HW222131   2.431   4.291   4.233
 7078SOL     OW22132   0.256   6.979   1.664
 7078SOL    HW122133   0.163   6.943   1.678
 7078SOL    HW222134   0.322   6.910   1.694
 7079SOL     OW22135   6.569   6.017   4.546
 7079SOL    HW122136   6.520   6.057   4.469
 7079SOL    HW222137   6.523   6.043   4.631
 7080SOL     OW22138   3.125   2.180   4.009
 7080SOL    HW122139   3.053   2.112   3.997
 7080SOL    HW222140   3.131   2.238   3.928
 7081SOL     OW22141   3.110   0.370   0.128
 7081SOL    HW122142   3.165   0.453   0.128
 7081SOL    HW222143   3.021   0.388   0.172
 7082SOL     OW22144   6.256   4.355   6.503
 7082SOL    HW122145   6.210   4.409   6.574
 7082SOL    HW222146   6.240   4.396   6.414
 7083SOL     OW22147   2.907   0.339   0.535
 7083SOL    HW122148   2.926   0.435   0.514
 7083SOL    HW222149   2.813   0.317   0.510
 7084SOL     OW22150   0.276   6.531   5.799
 7084SOL    HW122151   0.293   6.432   5.803
 7084SOL    HW222152   0.177   6.547   5.791
 7085SOL     OW22153   0.970   2.078   1.693
 7085SOL    HW122154   1.016   2.164   1.672
 7085SOL    HW222155   1.038   2.006   1.708
 7086SOL     OW22156   5.138   0.958   5.275
 7086SOL    HW122157   5.181   0.985   5.189
 7086SOL    HW222158   5.202   0.904   5.329
 7087SOL     OW22159   6.265   2.929   3.521
 7087SOL    HW122160   6.294   2.853   3.579
 7087SOL    HW222161   6.165   2.927   3.509
 7088SOL     OW22162   5.617   3.239   3.411
 7088SOL    HW122163   5.647   3.317   3.465
 7088SOL    HW222164   5.622   3.156   3.467
 7089SOL     OW22165   3.124   2.115   4.820
 7089SOL    HW122166   3.127   2.177   4.899
 7089SOL    HW222167   3.142   2.168   4.737
 7090SOL     OW22168   2.714   0.410   6.816
 7090SOL    HW122169   2.758   0.361   6.741
 7090SOL    HW222170   2.727   0.509   6.803
 7091SOL     OW22171   0.640   1.266   6.680
 7091SOL    HW122172   0.609   1.258   6.775
 7091SOL    HW222173   0.590   1.340   6.636
 7092SOL     OW22174   4.632   2.827   6.114
 7092SOL    HW122175   4.648   2.866   6.205
 7092SOL    HW222176   4.552   2.869   6.073
 7093SOL     OW22177   3.020   3.813   3.333
 7093SOL    HW122178   3.037   3.717   3.355
 7093SOL    HW222179   3.107   3.863   3.334
 7094SOL     OW22180   0.523   5.796   5.877
 7094SOL    HW122181   0.496   5.768   5.969
 7094SOL    HW222182   0.447   5.844   5.833
 7095SOL     OW22183   3.303   3.740   6.217
 7095SOL    HW122184   3.354   3.757   6.133
 7095SOL    HW222185   3.272   3.827   6.256
 7096SOL     OW22186   6.483   0.698   3.921
 7096SOL    HW122187   6.477   0.636   3.842
 7096SOL    HW222188   6.471   0.645   4.005
 7097SOL     OW22189   5.925   1.408   0.625
 7097SOL    HW122190   5.971   1.493   0.600
 7097SOL    HW222191   5.974   1.331   0.584
 7098SOL     OW22192   1.741   0.115   5.157
 7098SOL    HW122193   1.722   0.167   5.240
 7098SOL    HW222194   1.671   0.133   5.088
 7099SOL     OW22195   3.096   1.164   5.213
 7099SOL    HW122196   3.052   1.173   5.302
 7099SOL    HW222197   3.093   1.251   5.164
 7100SOL     OW22198   5.562   2.645   1.259
 7100SOL    HW122199   5.544   2.558   1.304
 7100SOL    HW222200   5.505   2.716   1.301
 7101SOL     OW22201   1.950   1.141   4.881
 7101SOL    HW122202   1.890   1.117   4.804
 7101SOL    HW222203   1.927   1.232   4.914
 7102SOL     OW22204   4.775   0.021   0.840
 7102SOL    HW122205   4.763   6.958   0.788
 7102SOL    HW222206   4.737   0.098   0.788
 7103SOL     OW22207   4.567   4.671   1.915
 7103SOL    HW122208   4.549   4.739   1.986
 7103SOL    HW222209   4.482   4.622   1.894
 7104SOL     OW22210   0.499   2.875   4.454
 7104SOL    HW122211   0.424   2.858   4.390
 7104SOL    HW222212   0.583   2.835   4.418
 7105SOL     OW22213   3.065   2.795   5.239
 7105SOL    HW122214   3.095   2.855   5.164
 7105SOL    HW222215   3.140   2.735   5.266
 7106SOL     OW22216   3.223   4.081   2.722
 7106SOL    HW122217   3.148   4.026   2.685
 7106SOL    HW222218   3.203   4.105   2.817
 7107SOL     OW22219   3.653   1.393   0.553
 7107SOL    HW122220   3.565   1.348   0.565
 7107SOL    HW222221   3.718   1.356   0.620
 7108SOL     OW22222   4.977   5.863   2.932
 7108SOL    HW122223   4.948   5.848   3.027
 7108SOL    HW222224   4.926   5.800   2.872
 7109SOL     OW22225   2.661   0.509   5.665
 7109SOL    HW122226   2.623   0.593   5.627
 7109SOL    HW222227   2.734   0.475   5.605
 7110SOL     OW22228   3.120   6.212   4.610
 7110SOL    HW122229   3.032   6.191   4.653
 7110SOL    HW222230   3.192   6.163   4.657
 7111SOL     OW22231   1.178   2.132   4.282
 7111SOL    HW122232   1.121   2.067   4.331
 7111SOL    HW222233   1.274   2.118   4.306
 7112SOL     OW22234   1.154   5.395   4.466
 7112SOL    HW122235   1.232   5.457   4.472
 7112SOL    HW222236   1.075   5.436   4.513
 7113SOL     OW22237   3.816   4.131   4.609
 7113SOL    HW122238   3.748   4.142   4.681
 7113SOL    HW222239   3.861   4.042   4.619
 7114SOL     OW22240   3.799   6.983   1.745
 7114SOL    HW122241   3.817   0.033   1.677
 7114SOL    HW222242   3.719   6.930   1.717
 7115SOL     OW22243   5.512   3.195   1.707
 7115SOL    HW122244   5.424   3.175   1.665
 7115SOL    HW222245   5.553   3.110   1.742
 7116SOL     OW22246   6.109   4.395   3.088
 7116SOL    HW122247   6.063   4.308   3.107
 7116SOL    HW222248   6.184   4.379   3.024
 7117SOL     OW22249   7.000   6.420   5.366
 7117SOL    HW122250   0.004   6.411   5.269
 7117SOL    HW222251   6.918   6.366   5.384
 7118SOL     OW22252   2.861   3.750   1.416
 7118SOL    HW122253   2.944   3.802   1.435
 7118SOL    HW222254   2.881   3.652   1.419
 7119SOL     OW22255   5.111   2.288   2.752
 7119SOL    HW122256   5.037   2.307   2.816
 7119SOL    HW222257   5.183   2.236   2.798
 7120SOL     OW22258   3.445   1.749   2.452
 7120SOL    HW122259   3.397   1.671   2.411
 7120SOL    HW222260   3.405   1.769   2.542
 7121SOL     OW22261   1.388   6.430   3.112
 7121SOL    HW122262   1.461   6.455   3.048
 7121SOL    HW222263   1.427   6.413   3.202
 7122SOL     OW22264   0.849   0.231   5.799
 7122SOL    HW122265   0.874   0.142   5.763
 7122SOL    HW222266   0.777   0.271   5.742
 7123SOL     OW22267   2.205   4.616   3.023
 7123SOL    HW122268   2.182   4.583   2.931
 7123SOL    HW222269   2.248   4.706   3.017
 7124SOL     OW22270   6.893   2.158   0.966
 7124SOL    HW122271   6.941   2.201   0.890
 7124SOL    HW222272   6.947   2.082   1.001
 7125SOL     OW22273   7.001   6.911   1.068
 7125SOL    HW122274   7.015   6.926   1.166
 7125SOL    HW222275   6.947   6.987   1.031
 7126SOL     OW22276   3.213   5.580   0.035
 7126SOL    HW122277   3.303   5.612   0.065
 7126SOL    HW222278   3.142   5.635   0.080
 7127SOL     OW22279   1.210   5.689   5.516
 7127SOL    HW122280   1.220   5.591   5.535
 7127SOL    HW222281   1.300   5.729   5.500
 7128SOL     OW22282   3.027   4.773   0.568
 7128SOL    HW122283   3.030   4.873   0.576
 7128SOL    HW222284   3.035   4.733   0.659
 7129SOL     OW22285   2.204   1.595   7.021
 7129SOL    HW122286   2.116   1.621   6.980
 7129SOL    HW222287   2.278   1.626   6.962
 7130SOL     OW22288   3.960   6.098   5.062
 7130SOL    HW122289   4.054   6.122   5.085
 7130SOL    HW222290   3.904   6.181   5.061
 7131SOL     OW22291   2.498   0.805   1.219
 7131SOL    HW122292   2.453   0.732   1.270
 7131SOL    HW222293   2.491   0.788   1.121
 7132SOL     OW22294   3.555   4.389   6.995
 7132SOL    HW122295   3.505   4.323   6.940
 7132SOL    HW222296   3.533   4.482   6.965
 7133SOL     OW22297   5.134   5.720   5.615
 7133SOL    HW122298   5.189   5.759   5.541
 7133SOL    HW222299   5.066   5.787   5.645
 7134SOL     OW22300   5.320   6.944   1.858
 7134SOL    HW122301   5.386   6.878   1.895
 7134SOL    HW222302   5.355   0.015   1.874
 7135SOL     OW22303   1.379   3.485   3.213
 7135SOL    HW122304   1.324   3.568   3.226
 7135SOL    HW222305   1.454   3.485   3.279
 7136SOL     OW22306   2.367   2.951   1.067
 7136SOL    HW122307   2.354   2.990   0.975
 7136SOL    HW222308   2.458   2.975   1.101
 7137SOL     OW22309   3.815   0.039   6.904
 7137SOL    HW122310   3.854   6.974   6.871
 7137SOL    HW222311   3.720   0.023   6.932
 7138SOL     OW22312   1.454   2.558   6.600
 7138SOL    HW122313   1.402   2.545   6.515
 7138SOL    HW222314   1.397   2.535   6.678
 7139SOL     OW22315   5.966   3.963   1.465
 7139SOL    HW122316   5.985   3.994   1.559
 7139SOL    HW222317   5.901   4.025   1.422
 7140SOL     OW22318   5.663   4.379   3.455
 7140SOL    HW122319   5.731   4.426   3.511
 7140SOL    HW222320   5.693   4.379   3.359
 7141SOL     OW22321   3.725   6.025   1.658
 7141SOL    HW122322   3.789   5.949   1.649
 7141SOL    HW222323   3.757   6.086   1.731
 7142SOL     OW22324   4.290   0.249   3.476
 7142SOL    HW122325   4.331   0.339   3.467
 7142SOL    HW222326   4.361   0.180   3.485
 7143SOL     OW22327   1.609   2.508   5.878
 7143SOL    HW122328   1.664   2.462   5.947
 7143SOL    HW222329   1.515   2.517   5.912
 7144SOL     OW22330   1.844   2.491   2.140
 7144SOL    HW122331   1.932   2.536   2.152
 7144SOL    HW222332   1.823   2.484   2.043
 7145SOL     OW22333   4.602   6.907   0.366
 7145SOL    HW122334   4.623   6.994   0.410
 7145SOL    HW222335   4.540   6.855   0.424
 7146SOL     OW22336   2.379   0.235   1.518
 7146SOL    HW122337   2.374   0.141   1.482
 7146SOL    HW222338   2.408   0.233   1.613
 7147SOL     OW22339   0.155   0.525   3.352
 7147SOL    HW122340   0.171   0.518   3.451
 7147SOL    HW222341   0.169   0.436   3.310
 7148SOL     OW22342   1.088   5.935   0.725
 7148SOL    HW122343   1.014   5.941   0.791
 7148SOL    HW222344   1.052   5.903   0.637
 7149SOL     OW22345   6.405   6.605   2.900
 7149SOL    HW122346   6.473   6.542   2.863
 7149SOL    HW222347   6.409   6.691   2.850
 7150SOL     OW22348   3.135   2.107   2.095
 7150SOL    HW122349   3.083   2.039   2.043
 7150SOL    HW222350   3.079   2.189   2.106
 7151SOL     OW22351   1.983   6.271   0.725
 7151SOL    HW122352   2.003   6.238   0.633
 7151SOL    HW222353   1.993   6.195   0.790
 7152SOL     OW22354   0.899   0.770   5.198
 7152SOL    HW122355   0.860   0.682   5.169
 7152SOL    HW222356   0.973   0.795   5.136
 7153SOL     OW22357   3.317   5.464   1.904
 7153SOL    HW122358   3.331   5.365   1.906
 7153SOL    HW222359   3.400   5.509   1.936
 7154SOL     OW22360   3.468   0.203   3.484
 7154SOL    HW122361   3.466   0.170   3.390
 7154SOL    HW222362   3.518   0.138   3.541
 7155SOL     OW22363   1.820   3.719   1.201
 7155SOL    HW122364   1.908   3.766   1.211
 7155SOL    HW222365   1.800   3.666   1.284
 7156SOL     OW22366   0.435   3.547   3.894
 7156SOL    HW122367   0.389   3.528   3.807
 7156SOL    HW222368   0.412   3.475   3.960
 7157SOL     OW22369   6.999   4.066   1.609
 7157SOL    HW122370   6.930   4.095   1.676
 7157SOL    HW222371   0.019   3.979   1.639
 7158SOL     OW22372   0.847   6.929   3.781
 7158SOL    HW122373   0.893   7.006   3.827
 7158SOL    HW222374   0.846   6.945   3.682
 7159SOL     OW22375   0.787   5.111   2.827
 7159SOL    HW122376   0.886   5.120   2.834
 7159SOL    HW222377   0.749   5.082   2.914
 7160SOL     OW22378   5.751   6.910   2.595
 7160SOL    HW122379   5.693   6.912   2.676
 7160SOL    HW222380   5.698   6.939   2.515
 7161SOL     OW22381   2.957   3.783   4.267
 7161SOL    HW122382   2.994   3.829   4.348
 7161SOL    HW222383   2.907   3.701   4.295
 7162SOL     OW22384   1.545   5.601   6.271
 7162SOL    HW122385   1.559   5.502   6.279
 7162SOL    HW222386   1.539   5.626   6.174
 7163SOL     OW22387   2.944   6.332   3.101
 7163SOL    HW122388   2.962   6.417   3.051
 7163SOL    HW222389   2.953   6.348   3.199
 7164SOL     OW22390   1.710   0.769   3.559
 7164SOL    HW122391   1.751   0.716   3.485
 7164SOL    HW222392   1.613   0.784   3.540
 7165SOL     OW22393   6.788   1.104   2.194
 7165SOL    HW122394   6.759   1.157   2.273
 7165SOL    HW222395   6.802   1.166   2.116
 7166SOL     OW22396   6.247   2.654   0.322
 7166SOL    HW122397   6.274   2.691   0.411
 7166SOL    HW222398   6.293   2.705   0.249
 7167SOL     OW22399   5.090   3.471   3.885
 7167SOL    HW122400   5.028   3.398   3.855
 7167SOL    HW222401   5.093   3.473   3.985
 7168SOL     OW22402   1.616   2.511   3.277
 7168SOL    HW122403   1.561   2.572   3.220
 7168SOL    HW222404   1.693   2.562   3.315
 7169SOL     OW22405   0.151   2.438   4.623
 7169SOL    HW122406   0.228   2.488   4.662
 7169SOL    HW222407   0.108   2.384   4.695
 7170SOL     OW22408   5.008   6.598   3.850
 7170SOL    HW122409   5.107   6.604   3.862
 7170SOL    HW222410   4.963   6.659   3.915
 7171SOL     OW22411   5.307   3.781   6.999
 7171SOL    HW122412   5.323   3.844   0.053
 7171SOL    HW222413   5.309   3.687   0.012
 7172SOL     OW22414   1.428   0.359   5.080
 7172SOL    HW122415   1.524   0.382   5.065
 7172SOL    HW222416   1.388   0.327   4.994
 7173SOL     OW22417   6.778   4.611   6.075
 7173SOL    HW122418   6.805   4.518   6.049
 7173SOL    HW222419   6.683   4.627   6.045
 7174SOL     OW22420   0.559   4.377   0.232
 7174SOL    HW122421   0.568   4.287   0.275
 7174SOL    HW222422   0.619   4.443   0.278
 7175SOL     OW22423   5.488   2.473   6.790
 7175SOL    HW122424   5.521   2.405   6.856
 7175SOL    HW222425   5.559   2.489   6.721
 7176SOL     OW22426   0.403   0.284   2.983
 7176SOL    HW122427   0.422   0.276   2.885
 7176SOL    HW222428   0.423   0.377   3.014
 7177SOL     OW22429   1.398   5.541   4.469
 7177SOL    HW122430   1.484   5.493   4.455
 7177SOL    HW222431   1.416   5.639   4.481
 7178SOL     OW22432   2.426   2.125   5.712
 7178SOL    HW122433   2.480   2.208   5.696
 7178SOL    HW222434   2.415   2.110   5.810
 7179SOL     OW22435   1.809   3.787   4.813
 7179SOL    HW122436   1.882   3.824   4.756
 7179SOL    HW222437   1.779   3.699   4.777
 7180SOL     OW22438   2.886   5.366   0.402
 7180SOL    HW122439   2.980   5.346   0.431
 7180SOL    HW222440   2.863   5.309   0.324
 7181SOL     OW22441   2.306   6.652   0.398
 7181SOL    HW122442   2.294   6.690   0.307
 7181SOL    HW222443   2.249   6.703   0.463
 7182SOL     OW22444   0.858   2.624   4.845
 7182SOL    HW122445   0.797   2.564   4.898
 7182SOL    HW222446   0.804   2.691   4.795
 7183SOL     OW22447   2.125   6.277   0.256
 7183SOL    HW122448   2.159   6.192   0.216
 7183SOL    HW222449   2.135   6.352   0.190
 7184SOL     OW22450   6.690   0.902   3.259
 7184SOL    HW122451   6.624   0.837   3.220
 7184SOL    HW222452   6.712   0.874   3.352
 7185SOL     OW22453   5.587   0.494   5.278
 7185SOL    HW122454   5.660   0.524   5.339
 7185SOL    HW222455   5.602   0.398   5.252
 7186SOL     OW22456   6.800   1.381   0.012
 7186SOL    HW122457   6.754   1.457   0.058
 7186SOL    HW222458   6.892   1.409   7.006
 7187SOL     OW22459   3.505   5.039   6.147
 7187SOL    HW122460   3.457   4.958   6.180
 7187SOL    HW222461   3.603   5.029   6.162
 7188SOL     OW22462   6.461   0.887   1.076
 7188SOL    HW122463   6.489   0.792   1.068
 7188SOL    HW222464   6.447   0.926   0.985
 7189SOL     OW22465   0.573   1.756   5.807
 7189SOL    HW122466   0.599   1.786   5.898
 7189SOL    HW222467   0.540   1.662   5.811
 7190SOL     OW22468   6.991   3.884   2.977
 7190SOL    HW122469   6.963   3.980   2.970
 7190SOL    HW222470   0.018   3.858   2.893
 7191SOL     OW22471   0.885   4.480   2.808
 7191SOL    HW122472   0.971   4.430   2.800
 7191SOL    HW222473   0.887   4.535   2.891
 7192SOL     OW22474   3.167   4.536   5.770
 7192SOL    HW122475   3.190   4.462   5.833
 7192SOL    HW222476   3.188   4.624   5.813
 7193SOL     OW22477   1.504   2.776   1.778
 7193SOL    HW122478   1.406   2.792   1.791
 7193SOL    HW222479   1.529   2.792   1.683
 7194SOL     OW22480   2.481   2.032   0.424
 7194SOL    HW122481   2.431   1.975   0.359
 7194SOL    HW222482   2.545   2.092   0.375
 7195SOL     OW22483   0.071   4.275   0.089
 7195SOL    HW122484   0.134   4.311   0.019
 7195SOL    HW222485   0.088   4.178   0.103
 7196SOL     OW22486   3.383   4.299   1.172
 7196SOL    HW122487   3.463   4.249   1.140
 7196SOL    HW222488   3.412   4.365   1.242
 7197SOL     OW22489   0.646   2.752   5.645
 7197SOL    HW122490   0.670   2.799   5.730
 7197SOL    HW222491   0.728   2.735   5.591
 7198SOL     OW22492   0.240   0.362   0.547
 7198SOL    HW122493   0.323   0.410   0.519
 7198SOL    HW222494   0.189   0.419   0.611
 7199SOL     OW22495   2.286   0.930   2.588
 7199SOL    HW122496   2.318   0.950   2.680
 7199SOL    HW222497   2.349   0.971   2.522
 7200SOL     OW22498   2.477   2.132   6.960
 7200SOL    HW122499   2.447   2.138   6.864
 7200SOL    HW222500   2.419   2.067   7.009
 7201SOL     OW22501   0.903   5.794   4.464
 7201SOL    HW122502   0.895   5.697   4.486
 7201SOL    HW222503   0.962   5.838   4.532
 7202SOL     OW22504   4.619   0.546   6.024
 7202SOL    HW122505   4.594   0.631   6.070
 7202SOL    HW222506   4.571   0.470   6.067
 7203SOL     OW22507   0.629   1.726   0.924
 7203SOL    HW122508   0.721   1.701   0.956
 7203SOL    HW222509   0.564   1.655   0.951
 7204SOL     OW22510   0.796   6.937   5.441
 7204SOL    HW122511   0.742   6.948   5.358
 7204SOL    HW222512   0.874   6.876   5.424
 7205SOL     OW22513   0.927   5.671   4.175
 7205SOL    HW122514   0.933   5.571   4.171
 7205SOL    HW222515   0.901   5.707   4.085
 7206SOL     OW22516   1.690   0.029   1.620
 7206SOL    HW122517   1.773   0.078   1.650
 7206SOL    HW222518   1.670   6.977   1.685
 7207SOL     OW22519   3.778   0.047   2.709
 7207SOL    HW122520   3.725   0.080   2.788
 7207SOL    HW222521   3.833   0.122   2.673
 7208SOL     OW22522   4.158   6.825   3.111
 7208SOL    HW122523   4.247   6.849   3.149
 7208SOL    HW222524   4.122   6.903   3.060
 7209SOL     OW22525   2.992   3.696   2.067
 7209SOL    HW122526   3.047   3.619   2.100
 7209SOL    HW222527   2.942   3.669   1.985
 7210SOL     OW22528   4.609   0.801   3.824
 7210SOL    HW122529   4.624   0.787   3.921
 7210SOL    HW222530   4.687   0.764   3.773
 7211SOL     OW22531   3.171   6.312   4.013
 7211SOL    HW122532   3.086   6.261   4.000
 7211SOL    HW222533   3.224   6.310   3.928
 7212SOL     OW22534   0.125   6.362   5.134
 7212SOL    HW122535   0.214   6.404   5.152
 7212SOL    HW222536   0.138   6.274   5.090
 7213SOL     OW22537   5.330   6.651   0.842
 7213SOL    HW122538   5.247   6.601   0.868
 7213SOL    HW222539   5.395   6.588   0.800
 7214SOL     OW22540   6.853   5.279   5.262
 7214SOL    HW122541   6.771   5.334   5.278
 7214SOL    HW222542   6.831   5.182   5.271
 7215SOL     OW22543   6.917   3.805   5.085
 7215SOL    HW122544   6.860   3.768   5.158
 7215SOL    HW222545   6.902   3.752   5.001
 7216SOL     OW22546   3.649   6.513   6.711
 7216SOL    HW122547   3.748   6.501   6.720
 7216SOL    HW222548   3.603   6.425   6.726
 7217SOL     OW22549   2.834   4.742   2.947
 7217SOL    HW122550   2.825   4.658   3.000
 7217SOL    HW222551   2.783   4.815   2.992
 7218SOL     OW22552   5.198   2.711   5.303
 7218SOL    HW122553   5.255   2.792   5.291
 7218SOL    HW222554   5.229   2.660   5.384
 7219SOL     OW22555   4.642   0.258   4.062
 7219SOL    HW122556   4.647   0.348   4.104
 7219SOL    HW222557   4.559   0.211   4.094
 7220SOL     OW22558   0.406   5.320   5.060
 7220SOL    HW122559   0.419   5.239   5.002
 7220SOL    HW222560   0.349   5.296   5.138
 7221SOL     OW22561   3.648   6.070   4.642
 7221SOL    HW122562   3.646   6.170   4.650
 7221SOL    HW222563   3.596   6.043   4.561
 7222SOL     OW22564   5.850   0.410   2.983
 7222SOL    HW122565   5.908   0.458   2.918
 7222SOL    HW222566   5.792   0.476   3.032
 7223SOL     OW22567   2.841   1.724   1.629
 7223SOL    HW122568   2.874   1.811   1.593
 7223SOL    HW222569   2.864   1.651   1.564
 7224SOL     OW22570   5.365   2.011   3.876
 7224SOL    HW122571   5.429   2.038   3.804
 7224SOL    HW222572   5.410   2.018   3.965
 7225SOL     OW22573   0.866   5.758   0.577
 7225SOL    HW122574   0.867   5.762   0.477
 7225SOL    HW222575   0.921   5.681   0.608
 7226SOL     OW22576   6.281   1.251   1.104
 7226SOL    HW122577   6.276   1.200   1.018
 7226SOL    HW222578   6.279   1.188   1.181
 7227SOL     OW22579   1.566   1.882   0.859
 7227SOL    HW122580   1.573   1.797   0.911
 7227SOL    HW222581   1.473   1.891   0.823
 7228SOL     OW22582   0.614   1.626   2.585
 7228SOL    HW122583   0.584   1.703   2.642
 7228SOL    HW222584   0.582   1.540   2.626
 7229SOL     OW22585   1.555   5.923   5.842
 7229SOL    HW122586   1.592   5.830   5.847
 7229SOL    HW222587   1.631   5.988   5.848
 7230SOL     OW22588   4.662   5.264   4.349
 7230SOL    HW122589   4.605   5.206   4.407
 7230SOL    HW222590   4.711   5.331   4.405
 7231SOL     OW22591   4.699   0.570   0.221
 7231SOL    HW122592   4.652   0.609   0.300
 7231SOL    HW222593   4.797   0.580   0.232
 7232SOL     OW22594   5.365   5.266   2.919
 7232SOL    HW122595   5.273   5.270   2.881
 7232SOL    HW222596   5.424   5.332   2.872
 7233SOL     OW22597   0.457   2.055   4.100
 7233SOL    HW122598   0.484   2.013   4.187
 7233SOL    HW222599   0.380   2.117   4.115
 7234SOL     OW22600   5.365   3.302   3.584
 7234SOL    HW122601   5.434   3.348   3.528
 7234SOL    HW222602   5.337   3.217   3.540
 7235SOL     OW22603   6.500   4.119   1.997
 7235SOL    HW122604   6.529   4.197   1.942
 7235SOL    HW222605   6.511   4.140   2.094
 7236SOL     OW22606   2.362   2.069   2.035
 7236SOL    HW122607   2.263   2.080   2.047
 7236SOL    HW222608   2.395   1.994   2.091
 7237SOL     OW22609   4.870   1.127   4.361
 7237SOL    HW122610   4.959   1.154   4.397
 7237SOL    HW222611   4.868   1.140   4.262
 7238SOL     OW22612   2.914   1.379   0.928
 7238SOL    HW122613   2.878   1.405   1.017
 7238SOL    HW222614   3.000   1.329   0.940
 7239SOL     OW22615   1.618   2.687   2.225
 7239SOL    HW122616   1.693   2.646   2.172
 7239SOL    HW222617   1.581   2.765   2.174
 7240SOL     OW22618   2.921   4.868   6.227
 7240SOL    HW122619   2.868   4.817   6.159
 7240SOL    HW222620   2.878   4.957   6.243
 7241SOL     OW22621   2.125   0.809   0.279
 7241SOL    HW122622   2.196   0.820   0.348
 7241SOL    HW222623   2.106   0.898   0.237
 7242SOL     OW22624   6.852   6.207   0.689
 7242SOL    HW122625   6.779   6.163   0.637
 7242SOL    HW222626   6.927   6.232   0.627
 7243SOL     OW22627   6.245   4.759   6.034
 7243SOL    HW122628   6.243   4.770   6.133
 7243SOL    HW222629   6.323   4.702   6.008
 7244SOL     OW22630   5.742   0.634   1.346
 7244SOL    HW122631   5.822   0.675   1.390
 7244SOL    HW222632   5.683   0.706   1.310
 7245SOL     OW22633   0.765   2.151   4.923
 7245SOL    HW122634   0.805   2.060   4.908
 7245SOL    HW222635   0.831   2.209   4.971
 7246SOL     OW22636   6.452   0.533   4.131
 7246SOL    HW122637   6.373   0.489   4.174
 7246SOL    HW222638   6.536   0.487   4.162
 7247SOL     OW22639   3.033   0.007   4.088
 7247SOL    HW122640   3.107   0.036   4.150
 7247SOL    HW222641   2.954   0.067   4.101
 7248SOL     OW22642   3.169   1.499   3.793
 7248SOL    HW122643   3.092   1.511   3.856
 7248SOL    HW222644   3.147   1.428   3.727
 7249SOL     OW22645   6.585   4.322   2.262
 7249SOL    HW122646   6.673   4.276   2.253
 7249SOL    HW222647   6.599   4.420   2.275
 7250SOL     OW22648   3.962   6.950   6.472
 7250SOL    HW122649   3.995   6.867   6.516
 7250SOL    HW222650   3.873   6.932   6.429
 7251SOL     OW22651   0.405   0.236   5.542
 7251SOL    HW122652   0.390   0.210   5.447
 7251SOL    HW222653   0.465   0.168   5.586
 7252SOL     OW22654   2.880   3.431   2.793
 7252SOL    HW122655   2.792   3.411   2.836
 7252SOL    HW222656   2.870   3.428   2.693
 7253SOL     OW22657   2.749   6.309   6.260
 7253SOL    HW122658   2.726   6.398   6.220
 7253SOL    HW222659   2.671   6.247   6.250
 7254SOL     OW22660   4.053   5.162   3.881
 7254SOL    HW122661   4.130   5.099   3.888
 7254SOL    HW222662   4.046   5.196   3.787
 7255SOL     OW22663   3.509   3.689   0.792
 7255SOL    HW122664   3.559   3.749   0.730
 7255SOL    HW222665   3.522   3.594   0.765
 7256SOL     OW22666   3.899   5.022   4.414
 7256SOL    HW122667   3.878   5.112   4.377
 7256SOL    HW222668   3.831   4.998   4.484
 7257SOL     OW22669   4.892   3.283   3.895
 7257SOL    HW122670   4.904   3.320   3.988
 7257SOL    HW222671   4.881   3.183   3.901
 7258SOL     OW22672   4.140   0.798   3.008
 7258SOL    HW122673   4.228   0.843   3.023
 7258SOL    HW222674   4.092   0.842   2.933
 7259SOL     OW22675   3.226   3.471   1.054
 7259SOL    HW122676   3.180   3.555   1.024
 7259SOL    HW222677   3.316   3.495   1.092
 7260SOL     OW22678   2.923   1.913   2.676
 7260SOL    HW122679   2.962   1.936   2.765
 7260SOL    HW222680   2.918   1.996   2.619
 7261SOL     OW22681   1.261   3.335   1.515
 7261SOL    HW122682   1.317   3.412   1.482
 7261SOL    HW222683   1.320   3.269   1.561
 7262SOL     OW22684   5.175   1.657   5.419
 7262SOL    HW122685   5.263   1.641   5.376
 7262SOL    HW222686   5.189   1.691   5.512
 7263SOL     OW22687   0.467   6.530   1.616
 7263SOL    HW122688   0.418   6.479   1.686
 7263SOL    HW222689   0.409   6.539   1.535
 7264SOL     OW22690   5.679   1.452   6.881
 7264SOL    HW122691   5.699   1.391   6.804
 7264SOL    HW222692   5.687   1.401   6.966
 7265SOL     OW22693   5.303   5.647   6.227
 7265SOL    HW122694   5.337   5.602   6.309
 7265SOL    HW222695   5.246   5.725   6.253
 7266SOL     OW22696   5.082   0.246   1.413
 7266SOL    HW122697   4.982   0.242   1.414
 7266SOL    HW222698   5.116   0.188   1.339
 7267SOL     OW22699   6.764   6.067   5.659
 7267SOL    HW122700   6.799   6.046   5.567
 7267SOL    HW222701   6.782   5.990   5.720
 7268SOL     OW22702   4.516   5.054   2.796
 7268SOL    HW122703   4.545   4.963   2.768
 7268SOL    HW222704   4.560   5.078   2.883
 7269SOL     OW22705   7.016   6.118   1.214
 7269SOL    HW122706   6.988   6.107   1.118
 7269SOL    HW222707   6.971   6.199   1.252
 7270SOL     OW22708   0.774   3.271   5.200
 7270SOL    HW122709   0.703   3.217   5.245
 7270SOL    HW222710   0.835   3.211   5.149
 7271SOL     OW22711   0.200   5.661   4.281
 7271SOL    HW122712   0.199   5.761   4.270
 7271SOL    HW222713   0.169   5.638   4.373
 7272SOL     OW22714   5.361   4.829   2.233
 7272SOL    HW122715   5.287   4.771   2.199
 7272SOL    HW222716   5.361   4.916   2.182
 7273SOL     OW22717   5.291   4.590   1.786
 7273SOL    HW122718   5.273   4.685   1.813
 7273SOL    HW222719   5.368   4.554   1.839
 7274SOL     OW22720   0.784   6.125   6.923
 7274SOL    HW122721   0.869   6.157   6.965
 7274SOL    HW222722   0.708   6.146   6.984
 7275SOL     OW22723   6.868   1.005   2.588
 7275SOL    HW122724   6.848   1.054   2.674
 7275SOL    HW222725   6.788   1.010   2.528
 7276SOL     OW22726   3.781   1.381   2.937
 7276SOL    HW122727   3.868   1.349   2.900
 7276SOL    HW222728   3.784   1.377   3.037
 7277SOL     OW22729   4.671   1.287   4.156
 7277SOL    HW122730   4.766   1.318   4.153
 7277SOL    HW222731   4.654   1.242   4.244
 7278SOL     OW22732   3.331   2.168   1.583
 7278SOL    HW122733   3.379   2.082   1.565
 7278SOL    HW222734   3.305   2.172   1.679
 7279SOL     OW22735   4.247   3.131   6.121
 7279SOL    HW122736   4.217   3.154   6.029
 7279SOL    HW222737   4.171   3.141   6.185
 7280SOL     OW22738   6.860   1.965   3.976
 7280SOL    HW122739   6.932   2.031   3.995
 7280SOL    HW222740   6.835   1.917   4.060
 7281SOL     OW22741   1.764   0.620   0.378
 7281SOL    HW122742   1.825   0.561   0.325
 7281SOL    HW222743   1.817   0.671   0.445
 7282SOL     OW22744   6.155   6.819   0.591
 7282SOL    HW122745   6.145   6.870   0.676
 7282SOL    HW222746   6.126   6.724   0.605
 7283SOL     OW22747   3.525   0.118   1.973
 7283SOL    HW122748   3.607   0.173   1.961
 7283SOL    HW222749   3.452   0.173   2.013
 7284SOL     OW22750   6.885   2.633   4.693
 7284SOL    HW122751   6.821   2.684   4.635
 7284SOL    HW222752   6.968   2.687   4.705
 7285SOL     OW22753   5.949   3.888   1.787
 7285SOL    HW122754   5.927   3.846   1.875
 7285SOL    HW222755   5.906   3.836   1.713
 7286SOL     OW22756   0.806   0.298   1.376
 7286SOL    HW122757   0.844   0.390   1.371
 7286SOL    HW222758   0.874   0.236   1.414
 7287SOL     OW22759   6.441   3.072   4.775
 7287SOL    HW122760   6.351   3.087   4.735
 7287SOL    HW222761   6.467   2.976   4.764
 7288SOL     OW22762   0.987   1.808   2.036
 7288SOL    HW122763   1.031   1.730   2.082
 7288SOL    HW222764   1.035   1.827   1.950
 7289SOL     OW22765   6.537   1.665   3.223
 7289SOL    HW122766   6.527   1.566   3.228
 7289SOL    HW222767   6.576   1.690   3.134
 7290SOL     OW22768   3.025   0.992   5.681
 7290SOL    HW122769   2.983   1.061   5.740
 7290SOL    HW222770   2.953   0.940   5.635
 7291SOL     OW22771   2.309   0.167   1.119
 7291SOL    HW122772   2.294   0.086   1.063
 7291SOL    HW222773   2.375   0.145   1.192
 7292SOL     OW22774   2.964   6.931   2.404
 7292SOL    HW122775   2.865   6.915   2.411
 7292SOL    HW222776   3.003   6.867   2.338
 7293SOL     OW22777   1.758   1.232   5.943
 7293SOL    HW122778   1.759   1.269   5.850
 7293SOL    HW222779   1.825   1.158   5.950
 7294SOL     OW22780   3.281   3.964   0.272
 7294SOL    HW122781   3.371   4.006   0.268
 7294SOL    HW222782   3.289   3.865   0.267
 7295SOL     OW22783   6.966   4.542   1.139
 7295SOL    HW122784   0.019   4.477   1.130
 7295SOL    HW222785   6.972   4.587   1.229
 7296SOL     OW22786   4.771   5.230   2.909
 7296SOL    HW122787   4.805   5.152   2.962
 7296SOL    HW222788   4.745   5.199   2.818
 7297SOL     OW22789   2.745   6.903   1.608
 7297SOL    HW122790   2.675   6.875   1.542
 7297SOL    HW222791   2.761   7.001   1.599
 7298SOL     OW22792   5.019   5.474   6.699
 7298SOL    HW122793   5.009   5.468   6.600
 7298SOL    HW222794   4.983   5.391   6.742
 7299SOL     OW22795   0.743   1.842   0.702
 7299SOL    HW122796   0.795   1.780   0.644
 7299SOL    HW222797   0.690   1.790   0.769
 7300SOL     OW22798   0.714   6.039   2.584
 7300SOL    HW122799   0.666   5.955   2.608
 7300SOL    HW222800   0.760   6.027   2.496
 7301SOL     OW22801   6.673   2.109   5.703
 7301SOL    HW122802   6.769   2.105   5.676
 7301SOL    HW222803   6.616   2.069   5.631
 7302SOL     OW22804   0.396   2.447   5.878
 7302SOL    HW122805   0.379   2.442   5.780
 7302SOL    HW222806   0.324   2.396   5.926
 7303SOL     OW22807   3.510   0.821   0.070
 7303SOL    HW122808   3.466   0.746   0.021
 7303SOL    HW222809   3.578   0.864   0.011
 7304SOL     OW22810   2.741   5.643   1.696
 7304SOL    HW122811   2.747   5.598   1.785
 7304SOL    HW222812   2.808   5.603   1.634
 7305SOL     OW22813   5.410   1.802   1.404
 7305SOL    HW122814   5.498   1.849   1.394
 7305SOL    HW222815   5.364   1.797   1.315
 7306SOL     OW22816   3.682   1.647   1.643
 7306SOL    HW122817   3.718   1.645   1.550
 7306SOL    HW222818   3.639   1.735   1.661
 7307SOL     OW22819   4.153   0.078   2.722
 7307SOL    HW122820   4.162   0.169   2.682
 7307SOL    HW222821   4.242   0.047   2.756
 7308SOL     OW22822   6.381   1.474   3.970
 7308SOL    HW122823   6.408   1.549   4.031
 7308SOL    HW222824   6.315   1.416   4.015
 7309SOL     OW22825   3.351   6.924   1.542
 7309SOL    HW122826   3.354   6.825   1.531
 7309SOL    HW222827   3.394   6.950   1.628
 7310SOL     OW22828   2.073   3.565   0.112
 7310SOL    HW122829   1.984   3.575   0.067
 7310SOL    HW222830   2.143   3.550   0.043
 7311SOL     OW22831   1.526   0.452   0.276
 7311SOL    HW122832   1.602   0.514   0.296
 7311SOL    HW222833   1.475   0.434   0.360
 7312SOL     OW22834   0.844   1.864   4.906
 7312SOL    HW122835   0.873   1.801   4.835
 7312SOL    HW222836   0.751   1.841   4.936
 7313SOL     OW22837   1.844   1.611   0.717
 7313SOL    HW122838   1.924   1.575   0.670
 7313SOL    HW222839   1.866   1.699   0.759
 7314SOL     OW22840   6.878   4.355   5.942
 7314SOL    HW122841   6.811   4.298   5.895
 7314SOL    HW222842   6.904   4.311   6.028
 7315SOL     OW22843   5.187   6.015   2.193
 7315SOL    HW122844   5.195   5.948   2.267
 7315SOL    HW222845   5.128   6.090   2.222
 7316SOL     OW22846   3.198   2.997   6.891
 7316SOL    HW122847   3.136   3.075   6.894
 7316SOL    HW222848   3.146   2.913   6.906
 7317SOL     OW22849   3.615   1.898   2.058
 7317SOL    HW122850   3.653   1.807   2.074
 7317SOL    HW222851   3.633   1.956   2.137
 7318SOL     OW22852   3.292   6.536   3.130
 7318SOL    HW122853   3.391   6.537   3.123
 7318SOL    HW222854   3.254   6.470   3.064
 7319SOL     OW22855   5.836   3.044   6.650
 7319SOL    HW122856   5.879   2.956   6.630
 7319SOL    HW222857   5.891   3.118   6.610
 7320SOL     OW22858   0.439   3.559   0.423
 7320SOL    HW122859   0.518   3.593   0.474
 7320SOL    HW222860   0.440   3.598   0.331
 7321SOL     OW22861   2.485   6.983   6.438
 7321SOL    HW122862   2.551   6.909   6.428
 7321SOL    HW222863   2.498   0.006   6.527
 7322SOL     OW22864   0.313   2.873   2.752
 7322SOL    HW122865   0.284   2.936   2.680
 7322SOL    HW222866   0.400   2.830   2.725
 7323SOL     OW22867   2.334   2.973   1.660
 7323SOL    HW122868   2.241   2.937   1.653
 7323SOL    HW222869   2.386   2.917   1.724
 7324SOL     OW22870   5.909   4.782   2.403
 7324SOL    HW122871   5.928   4.782   2.501
 7324SOL    HW222872   5.856   4.701   2.379
 7325SOL     OW22873   3.037   0.016   5.388
 7325SOL    HW122874   3.109   6.978   5.352
 7325SOL    HW222875   3.073   0.068   5.466
 7326SOL     OW22876   3.399   7.005   6.107
 7326SOL    HW122877   3.313   0.009   6.152
 7326SOL    HW222878   3.446   6.936   6.162
 7327SOL     OW22879   5.842   2.731   4.080
 7327SOL    HW122880   5.885   2.809   4.035
 7327SOL    HW222881   5.800   2.672   4.011
 7328SOL     OW22882   4.414   6.325   5.555
 7328SOL    HW122883   4.363   6.289   5.634
 7328SOL    HW222884   4.462   6.250   5.510
 7329SOL     OW22885   1.264   3.305   0.547
 7329SOL    HW122886   1.249   3.331   0.643
 7329SOL    HW222887   1.331   3.231   0.543
 7330SOL     OW22888   2.331   3.280   1.191
 7330SOL    HW122889   2.350   3.377   1.200
 7330SOL    HW222890   2.408   3.234   1.147
 7331SOL     OW22891   5.384   6.501   1.782
 7331SOL    HW122892   5.387   6.452   1.696
 7331SOL    HW222893   5.350   6.440   1.854
 7332SOL     OW22894   3.238   4.121   6.750
 7332SOL    HW122895   3.230   4.023   6.767
 7332SOL    HW222896   3.155   4.167   6.783
 7333SOL     OW22897   6.173   3.308   2.363
 7333SOL    HW122898   6.220   3.250   2.429
 7333SOL    HW222899   6.201   3.403   2.376
 7334SOL     OW22900   2.355   5.636   5.949
 7334SOL    HW122901   2.346   5.665   5.853
 7334SOL    HW222902   2.367   5.717   6.006
 7335SOL     OW22903   0.314   2.607   3.431
 7335SOL    HW122904   0.220   2.573   3.426
 7335SOL    HW222905   0.337   2.655   3.346
 7336SOL     OW22906   2.472   6.652   1.073
 7336SOL    HW122907   2.486   6.751   1.070
 7336SOL    HW222908   2.376   6.632   1.053
 7337SOL     OW22909   2.142   3.152   1.390
 7337SOL    HW122910   2.177   3.199   1.471
 7337SOL    HW222911   2.195   3.179   1.310
 7338SOL     OW22912   5.226   1.879   1.575
 7338SOL    HW122913   5.297   1.842   1.515
 7338SOL    HW222914   5.267   1.944   1.639
 7339SOL     OW22915   6.696   0.553   5.089
 7339SOL    HW122916   6.737   0.639   5.059
 7339SOL    HW222917   6.646   0.568   5.174
 7340SOL     OW22918   3.529   1.970   6.884
 7340SOL    HW122919   3.587   1.939   6.809
 7340SOL    HW222920   3.471   1.894   6.915
 7341SOL     OW22921   1.001   5.189   5.245
 7341SOL    HW122922   1.017   5.175   5.148
 7341SOL    HW222923   1.080   5.155   5.297
 7342SOL     OW22924   6.415   6.353   6.785
 7342SOL    HW122925   6.427   6.423   6.855
 7342SOL    HW222926   6.503   6.307   6.768
 7343SOL     OW22927   5.599   3.802   1.834
 7343SOL    HW122928   5.540   3.722   1.844
 7343SOL    HW222929   5.614   3.819   1.736
 7344SOL     OW22930   2.289   0.293   6.222
 7344SOL    HW122931   2.243   0.206   6.241
 7344SOL    HW222932   2.381   0.274   6.186
 7345SOL     OW22933   5.616   6.238   5.587
 7345SOL    HW122934   5.592   6.152   5.633
 7345SOL    HW222935   5.574   6.314   5.635
 7346SOL     OW22936   3.615   4.485   1.354
 7346SOL    HW122937   3.625   4.583   1.338
 7346SOL    HW222938   3.533   4.468   1.409
 7347SOL     OW22939   6.736   3.419   0.988
 7347SOL    HW122940   6.637   3.409   0.997
 7347SOL    HW222941   6.771   3.476   1.062
 7348SOL     OW22942   1.711   3.410   3.797
 7348SOL    HW122943   1.641   3.468   3.839
 7348SOL    HW222944   1.745   3.455   3.715
 7349SOL     OW22945   4.171   1.654   1.184
 7349SOL    HW122946   4.157   1.585   1.255
 7349SOL    HW222947   4.237   1.620   1.117
 7350SOL     OW22948   1.593   3.726   4.052
 7350SOL    HW122949   1.626   3.698   4.142
 7350SOL    HW222950   1.494   3.743   4.056
 7351SOL     OW22951   4.375   5.563   5.476
 7351SOL    HW122952   4.353   5.531   5.568
 7351SOL    HW222953   4.291   5.571   5.422
 7352SOL     OW22954   1.531   3.510   2.801
 7352SOL    HW122955   1.470   3.499   2.879
 7352SOL    HW222956   1.530   3.426   2.747
 7353SOL     OW22957   0.245   0.519   5.662
 7353SOL    HW122958   0.284   0.429   5.640
 7353SOL    HW222959   0.163   0.508   5.718
 7354SOL     OW22960   0.875   1.454   6.388
 7354SOL    HW122961   0.956   1.401   6.361
 7354SOL    HW222962   0.810   1.393   6.434
 7355SOL     OW22963   1.411   1.159   0.475
 7355SOL    HW122964   1.458   1.231   0.527
 7355SOL    HW222965   1.319   1.146   0.512
 7356SOL     OW22966   5.018   2.891   6.673
 7356SOL    HW122967   5.001   2.851   6.763
 7356SOL    HW222968   5.014   2.818   6.604
 7357SOL     OW22969   4.153   1.045   1.461
 7357SOL    HW122970   4.106   0.983   1.398
 7357SOL    HW222971   4.201   0.991   1.530
 7358SOL     OW22972   1.546   2.909   2.059
 7358SOL    HW122973   1.463   2.948   2.097
 7358SOL    HW222974   1.567   2.953   1.972
 7359SOL     OW22975   2.684   3.002   0.680
 7359SOL    HW122976   2.687   3.025   0.777
 7359SOL    HW222977   2.722   2.910   0.666
 7360SOL     OW22978   3.216   2.858   5.592
 7360SOL    HW122979   3.301   2.890   5.550
 7360SOL    HW222980   3.143   2.925   5.577
 7361SOL     OW22981   4.501   0.348   1.827
 7361SOL    HW122982   4.581   0.397   1.792
 7361SOL    HW222983   4.531   0.262   1.868
 7362SOL     OW22984   0.665   6.599   4.711
 7362SOL    HW122985   0.587   6.583   4.771
 7362SOL    HW222986   0.717   6.514   4.701
 7363SOL     OW22987   3.892   1.649   1.153
 7363SOL    HW122988   3.870   1.745   1.168
 7363SOL    HW222989   3.991   1.637   1.156
 7364SOL     OW22990   4.132   0.523   1.243
 7364SOL    HW122991   4.223   0.482   1.234
 7364SOL    HW222992   4.065   0.452   1.265
 7365SOL     OW22993   1.535   6.085   1.984
 7365SOL    HW122994   1.457   6.108   1.926
 7365SOL    HW222995   1.520   6.121   2.076
 7366SOL     OW22996   1.973   5.196   0.553
 7366SOL    HW122997   1.882   5.168   0.583
 7366SOL    HW222998   1.975   5.203   0.453
 7367SOL     OW22999   4.900   4.033   1.493
 7367SOL    HW123000   4.929   4.103   1.428
 7367SOL    HW223001   4.801   4.026   1.493
 7368SOL     OW23002   3.881   3.001   3.640
 7368SOL    HW123003   3.794   2.979   3.686
 7368SOL    HW223004   3.943   3.044   3.705
 7369SOL     OW23005   4.284   3.263   0.541
 7369SOL    HW123006   4.193   3.293   0.513
 7369SOL    HW223007   4.277   3.180   0.595
 7370SOL     OW23008   2.356   0.847   5.314
 7370SOL    HW123009   2.282   0.813   5.372
 7370SOL    HW223010   2.411   0.912   5.366
 7371SOL     OW23011   2.234   6.167   3.755
 7371SOL    HW123012   2.220   6.262   3.781
 7371SOL    HW223013   2.168   6.142   3.684
 7372SOL     OW23014   2.928   1.428   5.693
 7372SOL    HW123015   2.914   1.509   5.636
 7372SOL    HW223016   2.963   1.456   5.783
 7373SOL     OW23017   5.425   1.151   4.370
 7373SOL    HW123018   5.426   1.096   4.454
 7373SOL    HW223019   5.515   1.147   4.326
 7374SOL     OW23020   2.904   2.358   5.280
 7374SOL    HW123021   2.993   2.320   5.306
 7374SOL    HW223022   2.887   2.442   5.332
 7375SOL     OW23023   1.808   3.154   3.040
 7375SOL    HW123024   1.865   3.081   3.005
 7375SOL    HW223025   1.751   3.120   3.115
 7376SOL     OW23026   4.011   1.869   6.907
 7376SOL    HW123027   3.976   1.901   6.994
 7376SOL    HW223028   3.994   1.771   6.898
 7377SOL     OW23029   5.604   5.328   1.821
 7377SOL    HW123030   5.542   5.370   1.886
 7377SOL    HW223031   5.692   5.309   1.865
 7378SOL     OW23032   0.109   1.674   5.384
 7378SOL    HW123033   0.059   1.588   5.392
 7378SOL    HW223034   0.203   1.660   5.414
 7379SOL     OW23035   3.851   2.060   2.929
 7379SOL    HW123036   3.940   2.018   2.945
 7379SOL    HW223037   3.832   2.127   3.002
 7380SOL     OW23038   6.522   3.019   5.205
 7380SOL    HW123039   6.509   3.066   5.117
 7380SOL    HW223040   6.545   2.923   5.188
 7381SOL     OW23041   5.084   4.096   2.251
 7381SOL    HW123042   5.111   4.129   2.161
 7381SOL    HW223043   5.007   4.033   2.242
 7382SOL     OW23044   0.349   5.816   6.154
 7382SOL    HW123045   0.287   5.742   6.127
 7382SOL    HW223046   0.299   5.902   6.152
 7383SOL     OW23047   0.648   6.612   1.338
 7383SOL    HW123048   0.622   6.608   1.242
 7383SOL    HW223049   0.622   6.527   1.383
 7384SOL     OW23050   5.765   0.771   2.384
 7384SOL    HW123051   5.784   0.709   2.308
 7384SOL    HW223052   5.682   0.824   2.364
 7385SOL     OW23053   4.036   5.945   2.088
 7385SOL    HW123054   4.096   5.911   2.161
 7385SOL    HW223055   4.021   6.043   2.100
 7386SOL     OW23056   6.938   2.137   5.615
 7386SOL    HW123057   6.924   2.201   5.539
 7386SOL    HW223058   6.978   2.053   5.581
 7387SOL     OW23059   4.385   6.662   4.374
 7387SOL    HW123060   4.378   6.622   4.283
 7387SOL    HW223061   4.332   6.606   4.439
 7388SOL     OW23062   0.334   4.857   3.021
 7388SOL    HW123063   0.312   4.868   3.118
 7388SOL    HW223064   0.275   4.917   2.967
 7389SOL     OW23065   0.807   4.433   6.553
 7389SOL    HW123066   0.757   4.441   6.639
 7389SOL    HW223067   0.743   4.407   6.480
 7390SOL     OW23068   2.017   1.083   6.963
 7390SOL    HW123069   1.920   1.062   6.954
 7390SOL    HW223070   2.029   1.174   7.002
 7391SOL     OW23071   5.042   4.492   4.988
 7391SOL    HW123072   5.128   4.464   4.947
 7391SOL    HW223073   4.984   4.412   5.003
 7392SOL     OW23074   2.984   6.198   6.942
 7392SOL    HW123075   2.954   6.275   6.999
 7392SOL    HW223076   2.953   6.112   6.983
 7393SOL     OW23077   5.592   4.723   1.454
 7393SOL    HW123078   5.683   4.763   1.463
 7393SOL    HW223079   5.523   4.793   1.469
 7394SOL     OW23080   2.993   2.624   5.977
 7394SOL    HW123081   2.953   2.712   5.950
 7394SOL    HW223082   2.927   2.574   6.034
 7395SOL     OW23083   2.415   1.677   6.863
 7395SOL    HW123084   2.503   1.722   6.880
 7395SOL    HW223085   2.431   1.588   6.819
 7396SOL     OW23086   1.011   6.855   0.643
 7396SOL    HW123087   1.023   6.773   0.587
 7396SOL    HW223088   0.989   6.932   0.583
 7397SOL     OW23089   4.711   5.003   5.363
 7397SOL    HW123090   4.798   4.963   5.391
 7397SOL    HW223091   4.677   4.956   5.281
 7398SOL     OW23092   2.922   5.164   4.360
 7398SOL    HW123093   3.005   5.203   4.399
 7398SOL    HW223094   2.842   5.197   4.411
 7399SOL     OW23095   1.488   3.069   5.926
 7399SOL    HW123096   1.450   3.082   6.017
 7399SOL    HW223097   1.514   2.973   5.914
 7400SOL     OW23098   3.373   3.208   6.097
 7400SOL    HW123099   3.303   3.271   6.130
 7400SOL    HW223100   3.342   3.114   6.110
 7401SOL     OW23101   0.892   0.759   3.932
 7401SOL    HW123102   0.939   0.806   3.856
 7401SOL    HW223103   0.877   0.824   4.006
 7402SOL     OW23104   2.483   5.141   6.009
 7402SOL    HW123105   2.579   5.169   6.010
 7402SOL    HW223106   2.429   5.209   5.960
 7403SOL     OW23107   1.658   3.957   2.756
 7403SOL    HW123108   1.702   3.918   2.674
 7403SOL    HW223109   1.573   4.002   2.729
 7404SOL     OW23110   3.074   5.390   1.093
 7404SOL    HW123111   3.011   5.352   1.026
 7404SOL    HW223112   3.024   5.445   1.160
 7405SOL     OW23113   2.927   4.798   4.591
 7405SOL    HW123114   2.870   4.877   4.613
 7405SOL    HW223115   2.872   4.715   4.597
 7406SOL     OW23116   1.052   3.049   3.450
 7406SOL    HW123117   0.953   3.065   3.460
 7406SOL    HW223118   1.088   3.012   3.536
 7407SOL     OW23119   0.181   6.135   5.007
 7407SOL    HW123120   0.192   6.071   5.083
 7407SOL    HW223121   0.139   6.088   4.929
 7408SOL     OW23122   1.478   3.285   6.230
 7408SOL    HW123123   1.465   3.237   6.144
 7408SOL    HW223124   1.499   3.381   6.212
 7409SOL     OW23125   0.778   1.345   5.036
 7409SOL    HW123126   0.796   1.352   5.134
 7409SOL    HW223127   0.725   1.425   5.006
 7410SOL     OW23128   0.392   4.595   1.502
 7410SOL    HW123129   0.329   4.631   1.571
 7410SOL    HW223130   0.486   4.613   1.531
 7411SOL     OW23131   3.008   6.830   4.287
 7411SOL    HW123132   3.096   6.831   4.334
 7411SOL    HW223133   3.013   6.889   4.205
 7412SOL     OW23134   4.072   0.016   2.971
 7412SOL    HW123135   4.086   0.031   2.873
 7412SOL    HW223136   3.987   0.060   3.000
 7413SOL     OW23137   4.705   5.246   5.200
 7413SOL    HW123138   4.740   5.179   5.266
 7413SOL    HW223139   4.634   5.302   5.244
 7414SOL     OW23140   0.400   6.807   4.222
 7414SOL    HW123141   0.410   6.729   4.160
 7414SOL    HW223142   0.355   6.777   4.306
 7415SOL     OW23143   1.201   3.632   2.877
 7415SOL    HW123144   1.272   3.687   2.922
 7415SOL    HW223145   1.203   3.539   2.913
 7416SOL     OW23146   3.202   0.912   3.602
 7416SOL    HW123147   3.208   0.954   3.511
 7416SOL    HW223148   3.274   0.950   3.660
 7417SOL     OW23149   2.045   0.660   5.893
 7417SOL    HW123150   2.042   0.568   5.931
 7417SOL    HW223151   1.977   0.718   5.939
 7418SOL     OW23152   3.594   5.647   0.432
 7418SOL    HW123153   3.507   5.697   0.425
 7418SOL    HW223154   3.596   5.596   0.519
 7419SOL     OW23155   6.418   2.372   5.261
 7419SOL    HW123156   6.498   2.322   5.294
 7419SOL    HW223157   6.359   2.396   5.339
 7420SOL     OW23158   7.013   6.878   1.679
 7420SOL    HW123159   6.962   6.891   1.764
 7420SOL    HW223160   6.994   6.788   1.641
 7421SOL     OW23161   3.501   3.503   1.143
 7421SOL    HW123162   3.573   3.450   1.188
 7421SOL    HW223163   3.542   3.561   1.072
 7422SOL     OW23164   0.180   3.049   2.579
 7422SOL    HW123165   0.215   3.022   2.489
 7422SOL    HW223166   0.182   3.148   2.588
 7423SOL     OW23167   6.944   4.406   5.525
 7423SOL    HW123168   6.989   4.459   5.452
 7423SOL    HW223169   7.014   4.367   5.585
 7424SOL     OW23170   0.120   0.341   5.005
 7424SOL    HW123171   0.174   0.320   4.923
 7424SOL    HW223172   0.144   0.433   5.037
 7425SOL     OW23173   4.781   5.887   6.378
 7425SOL    HW123174   4.775   5.927   6.286
 7425SOL    HW223175   4.823   5.954   6.440
 7426SOL     OW23176   1.679   1.412   6.703
 7426SOL    HW123177   1.736   1.398   6.784
 7426SOL    HW223178   1.733   1.454   6.631
 7427SOL     OW23179   3.404   6.571   3.876
 7427SOL    HW123180   3.309   6.603   3.880
 7427SOL    HW223181   3.448   6.587   3.964
 7428SOL     OW23182   3.887   1.393   6.047
 7428SOL    HW123183   3.849   1.301   6.035
 7428SOL    HW223184   3.881   1.420   6.143
 7429SOL     OW23185   6.124   6.615   3.514
 7429SOL    HW123186   6.039   6.662   3.538
 7429SOL    HW223187   6.196   6.683   3.499
 7430SOL     OW23188   0.175   3.819   5.812
 7430SOL    HW123189   0.179   3.775   5.721
 7430SOL    HW223190   0.181   3.918   5.801
 7431SOL     OW23191   0.377   3.143   2.865
 7431SOL    HW123192   0.316   3.063   2.859
 7431SOL    HW223193   0.328   3.224   2.835
 7432SOL     OW23194   6.947   0.180   3.189
 7432SOL    HW123195   6.939   0.089   3.230
 7432SOL    HW223196   0.020   0.212   3.196
 7433SOL     OW23197   5.380   5.138   0.027
 7433SOL    HW123198   5.290   5.118   7.010
 7433SOL    HW223199   5.377   5.227   0.073
 7434SOL     OW23200   4.893   0.338   6.100
 7434SOL    HW123201   4.977   0.390   6.085
 7434SOL    HW223202   4.821   0.371   6.038
 7435SOL     OW23203   3.772   5.622   0.840
 7435SOL    HW123204   3.838   5.650   0.770
 7435SOL    HW223205   3.753   5.699   0.901
 7436SOL     OW23206   5.701   3.256   6.234
 7436SOL    HW123207   5.635   3.246   6.159
 7436SOL    HW223208   5.726   3.166   6.268
 7437SOL     OW23209   0.401   6.244   0.473
 7437SOL    HW123210   0.313   6.203   0.450
 7437SOL    HW223211   0.391   6.343   0.477
 7438SOL     OW23212   0.819   5.428   0.444
 7438SOL    HW123213   0.885   5.493   0.405
 7438SOL    HW223214   0.868   5.358   0.495
 7439SOL     OW23215   1.593   6.312   4.965
 7439SOL    HW123216   1.650   6.338   4.887
 7439SOL    HW223217   1.618   6.367   5.045
 7440SOL     OW23218   0.743   3.331   4.478
 7440SOL    HW123219   0.644   3.326   4.460
 7440SOL    HW223220   0.774   3.425   4.460
 7441SOL     OW23221   4.693   6.010   4.523
 7441SOL    HW123222   4.660   6.001   4.617
 7441SOL    HW223223   4.616   6.004   4.460
 7442SOL     OW23224   1.035   1.013   6.244
 7442SOL    HW123225   1.044   0.914   6.255
 7442SOL    HW223226   1.093   1.044   6.169
 7443SOL     OW23227   0.499   0.578   2.066
 7443SOL    HW123228   0.430   0.569   2.138
 7443SOL    HW223229   0.590   0.579   2.107
 7444SOL     OW23230   6.453   3.294   4.450
 7444SOL    HW123231   6.410   3.204   4.454
 7444SOL    HW223232   6.389   3.359   4.409
 7445SOL     OW23233   3.187   1.086   1.243
 7445SOL    HW123234   3.202   0.998   1.197
 7445SOL    HW223235   3.160   1.155   1.176
 7446SOL     OW23236   5.456   3.607   1.124
 7446SOL    HW123237   5.419   3.565   1.042
 7446SOL    HW223238   5.382   3.656   1.172
 7447SOL     OW23239   1.270   3.098   5.752
 7447SOL    HW123240   1.278   3.179   5.695
 7447SOL    HW223241   1.360   3.072   5.787
 7448SOL     OW23242   6.297   6.704   5.327
 7448SOL    HW123243   6.296   6.634   5.398
 7448SOL    HW223244   6.327   6.663   5.241
 7449SOL     OW23245   6.803   2.735   1.812
 7449SOL    HW123246   6.757   2.668   1.754
 7449SOL    HW223247   6.736   2.777   1.874
 7450SOL     OW23248   5.234   1.770   4.440
 7450SOL    HW123249   5.239   1.869   4.451
 7450SOL    HW223250   5.325   1.734   4.422
 7451SOL     OW23251   1.128   6.291   3.049
 7451SOL    HW123252   1.091   6.275   2.957
 7451SOL    HW223253   1.224   6.319   3.042
 7452SOL     OW23254   0.234   6.337   5.487
 7452SOL    HW123255   0.167   6.402   5.450
 7452SOL    HW223256   0.324   6.360   5.452
 7453SOL     OW23257   4.540   5.981   5.482
 7453SOL    HW123258   4.608   6.038   5.529
 7453SOL    HW223259   4.490   6.037   5.416
 7454SOL     OW23260   1.052   2.346   1.638
 7454SOL    HW123261   1.014   2.357   1.546
 7454SOL    HW223262   1.119   2.418   1.655
 7455SOL     OW23263   0.398   2.011   2.208
 7455SOL    HW123264   0.306   2.041   2.232
 7455SOL    HW223265   0.436   1.957   2.283
 7456SOL     OW23266   0.762   2.202   4.159
 7456SOL    HW123267   0.847   2.222   4.112
 7456SOL    HW223268   0.736   2.280   4.216
 7457SOL     OW23269   3.663   1.022   5.255
 7457SOL    HW123270   3.643   0.930   5.221
 7457SOL    HW223271   3.621   1.089   5.193
 7458SOL     OW23272   2.387   6.707   6.608
 7458SOL    HW123273   2.359   6.625   6.558
 7458SOL    HW223274   2.486   6.720   6.596
 7459SOL     OW23275   4.456   0.925   1.344
 7459SOL    HW123276   4.423   0.847   1.291
 7459SOL    HW223277   4.424   0.918   1.438
 7460SOL     OW23278   1.833   4.516   1.164
 7460SOL    HW123279   1.856   4.614   1.167
 7460SOL    HW223280   1.764   4.501   1.093
 7461SOL     OW23281   6.421   1.498   5.837
 7461SOL    HW123282   6.468   1.520   5.922
 7461SOL    HW223283   6.333   1.456   5.857
 7462SOL     OW23284   1.238   4.082   2.930
 7462SOL    HW123285   1.306   4.043   2.868
 7462SOL    HW223286   1.276   4.088   3.022
 7463SOL     OW23287   2.882   5.301   0.922
 7463SOL    HW123288   2.790   5.340   0.921
 7463SOL    HW223289   2.877   5.204   0.901
 7464SOL     OW23290   4.450   0.499   6.628
 7464SOL    HW123291   4.504   0.573   6.589
 7464SOL    HW223292   4.419   0.525   6.720
 7465SOL     OW23293   1.171   6.823   0.371
 7465SOL    HW123294   1.262   6.852   0.403
 7465SOL    HW223295   1.103   6.890   0.399
 7466SOL     OW23296   0.499   0.462   5.986
 7466SOL    HW123297   0.586   0.480   6.031
 7466SOL    HW223298   0.496   0.510   5.898
 7467SOL     OW23299   6.904   1.985   0.144
 7467SOL    HW123300   6.835   2.028   0.201
 7467SOL    HW223301   6.859   1.934   0.070
 7468SOL     OW23302   6.722   2.677   2.833
 7468SOL    HW123303   6.651   2.657   2.901
 7468SOL    HW223304   6.802   2.620   2.850
 7469SOL     OW23305   6.925   0.432   0.176
 7469SOL    HW123306   6.981   0.395   0.250
 7469SOL    HW223307   6.837   0.464   0.213
 7470SOL     OW23308   0.068   2.773   3.773
 7470SOL    HW123309   0.102   2.847   3.831
 7470SOL    HW223310   6.999   2.744   3.806
 7471SOL     OW23311   6.546   6.234   5.645
 7471SOL    HW123312   6.620   6.170   5.664
 7471SOL    HW223313   6.461   6.184   5.634
 7472SOL     OW23314   6.090   6.973   4.394
 7472SOL    HW123315   6.041   6.916   4.329
 7472SOL    HW223316   6.030   6.995   4.471
 7473SOL     OW23317   6.773   4.654   2.812
 7473SOL    HW123318   6.730   4.616   2.894
 7473SOL    HW223319   6.707   4.654   2.737
 7474SOL     OW23320   2.218   1.730   5.209
 7474SOL    HW123321   2.188   1.736   5.305
 7474SOL    HW223322   2.301   1.785   5.197
 7475SOL     OW23323   3.852   0.742   2.710
 7475SOL    HW123324   3.866   0.736   2.611
 7475SOL    HW223325   3.920   0.805   2.749
 7476SOL     OW23326   3.366   5.201   3.964
 7476SOL    HW123327   3.294   5.178   4.030
 7476SOL    HW223328   3.351   5.295   3.932
 7477SOL     OW23329   6.854   1.336   4.781
 7477SOL    HW123330   6.945   1.322   4.820
 7477SOL    HW223331   6.820   1.250   4.745
 7478SOL     OW23332   4.377   4.759   6.730
 7478SOL    HW123333   4.429   4.683   6.768
 7478SOL    HW223334   4.405   4.775   6.635
 7479SOL     OW23335   4.036   2.573   1.661
 7479SOL    HW123336   3.996   2.552   1.572
 7479SOL    HW223337   4.134   2.554   1.660
 7480SOL     OW23338   6.941   3.692   2.014
 7480SOL    HW123339   6.915   3.702   1.918
 7480SOL    HW223340   6.866   3.725   2.072
 7481SOL     OW23341   6.184   5.459   1.574
 7481SOL    HW123342   6.243   5.529   1.615
 7481SOL    HW223343   6.209   5.370   1.610
 7482SOL     OW23344   4.875   2.252   3.527
 7482SOL    HW123345   4.900   2.334   3.578
 7482SOL    HW223346   4.958   2.202   3.501
 7483SOL     OW23347   4.820   2.474   5.123
 7483SOL    HW123348   4.723   2.477   5.100
 7483SOL    HW223349   4.850   2.564   5.155
 7484SOL     OW23350   0.866   1.117   3.588
 7484SOL    HW123351   0.877   1.034   3.642
 7484SOL    HW223352   0.813   1.184   3.640
 7485SOL     OW23353   3.276   0.307   4.341
 7485SOL    HW123354   3.196   0.340   4.292
 7485SOL    HW223355   3.301   0.373   4.412
 7486SOL     OW23356   2.882   0.213   5.736
 7486SOL    HW123357   2.789   0.180   5.724
 7486SOL    HW223358   2.912   0.259   5.653
 7487SOL     OW23359   2.687   6.005   2.761
 7487SOL    HW123360   2.745   5.925   2.742
 7487SOL    HW223361   2.742   6.075   2.806
 7488SOL     OW23362   2.180   6.788   4.350
 7488SOL    HW123363   2.164   6.884   4.373
 7488SOL    HW223364   2.101   6.733   4.379
 7489SOL     OW23365   5.531   2.138   4.721
 7489SOL    HW123366   5.509   2.126   4.818
 7489SOL    HW223367   5.594   2.215   4.711
 7490SOL     OW23368   0.351   0.577   1.444
 7490SOL    HW123369   0.405   0.619   1.371
 7490SOL    HW223370   0.369   0.625   1.530
 7491SOL     OW23371   6.103   3.375   6.121
 7491SOL    HW123372   6.194   3.398   6.090
 7491SOL    HW223373   6.057   3.318   6.053
 7492SOL     OW23374   2.141   0.763   3.821
 7492SOL    HW123375   2.127   0.664   3.822
 7492SOL    HW223376   2.212   0.787   3.887
 7493SOL     OW23377   6.470   4.032   0.004
 7493SOL    HW123378   6.498   3.948   6.979
 7493SOL    HW223379   6.551   4.082   0.034
 7494SOL     OW23380   5.366   0.857   2.900
 7494SOL    HW123381   5.373   0.762   2.868
 7494SOL    HW223382   5.347   0.917   2.822
 7495SOL     OW23383   1.865   0.761   0.599
 7495SOL    HW123384   1.920   0.844   0.593
 7495SOL    HW223385   1.842   0.743   0.695
 7496SOL     OW23386   0.147   3.348   5.808
 7496SOL    HW123387   0.157   3.426   5.870
 7496SOL    HW223388   0.230   3.338   5.753
 7497SOL     OW23389   2.444   4.589   1.045
 7497SOL    HW123390   2.507   4.578   1.121
 7497SOL    HW223391   2.467   4.671   0.993
 7498SOL     OW23392   2.219   1.316   5.442
 7498SOL    HW123393   2.170   1.271   5.367
 7498SOL    HW223394   2.318   1.307   5.427
 7499SOL     OW23395   4.094   1.953   2.901
 7499SOL    HW123396   4.122   2.048   2.916
 7499SOL    HW223397   4.154   1.911   2.833
 7500SOL     OW23398   3.485   5.230   4.464
 7500SOL    HW123399   3.570   5.271   4.497
 7500SOL    HW223400   3.480   5.134   4.494
 7501SOL     OW23401   5.679   3.943   3.759
 7501SOL    HW123402   5.676   4.026   3.703
 7501SOL    HW223403   5.674   3.862   3.700
 7502SOL     OW23404   1.407   0.176   4.520
 7502SOL    HW123405   1.425   0.268   4.556
 7502SOL    HW223406   1.384   0.182   4.423
 7503SOL     OW23407   2.906   1.757   0.681
 7503SOL    HW123408   2.817   1.797   0.659
 7503SOL    HW223409   2.895   1.660   0.703
 7504SOL     OW23410   2.028   6.970   2.756
 7504SOL    HW123411   2.123   6.998   2.744
 7504SOL    HW223412   1.984   6.960   2.667
 7505SOL     OW23413   2.503   1.986   5.419
 7505SOL    HW123414   2.437   2.014   5.488
 7505SOL    HW223415   2.504   2.053   5.345
 7506SOL     OW23416   4.802   0.172   3.402
 7506SOL    HW123417   4.734   0.134   3.338
 7506SOL    HW223418   4.781   0.268   3.420
 7507SOL     OW23419   0.718   0.371   2.641
 7507SOL    HW123420   0.818   0.364   2.641
 7507SOL    HW223421   0.689   0.425   2.720
 7508SOL     OW23422   0.232   6.537   2.251
 7508SOL    HW123423   0.230   6.599   2.173
 7508SOL    HW223424   0.148   6.547   2.305
 7509SOL     OW23425   5.613   3.979   0.414
 7509SOL    HW123426   5.613   4.045   0.338
 7509SOL    HW223427   5.556   3.901   0.389
 7510SOL     OW23428   3.825   4.673   5.370
 7510SOL    HW123429   3.793   4.761   5.334
 7510SOL    HW223430   3.782   4.599   5.319
 7511SOL     OW23431   1.938   6.845   3.821
 7511SOL    HW123432   1.886   6.929   3.805
 7511SOL    HW223433   1.994   6.856   3.904
 7512SOL     OW23434   2.738   5.406   6.926
 7512SOL    HW123435   2.646   5.407   6.887
 7512SOL    HW223436   2.745   5.476   6.997
 7513SOL     OW23437   2.017   1.365   1.817
 7513SOL    HW123438   2.022   1.346   1.719
 7513SOL    HW223439   1.967   1.451   1.831
 7514SOL     OW23440   1.940   5.873   1.458
 7514SOL    HW123441   1.945   5.970   1.481
 7514SOL    HW223442   1.943   5.819   1.542
 7515SOL     OW23443   0.500   5.180   1.904
 7515SOL    HW123444   0.583   5.212   1.950
 7515SOL    HW223445   0.433   5.151   1.972
 7516SOL     OW23446   6.387   5.799   5.341
 7516SOL    HW123447   6.451   5.866   5.380
 7516SOL    HW223448   6.438   5.719   5.309
 7517SOL     OW23449   0.026   2.918   0.705
 7517SOL    HW123450   0.123   2.897   0.723
 7517SOL    HW223451   6.994   2.895   0.787
 7518SOL     OW23452   4.291   5.171   3.210
 7518SOL    HW123453   4.214   5.232   3.189
 7518SOL    HW223454   4.361   5.221   3.261
 7519SOL     OW23455   6.508   6.876   4.413
 7519SOL    HW123456   6.569   6.953   4.433
 7519SOL    HW223457   6.547   6.792   4.452
 7520SOL     OW23458   3.469   0.120   2.305
 7520SOL    HW123459   3.560   0.105   2.343
 7520SOL    HW223460   3.453   0.219   2.298
 7521SOL     OW23461   4.686   4.456   6.080
 7521SOL    HW123462   4.626   4.472   6.002
 7521SOL    HW223463   4.639   4.481   6.165
 7522SOL     OW23464   2.138   0.298   6.552
 7522SOL    HW123465   2.160   0.318   6.648
 7522SOL    HW223466   2.223   0.300   6.498
 7523SOL     OW23467   5.769   0.061   5.945
 7523SOL    HW123468   5.746   6.989   5.919
 7523SOL    HW223469   5.709   0.091   6.019
 7524SOL     OW23470   1.646   1.724   5.975
 7524SOL    HW123471   1.696   1.799   5.930
 7524SOL    HW223472   1.708   1.648   5.992
 7525SOL     OW23473   3.326   0.842   6.281
 7525SOL    HW123474   3.417   0.884   6.284
 7525SOL    HW223475   3.257   0.910   6.305
 7526SOL     OW23476   3.040   3.360   1.768
 7526SOL    HW123477   3.070   3.340   1.675
 7526SOL    HW223478   2.959   3.305   1.789
 7527SOL     OW23479   4.385   5.757   2.908
 7527SOL    HW123480   4.398   5.667   2.948
 7527SOL    HW223481   4.288   5.773   2.892
 7528SOL     OW23482   5.500   1.833   0.265
 7528SOL    HW123483   5.578   1.777   0.236
 7528SOL    HW223484   5.428   1.774   0.302
 7529SOL     OW23485   5.785   0.163   4.286
 7529SOL    HW123486   5.749   0.098   4.219
 7529SOL    HW223487   5.766   0.256   4.255
 7530SOL     OW23488   0.268   3.666   2.332
 7530SOL    HW123489   0.278   3.591   2.397
 7530SOL    HW223490   0.211   3.637   2.256
 7531SOL     OW23491   4.409   2.305   4.417
 7531SOL    HW123492   4.474   2.233   4.390
 7531SOL    HW223493   4.455   2.371   4.476
 7532SOL     OW23494   5.417   4.487   1.411
 7532SOL    HW123495   5.495   4.430   1.385
 7532SOL    HW223496   5.446   4.556   1.476
 7533SOL     OW23497   2.129   2.148   2.142
 7533SOL    HW123498   2.040   2.113   2.170
 7533SOL    HW223499   2.190   2.151   2.221
 7534SOL     OW23500   4.449   6.128   5.287
 7534SOL    HW123501   4.381   6.110   5.216
 7534SOL    HW223502   4.531   6.167   5.245
 7535SOL     OW23503   2.474   0.080   6.017
 7535SOL    HW123504   2.512   0.106   6.106
 7535SOL    HW223505   2.494   7.004   6.000
 7536SOL     OW23506   4.777   4.447   4.834
 7536SOL    HW123507   4.746   4.387   4.908
 7536SOL    HW223508   4.741   4.539   4.848
 7537SOL     OW23509   3.425   5.015   2.934
 7537SOL    HW123510   3.360   5.011   2.858
 7537SOL    HW223511   3.383   5.061   3.012
 7538SOL     OW23512   2.832   3.180   1.832
 7538SOL    HW123513   2.861   3.104   1.774
 7538SOL    HW223514   2.735   3.198   1.818
 7539SOL     OW23515   1.018   2.929   4.239
 7539SOL    HW123516   0.966   3.014   4.228
 7539SOL    HW223517   0.982   2.860   4.176
 7540SOL     OW23518   4.404   6.851   5.272
 7540SOL    HW123519   4.343   6.853   5.352
 7540SOL    HW223520   4.419   6.945   5.240
 7541SOL     OW23521   0.032   4.337   4.112
 7541SOL    HW123522   0.042   4.242   4.141
 7541SOL    HW223523   6.956   4.357   4.097
 7542SOL     OW23524   0.763   5.789   6.781
 7542SOL    HW123525   0.848   5.773   6.831
 7542SOL    HW223526   0.774   5.760   6.686
 7543SOL     OW23527   3.544   2.225   0.394
 7543SOL    HW123528   3.493   2.310   0.408
 7543SOL    HW223529   3.496   2.167   0.329
 7544SOL     OW23530   0.454   2.279   3.055
 7544SOL    HW123531   0.413   2.245   3.139
 7544SOL    HW223532   0.547   2.310   3.073
 7545SOL     OW23533   6.275   5.868   1.576
 7545SOL    HW123534   6.296   5.964   1.560
 7545SOL    HW223535   6.338   5.830   1.644
 7546SOL     OW23536   3.070   1.602   2.140
 7546SOL    HW123537   3.152   1.578   2.088
 7546SOL    HW223538   3.025   1.518   2.172
 7547SOL     OW23539   4.644   1.250   0.108
 7547SOL    HW123540   4.644   1.258   0.208
 7547SOL    HW223541   4.650   1.342   0.068
 7548SOL     OW23542   4.196   2.442   0.323
 7548SOL    HW123543   4.142   2.514   0.280
 7548SOL    HW223544   4.167   2.353   0.288
 7549SOL     OW23545   5.882   1.993   1.051
 7549SOL    HW123546   5.806   1.932   1.030
 7549SOL    HW223547   5.872   2.078   0.998
 7550SOL     OW23548   2.552   4.550   2.467
 7550SOL    HW123549   2.599   4.614   2.528
 7550SOL    HW223550   2.587   4.561   2.374
 7551SOL     OW23551   5.005   3.918   6.628
 7551SOL    HW123552   4.968   3.892   6.717
 7551SOL    HW223553   5.104   3.899   6.626
 7552SOL     OW23554   1.279   5.410   3.197
 7552SOL    HW123555   1.250   5.506   3.193
 7552SOL    HW223556   1.212   5.353   3.150
 7553SOL     OW23557   4.527   5.873   4.989
 7553SOL    HW123558   4.430   5.894   4.980
 7553SOL    HW223559   4.550   5.862   5.086
 7554SOL     OW23560   4.285   1.713   1.599
 7554SOL    HW123561   4.189   1.740   1.613
 7554SOL    HW223562   4.319   1.755   1.515
 7555SOL     OW23563   1.703   4.999   5.591
 7555SOL    HW123564   1.705   4.903   5.563
 7555SOL    HW223565   1.698   5.005   5.691
 7556SOL     OW23566   0.898   2.872   6.291
 7556SOL    HW123567   0.948   2.941   6.342
 7556SOL    HW223568   0.817   2.913   6.249
 7557SOL     OW23569   5.379   1.999   6.189
 7557SOL    HW123570   5.378   2.096   6.166
 7557SOL    HW223571   5.473   1.969   6.206
 7558SOL     OW23572   1.501   2.624   4.558
 7558SOL    HW123573   1.488   2.561   4.635
 7558SOL    HW223574   1.580   2.595   4.505
 7559SOL     OW23575   5.857   4.751   6.748
 7559SOL    HW123576   5.823   4.701   6.827
 7559SOL    HW223577   5.895   4.838   6.778
 7560SOL     OW23578   4.881   6.705   1.273
 7560SOL    HW123579   4.917   6.762   1.346
 7560SOL    HW223580   4.884   6.755   1.187
 7561SOL     OW23581   1.218   3.511   6.882
 7561SOL    HW123582   1.118   3.508   6.884
 7561SOL    HW223583   1.251   3.455   6.806
 7562SOL     OW23584   6.210   6.211   4.263
 7562SOL    HW123585   6.280   6.145   4.290
 7562SOL    HW223586   6.158   6.240   4.343
 7563SOL     OW23587   1.999   6.741   0.815
 7563SOL    HW123588   1.998   6.774   0.909
 7563SOL    HW223589   2.006   6.642   0.814
 7564SOL     OW23590   4.523   1.333   2.863
 7564SOL    HW123591   4.544   1.258   2.800
 7564SOL    HW223592   4.607   1.381   2.887
 7565SOL     OW23593   6.099   3.371   0.671
 7565SOL    HW123594   6.131   3.382   0.766
 7565SOL    HW223595   6.137   3.445   0.615
 7566SOL     OW23596   6.638   4.606   3.047
 7566SOL    HW123597   6.701   4.674   3.085
 7566SOL    HW223598   6.652   4.518   3.093
 7567SOL     OW23599   1.538   2.184   5.111
 7567SOL    HW123600   1.532   2.283   5.117
 7567SOL    HW223601   1.455   2.144   5.150
 7568SOL     OW23602   5.594   6.803   2.802
 7568SOL    HW123603   5.670   6.781   2.863
 7568SOL    HW223604   5.508   6.779   2.848
 7569SOL     OW23605   3.629   6.523   6.187
 7569SOL    HW123606   3.545   6.574   6.172
 7569SOL    HW223607   3.649   6.467   6.107
 7570SOL     OW23608   5.351   4.538   5.011
 7570SOL    HW123609   5.405   4.525   5.093
 7570SOL    HW223610   5.339   4.450   4.964
 7571SOL     OW23611   5.394   5.703   3.635
 7571SOL    HW123612   5.369   5.762   3.558
 7571SOL    HW223613   5.312   5.681   3.688
 7572SOL     OW23614   4.033   0.861   1.827
 7572SOL    HW123615   4.130   0.851   1.847
 7572SOL    HW223616   4.016   0.833   1.733
 7573SOL     OW23617   0.051   6.502   4.647
 7573SOL    HW123618   6.994   6.441   4.665
 7573SOL    HW223619   0.116   6.454   4.588
 7574SOL     OW23620   6.418   0.966   4.647
 7574SOL    HW123621   6.328   1.010   4.652
 7574SOL    HW223622   6.459   0.984   4.558
 7575SOL     OW23623   4.321   0.367   6.009
 7575SOL    HW123624   4.259   0.364   5.931
 7575SOL    HW223625   4.275   0.409   6.087
 7576SOL     OW23626   4.782   4.674   6.443
 7576SOL    HW123627   4.696   4.626   6.459
 7576SOL    HW223628   4.797   4.687   6.345
 7577SOL     OW23629   7.014   0.014   6.416
 7577SOL    HW123630   0.051   0.095   6.412
 7577SOL    HW223631   0.051   6.954   6.430
 7578SOL     OW23632   2.472   6.186   1.884
 7578SOL    HW123633   2.487   6.199   1.982
 7578SOL    HW223634   2.384   6.140   1.869
 7579SOL     OW23635   6.482   1.508   1.966
 7579SOL    HW123636   6.386   1.490   1.944
 7579SOL    HW223637   6.507   1.600   1.934
 7580SOL     OW23638   1.138   4.036   3.660
 7580SOL    HW123639   1.089   4.097   3.722
 7580SOL    HW223640   1.168   4.087   3.579
 7581SOL     OW23641   6.720   0.833   1.234
 7581SOL    HW123642   6.765   0.802   1.151
 7581SOL    HW223643   6.630   0.872   1.211
 7582SOL     OW23644   2.846   0.913   0.836
 7582SOL    HW123645   2.860   0.967   0.919
 7582SOL    HW223646   2.929   0.861   0.815
 7583SOL     OW23647   6.466   3.011   0.925
 7583SOL    HW123648   6.501   2.927   0.965
 7583SOL    HW223649   6.421   3.066   0.996
 7584SOL     OW23650   2.741   0.152   1.586
 7584SOL    HW123651   2.663   0.133   1.526
 7584SOL    HW223652   2.774   0.245   1.570
 7585SOL     OW23653   1.745   2.392   6.104
 7585SOL    HW123654   1.768   2.488   6.123
 7585SOL    HW223655   1.690   2.356   6.180
 7586SOL     OW23656   3.393   1.040   3.744
 7586SOL    HW123657   3.402   1.131   3.787
 7586SOL    HW223658   3.463   0.979   3.781
 7587SOL     OW23659   2.470   2.074   6.670
 7587SOL    HW123660   2.562   2.094   6.637
 7587SOL    HW223661   2.446   1.980   6.647
 7588SOL     OW23662   1.452   3.253   2.552
 7588SOL    HW123663   1.388   3.320   2.590
 7588SOL    HW223664   1.499   3.206   2.626
 7589SOL     OW23665   0.817   6.842   2.054
 7589SOL    HW123666   0.862   6.903   1.988
 7589SOL    HW223667   0.868   6.756   2.058
 7590SOL     OW23668   4.706   1.918   6.746
 7590SOL    HW123669   4.728   2.015   6.755
 7590SOL    HW223670   4.608   1.905   6.761
 7591SOL     OW23671   0.018   3.817   0.199
 7591SOL    HW123672   7.016   3.841   0.105
 7591SOL    HW223673   6.996   3.729   0.222
 7592SOL     OW23674   6.773   3.850   5.892
 7592SOL    HW123675   6.831   3.797   5.831
 7592SOL    HW223676   6.763   3.943   5.857
 7593SOL     OW23677   5.938   3.115   1.232
 7593SOL    HW123678   5.981   3.025   1.233
 7593SOL    HW223679   5.848   3.110   1.273
 7594SOL     OW23680   0.896   5.169   2.453
 7594SOL    HW123681   0.994   5.169   2.474
 7594SOL    HW223682   0.861   5.075   2.455
 7595SOL     OW23683   0.240   2.357   5.635
 7595SOL    HW123684   0.232   2.269   5.588
 7595SOL    HW223685   0.148   2.392   5.655
 7596SOL     OW23686   4.615   5.436   3.655
 7596SOL    HW123687   4.541   5.503   3.653
 7596SOL    HW223688   4.577   5.344   3.669
 7597SOL     OW23689   3.953   6.264   2.920
 7597SOL    HW123690   3.958   6.172   2.959
 7597SOL    HW223691   3.992   6.329   2.985
 7598SOL     OW23692   6.563   1.358   2.732
 7598SOL    HW123693   6.495   1.340   2.803
 7598SOL    HW223694   6.631   1.423   2.767
 7599SOL     OW23695   5.481   1.608   2.596
 7599SOL    HW123696   5.501   1.691   2.647
 7599SOL    HW223697   5.552   1.540   2.613
 7600SOL     OW23698   2.350   1.701   2.689
 7600SOL    HW123699   2.299   1.708   2.603
 7600SOL    HW223700   2.361   1.605   2.714
 7601SOL     OW23701   2.083   5.275   3.101
 7601SOL    HW123702   2.123   5.259   3.191
 7601SOL    HW223703   2.126   5.355   3.059
 7602SOL     OW23704   0.457   4.397   6.238
 7602SOL    HW123705   0.472   4.436   6.147
 7602SOL    HW223706   0.407   4.462   6.295
 7603SOL     OW23707   1.853   5.283   6.241
 7603SOL    HW123708   1.788   5.309   6.170
 7603SOL    HW223709   1.802   5.250   6.321
 7604SOL     OW23710   1.648   4.737   4.273
 7604SOL    HW123711   1.666   4.803   4.347
 7604SOL    HW223712   1.616   4.651   4.312
 7605SOL     OW23713   0.537   6.846   1.088
 7605SOL    HW123714   0.627   6.802   1.087
 7605SOL    HW223715   0.513   6.871   1.182
 7606SOL     OW23716   5.901   3.299   4.370
 7606SOL    HW123717   5.871   3.390   4.399
 7606SOL    HW223718   5.891   3.290   4.271
 7607SOL     OW23719   3.653   4.677   0.205
 7607SOL    HW123720   3.674   4.741   0.131
 7607SOL    HW223721   3.555   4.681   0.224
 7608SOL     OW23722   4.081   3.821   2.479
 7608SOL    HW123723   4.095   3.787   2.385
 7608SOL    HW223724   4.098   3.919   2.482
 7609SOL     OW23725   0.954   3.499   3.992
 7609SOL    HW123726   0.899   3.426   3.951
 7609SOL    HW223727   1.050   3.473   3.989
 7610SOL     OW23728   5.595   5.861   0.106
 7610SOL    HW123729   5.596   5.766   0.074
 7610SOL    HW223730   5.629   5.865   0.200
 7611SOL     OW23731   0.315   2.023   0.697
 7611SOL    HW123732   0.232   2.012   0.642
 7611SOL    HW223733   0.333   1.938   0.747
 7612SOL     OW23734   5.229   3.227   4.186
 7612SOL    HW123735   5.265   3.153   4.244
 7612SOL    HW223736   5.177   3.291   4.242
 7613SOL     OW23737   6.476   3.514   1.370
 7613SOL    HW123738   6.462   3.443   1.439
 7613SOL    HW223739   6.387   3.546   1.338
 7614SOL     OW23740   4.663   3.419   0.686
 7614SOL    HW123741   4.664   3.335   0.741
 7614SOL    HW223742   4.704   3.400   0.597
 7615SOL     OW23743   3.189   4.861   0.130
 7615SOL    HW123744   3.268   4.843   0.190
 7615SOL    HW223745   3.163   4.957   0.139
 7616SOL     OW23746   5.974   5.132   5.199
 7616SOL    HW123747   5.992   5.227   5.225
 7616SOL    HW223748   6.039   5.104   5.128
 7617SOL     OW23749   3.876   5.366   2.738
 7617SOL    HW123750   3.882   5.434   2.665
 7617SOL    HW223751   3.785   5.367   2.778
 7618SOL     OW23752   0.533   1.348   5.567
 7618SOL    HW123753   0.481   1.277   5.520
 7618SOL    HW223754   0.539   1.429   5.509
 7619SOL     OW23755   5.424   2.607   5.193
 7619SOL    HW123756   5.326   2.627   5.194
 7619SOL    HW223757   5.474   2.679   5.240
 7620SOL     OW23758   4.440   5.369   0.889
 7620SOL    HW123759   4.441   5.292   0.825
 7620SOL    HW223760   4.534   5.397   0.910
 7621SOL     OW23761   6.967   1.874   1.149
 7621SOL    HW123762   0.010   1.919   1.211
 7621SOL    HW223763   6.999   1.885   1.055
 7622SOL     OW23764   4.766   5.710   1.430
 7622SOL    HW123765   4.808   5.720   1.520
 7622SOL    HW223766   4.748   5.613   1.412
 7623SOL     OW23767   4.557   4.512   6.768
 7623SOL    HW123768   4.503   4.494   6.686
 7623SOL    HW223769   4.645   4.464   6.760
 7624SOL     OW23770   0.198   3.304   5.097
 7624SOL    HW123771   0.282   3.276   5.052
 7624SOL    HW223772   0.132   3.229   5.096
 7625SOL     OW23773   4.394   0.966   1.626
 7625SOL    HW123774   4.491   0.962   1.600
 7625SOL    HW223775   4.379   1.046   1.684
 7626SOL     OW23776   5.744   6.977   4.076
 7626SOL    HW123777   5.801   6.988   3.994
 7626SOL    HW223778   5.791   6.916   4.140
 7627SOL     OW23779   5.279   2.483   0.400
 7627SOL    HW123780   5.340   2.563   0.408
 7627SOL    HW223781   5.311   2.411   0.462
 7628SOL     OW23782   3.580   1.344   2.531
 7628SOL    HW123783   3.502   1.330   2.592
 7628SOL    HW223784   3.640   1.414   2.570
 7629SOL     OW23785   6.676   6.539   3.244
 7629SOL    HW123786   6.723   6.617   3.201
 7629SOL    HW223787   6.614   6.497   3.178
 7630SOL     OW23788   6.600   6.584   1.230
 7630SOL    HW123789   6.614   6.676   1.266
 7630SOL    HW223790   6.643   6.577   1.140
 7631SOL     OW23791   1.249   1.352   6.010
 7631SOL    HW123792   1.192   1.410   5.952
 7631SOL    HW223793   1.234   1.377   6.106
 7632SOL     OW23794   3.228   2.910   1.916
 7632SOL    HW123795   3.246   2.954   1.828
 7632SOL    HW223796   3.156   2.842   1.905
 7633SOL     OW23797   5.099   1.183   1.365
 7633SOL    HW123798   5.185   1.136   1.347
 7633SOL    HW223799   5.116   1.259   1.428
 7634SOL     OW23800   1.289   2.175   2.645
 7634SOL    HW123801   1.327   2.263   2.673
 7634SOL    HW223802   1.234   2.186   2.562
 7635SOL     OW23803   3.870   5.257   4.725
 7635SOL    HW123804   3.958   5.212   4.734
 7635SOL    HW223805   3.851   5.275   4.628
 7636SOL     OW23806   1.131   2.482   3.837
 7636SOL    HW123807   1.135   2.435   3.749
 7636SOL    HW223808   1.195   2.438   3.901
 7637SOL     OW23809   2.414   5.257   2.524
 7637SOL    HW123810   2.486   5.191   2.545
 7637SOL    HW223811   2.413   5.328   2.594
 7638SOL     OW23812   2.832   6.208   0.779
 7638SOL    HW123813   2.882   6.133   0.736
 7638SOL    HW223814   2.851   6.210   0.877
 7639SOL     OW23815   1.350   2.380   0.644
 7639SOL    HW123816   1.359   2.465   0.696
 7639SOL    HW223817   1.258   2.344   0.654
 7640SOL     OW23818   3.168   1.939   6.376
 7640SOL    HW123819   3.266   1.942   6.357
 7640SOL    HW223820   3.124   2.021   6.338
 7641SOL     OW23821   1.355   4.998   2.265
 7641SOL    HW123822   1.448   4.990   2.301
 7641SOL    HW223823   1.353   5.066   2.192
 7642SOL     OW23824   3.910   0.304   2.689
 7642SOL    HW123825   3.909   0.356   2.775
 7642SOL    HW223826   3.851   0.350   2.622
 7643SOL     OW23827   4.947   3.382   4.137
 7643SOL    HW123828   4.945   3.445   4.215
 7643SOL    HW223829   4.933   3.289   4.170
 7644SOL     OW23830   6.134   2.526   2.164
 7644SOL    HW123831   6.125   2.538   2.065
 7644SOL    HW223832   6.048   2.489   2.200
 7645SOL     OW23833   4.067   4.017   5.562
 7645SOL    HW123834   4.081   3.939   5.502
 7645SOL    HW223835   3.971   4.022   5.589
 7646SOL     OW23836   1.335   3.942   3.296
 7646SOL    HW123837   1.413   3.882   3.313
 7646SOL    HW223838   1.252   3.887   3.287
 7647SOL     OW23839   6.367   3.639   2.872
 7647SOL    HW123840   6.432   3.694   2.924
 7647SOL    HW223841   6.367   3.545   2.907
 7648SOL     OW23842   2.443   1.451   3.012
 7648SOL    HW123843   2.454   1.541   3.055
 7648SOL    HW223844   2.408   1.463   2.919
 7649SOL     OW23845   0.898   0.674   2.796
 7649SOL    HW123846   0.830   0.747   2.784
 7649SOL    HW223847   0.854   0.592   2.830
 7650SOL     OW23848   4.678   2.034   1.213
 7650SOL    HW123849   4.651   1.997   1.123
 7650SOL    HW223850   4.596   2.061   1.264
 7651SOL     OW23851   2.428   1.090   4.198
 7651SOL    HW123852   2.340   1.045   4.185
 7651SOL    HW223853   2.414   1.187   4.217
 7652SOL     OW23854   5.857   3.399   4.769
 7652SOL    HW123855   5.854   3.499   4.772
 7652SOL    HW223856   5.771   3.365   4.730
 7653SOL     OW23857   1.406   2.159   6.621
 7653SOL    HW123858   1.317   2.161   6.575
 7653SOL    HW223859   1.405   2.090   6.693
 7654SOL     OW23860   5.018   3.036   3.724
 7654SOL    HW123861   5.018   3.133   3.699
 7654SOL    HW223862   5.112   3.002   3.727
 7655SOL     OW23863   4.894   0.149   3.029
 7655SOL    HW123864   4.991   0.167   3.041
 7655SOL    HW223865   4.879   0.097   2.944
 7656SOL     OW23866   2.305   4.088   6.015
 7656SOL    HW123867   2.393   4.135   5.998
 7656SOL    HW223868   2.237   4.122   5.951
 7657SOL     OW23869   1.672   3.135   4.390
 7657SOL    HW123870   1.754   3.092   4.429
 7657SOL    HW223871   1.634   3.074   4.320
 7658SOL     OW23872   3.953   6.783   5.797
 7658SOL    HW123873   3.961   6.842   5.877
 7658SOL    HW223874   3.947   6.839   5.715
 7659SOL     OW23875   5.368   5.717   6.600
 7659SOL    HW123876   5.341   5.678   6.688
 7659SOL    HW223877   5.379   5.643   6.533
 7660SOL     OW23878   0.418   5.937   4.349
 7660SOL    HW123879   0.503   5.900   4.312
 7660SOL    HW223880   0.406   5.907   4.443
 7661SOL     OW23881   6.300   2.460   4.353
 7661SOL    HW123882   6.242   2.514   4.292
 7661SOL    HW223883   6.378   2.425   4.301
 7662SOL     OW23884   1.143   3.677   2.626
 7662SOL    HW123885   1.153   3.675   2.725
 7662SOL    HW223886   1.231   3.701   2.585
 7663SOL     OW23887   1.173   5.680   5.879
 7663SOL    HW123888   1.127   5.767   5.864
 7663SOL    HW223889   1.109   5.605   5.857
 7664SOL     OW23890   3.621   0.019   1.416
 7664SOL    HW123891   3.531   7.000   1.401
 7664SOL    HW223892   3.621   0.069   1.503
 7665SOL     OW23893   5.467   0.024   5.297
 7665SOL    HW123894   5.445   6.948   5.295
 7665SOL    HW223895   5.474   0.055   5.391
 7666SOL     OW23896   0.123   5.660   1.806
 7666SOL    HW123897   0.065   5.590   1.849
 7666SOL    HW223898   0.143   5.732   1.872
 7667SOL     OW23899   5.288   6.267   2.445
 7667SOL    HW123900   5.283   6.184   2.500
 7667SOL    HW223901   5.381   6.278   2.409
 7668SOL     OW23902   2.962   4.555   0.414
 7668SOL    HW123903   3.004   4.576   0.326
 7668SOL    HW223904   2.983   4.629   0.479
 7669SOL     OW23905   5.080   1.573   5.743
 7669SOL    HW123906   5.053   1.524   5.660
 7669SOL    HW223907   5.060   1.671   5.731
 7670SOL     OW23908   0.859   5.139   6.718
 7670SOL    HW123909   0.850   5.235   6.748
 7670SOL    HW223910   0.887   5.083   6.796
 7671SOL     OW23911   4.485   0.854   2.919
 7671SOL    HW123912   4.582   0.859   2.898
 7671SOL    HW223913   4.452   0.944   2.948
 7672SOL     OW23914   0.148   0.174   2.984
 7672SOL    HW123915   0.197   0.092   2.953
 7672SOL    HW223916   0.213   0.237   3.027
 7673SOL     OW23917   1.546   5.710   0.010
 7673SOL    HW123918   1.508   5.796   0.042
 7673SOL    HW223919   1.621   5.728   6.967
 7674SOL     OW23920   5.706   1.392   3.277
 7674SOL    HW123921   5.761   1.448   3.215
 7674SOL    HW223922   5.609   1.406   3.256
 7675SOL     OW23923   6.319   6.624   2.313
 7675SOL    HW123924   6.248   6.671   2.259
 7675SOL    HW223925   6.346   6.540   2.266
 7676SOL     OW23926   1.647   1.737   0.561
 7676SOL    HW123927   1.638   1.817   0.620
 7676SOL    HW223928   1.708   1.670   0.604
 7677SOL     OW23929   0.647   5.161   2.233
 7677SOL    HW123930   0.603   5.178   2.321
 7677SOL    HW223931   0.705   5.238   2.209
 7678SOL     OW23932   1.755   2.545   4.481
 7678SOL    HW123933   1.838   2.557   4.428
 7678SOL    HW223934   1.758   2.458   4.529
 7679SOL     OW23935   3.091   5.623   6.662
 7679SOL    HW123936   3.077   5.524   6.671
 7679SOL    HW223937   3.089   5.648   6.565
 7680SOL     OW23938   1.769   1.392   0.561
 7680SOL    HW123939   1.858   1.352   0.536
 7680SOL    HW223940   1.784   1.471   0.620
 7681SOL     OW23941   2.057   0.009   1.105
 7681SOL    HW123942   2.078   0.105   1.120
 7681SOL    HW223943   2.142   6.980   1.089
 7682SOL     OW23944   3.463   6.878   2.506
 7682SOL    HW123945   3.498   6.875   2.412
 7682SOL    HW223946   3.533   6.842   2.568
 7683SOL     OW23947   5.532   1.477   3.875
 7683SOL    HW123948   5.453   1.437   3.920
 7683SOL    HW223949   5.615   1.428   3.904
 7684SOL     OW23950   3.626   2.050   1.540
 7684SOL    HW123951   3.656   2.064   1.634
 7684SOL    HW223952   3.568   1.968   1.535
 7685SOL     OW23953   3.220   2.386   6.514
 7685SOL    HW123954   3.262   2.298   6.536
 7685SOL    HW223955   3.248   2.415   6.423
 7686SOL     OW23956   0.018   6.660   3.162
 7686SOL    HW123957   6.962   6.723   3.157
 7686SOL    HW223958   0.076   6.684   3.240
 7687SOL     OW23959   5.606   4.984   3.979
 7687SOL    HW123960   5.521   5.032   3.959
 7687SOL    HW223961   5.586   4.899   4.028
 7688SOL     OW23962   1.192   6.044   6.199
 7688SOL    HW123963   1.234   6.135   6.204
 7688SOL    HW223964   1.242   5.988   6.133
 7689SOL     OW23965   5.964   6.394   3.043
 7689SOL    HW123966   5.938   6.443   2.960
 7689SOL    HW223967   5.909   6.427   3.120
 7690SOL     OW23968   5.632   4.545   0.710
 7690SOL    HW123969   5.597   4.638   0.705
 7690SOL    HW223970   5.603   4.494   0.629
 7691SOL     OW23971   5.310   2.952   5.260
 7691SOL    HW123972   5.277   3.024   5.321
 7691SOL    HW223973   5.397   2.981   5.219
 7692SOL     OW23974   0.302   6.415   1.887
 7692SOL    HW123975   0.216   6.366   1.900
 7692SOL    HW223976   0.294   6.508   1.925
 7693SOL     OW23977   3.986   0.283   1.233
 7693SOL    HW123978   4.015   0.213   1.298
 7693SOL    HW223979   4.041   0.277   1.150
 7694SOL     OW23980   0.255   4.557   4.960
 7694SOL    HW123981   0.251   4.575   4.862
 7694SOL    HW223982   0.203   4.474   4.980
 7695SOL     OW23983   4.675   0.385   1.010
 7695SOL    HW123984   4.620   0.342   0.939
 7695SOL    HW223985   4.747   0.440   0.968
 7696SOL     OW23986   0.083   1.036   4.825
 7696SOL    HW123987   0.025   0.973   4.773
 7696SOL    HW223988   0.101   0.996   4.915
 7697SOL     OW23989   3.053   6.800   2.192
 7697SOL    HW123990   3.037   6.723   2.131
 7697SOL    HW223991   3.150   6.804   2.216
 7698SOL     OW23992   6.347   1.630   3.739
 7698SOL    HW123993   6.425   1.653   3.681
 7698SOL    HW223994   6.378   1.576   3.817
 7699SOL     OW23995   3.668   6.201   6.885
 7699SOL    HW123996   3.749   6.152   6.855
 7699SOL    HW223997   3.661   6.196   6.985
 7700SOL     OW23998   5.215   6.249   3.880
 7700SOL    HW123999   5.280   6.183   3.844
 7700SOL    HW224000   5.230   6.261   3.978
 7701SOL     OW24001   6.714   1.379   6.694
 7701SOL    HW124002   6.687   1.384   6.598
 7701SOL    HW224003   6.810   1.351   6.701
 7702SOL     OW24004   3.561   6.941   5.233
 7702SOL    HW124005   3.495   6.866   5.235
 7702SOL    HW224006   3.534   7.006   5.162
 7703SOL     OW24007   6.112   0.126   6.302
 7703SOL    HW124008   6.043   0.055   6.289
 7703SOL    HW224009   6.083   0.189   6.374
 7704SOL     OW24010   5.896   5.430   4.966
 7704SOL    HW124011   5.811   5.386   4.995
 7704SOL    HW224012   5.895   5.443   4.867
 7705SOL     OW24013   3.814   5.354   6.580
 7705SOL    HW124014   3.874   5.424   6.618
 7705SOL    HW224015   3.782   5.383   6.489
 7706SOL     OW24016   4.328   3.248   5.321
 7706SOL    HW124017   4.426   3.258   5.339
 7706SOL    HW224018   4.293   3.173   5.377
 7707SOL     OW24019   0.409   5.581   6.554
 7707SOL    HW124020   0.442   5.643   6.625
 7707SOL    HW224021   0.465   5.591   6.472
 7708SOL     OW24022   0.193   0.261   5.297
 7708SOL    HW124023   0.148   0.292   5.213
 7708SOL    HW224024   0.141   0.293   5.376
 7709SOL     OW24025   6.256   4.682   1.834
 7709SOL    HW124026   6.324   4.751   1.860
 7709SOL    HW224027   6.300   4.614   1.776
 7710SOL     OW24028   2.761   1.067   0.393
 7710SOL    HW124029   2.739   1.128   0.469
 7710SOL    HW224030   2.677   1.043   0.344
 7711SOL     OW24031   6.283   6.681   5.887
 7711SOL    HW124032   6.343   6.723   5.819
 7711SOL    HW224033   6.339   6.631   5.954
 7712SOL     OW24034   6.141   5.451   1.938
 7712SOL    HW124035   6.178   5.380   1.878
 7712SOL    HW224036   6.195   5.453   2.023
 7713SOL     OW24037   1.328   4.285   0.416
 7713SOL    HW124038   1.404   4.305   0.477
 7713SOL    HW224039   1.343   4.196   0.372
 7714SOL     OW24040   5.993   4.162   5.590
 7714SOL    HW124041   6.011   4.123   5.681
 7714SOL    HW224042   5.974   4.087   5.526
 7715SOL     OW24043   4.125   2.201   0.507
 7715SOL    HW124044   4.222   2.179   0.509
 7715SOL    HW224045   4.097   2.223   0.414
 7716SOL     OW24046   5.959   4.681   2.699
 7716SOL    HW124047   5.984   4.587   2.723
 7716SOL    HW224048   6.040   4.730   2.667
 7717SOL     OW24049   1.841   1.019   4.654
 7717SOL    HW124050   1.912   0.956   4.622
 7717SOL    HW224051   1.756   0.969   4.669
 7718SOL     OW24052   1.213   2.781   3.424
 7718SOL    HW124053   1.180   2.873   3.403
 7718SOL    HW224054   1.186   2.718   3.351
 7719SOL     OW24055   6.660   4.609   5.126
 7719SOL    HW124056   6.680   4.641   5.034
 7719SOL    HW224057   6.563   4.584   5.132
 7720SOL     OW24058   0.236   1.094   0.145
 7720SOL    HW124059   0.310   1.071   0.082
 7720SOL    HW224060   0.223   1.018   0.209
 7721SOL     OW24061   0.165   5.556   2.909
 7721SOL    HW124062   0.132   5.588   2.820
 7721SOL    HW224063   0.265   5.545   2.905
 7722SOL     OW24064   1.309   5.135   3.542
 7722SOL    HW124065   1.402   5.136   3.506
 7722SOL    HW224066   1.311   5.134   3.642
 7723SOL     OW24067   4.488   3.199   0.108
 7723SOL    HW124068   4.408   3.141   0.120
 7723SOL    HW224069   4.517   3.234   0.197
 7724SOL     OW24070   3.117   3.939   0.724
 7724SOL    HW124071   3.048   3.899   0.784
 7724SOL    HW224072   3.190   3.979   0.780
 7725SOL     OW24073   6.670   1.950   3.556
 7725SOL    HW124074   6.719   2.027   3.515
 7725SOL    HW224075   6.620   1.982   3.636
 7726SOL     OW24076   1.647   5.585   5.314
 7726SOL    HW124077   1.612   5.546   5.399
 7726SOL    HW224078   1.571   5.603   5.252
 7727SOL     OW24079   0.217   0.968   2.825
 7727SOL    HW124080   0.263   1.039   2.772
 7727SOL    HW224081   0.144   0.928   2.771
 7728SOL     OW24082   1.390   4.741   3.427
 7728SOL    HW124083   1.296   4.746   3.460
 7728SOL    HW224084   1.434   4.830   3.437
 7729SOL     OW24085   5.535   2.968   0.834
 7729SOL    HW124086   5.571   2.937   0.921
 7729SOL    HW224087   5.436   2.980   0.841
 7730SOL     OW24088   5.897   5.446   0.661
 7730SOL    HW124089   5.869   5.355   0.629
 7730SOL    HW224090   5.827   5.483   0.721
 7731SOL     OW24091   6.526   0.884   0.219
 7731SOL    HW124092   6.548   0.855   0.126
 7731SOL    HW224093   6.506   0.982   0.219
 7732SOL     OW24094   4.658   6.701   0.617
 7732SOL    HW124095   4.663   6.633   0.690
 7732SOL    HW224096   4.726   6.680   0.547
 7733SOL     OW24097   4.944   6.456   2.640
 7733SOL    HW124098   5.010   6.420   2.573
 7733SOL    HW224099   4.856   6.469   2.595
 7734SOL     OW24100   2.794   4.926   3.176
 7734SOL    HW124101   2.826   5.019   3.157
 7734SOL    HW224102   2.853   4.884   3.245
 7735SOL     OW24103   4.558   6.917   6.615
 7735SOL    HW124104   4.532   6.887   6.707
 7735SOL    HW224105   4.620   6.994   6.621
 7736SOL     OW24106   3.516   3.251   6.856
 7736SOL    HW124107   3.587   3.241   6.926
 7736SOL    HW224108   3.506   3.165   6.806
 7737SOL     OW24109   3.206   6.986   2.562
 7737SOL    HW124110   3.292   6.951   2.527
 7737SOL    HW224111   3.138   6.988   2.488
 7738SOL     OW24112   2.852   6.216   6.685
 7738SOL    HW124113   2.914   6.192   6.760
 7738SOL    HW224114   2.860   6.148   6.612
 7739SOL     OW24115   0.611   2.602   1.126
 7739SOL    HW124116   0.653   2.512   1.115
 7739SOL    HW224117   0.607   2.626   1.223
 7740SOL     OW24118   2.348   1.257   2.545
 7740SOL    HW124119   2.335   1.350   2.511
 7740SOL    HW224120   2.260   1.209   2.545
 7741SOL     OW24121   1.277   5.126   6.035
 7741SOL    HW124122   1.266   5.184   5.954
 7741SOL    HW224123   1.192   5.125   6.087
 7742SOL     OW24124   4.621   2.548   3.637
 7742SOL    HW124125   4.570   2.462   3.629
 7742SOL    HW224126   4.584   2.615   3.573
 7743SOL     OW24127   5.822   1.060   6.985
 7743SOL    HW124128   5.885   0.990   6.951
 7743SOL    HW224129   5.842   1.077   0.061
 7744SOL     OW24130   0.728   6.315   4.173
 7744SOL    HW124131   0.724   6.396   4.114
 7744SOL    HW224132   0.726   6.343   4.268
 7745SOL     OW24133   3.696   1.470   6.835
 7745SOL    HW124134   3.641   1.534   6.782
 7745SOL    HW224135   3.776   1.443   6.781
 7746SOL     OW24136   2.029   0.051   0.570
 7746SOL    HW124137   2.077   6.984   0.572
 7746SOL    HW224138   1.965   0.051   0.493
 7747SOL     OW24139   5.580   5.570   1.137
 7747SOL    HW124140   5.630   5.535   1.057
 7747SOL    HW224141   5.645   5.604   1.205
 7748SOL     OW24142   3.380   4.087   4.890
 7748SOL    HW124143   3.314   4.068   4.963
 7748SOL    HW224144   3.352   4.039   4.807
 7749SOL     OW24145   2.470   2.800   6.016
 7749SOL    HW124146   2.518   2.864   5.956
 7749SOL    HW224147   2.498   2.815   6.111
 7750SOL     OW24148   0.169   6.011   1.826
 7750SOL    HW124149   0.081   6.035   1.866
 7750SOL    HW224150   0.228   5.970   1.896
 7751SOL     OW24151   1.248   2.552   1.872
 7751SOL    HW124152   1.314   2.488   1.832
 7751SOL    HW224153   1.255   2.549   1.972
 7752SOL     OW24154   5.625   6.840   5.748
 7752SOL    HW124155   5.607   6.800   5.838
 7752SOL    HW224156   5.708   6.801   5.710
 7753SOL     OW24157   2.816   1.165   3.812
 7753SOL    HW124158   2.755   1.108   3.867
 7753SOL    HW224159   2.910   1.155   3.846
 7754SOL     OW24160   3.383   6.072   1.347
 7754SOL    HW124161   3.387   5.972   1.342
 7754SOL    HW224162   3.436   6.112   1.273
 7755SOL     OW24163   2.281   2.436   5.266
 7755SOL    HW124164   2.281   2.365   5.336
 7755SOL    HW224165   2.370   2.482   5.265
 7756SOL     OW24166   2.916   5.859   2.678
 7756SOL    HW124167   2.959   5.809   2.602
 7756SOL    HW224168   2.979   5.928   2.712
 7757SOL     OW24169   5.358   4.833   0.336
 7757SOL    HW124170   5.433   4.860   0.397
 7757SOL    HW224171   5.270   4.851   0.380
 7758SOL     OW24172   2.256   0.647   5.693
 7758SOL    HW124173   2.200   0.628   5.774
 7758SOL    HW224174   2.329   0.711   5.717
 7759SOL     OW24175   1.679   2.095   5.481
 7759SOL    HW124176   1.748   2.079   5.552
 7759SOL    HW224177   1.713   2.163   5.416
 7760SOL     OW24178   5.836   3.519   2.463
 7760SOL    HW124179   5.794   3.559   2.544
 7760SOL    HW224180   5.888   3.437   2.489
 7761SOL     OW24181   6.687   0.159   4.644
 7761SOL    HW124182   6.729   0.159   4.735
 7761SOL    HW224183   6.588   0.169   4.653
 7762SOL     OW24184   2.254   0.364   4.100
 7762SOL    HW124185   2.204   0.296   4.046
 7762SOL    HW224186   2.200   0.447   4.108
 7763SOL     OW24187   2.335   0.238   0.118
 7763SOL    HW124188   2.306   0.143   0.130
 7763SOL    HW224189   2.381   0.269   0.201
 7764SOL     OW24190   3.561   3.511   5.030
 7764SOL    HW124191   3.502   3.591   5.038
 7764SOL    HW224192   3.593   3.502   4.935
 7765SOL     OW24193   5.785   4.166   4.840
 7765SOL    HW124194   5.878   4.133   4.847
 7765SOL    HW224195   5.785   4.266   4.841
 7766SOL     OW24196   6.744   4.029   6.832
 7766SOL    HW124197   6.669   4.030   6.766
 7766SOL    HW224198   6.753   4.119   6.875
 7767SOL     OW24199   4.906   6.176   2.444
 7767SOL    HW124200   4.884   6.168   2.347
 7767SOL    HW224201   4.975   6.247   2.456
 7768SOL     OW24202   4.571   4.602   3.428
 7768SOL    HW124203   4.482   4.638   3.402
 7768SOL    HW224204   4.565   4.559   3.519
 7769SOL     OW24205   4.584   1.680   3.488
 7769SOL    HW124206   4.601   1.612   3.416
 7769SOL    HW224207   4.504   1.653   3.541
 7770SOL     OW24208   1.757   4.140   4.546
 7770SOL    HW124209   1.818   4.128   4.624
 7770SOL    HW224210   1.746   4.053   4.497
 7771SOL     OW24211   3.741   1.756   5.388
 7771SOL    HW124212   3.785   1.667   5.384
 7771SOL    HW224213   3.701   1.770   5.478
 7772SOL     OW24214   4.629   0.173   2.042
 7772SOL    HW124215   4.551   0.215   2.089
 7772SOL    HW224216   4.708   0.234   2.049
 7773SOL     OW24217   2.268   4.919   5.373
 7773SOL    HW124218   2.208   4.996   5.394
 7773SOL    HW224219   2.284   4.915   5.274
 7774SOL     OW24220   4.968   1.809   4.403
 7774SOL    HW124221   5.054   1.767   4.433
 7774SOL    HW224222   4.984   1.858   4.317
 7775SOL     OW24223   4.672   6.245   0.548
 7775SOL    HW124224   4.656   6.147   0.533
 7775SOL    HW224225   4.660   6.266   0.645
 7776SOL     OW24226   0.284   5.949   6.797
 7776SOL    HW124227   0.249   5.860   6.825
 7776SOL    HW224228   0.378   5.939   6.765
 7777SOL     OW24229   6.019   5.663   3.895
 7777SOL    HW124230   5.942   5.691   3.952
 7777SOL    HW224231   6.053   5.742   3.844
 7778SOL     OW24232   5.742   3.778   0.742
 7778SOL    HW124233   5.711   3.774   0.837
 7778SOL    HW224234   5.663   3.777   0.681
 7779SOL     OW24235   2.489   2.194   1.620
 7779SOL    HW124236   2.470   2.120   1.684
 7779SOL    HW224237   2.418   2.195   1.549
 7780SOL     OW24238   0.631   4.904   5.714
 7780SOL    HW124239   0.581   4.976   5.762
 7780SOL    HW224240   0.602   4.815   5.749
 7781SOL     OW24241   2.172   4.324   1.550
 7781SOL    HW124242   2.082   4.317   1.507
 7781SOL    HW224243   2.184   4.416   1.588
 7782SOL     OW24244   5.296   5.038   4.827
 7782SOL    HW124245   5.212   5.054   4.775
 7782SOL    HW224246   5.286   4.957   4.884
 7783SOL     OW24247   0.606   6.809   5.625
 7783SOL    HW124248   0.529   6.763   5.580
 7783SOL    HW224249   0.662   6.855   5.556
 7784SOL     OW24250   3.654   2.718   1.818
 7784SOL    HW124251   3.744   2.737   1.780
 7784SOL    HW224252   3.636   2.781   1.894
 7785SOL     OW24253   1.926   6.143   4.865
 7785SOL    HW124254   1.922   6.111   4.960
 7785SOL    HW224255   1.902   6.240   4.862
 7786SOL     OW24256   3.656   6.848   0.724
 7786SOL    HW124257   3.728   6.801   0.776
 7786SOL    HW224258   3.635   6.935   0.768
 7787SOL     OW24259   2.519   3.137   6.966
 7787SOL    HW124260   2.424   3.169   6.964
 7787SOL    HW224261   2.540   3.101   0.036
 7788SOL     OW24262   1.933   4.947   1.444
 7788SOL    HW124263   1.862   5.017   1.439
 7788SOL    HW224264   2.022   4.990   1.429
 7789SOL     OW24265   2.506   0.091   6.675
 7789SOL    HW124266   2.469   0.146   6.749
 7789SOL    HW224267   2.556   0.013   6.712
 7790SOL     OW24268   5.477   5.566   2.441
 7790SOL    HW124269   5.571   5.550   2.471
 7790SOL    HW224270   5.415   5.503   2.489
 7791SOL     OW24271   2.245   5.350   2.790
 7791SOL    HW124272   2.208   5.422   2.849
 7791SOL    HW224273   2.202   5.356   2.700
 7792SOL     OW24274   1.935   5.481   4.750
 7792SOL    HW124275   1.918   5.557   4.812
 7792SOL    HW224276   1.905   5.506   4.657
 7793SOL     OW24277   3.966   1.086   0.319
 7793SOL    HW124278   3.951   1.016   0.249
 7793SOL    HW224279   3.913   1.168   0.296
 7794SOL     OW24280   6.635   3.909   2.389
 7794SOL    HW124281   6.652   3.892   2.486
 7794SOL    HW224282   6.538   3.892   2.369
 7795SOL     OW24283   2.075   4.412   5.414
 7795SOL    HW124284   2.019   4.358   5.352
 7795SOL    HW224285   2.096   4.500   5.371
 7796SOL     OW24286   3.850   2.921   4.926
 7796SOL    HW124287   3.859   3.020   4.940
 7796SOL    HW224288   3.922   2.890   4.863
 7797SOL     OW24289   1.533   6.701   1.679
 7797SOL    HW124290   1.507   6.609   1.651
 7797SOL    HW224291   1.455   6.747   1.720
 7798SOL     OW24292   1.096   3.032   3.190
 7798SOL    HW124293   1.195   3.020   3.182
 7798SOL    HW224294   1.071   3.033   3.287
 7799SOL     OW24295   1.670   5.320   2.405
 7799SOL    HW124296   1.645   5.329   2.309
 7799SOL    HW224297   1.609   5.376   2.461
 7800SOL     OW24298   0.886   5.573   3.148
 7800SOL    HW124299   0.830   5.499   3.111
 7800SOL    HW224300   0.925   5.626   3.073
 7801SOL     OW24301   2.055   1.888   1.916
 7801SOL    HW124302   1.970   1.934   1.941
 7801SOL    HW224303   2.084   1.829   1.991
 7802SOL     OW24304   6.576   2.779   1.000
 7802SOL    HW124305   6.566   2.742   0.907
 7802SOL    HW224306   6.568   2.705   1.066
 7803SOL     OW24307   4.198   2.174   6.702
 7803SOL    HW124308   4.217   2.272   6.703
 7803SOL    HW224309   4.277   2.125   6.740
 7804SOL     OW24310   4.639   2.200   5.213
 7804SOL    HW124311   4.557   2.186   5.268
 7804SOL    HW224312   4.706   2.252   5.267
 7805SOL     OW24313   5.184   3.241   1.831
 7805SOL    HW124314   5.188   3.173   1.758
 7805SOL    HW224315   5.126   3.208   1.905
 7806SOL     OW24316   6.000   1.484   6.092
 7806SOL    HW124317   5.975   1.571   6.134
 7806SOL    HW224318   6.044   1.425   6.161
 7807SOL     OW24319   1.057   4.402   6.173
 7807SOL    HW124320   1.117   4.444   6.241
 7807SOL    HW224321   1.033   4.310   6.201
 7808SOL     OW24322   5.802   3.125   3.820
 7808SOL    HW124323   5.707   3.155   3.810
 7808SOL    HW224324   5.862   3.196   3.783
 7809SOL     OW24325   4.791   4.836   4.998
 7809SOL    HW124326   4.815   4.755   5.053
 7809SOL    HW224327   4.872   4.893   4.987
 7810SOL     OW24328   3.340   6.654   5.124
 7810SOL    HW124329   3.402   6.671   5.047
 7810SOL    HW224330   3.374   6.575   5.176
 7811SOL     OW24331   1.436   5.341   1.692
 7811SOL    HW124332   1.471   5.410   1.756
 7811SOL    HW224333   1.431   5.253   1.738
 7812SOL     OW24334   1.026   2.378   4.399
 7812SOL    HW124335   1.045   2.293   4.350
 7812SOL    HW224336   0.933   2.407   4.380
 7813SOL     OW24337   4.151   1.922   1.129
 7813SOL    HW124338   4.151   1.918   1.029
 7813SOL    HW224339   4.148   1.829   1.165
 7814SOL     OW24340   6.731   3.387   3.263
 7814SOL    HW124341   6.726   3.296   3.221
 7814SOL    HW224342   6.778   3.450   3.200
 7815SOL     OW24343   5.709   1.991   3.921
 7815SOL    HW124344   5.647   2.032   3.988
 7815SOL    HW224345   5.803   2.019   3.942
 7816SOL     OW24346   1.353   2.136   6.238
 7816SOL    HW124347   1.371   2.041   6.213
 7816SOL    HW224348   1.256   2.149   6.255
 7817SOL     OW24349   4.718   4.408   4.427
 7817SOL    HW124350   4.667   4.483   4.470
 7817SOL    HW224351   4.707   4.325   4.481
 7818SOL     OW24352   5.223   0.242   2.589
 7818SOL    HW124353   5.314   0.283   2.580
 7818SOL    HW224354   5.226   0.148   2.556
 7819SOL     OW24355   0.175   3.594   4.025
 7819SOL    HW124356   0.237   3.516   4.040
 7819SOL    HW224357   0.155   3.602   3.927
 7820SOL     OW24358   1.607   1.418   5.726
 7820SOL    HW124359   1.680   1.481   5.752
 7820SOL    HW224360   1.578   1.437   5.632
 7821SOL     OW24361   5.680   5.287   0.155
 7821SOL    HW124362   5.582   5.304   0.138
 7821SOL    HW224363   5.734   5.330   0.083
 7822SOL     OW24364   0.838   0.916   6.912
 7822SOL    HW124365   0.844   0.907   6.812
 7822SOL    HW224366   0.930   0.926   6.950
 7823SOL     OW24367   3.012   3.606   6.121
 7823SOL    HW124368   3.088   3.656   6.163
 7823SOL    HW224369   2.958   3.561   6.192
 7824SOL     OW24370   5.994   1.036   3.475
 7824SOL    HW124371   6.068   0.971   3.490
 7824SOL    HW224372   5.906   0.988   3.481
 7825SOL     OW24373   1.334   2.975   0.828
 7825SOL    HW124374   1.253   2.981   0.887
 7825SOL    HW224375   1.375   2.885   0.837
 7826SOL     OW24376   6.381   1.569   6.606
 7826SOL    HW124377   6.446   1.576   6.682
 7826SOL    HW224378   6.291   1.599   6.636
 7827SOL     OW24379   3.006   4.267   0.902
 7827SOL    HW124380   2.987   4.207   0.825
 7827SOL    HW224381   3.010   4.213   0.986
 7828SOL     OW24382   0.564   5.258   0.709
 7828SOL    HW124383   0.505   5.327   0.752
 7828SOL    HW224384   0.552   5.261   0.610
 7829SOL     OW24385   2.300   2.831   0.411
 7829SOL    HW124386   2.269   2.806   0.320
 7829SOL    HW224387   2.234   2.894   0.453
 7830SOL     OW24388   4.298   3.547   5.859
 7830SOL    HW124389   4.201   3.526   5.872
 7830SOL    HW224390   4.308   3.600   5.775
 7831SOL     OW24391   1.364   5.550   1.000
 7831SOL    HW124392   1.340   5.634   0.951
 7831SOL    HW224393   1.376   5.571   1.097
 7832SOL     OW24394   3.527   1.290   4.321
 7832SOL    HW124395   3.614   1.339   4.327
 7832SOL    HW224396   3.531   1.222   4.248
 7833SOL     OW24397   0.788   0.581   6.946
 7833SOL    HW124398   0.802   0.662   7.003
 7833SOL    HW224399   0.744   0.607   6.860
 7834SOL     OW24400   0.214   1.017   3.826
 7834SOL    HW124401   0.163   1.004   3.911
 7834SOL    HW224402   0.154   1.053   3.755
 7835SOL     OW24403   2.260   2.120   4.635
 7835SOL    HW124404   2.230   2.213   4.654
 7835SOL    HW224405   2.343   2.101   4.688
 7836SOL     OW24406   3.521   2.820   5.287
 7836SOL    HW124407   3.461   2.747   5.255
 7836SOL    HW224408   3.475   2.875   5.356
 7837SOL     OW24409   6.747   5.324   1.340
 7837SOL    HW124410   6.769   5.421   1.352
 7837SOL    HW224411   6.831   5.273   1.323
 7838SOL     OW24412   4.287   6.289   0.798
 7838SOL    HW124413   4.336   6.314   0.715
 7838SOL    HW224414   4.190   6.276   0.778
 7839SOL     OW24415   5.942   4.443   5.093
 7839SOL    HW124416   5.958   4.538   5.117
 7839SOL    HW224417   5.915   4.392   5.175
 7840SOL     OW24418   4.994   3.188   4.477
 7840SOL    HW124419   5.031   3.233   4.558
 7840SOL    HW224420   4.936   3.112   4.506
 7841SOL     OW24421   4.662   1.495   6.758
 7841SOL    HW124422   4.701   1.423   6.701
 7841SOL    HW224423   4.694   1.484   6.852
 7842SOL     OW24424   2.039   1.478   2.630
 7842SOL    HW124425   1.978   1.535   2.684
 7842SOL    HW224426   2.092   1.535   2.568
 7843SOL     OW24427   4.888   4.634   2.055
 7843SOL    HW124428   4.887   4.546   2.103
 7843SOL    HW224429   4.801   4.681   2.070
 7844SOL     OW24430   4.574   6.663   3.603
 7844SOL    HW124431   4.532   6.599   3.668
 7844SOL    HW224432   4.502   6.708   3.550
 7845SOL     OW24433   5.638   1.215   4.223
 7845SOL    HW124434   5.643   1.161   4.138
 7845SOL    HW224435   5.621   1.311   4.200
 7846SOL     OW24436   1.022   1.404   1.973
 7846SOL    HW124437   1.032   1.306   1.987
 7846SOL    HW224438   1.109   1.443   1.944
 7847SOL     OW24439   6.557   2.010   2.317
 7847SOL    HW124440   6.577   1.953   2.397
 7847SOL    HW224441   6.626   1.994   2.247
 7848SOL     OW24442   3.253   3.231   0.930
 7848SOL    HW124443   3.265   3.322   0.969
 7848SOL    HW224444   3.155   3.210   0.926
 7849SOL     OW24445   4.861   3.930   3.022
 7849SOL    HW124446   4.806   3.991   3.080
 7849SOL    HW224447   4.862   3.838   3.062
 7850SOL     OW24448   0.634   1.611   3.864
 7850SOL    HW124449   0.613   1.646   3.773
 7850SOL    HW224450   0.617   1.512   3.867
 7851SOL     OW24451   6.659   6.940   1.394
 7851SOL    HW124452   6.668   6.954   1.295
 7851SOL    HW224453   6.636   0.005   1.438
 7852SOL     OW24454   2.642   0.249   5.470
 7852SOL    HW124455   2.606   0.341   5.483
 7852SOL    HW224456   2.623   0.195   5.553
 7853SOL     OW24457   4.020   1.313   2.010
 7853SOL    HW124458   3.926   1.293   2.037
 7853SOL    HW224459   4.082   1.247   2.054
 7854SOL     OW24460   2.791   3.231   0.372
 7854SOL    HW124461   2.734   3.313   0.363
 7854SOL    HW224462   2.804   3.190   0.282
 7855SOL     OW24463   2.753   5.480   5.757
 7855SOL    HW124464   2.729   5.556   5.818
 7855SOL    HW224465   2.674   5.456   5.701
 7856SOL     OW24466   5.561   5.146   4.922
 7856SOL    HW124467   5.473   5.169   4.881
 7856SOL    HW224468   5.617   5.096   4.855
 7857SOL     OW24469   6.145   2.679   5.357
 7857SOL    HW124470   6.163   2.688   5.258
 7857SOL    HW224471   6.184   2.758   5.404
 7858SOL     OW24472   5.164   4.997   3.312
 7858SOL    HW124473   5.144   5.044   3.398
 7858SOL    HW224474   5.243   4.937   3.325
 7859SOL     OW24475   5.898   3.327   5.493
 7859SOL    HW124476   5.915   3.299   5.399
 7859SOL    HW224477   5.968   3.288   5.553
 7860SOL     OW24478   4.431   0.028   2.773
 7860SOL    HW124479   4.477   0.073   2.696
 7860SOL    HW224480   4.464   6.955   2.781
 7861SOL     OW24481   4.097   5.150   1.753
 7861SOL    HW124482   4.086   5.184   1.659
 7861SOL    HW224483   4.153   5.215   1.805
 7862SOL     OW24484   3.063   4.527   1.527
 7862SOL    HW124485   3.070   4.450   1.591
 7862SOL    HW224486   2.984   4.512   1.467
 7863SOL     OW24487   6.731   6.061   3.862
 7863SOL    HW124488   6.731   5.963   3.884
 7863SOL    HW224489   6.782   6.076   3.777
 7864SOL     OW24490   0.174   6.867   5.540
 7864SOL    HW124491   0.155   6.962   5.513
 7864SOL    HW224492   0.124   6.804   5.481
 7865SOL     OW24493   5.425   6.876   4.661
 7865SOL    HW124494   5.486   6.851   4.586
 7865SOL    HW224495   5.339   6.911   4.624
 7866SOL     OW24496   1.988   2.605   0.201
 7866SOL    HW124497   1.991   2.530   0.267
 7866SOL    HW224498   1.902   2.600   0.149
 7867SOL     OW24499   5.525   6.612   2.590
 7867SOL    HW124500   5.522   6.658   2.678
 7867SOL    HW224501   5.456   6.539   2.588
 7868SOL     OW24502   5.629   6.533   2.026
 7868SOL    HW124503   5.541   6.517   2.070
 7868SOL    HW224504   5.619   6.605   1.957
 7869SOL     OW24505   5.292   3.457   6.851
 7869SOL    HW124506   5.298   3.509   6.766
 7869SOL    HW224507   5.201   3.415   6.858
 7870SOL     OW24508   4.502   5.099   4.484
 7870SOL    HW124509   4.560   5.106   4.565
 7870SOL    HW224510   4.406   5.098   4.511
 7871SOL     OW24511   5.407   3.403   2.564
 7871SOL    HW124512   5.501   3.391   2.595
 7871SOL    HW224513   5.407   3.428   2.467
 7872SOL     OW24514   2.317   4.156   2.810
 7872SOL    HW124515   2.385   4.224   2.784
 7872SOL    HW224516   2.284   4.175   2.902
 7873SOL     OW24517   5.770   0.611   5.427
 7873SOL    HW124518   5.770   0.711   5.441
 7873SOL    HW224519   5.853   0.572   5.467
 7874SOL     OW24520   5.083   1.755   0.948
 7874SOL    HW124521   5.016   1.691   0.984
 7874SOL    HW224522   5.041   1.810   0.876
 7875SOL     OW24523   4.484   2.251   6.409
 7875SOL    HW124524   4.438   2.167   6.440
 7875SOL    HW224525   4.548   2.228   6.336
 7876SOL     OW24526   0.035   0.053   5.386
 7876SOL    HW124527   6.970   0.040   5.434
 7876SOL    HW224528   0.022   0.119   5.311
 7877SOL     OW24529   6.569   2.929   2.848
 7877SOL    HW124530   6.645   2.863   2.847
 7877SOL    HW224531   6.549   2.958   2.755
 7878SOL     OW24532   5.003   5.041   3.997
 7878SOL    HW124533   4.990   5.062   4.094
 7878SOL    HW224534   4.943   4.965   3.970
 7879SOL     OW24535   4.625   5.626   3.343
 7879SOL    HW124536   4.554   5.639   3.274
 7879SOL    HW224537   4.706   5.586   3.300
 7880SOL     OW24538   1.791   5.440   0.951
 7880SOL    HW124539   1.759   5.451   1.046
 7880SOL    HW224540   1.821   5.345   0.937
 7881SOL     OW24541   5.549   3.756   4.849
 7881SOL    HW124542   5.593   3.827   4.795
 7881SOL    HW224543   5.606   3.733   4.928
 7882SOL     OW24544   1.443   3.713   2.655
 7882SOL    HW124545   1.481   3.687   2.567
 7882SOL    HW224546   1.460   3.640   2.721
 7883SOL     OW24547   1.464   6.858   0.962
 7883SOL    HW124548   1.414   6.830   0.880
 7883SOL    HW224549   1.411   6.832   1.043
 7884SOL     OW24550   1.935   3.568   4.066
 7884SOL    HW124551   2.005   3.605   4.127
 7884SOL    HW224552   1.924   3.630   3.988
 7885SOL     OW24553   5.799   6.537   1.522
 7885SOL    HW124554   5.741   6.483   1.461
 7885SOL    HW224555   5.772   6.520   1.617
 7886SOL     OW24556   4.258   5.103   0.847
 7886SOL    HW124557   4.290   5.091   0.941
 7886SOL    HW224558   4.177   5.162   0.847
 7887SOL     OW24559   3.313   2.643   5.287
 7887SOL    HW124560   3.365   2.606   5.365
 7887SOL    HW224561   3.256   2.571   5.249
 7888SOL     OW24562   6.835   0.383   4.941
 7888SOL    HW124563   6.924   0.375   4.985
 7888SOL    HW224564   6.777   0.444   4.995
 7889SOL     OW24565   0.817   4.736   0.027
 7889SOL    HW124566   0.864   4.752   0.114
 7889SOL    HW224567   0.876   4.683   6.987
 7890SOL     OW24568   0.355   3.114   3.744
 7890SOL    HW124569   0.267   3.144   3.779
 7890SOL    HW224570   0.412   3.082   3.819
 7891SOL     OW24571   1.904   4.092   4.876
 7891SOL    HW124572   1.873   4.064   4.966
 7891SOL    HW224573   1.891   4.191   4.865
 7892SOL     OW24574   1.824   1.732   3.821
 7892SOL    HW124575   1.874   1.768   3.742
 7892SOL    HW224576   1.867   1.764   3.906
 7893SOL     OW24577   6.319   6.590   1.855
 7893SOL    HW124578   6.222   6.598   1.832
 7893SOL    HW224579   6.368   6.551   1.777
 7894SOL     OW24580   3.355   0.722   0.836
 7894SOL    HW124581   3.420   0.688   0.903
 7894SOL    HW224582   3.393   0.800   0.787
 7895SOL     OW24583   4.902   0.515   4.330
 7895SOL    HW124584   4.976   0.535   4.395
 7895SOL    HW224585   4.815   0.511   4.380
 7896SOL     OW24586   4.349   2.676   1.195
 7896SOL    HW124587   4.305   2.727   1.121
 7896SOL    HW224588   4.444   2.656   1.169
 7897SOL     OW24589   3.162   2.183   1.381
 7897SOL    HW124590   3.216   2.170   1.464
 7897SOL    HW224591   3.124   2.275   1.380
 7898SOL     OW24592   3.923   0.242   3.817
 7898SOL    HW124593   3.835   0.286   3.833
 7898SOL    HW224594   3.963   0.275   3.731
 7899SOL     OW24595   5.634   6.756   1.195
 7899SOL    HW124596   5.577   6.674   1.203
 7899SOL    HW224597   5.684   6.754   1.108
 7900SOL     OW24598   1.003   5.406   1.412
 7900SOL    HW124599   0.963   5.377   1.499
 7900SOL    HW224600   0.943   5.472   1.368
 7901SOL     OW24601   4.125   0.834   6.979
 7901SOL    HW124602   4.127   0.932   6.957
 7901SOL    HW224603   4.216   0.805   7.010
 7902SOL     OW24604   6.523   6.241   2.098
 7902SOL    HW124605   6.515   6.203   2.006
 7902SOL    HW224606   6.585   6.184   2.152
 7903SOL     OW24607   4.776   1.488   2.841
 7903SOL    HW124608   4.851   1.444   2.792
 7903SOL    HW224609   4.762   1.580   2.805
 7904SOL     OW24610   5.781   6.659   2.597
 7904SOL    HW124611   5.796   6.757   2.602
 7904SOL    HW224612   5.683   6.641   2.582
 7905SOL     OW24613   5.996   2.707   0.538
 7905SOL    HW124614   5.959   2.618   0.565
 7905SOL    HW224615   6.072   2.732   0.598
 7906SOL     OW24616   0.658   5.008   0.821
 7906SOL    HW124617   0.648   4.937   0.752
 7906SOL    HW224618   0.642   5.098   0.780
 7907SOL     OW24619   5.832   2.061   3.578
 7907SOL    HW124620   5.877   1.975   3.603
 7907SOL    HW224621   5.901   2.127   3.548
 7908SOL     OW24622   1.749   0.620   5.724
 7908SOL    HW124623   1.721   0.529   5.695
 7908SOL    HW224624   1.708   0.641   5.812
 7909SOL     OW24625   5.008   4.316   3.997
 7909SOL    HW124626   5.034   4.223   4.023
 7909SOL    HW224627   4.995   4.371   4.079
 7910SOL     OW24628   2.587   2.895   0.436
 7910SOL    HW124629   2.593   2.944   0.522
 7910SOL    HW224630   2.492   2.874   0.415
 7911SOL     OW24631   0.970   4.710   0.353
 7911SOL    HW124632   1.041   4.744   0.291
 7911SOL    HW224633   1.001   4.719   0.448
 7912SOL     OW24634   6.021   4.311   1.297
 7912SOL    HW124635   6.049   4.294   1.202
 7912SOL    HW224636   6.044   4.404   1.322
 7913SOL     OW24637   1.339   4.385   1.716
 7913SOL    HW124638   1.291   4.340   1.791
 7913SOL    HW224639   1.383   4.317   1.657
 7914SOL     OW24640   0.011   4.558   0.476
 7914SOL    HW124641   0.091   4.553   0.535
 7914SOL    HW224642   6.960   4.610   0.521
 7915SOL     OW24643   5.110   2.429   1.758
 7915SOL    HW124644   5.122   2.430   1.857
 7915SOL    HW224645   5.013   2.428   1.736
 7916SOL     OW24646   6.834   6.599   5.770
 7916SOL    HW124647   6.906   6.563   5.710
 7916SOL    HW224648   6.762   6.531   5.780
 7917SOL     OW24649   3.537   3.107   5.066
 7917SOL    HW124650   3.555   3.010   5.083
 7917SOL    HW224651   3.547   3.158   5.151
 7918SOL     OW24652   6.547   1.307   4.530
 7918SOL    HW124653   6.564   1.404   4.544
 7918SOL    HW224654   6.609   1.253   4.587
 7919SOL     OW24655   1.628   4.652   3.204
 7919SOL    HW124656   1.616   4.619   3.297
 7919SOL    HW224657   1.686   4.734   3.205
 7920SOL     OW24658   6.558   0.314   0.483
 7920SOL    HW124659   6.595   0.230   0.522
 7920SOL    HW224660   6.466   0.330   0.519
 7921SOL     OW24661   5.951   6.242   1.923
 7921SOL    HW124662   5.918   6.316   1.864
 7921SOL    HW224663   5.878   6.213   1.985
 7922SOL     OW24664   0.579   6.106   0.813
 7922SOL    HW124665   0.502   6.044   0.828
 7922SOL    HW224666   0.544   6.197   0.787
 7923SOL     OW24667   4.146   0.677   6.412
 7923SOL    HW124668   4.120   0.673   6.508
 7923SOL    HW224669   4.070   0.649   6.355
 7924SOL     OW24670   5.059   0.036   2.077
 7924SOL    HW124671   4.979   0.048   2.137
 7924SOL    HW224672   5.034   6.997   2.001
 7925SOL     OW24673   0.624   0.220   0.203
 7925SOL    HW124674   0.524   0.215   0.209
 7925SOL    HW224675   0.653   0.315   0.211
 7926SOL     OW24676   3.990   1.866   6.429
 7926SOL    HW124677   3.968   1.790   6.369
 7926SOL    HW224678   3.914   1.931   6.431
 7927SOL     OW24679   4.332   5.930   2.692
 7927SOL    HW124680   4.341   5.915   2.790
 7927SOL    HW224681   4.285   6.017   2.675
 7928SOL     OW24682   1.237   1.545   3.769
 7928SOL    HW124683   1.239   1.623   3.832
 7928SOL    HW224684   1.237   1.579   3.675
 7929SOL     OW24685   4.011   3.719   5.187
 7929SOL    HW124686   4.108   3.726   5.164
 7929SOL    HW224687   3.959   3.692   5.105
 7930SOL     OW24688   4.137   5.253   5.466
 7930SOL    HW124689   4.177   5.310   5.538
 7930SOL    HW224690   4.206   5.235   5.396
 7931SOL     OW24691   2.828   3.104   0.012
 7931SOL    HW124692   2.840   3.097   6.934
 7931SOL    HW224693   2.739   3.065   0.037
 7932SOL     OW24694   1.166   6.420   6.397
 7932SOL    HW124695   1.131   6.356   6.465
 7932SOL    HW224696   1.229   6.485   6.441
 7933SOL     OW24697   6.777   6.879   6.365
 7933SOL    HW124698   6.819   6.851   6.278
 7933SOL    HW224699   6.845   6.926   6.421
 7934SOL     OW24700   1.322   4.981   6.342
 7934SOL    HW124701   1.315   5.078   6.366
 7934SOL    HW224702   1.314   4.970   6.243
 7935SOL     OW24703   5.914   5.872   0.997
 7935SOL    HW124704   5.842   5.933   0.962
 7935SOL    HW224705   5.918   5.878   1.096
 7936SOL     OW24706   3.083   5.796   1.797
 7936SOL    HW124707   3.091   5.698   1.811
 7936SOL    HW224708   3.145   5.844   1.859
 7937SOL     OW24709   6.712   5.797   3.928
 7937SOL    HW124710   6.800   5.778   3.972
 7937SOL    HW224711   6.657   5.713   3.926
 7938SOL     OW24712   6.220   6.203   3.977
 7938SOL    HW124713   6.268   6.121   3.948
 7938SOL    HW224714   6.207   6.201   4.076
 7939SOL     OW24715   1.497   2.222   4.654
 7939SOL    HW124716   1.443   2.305   4.665
 7939SOL    HW224717   1.586   2.245   4.615
 7940SOL     OW24718   1.715   3.650   1.946
 7940SOL    HW124719   1.652   3.710   1.996
 7940SOL    HW224720   1.768   3.596   2.011
 7941SOL     OW24721   6.157   6.278   1.290
 7941SOL    HW124722   6.185   6.335   1.212
 7941SOL    HW224723   6.198   6.315   1.374
 7942SOL     OW24724   0.112   5.010   2.503
 7942SOL    HW124725   0.102   4.955   2.420
 7942SOL    HW224726   0.185   4.972   2.560
 7943SOL     OW24727   0.665   4.031   6.424
 7943SOL    HW124728   0.578   4.080   6.415
 7943SOL    HW224729   0.740   4.094   6.402
 7944SOL     OW24730   0.742   2.298   0.719
 7944SOL    HW124731   0.748   2.332   0.625
 7944SOL    HW224732   0.650   2.262   0.736
 7945SOL     OW24733   6.409   5.492   1.103
 7945SOL    HW124734   6.402   5.519   1.200
 7945SOL    HW224735   6.430   5.395   1.097
 7946SOL     OW24736   3.722   0.181   5.517
 7946SOL    HW124737   3.820   0.183   5.497
 7946SOL    HW224738   3.680   0.267   5.487
 7947SOL     OW24739   3.382   1.269   5.463
 7947SOL    HW124740   3.467   1.309   5.429
 7947SOL    HW224741   3.403   1.191   5.522
 7948SOL     OW24742   1.070   6.278   1.097
 7948SOL    HW124743   1.012   6.196   1.103
 7948SOL    HW224744   1.099   6.290   1.002
 7949SOL     OW24745   4.848   4.086   5.429
 7949SOL    HW124746   4.897   4.008   5.389
 7949SOL    HW224747   4.841   4.074   5.528
 7950SOL     OW24748   4.832   5.412   4.156
 7950SOL    HW124749   4.743   5.446   4.127
 7950SOL    HW224750   4.889   5.392   4.076
 7951SOL     OW24751   2.107   5.137   2.550
 7951SOL    HW124752   2.201   5.105   2.541
 7951SOL    HW224753   2.093   5.171   2.643
 7952SOL     OW24754   7.002   3.392   6.717
 7952SOL    HW124755   6.973   3.300   6.741
 7952SOL    HW224756   6.930   3.457   6.740
 7953SOL     OW24757   3.517   2.151   2.917
 7953SOL    HW124758   3.602   2.158   2.864
 7953SOL    HW224759   3.450   2.099   2.864
 7954SOL     OW24760   3.266   4.771   5.908
 7954SOL    HW124761   3.209   4.793   5.988
 7954SOL    HW224762   3.221   4.805   5.825
 7955SOL     OW24763   2.985   0.885   6.608
 7955SOL    HW124764   3.062   0.826   6.580
 7955SOL    HW224765   3.020   0.963   6.660
 7956SOL     OW24766   4.631   6.382   2.229
 7956SOL    HW124767   4.571   6.426   2.162
 7956SOL    HW224768   4.677   6.452   2.283
 7957SOL     OW24769   0.897   0.536   1.332
 7957SOL    HW124770   0.985   0.573   1.362
 7957SOL    HW224771   0.864   0.585   1.252
 7958SOL     OW24772   3.997   5.015   5.422
 7958SOL    HW124773   4.016   5.109   5.453
 7958SOL    HW224774   4.081   4.973   5.389
 7959SOL     OW24775   5.126   5.618   1.090
 7959SOL    HW124776   5.219   5.650   1.074
 7959SOL    HW224777   5.129   5.534   1.145
 7960SOL     OW24778   2.394   1.446   5.728
 7960SOL    HW124779   2.343   1.437   5.813
 7960SOL    HW224780   2.361   1.526   5.678
 7961SOL     OW24781   0.132   1.127   0.535
 7961SOL    HW124782   0.036   1.144   0.560
 7961SOL    HW224783   0.136   1.055   0.466
 7962SOL     OW24784   1.497   0.527   5.804
 7962SOL    HW124785   1.544   0.579   5.875
 7962SOL    HW224786   1.437   0.587   5.752
 7963SOL     OW24787   6.355   6.653   4.652
 7963SOL    HW124788   6.449   6.658   4.620
 7963SOL    HW224789   6.294   6.698   4.585
 7964SOL     OW24790   6.958   4.148   2.891
 7964SOL    HW124791   6.960   4.207   2.972
 7964SOL    HW224792   0.017   4.167   2.834
 7965SOL     OW24793   4.452   2.380   6.110
 7965SOL    HW124794   4.374   2.320   6.128
 7965SOL    HW224795   4.446   2.461   6.168
 7966SOL     OW24796   2.265   2.681   5.897
 7966SOL    HW124797   2.351   2.709   5.941
 7966SOL    HW224798   2.274   2.692   5.798
 7967SOL     OW24799   3.610   6.353   2.438
 7967SOL    HW124800   3.698   6.338   2.393
 7967SOL    HW224801   3.538   6.357   2.368
 7968SOL     OW24802   1.235   2.471   3.570
 7968SOL    HW124803   1.268   2.379   3.591
 7968SOL    HW224804   1.168   2.466   3.496
 7969SOL     OW24805   4.939   5.875   0.592
 7969SOL    HW124806   4.971   5.793   0.545
 7969SOL    HW224807   4.976   5.957   0.546
 7970SOL     OW24808   0.001   2.947   2.247
 7970SOL    HW124809   6.945   2.895   2.285
 7970SOL    HW224810   7.008   3.045   2.263
 7971SOL     OW24811   3.173   2.208   1.003
 7971SOL    HW124812   3.228   2.146   1.059
 7971SOL    HW224813   3.198   2.197   0.907
 7972SOL     OW24814   2.195   2.782   0.168
 7972SOL    HW124815   2.120   2.723   0.199
 7972SOL    HW224816   2.159   2.866   0.129
 7973SOL     OW24817   4.121   4.856   4.710
 7973SOL    HW124818   4.171   4.780   4.751
 7973SOL    HW224819   4.184   4.913   4.658
 7974SOL     OW24820   6.003   0.724   5.179
 7974SOL    HW124821   6.087   0.686   5.141
 7974SOL    HW224822   5.965   0.660   5.246
 7975SOL     OW24823   6.530   1.090   1.891
 7975SOL    HW124824   6.442   1.076   1.936
 7975SOL    HW224825   6.525   1.170   1.832
 7976SOL     OW24826   0.742   0.186   6.061
 7976SOL    HW124827   0.647   0.216   6.074
 7976SOL    HW224828   0.764   0.187   5.963
 7977SOL     OW24829   4.832   5.690   2.762
 7977SOL    HW124830   4.799   5.633   2.838
 7977SOL    HW224831   4.766   5.686   2.687
 7978SOL     OW24832   6.147   2.782   6.183
 7978SOL    HW124833   6.241   2.805   6.155
 7978SOL    HW224834   6.113   2.852   6.245
 7979SOL     OW24835   3.952   5.860   5.817
 7979SOL    HW124836   4.044   5.824   5.798
 7979SOL    HW224837   3.941   5.948   5.771
 7980SOL     OW24838   3.244   5.865   7.014
 7980SOL    HW124839   3.334   5.841   0.031
 7980SOL    HW224840   3.232   5.818   6.927
 7981SOL     OW24841   0.782   4.953   2.110
 7981SOL    HW124842   0.715   5.020   2.142
 7981SOL    HW224843   0.803   4.889   2.183
 7982SOL     OW24844   2.148   1.558   0.308
 7982SOL    HW124845   2.070   1.589   0.253
 7982SOL    HW224846   2.223   1.530   0.248
 7983SOL     OW24847   6.818   2.068   1.346
 7983SOL    HW124848   6.742   2.042   1.286
 7983SOL    HW224849   6.905   2.048   1.300
 7984SOL     OW24850   1.048   1.192   1.032
 7984SOL    HW124851   1.032   1.188   0.933
 7984SOL    HW224852   1.142   1.167   1.051
 7985SOL     OW24853   2.841   0.846   4.752
 7985SOL    HW124854   2.894   0.927   4.726
 7985SOL    HW224855   2.895   0.764   4.731
 7986SOL     OW24856   3.122   1.077   6.302
 7986SOL    HW124857   3.067   1.087   6.385
 7986SOL    HW224858   3.063   1.088   6.222
 7987SOL     OW24859   1.872   2.325   6.758
 7987SOL    HW124860   1.844   2.413   6.798
 7987SOL    HW224861   1.959   2.336   6.712
 7988SOL     OW24862   0.551   2.302   3.499
 7988SOL    HW124863   0.546   2.210   3.459
 7988SOL    HW224864   0.557   2.295   3.598
 7989SOL     OW24865   2.965   3.428   6.788
 7989SOL    HW124866   2.955   3.395   6.694
 7989SOL    HW224867   2.990   3.351   6.848
 7990SOL     OW24868   1.108   4.464   4.264
 7990SOL    HW124869   1.012   4.492   4.273
 7990SOL    HW224870   1.121   4.376   4.309
 7991SOL     OW24871   5.448   0.272   3.117
 7991SOL    HW124872   5.374   0.205   3.125
 7991SOL    HW224873   5.481   0.297   3.208
 7992SOL     OW24874   0.987   0.131   0.891
 7992SOL    HW124875   0.902   0.093   0.854
 7992SOL    HW224876   1.026   0.068   0.958
 7993SOL     OW24877   0.374   6.852   0.878
 7993SOL    HW124878   0.438   6.862   0.953
 7993SOL    HW224879   0.423   6.861   0.791
 7994SOL     OW24880   4.115   6.934   3.530
 7994SOL    HW124881   4.141   7.005   3.465
 7994SOL    HW224882   4.021   6.950   3.560
 7995SOL     OW24883   5.578   5.941   3.597
 7995SOL    HW124884   5.577   5.942   3.497
 7995SOL    HW224885   5.485   5.948   3.632
 7996SOL     OW24886   2.772   0.199   4.941
 7996SOL    HW124887   2.674   0.216   4.937
 7996SOL    HW224888   2.798   0.174   5.035
 7997SOL     OW24889   0.242   1.213   1.605
 7997SOL    HW124890   0.254   1.250   1.697
 7997SOL    HW224891   0.145   1.192   1.590
 7998SOL     OW24892   2.640   0.206   0.396
 7998SOL    HW124893   2.558   0.149   0.400
 7998SOL    HW224894   2.615   0.299   0.367
 7999SOL     OW24895   1.076   0.567   6.130
 7999SOL    HW124896   1.032   0.520   6.053
 7999SOL    HW224897   1.072   0.510   6.211
 8000SOL     OW24898   5.118   0.005   0.062
 8000SOL    HW124899   5.144   7.004   0.157
 8000SOL    HW224900   5.072   6.947   0.022
 8001SOL     OW24901   4.497   6.153   1.585
 8001SOL    HW124902   4.406   6.180   1.618
 8001SOL    HW224903   4.557   6.233   1.584
 8002SOL     OW24904   2.140   1.053   6.303
 8002SOL    HW124905   2.093   1.058   6.391
 8002SOL    HW224906   2.217   0.990   6.310
 8003SOL     OW24907   2.751   5.571   1.959
 8003SOL    HW124908   2.782   5.478   1.978
 8003SOL    HW224909   2.687   5.599   2.030
 8004SOL     OW24910   2.158   2.985   2.587
 8004SOL    HW124911   2.060   2.965   2.588
 8004SOL    HW224912   2.185   3.008   2.493
 8005SOL     OW24913   3.144   1.416   3.109
 8005SOL    HW124914   3.139   1.492   3.175
 8005SOL    HW224915   3.072   1.428   3.040
 8006SOL     OW24916   1.985   6.336   5.878
 8006SOL    HW124917   2.033   6.248   5.873
 8006SOL    HW224918   2.037   6.399   5.935
 8007SOL     OW24919   6.553   1.051   5.632
 8007SOL    HW124920   6.628   1.072   5.569
 8007SOL    HW224921   6.469   1.093   5.599
 8008SOL     OW24922   4.556   6.181   6.660
 8008SOL    HW124923   4.637   6.238   6.674
 8008SOL    HW224924   4.474   6.240   6.657
 8009SOL     OW24925   5.491   0.634   1.487
 8009SOL    HW124926   5.578   0.600   1.454
 8009SOL    HW224927   5.418   0.604   1.426
 8010SOL     OW24928   1.890   1.316   5.287
 8010SOL    HW124929   1.916   1.239   5.346
 8010SOL    HW224930   1.790   1.320   5.281
 8011SOL     OW24931   3.515   2.389   0.705
 8011SOL    HW124932   3.421   2.376   0.736
 8011SOL    HW224933   3.559   2.300   0.691
 8012SOL     OW24934   2.118   3.831   0.362
 8012SOL    HW124935   2.021   3.808   0.356
 8012SOL    HW224936   2.166   3.760   0.414
 8013SOL     OW24937   1.629   5.025   3.072
 8013SOL    HW124938   1.700   4.965   3.109
 8013SOL    HW224939   1.574   5.063   3.147
 8014SOL     OW24940   1.299   6.338   4.875
 8014SOL    HW124941   1.273   6.404   4.946
 8014SOL    HW224942   1.399   6.333   4.869
 8015SOL     OW24943   3.342   0.607   6.151
 8015SOL    HW124944   3.366   0.619   6.055
 8015SOL    HW224945   3.298   0.690   6.185
 8016SOL     OW24946   4.981   0.394   5.560
 8016SOL    HW124947   5.011   0.399   5.655
 8016SOL    HW224948   5.058   0.370   5.501
 8017SOL     OW24949   5.922   0.023   0.739
 8017SOL    HW124950   5.882   6.959   0.704
 8017SOL    HW224951   5.953   0.008   0.833
 8018SOL     OW24952   3.341   2.136   6.529
 8018SOL    HW124953   3.396   2.089   6.460
 8018SOL    HW224954   3.255   2.087   6.543
 8019SOL     OW24955   2.362   4.814   0.683
 8019SOL    HW124956   2.409   4.781   0.765
 8019SOL    HW224957   2.425   4.869   0.627
 8020SOL     OW24958   5.951   0.492   0.363
 8020SOL    HW124959   5.964   0.394   0.347
 8020SOL    HW224960   6.038   0.540   0.351
 8021SOL     OW24961   1.272   2.644   0.772
 8021SOL    HW124962   1.362   2.684   0.789
 8021SOL    HW224963   1.215   2.710   0.723
 8022SOL     OW24964   6.021   6.921   2.711
 8022SOL    HW124965   6.030   7.020   2.702
 8022SOL    HW224966   5.928   6.893   2.686
 8023SOL     OW24967   5.571   5.436   2.776
 8023SOL    HW124968   5.661   5.396   2.756
 8023SOL    HW224969   5.576   5.535   2.771
 8024SOL     OW24970   1.090   4.524   5.912
 8024SOL    HW124971   1.166   4.498   5.851
 8024SOL    HW224972   1.095   4.470   5.996
 8025SOL     OW24973   2.148   5.627   6.943
 8025SOL    HW124974   2.142   5.698   6.873
 8025SOL    HW224975   2.137   5.668   0.012
 8026SOL     OW24976   6.861   4.266   6.951
 8026SOL    HW124977   6.855   4.364   6.932
 8026SOL    HW224978   6.948   4.246   6.997
 8027SOL     OW24979   4.632   0.296   4.725
 8027SOL    HW124980   4.687   0.365   4.772
 8027SOL    HW224981   4.539   0.298   4.760
 8028SOL     OW24982   4.008   5.963   5.461
 8028SOL    HW124983   3.992   5.933   5.367
 8028SOL    HW224984   4.039   6.059   5.460
 8029SOL     OW24985   4.866   3.067   1.286
 8029SOL    HW124986   4.903   3.067   1.193
 8029SOL    HW224987   4.800   2.992   1.296
 8030SOL     OW24988   4.603   4.689   0.276
 8030SOL    HW124989   4.597   4.664   0.179
 8030SOL    HW224990   4.510   4.701   0.313
 8031SOL     OW24991   6.710   6.363   2.350
 8031SOL    HW124992   6.641   6.290   2.347
 8031SOL    HW224993   6.680   6.435   2.412
 8032SOL     OW24994   6.328   4.178   1.585
 8032SOL    HW124995   6.294   4.117   1.657
 8032SOL    HW224996   6.289   4.269   1.598
 8033SOL     OW24997   5.205   1.797   6.110
 8033SOL    HW124998   5.273   1.870   6.118
 8033SOL    HW224999   5.123   1.823   6.161
 8034SOL     OW25000   4.670   0.948   4.768
 8034SOL    HW125001   4.600   1.008   4.805
 8034SOL    HW225002   4.632   0.856   4.755
 8035SOL     OW25003   4.977   1.555   4.242
 8035SOL    HW125004   4.998   1.515   4.331
 8035SOL    HW225005   4.958   1.481   4.176
 8036SOL     OW25006   6.718   3.852   3.877
 8036SOL    HW125007   6.740   3.783   3.946
 8036SOL    HW225008   6.773   3.934   3.895
 8037SOL     OW25009   1.602   3.402   0.152
 8037SOL    HW125010   1.697   3.372   0.162
 8037SOL    HW225011   1.589   3.440   0.060
 8038SOL     OW25012   4.564   0.149   2.529
 8038SOL    HW125013   4.560   0.075   2.462
 8038SOL    HW225014   4.619   0.225   2.493
 8039SOL     OW25015   0.923   2.038   5.550
 8039SOL    HW125016   0.891   1.946   5.571
 8039SOL    HW225017   0.866   2.078   5.478
 8040SOL     OW25018   1.134   5.445   0.118
 8040SOL    HW125019   1.174   5.536   0.124
 8040SOL    HW225020   1.189   5.388   0.056
 8041SOL     OW25021   2.891   1.178   2.495
 8041SOL    HW125022   2.936   1.141   2.414
 8041SOL    HW225023   2.883   1.107   2.565
 8042SOL     OW25024   3.338   2.912   4.277
 8042SOL    HW125025   3.349   2.942   4.372
 8042SOL    HW225026   3.242   2.897   4.258
 8043SOL     OW25027   3.467   6.428   0.870
 8043SOL    HW125028   3.387   6.411   0.928
 8043SOL    HW225029   3.550   6.416   0.925
 8044SOL     OW25030   4.301   2.410   1.621
 8044SOL    HW125031   4.319   2.351   1.700
 8044SOL    HW225032   4.383   2.415   1.564
 8045SOL     OW25033   5.607   2.333   2.767
 8045SOL    HW125034   5.693   2.377   2.742
 8045SOL    HW225035   5.540   2.402   2.794
 8046SOL     OW25036   0.996   4.441   1.861
 8046SOL    HW125037   1.016   4.533   1.897
 8046SOL    HW225038   1.036   4.372   1.921
 8047SOL     OW25039   4.034   5.881   5.206
 8047SOL    HW125040   3.976   5.801   5.196
 8047SOL    HW225041   3.995   5.957   5.154
 8048SOL     OW25042   5.009   1.926   6.239
 8048SOL    HW125043   4.968   2.015   6.220
 8048SOL    HW225044   4.940   1.865   6.278
 8049SOL     OW25045   0.455   0.495   0.465
 8049SOL    HW125046   0.448   0.594   0.458
 8049SOL    HW225047   0.512   0.461   0.389
 8050SOL     OW25048   1.842   3.362   3.300
 8050SOL    HW125049   1.862   3.290   3.367
 8050SOL    HW225050   1.925   3.386   3.250
 8051SOL     OW25051   4.203   5.666   4.314
 8051SOL    HW125052   4.249   5.622   4.238
 8051SOL    HW225053   4.207   5.607   4.395
 8052SOL     OW25054   3.417   1.584   0.666
 8052SOL    HW125055   3.476   1.536   0.602
 8052SOL    HW225056   3.467   1.658   0.710
 8053SOL     OW25057   3.092   2.987   4.123
 8053SOL    HW125058   3.085   2.924   4.046
 8053SOL    HW225059   3.085   3.081   4.091
 8054SOL     OW25060   6.407   5.042   5.059
 8054SOL    HW125061   6.426   5.008   5.151
 8054SOL    HW225062   6.310   5.034   5.040
 8055SOL     OW25063   0.437   0.150   5.182
 8055SOL    HW125064   0.457   0.059   5.219
 8055SOL    HW225065   0.350   0.182   5.221
 8056SOL     OW25066   2.180   1.225   3.492
 8056SOL    HW125067   2.199   1.137   3.535
 8056SOL    HW225068   2.142   1.287   3.559
 8057SOL     OW25069   2.946   2.226   2.877
 8057SOL    HW125070   2.929   2.250   2.782
 8057SOL    HW225071   2.905   2.295   2.937
 8058SOL     OW25072   3.839   0.206   3.386
 8058SOL    HW125073   3.922   0.170   3.342
 8058SOL    HW225074   3.762   0.200   3.322
 8059SOL     OW25075   2.738   2.091   4.645
 8059SOL    HW125076   2.683   2.013   4.614
 8059SOL    HW225077   2.804   2.061   4.714
 8060SOL     OW25078   6.601   2.206   5.965
 8060SOL    HW125079   6.683   2.232   6.016
 8060SOL    HW225080   6.625   2.188   5.870
 8061SOL     OW25081   6.772   0.255   2.606
 8061SOL    HW125082   6.826   0.197   2.545
 8061SOL    HW225083   6.814   0.256   2.697
 8062SOL     OW25084   3.434   4.968   4.570
 8062SOL    HW125085   3.459   4.934   4.480
 8062SOL    HW225086   3.343   4.934   4.595
 8063SOL     OW25087   1.928   2.145   2.362
 8063SOL    HW125088   1.927   2.045   2.354
 8063SOL    HW225089   1.850   2.182   2.313
 8064SOL     OW25090   6.342   2.696   1.230
 8064SOL    HW125091   6.433   2.655   1.230
 8064SOL    HW225092   6.277   2.632   1.191
 8065SOL     OW25093   2.678   5.789   4.375
 8065SOL    HW125094   2.612   5.733   4.325
 8065SOL    HW225095   2.629   5.857   4.430
 8066SOL     OW25096   0.722   1.711   5.273
 8066SOL    HW125097   0.666   1.778   5.323
 8066SOL    HW225098   0.804   1.756   5.238
 8067SOL     OW25099   5.118   2.585   2.553
 8067SOL    HW125100   5.030   2.571   2.507
 8067SOL    HW225101   5.192   2.559   2.492
 8068SOL     OW25102   6.800   4.468   1.645
 8068SOL    HW125103   6.736   4.392   1.633
 8068SOL    HW225104   6.889   4.441   1.610
 8069SOL     OW25105   2.596   5.947   1.046
 8069SOL    HW125106   2.539   6.029   1.045
 8069SOL    HW225107   2.686   5.969   1.082
 8070SOL     OW25108   3.959   3.598   1.023
 8070SOL    HW125109   3.893   3.528   0.995
 8070SOL    HW225110   3.911   3.670   1.074
 8071SOL     OW25111   3.646   6.362   4.708
 8071SOL    HW125112   3.632   6.362   4.807
 8071SOL    HW225113   3.626   6.453   4.671
 8072SOL     OW25114   4.390   1.556   0.994
 8072SOL    HW125115   4.426   1.491   1.060
 8072SOL    HW225116   4.377   1.510   0.906
 8073SOL     OW25117   3.090   5.086   5.252
 8073SOL    HW125118   3.146   5.166   5.233
 8073SOL    HW225119   3.134   5.004   5.214
 8074SOL     OW25120   3.113   2.670   0.846
 8074SOL    HW125121   3.147   2.717   0.928
 8074SOL    HW225122   3.138   2.722   0.765
 8075SOL     OW25123   6.938   6.780   0.430
 8075SOL    HW125124   6.919   6.712   0.501
 8075SOL    HW225125   6.994   6.854   0.468
 8076SOL     OW25126   6.406   0.787   5.243
 8076SOL    HW125127   6.375   0.880   5.261
 8076SOL    HW225128   6.328   0.725   5.245
 8077SOL     OW25129   3.520   6.247   2.678
 8077SOL    HW125130   3.564   6.300   2.605
 8077SOL    HW225131   3.473   6.168   2.638
 8078SOL     OW25132   6.906   2.153   0.617
 8078SOL    HW125133   6.952   2.224   0.672
 8078SOL    HW225134   6.836   2.196   0.561
 8079SOL     OW25135   5.987   1.742   3.546
 8079SOL    HW125136   6.010   1.649   3.516
 8079SOL    HW225137   5.928   1.737   3.627
 8080SOL     OW25138   0.964   3.000   1.675
 8080SOL    HW125139   1.037   3.049   1.627
 8080SOL    HW225140   0.883   2.995   1.616
 8081SOL     OW25141   6.042   5.716   5.575
 8081SOL    HW125142   6.106   5.639   5.583
 8081SOL    HW225143   6.033   5.741   5.479
 8082SOL     OW25144   4.290   6.746   2.465
 8082SOL    HW125145   4.212   6.804   2.486
 8082SOL    HW225146   4.331   6.713   2.551
 8083SOL     OW25147   5.165   2.924   3.225
 8083SOL    HW125148   5.199   2.852   3.164
 8083SOL    HW225149   5.144   3.005   3.171
 8084SOL     OW25150   3.918   6.500   0.460
 8084SOL    HW125151   4.017   6.508   0.470
 8084SOL    HW225152   3.891   6.534   0.370
 8085SOL     OW25153   6.828   6.376   2.065
 8085SOL    HW125154   6.780   6.359   2.151
 8085SOL    HW225155   6.799   6.309   1.997
 8086SOL     OW25156   6.089   0.776   2.612
 8086SOL    HW125157   6.076   0.856   2.554
 8086SOL    HW225158   6.026   0.704   2.583
 8087SOL     OW25159   2.242   0.820   0.004
 8087SOL    HW125160   2.153   0.800   0.045
 8087SOL    HW225161   2.233   0.818   6.925
 8088SOL     OW25162   5.763   1.706   1.530
 8088SOL    HW125163   5.849   1.672   1.492
 8088SOL    HW225164   5.726   1.777   1.470
 8089SOL     OW25165   5.946   2.973   0.798
 8089SOL    HW125166   5.933   3.016   0.708
 8089SOL    HW225167   5.858   2.966   0.845
 8090SOL     OW25168   4.731   2.119   0.126
 8090SOL    HW125169   4.760   2.024   0.140
 8090SOL    HW225170   4.746   2.171   0.210
 8091SOL     OW25171   2.136   3.967   4.805
 8091SOL    HW125172   2.048   4.007   4.831
 8091SOL    HW225173   2.207   3.997   4.869
 8092SOL     OW25174   5.479   2.040   4.972
 8092SOL    HW125175   5.550   2.055   5.041
 8092SOL    HW225176   5.390   2.032   5.018
 8093SOL     OW25177   4.196   4.704   2.737
 8093SOL    HW125178   4.228   4.791   2.775
 8093SOL    HW225179   4.096   4.702   2.736
 8094SOL     OW25180   1.051   3.351   4.706
 8094SOL    HW125181   1.074   3.293   4.629
 8094SOL    HW225182   0.991   3.301   4.769
 8095SOL     OW25183   0.462   4.793   4.267
 8095SOL    HW125184   0.473   4.739   4.350
 8095SOL    HW225185   0.497   4.885   4.282
 8096SOL     OW25186   1.753   6.914   3.168
 8096SOL    HW125187   1.784   7.008   3.178
 8096SOL    HW225188   1.737   6.894   3.071
 8097SOL     OW25189   4.089   0.034   4.242
 8097SOL    HW125190   4.046   0.110   4.291
 8097SOL    HW225191   4.035   0.011   4.161
 8098SOL     OW25192   2.091   6.159   3.315
 8098SOL    HW125193   1.997   6.131   3.298
 8098SOL    HW225194   2.092   6.241   3.373
 8099SOL     OW25195   3.901   6.445   5.138
 8099SOL    HW125196   3.831   6.374   5.128
 8099SOL    HW225197   3.915   6.465   5.235
 8100SOL     OW25198   6.996   0.872   0.500
 8100SOL    HW125199   6.910   0.850   0.455
 8100SOL    HW225200   0.008   0.792   0.550
 8101SOL     OW25201   1.991   6.252   2.379
 8101SOL    HW125202   1.980   6.177   2.444
 8101SOL    HW225203   2.082   6.292   2.391
 8102SOL     OW25204   0.950   4.373   3.678
 8102SOL    HW125205   0.925   4.452   3.735
 8102SOL    HW225206   1.008   4.403   3.602
 8103SOL     OW25207   2.886   6.889   1.327
 8103SOL    HW125208   2.977   6.922   1.355
 8103SOL    HW225209   2.825   6.966   1.311
 8104SOL     OW25210   2.599   0.424   6.009
 8104SOL    HW125211   2.671   0.454   5.946
 8104SOL    HW225212   2.636   0.422   6.103
 8105SOL     OW25213   0.869   2.648   3.121
 8105SOL    HW125214   0.848   2.707   3.199
 8105SOL    HW225215   0.857   2.699   3.036
 8106SOL     OW25216   2.854   6.200   2.881
 8106SOL    HW125217   2.932   6.171   2.826
 8106SOL    HW225218   2.886   6.223   2.973
 8107SOL     OW25219   1.067   5.020   4.319
 8107SOL    HW125220   1.027   4.950   4.261
 8107SOL    HW225221   1.007   5.036   4.398
 8108SOL     OW25222   6.008   3.224   5.888
 8108SOL    HW125223   6.038   3.196   5.796
 8108SOL    HW225224   5.979   3.143   5.939
 8109SOL     OW25225   0.813   3.681   4.526
 8109SOL    HW125226   0.846   3.776   4.520
 8109SOL    HW225227   0.881   3.619   4.487
 8110SOL     OW25228   3.835   5.892   1.280
 8110SOL    HW125229   3.765   5.821   1.270
 8110SOL    HW225230   3.917   5.853   1.322
 8111SOL     OW25231   5.448   1.029   5.228
 8111SOL    HW125232   5.405   1.098   5.286
 8111SOL    HW225233   5.387   1.007   5.152
 8112SOL     OW25234   2.626   2.233   3.951
 8112SOL    HW125235   2.681   2.186   4.020
 8112SOL    HW225236   2.546   2.177   3.928
 8113SOL     OW25237   1.809   3.736   0.341
 8113SOL    HW125238   1.735   3.716   0.276
 8113SOL    HW225239   1.833   3.653   0.391
 8114SOL     OW25240   1.546   4.033   2.998
 8114SOL    HW125241   1.614   3.988   2.939
 8114SOL    HW225242   1.479   3.966   3.028
 8115SOL     OW25243   3.820   0.350   0.169
 8115SOL    HW125244   3.834   0.357   0.070
 8115SOL    HW225245   3.749   0.415   0.197
 8116SOL     OW25246   4.218   4.901   6.134
 8116SOL    HW125247   4.164   4.979   6.103
 8116SOL    HW225248   4.306   4.934   6.169
 8117SOL     OW25249   1.872   0.125   3.171
 8117SOL    HW125250   1.891   0.216   3.208
 8117SOL    HW225251   1.951   0.092   3.121
 8118SOL     OW25252   5.271   4.882   6.098
 8118SOL    HW125253   5.182   4.841   6.122
 8118SOL    HW225254   5.271   4.907   6.001
 8119SOL     OW25255   5.012   5.568   6.302
 8119SOL    HW125256   4.924   5.522   6.315
 8119SOL    HW225257   5.029   5.629   6.380
 8120SOL     OW25258   3.297   4.974   0.500
 8120SOL    HW125259   3.335   5.055   0.543
 8120SOL    HW225260   3.199   4.968   0.521
 8121SOL     OW25261   6.992   5.182   2.188
 8121SOL    HW125262   0.010   5.233   2.265
 8121SOL    HW225263   0.037   5.114   2.156
 8122SOL     OW25264   0.506   5.518   3.429
 8122SOL    HW125265   0.604   5.499   3.438
 8122SOL    HW225266   0.481   5.521   3.332
 8123SOL     OW25267   0.091   1.452   6.426
 8123SOL    HW125268   0.028   1.415   6.494
 8123SOL    HW225269   0.048   1.530   6.380
 8124SOL     OW25270   5.925   6.323   1.139
 8124SOL    HW125271   5.935   6.301   1.042
 8124SOL    HW225272   6.008   6.295   1.188
 8125SOL     OW25273   1.850   1.257   2.966
 8125SOL    HW125274   1.944   1.256   3.000
 8125SOL    HW225275   1.822   1.351   2.949
 8126SOL     OW25276   4.431   4.663   2.256
 8126SOL    HW125277   4.497   4.590   2.241
 8126SOL    HW225278   4.410   4.671   2.353
 8127SOL     OW25279   2.658   4.183   6.296
 8127SOL    HW125280   2.661   4.210   6.392
 8127SOL    HW225281   2.716   4.244   6.243
 8128SOL     OW25282   2.487   1.445   1.669
 8128SOL    HW125283   2.436   1.525   1.701
 8128SOL    HW225284   2.555   1.420   1.737
 8129SOL     OW25285   4.503   0.377   6.401
 8129SOL    HW125286   4.519   0.434   6.482
 8129SOL    HW225287   4.515   0.281   6.426
 8130SOL     OW25288   0.185   3.384   6.484
 8130SOL    HW125289   0.121   3.384   6.561
 8130SOL    HW225290   0.262   3.324   6.505
 8131SOL     OW25291   3.136   1.858   0.841
 8131SOL    HW125292   3.180   1.942   0.812
 8131SOL    HW225293   3.046   1.851   0.799
 8132SOL     OW25294   5.987   6.601   6.229
 8132SOL    HW125295   6.023   6.519   6.186
 8132SOL    HW225296   6.062   6.665   6.247
 8133SOL     OW25297   3.114   5.145   1.625
 8133SOL    HW125298   3.205   5.158   1.585
 8133SOL    HW225299   3.064   5.232   1.622
 8134SOL     OW25300   6.497   2.675   5.695
 8134SOL    HW125301   6.582   2.723   5.676
 8134SOL    HW225302   6.506   2.579   5.668
 8135SOL     OW25303   2.860   6.613   1.299
 8135SOL    HW125304   2.880   6.609   1.201
 8135SOL    HW225305   2.861   6.709   1.328
 8136SOL     OW25306   4.208   5.590   3.484
 8136SOL    HW125307   4.166   5.511   3.439
 8136SOL    HW225308   4.148   5.622   3.557
 8137SOL     OW25309   3.076   2.034   5.186
 8137SOL    HW125310   3.127   2.080   5.113
 8137SOL    HW225311   3.068   2.095   5.264
 8138SOL     OW25312   5.638   1.572   0.180
 8138SOL    HW125313   5.574   1.515   0.127
 8138SOL    HW225314   5.722   1.583   0.127
 8139SOL     OW25315   7.006   1.527   2.344
 8139SOL    HW125316   6.916   1.542   2.302
 8139SOL    HW225317   7.013   1.432   2.376
 8140SOL     OW25318   4.835   0.545   0.857
 8140SOL    HW125319   4.892   0.623   0.882
 8140SOL    HW225320   4.893   0.468   0.830
 8141SOL     OW25321   4.913   6.106   4.929
 8141SOL    HW125322   4.943   6.138   5.019
 8141SOL    HW225323   4.982   6.128   4.861
 8142SOL     OW25324   0.995   5.477   6.849
 8142SOL    HW125325   1.022   5.447   6.940
 8142SOL    HW225326   1.065   5.450   6.783
 8143SOL     OW25327   6.231   4.119   1.214
 8143SOL    HW125328   6.285   4.048   1.260
 8143SOL    HW225329   6.215   4.195   1.277
 8144SOL     OW25330   6.111   6.315   6.429
 8144SOL    HW125331   6.146   6.353   6.343
 8144SOL    HW225332   6.066   6.388   6.481
 8145SOL     OW25333   5.797   5.809   1.695
 8145SOL    HW125334   5.750   5.764   1.772
 8145SOL    HW225335   5.756   5.779   1.609
 8146SOL     OW25336   4.591   0.463   4.443
 8146SOL    HW125337   4.631   0.376   4.415
 8146SOL    HW225338   4.590   0.470   4.542
 8147SOL     OW25339   6.402   1.873   1.019
 8147SOL    HW125340   6.327   1.930   0.984
 8147SOL    HW225341   6.365   1.809   1.086
 8148SOL     OW25342   5.186   4.150   1.177
 8148SOL    HW125343   5.094   4.110   1.177
 8148SOL    HW225344   5.185   4.235   1.230
 8149SOL     OW25345   3.424   6.393   2.241
 8149SOL    HW125346   3.357   6.337   2.289
 8149SOL    HW225347   3.389   6.487   2.233
 8150SOL     OW25348   1.621   4.033   0.923
 8150SOL    HW125349   1.583   3.941   0.916
 8150SOL    HW225350   1.698   4.033   0.987
 8151SOL     OW25351   5.914   2.857   1.332
 8151SOL    HW125352   5.861   2.849   1.417
 8151SOL    HW225353   6.003   2.814   1.344
 8152SOL     OW25354   6.902   2.147   2.383
 8152SOL    HW125355   6.818   2.167   2.434
 8152SOL    HW225356   6.940   2.232   2.347
 8153SOL     OW25357   2.322   0.124   3.567
 8153SOL    HW125358   2.346   0.066   3.489
 8153SOL    HW225359   2.294   0.066   3.644
 8154SOL     OW25360   3.290   5.058   2.164
 8154SOL    HW125361   3.364   5.107   2.119
 8154SOL    HW225362   3.281   4.967   2.124
 8155SOL     OW25363   1.669   4.028   1.932
 8155SOL    HW125364   1.714   4.009   1.845
 8155SOL    HW225365   1.738   4.047   2.002
 8156SOL     OW25366   5.272   0.064   1.472
 8156SOL    HW125367   5.280   0.146   1.529
 8156SOL    HW225368   5.280   0.091   1.376
 8157SOL     OW25369   0.136   5.310   6.246
 8157SOL    HW125370   0.052   5.279   6.201
 8157SOL    HW225371   0.114   5.382   6.312
 8158SOL     OW25372   4.679   4.920   0.768
 8158SOL    HW125373   4.669   4.834   0.817
 8158SOL    HW225374   4.612   4.924   0.694
 8159SOL     OW25375   2.994   5.740   2.439
 8159SOL    HW125376   2.921   5.801   2.408
 8159SOL    HW225377   3.053   5.717   2.361
 8160SOL     OW25378   5.488   0.764   3.697
 8160SOL    HW125379   5.474   0.695   3.626
 8160SOL    HW225380   5.407   0.821   3.705
 8161SOL     OW25381   5.437   1.626   6.833
 8161SOL    HW125382   5.364   1.668   6.779
 8161SOL    HW225383   5.522   1.677   6.819
 8162SOL     OW25384   5.881   5.990   6.184
 8162SOL    HW125385   5.895   5.918   6.116
 8162SOL    HW225386   5.956   5.988   6.251
 8163SOL     OW25387   2.673   3.914   5.288
 8163SOL    HW125388   2.740   3.876   5.224
 8163SOL    HW225389   2.583   3.913   5.246
 8164SOL     OW25390   5.127   3.011   0.415
 8164SOL    HW125391   5.212   3.042   0.458
 8164SOL    HW225392   5.147   2.981   0.322
 8165SOL     OW25393   0.799   3.808   6.501
 8165SOL    HW125394   0.749   3.889   6.471
 8165SOL    HW225395   0.747   3.762   6.573
 8166SOL     OW25396   1.517   0.145   2.815
 8166SOL    HW125397   1.478   0.066   2.861
 8166SOL    HW225398   1.444   0.202   2.778
 8167SOL     OW25399   6.232   6.770   4.873
 8167SOL    HW125400   6.157   6.822   4.832
 8167SOL    HW225401   6.257   6.695   4.811
 8168SOL     OW25402   2.181   1.574   3.543
 8168SOL    HW125403   2.183   1.538   3.450
 8168SOL    HW225404   2.127   1.512   3.601
 8169SOL     OW25405   5.309   1.837   1.162
 8169SOL    HW125406   5.268   1.925   1.188
 8169SOL    HW225407   5.238   1.774   1.134
 8170SOL     OW25408   1.216   5.513   2.836
 8170SOL    HW125409   1.258   5.433   2.793
 8170SOL    HW225410   1.180   5.574   2.765
 8171SOL     OW25411   1.396   1.536   6.630
 8171SOL    HW125412   1.404   1.611   6.565
 8171SOL    HW225413   1.484   1.488   6.638
 8172SOL     OW25414   0.882   2.058   2.060
 8172SOL    HW125415   0.858   2.074   2.156
 8172SOL    HW225416   0.915   1.964   2.049
 8173SOL     OW25417   5.071   1.023   2.510
 8173SOL    HW125418   5.043   0.983   2.423
 8173SOL    HW225419   4.998   1.011   2.577
 8174SOL     OW25420   6.150   3.492   0.955
 8174SOL    HW125421   6.115   3.405   0.991
 8174SOL    HW225422   6.077   3.538   0.904
 8175SOL     OW25423   0.024   2.877   5.991
 8175SOL    HW125424   6.965   2.886   5.932
 8175SOL    HW225425   0.008   2.805   6.059
 8176SOL     OW25426   3.117   5.323   2.201
 8176SOL    HW125427   3.084   5.309   2.108
 8176SOL    HW225428   3.047   5.294   2.267
 8177SOL     OW25429   2.973   6.142   4.103
 8177SOL    HW125430   2.980   6.181   4.195
 8177SOL    HW225431   2.924   6.054   4.107
 8178SOL     OW25432   2.802   5.697   6.817
 8178SOL    HW125433   2.877   5.680   6.754
 8178SOL    HW225434   2.833   5.683   6.911
 8179SOL     OW25435   4.639   2.056   5.606
 8179SOL    HW125436   4.628   1.975   5.664
 8179SOL    HW225437   4.564   2.119   5.622
 8180SOL     OW25438   6.375   6.981   4.948
 8180SOL    HW125439   6.332   6.892   4.933
 8180SOL    HW225440   6.326   0.010   5.019
 8181SOL     OW25441   2.163   1.547   1.500
 8181SOL    HW125442   2.166   1.643   1.473
 8181SOL    HW225443   2.194   1.490   1.424
 8182SOL     OW25444   4.056   3.157   6.313
 8182SOL    HW125445   4.037   3.059   6.323
 8182SOL    HW225446   4.093   3.192   6.399
 8183SOL     OW25447   0.301   2.755   4.258
 8183SOL    HW125448   0.351   2.706   4.186
 8183SOL    HW225449   0.226   2.808   4.217
 8184SOL     OW25450   5.390   1.874   5.892
 8184SOL    HW125451   5.299   1.868   5.933
 8184SOL    HW225452   5.455   1.821   5.947
 8185SOL     OW25453   2.267   6.415   0.502
 8185SOL    HW125454   2.258   6.345   0.431
 8185SOL    HW225455   2.306   6.498   0.462
 8186SOL     OW25456   3.677   6.015   5.935
 8186SOL    HW125457   3.761   6.036   5.984
 8186SOL    HW225458   3.664   5.916   5.931
 8187SOL     OW25459   1.530   2.371   5.438
 8187SOL    HW125460   1.491   2.288   5.478
 8187SOL    HW225461   1.621   2.350   5.402
 8188SOL     OW25462   5.741   2.723   2.220
 8188SOL    HW125463   5.775   2.700   2.129
 8188SOL    HW225464   5.648   2.758   2.213
 8189SOL     OW25465   4.577   4.785   2.753
 8189SOL    HW125466   4.664   4.814   2.793
 8189SOL    HW225467   4.513   4.761   2.826
 8190SOL     OW25468   3.847   5.425   3.693
 8190SOL    HW125469   3.762   5.379   3.717
 8190SOL    HW225470   3.914   5.357   3.664
 8191SOL     OW25471   3.443   6.660   2.789
 8191SOL    HW125472   3.521   6.623   2.739
 8191SOL    HW225473   3.363   6.603   2.772
 8192SOL     OW25474   3.731   5.341   0.972
 8192SOL    HW125475   3.636   5.373   0.975
 8192SOL    HW225476   3.785   5.404   0.917
 8193SOL     OW25477   6.585   6.627   4.536
 8193SOL    HW125478   6.681   6.652   4.543
 8193SOL    HW225479   6.576   6.543   4.483
 8194SOL     OW25480   5.902   2.487   1.065
 8194SOL    HW125481   5.896   2.586   1.071
 8194SOL    HW225482   5.851   2.445   1.140
 8195SOL     OW25483   1.195   0.398   1.255
 8195SOL    HW125484   1.116   0.337   1.247
 8195SOL    HW225485   1.231   0.394   1.348
 8196SOL     OW25486   3.697   0.268   5.796
 8196SOL    HW125487   3.696   0.269   5.696
 8196SOL    HW225488   3.713   0.361   5.830
 8197SOL     OW25489   4.364   1.307   6.416
 8197SOL    HW125490   4.352   1.387   6.357
 8197SOL    HW225491   4.382   1.227   6.359
 8198SOL     OW25492   3.620   6.271   3.617
 8198SOL    HW125493   3.576   6.230   3.536
 8198SOL    HW225494   3.579   6.233   3.699
 8199SOL     OW25495   6.201   3.269   6.356
 8199SOL    HW125496   6.172   3.327   6.279
 8199SOL    HW225497   6.301   3.261   6.355
 8200SOL     OW25498   4.702   3.764   1.513
 8200SOL    HW125499   4.755   3.764   1.428
 8200SOL    HW225500   4.610   3.799   1.495
 8201SOL     OW25501   5.783   0.807   4.161
 8201SOL    HW125502   5.720   0.782   4.088
 8201SOL    HW225503   5.776   0.741   4.236
 8202SOL     OW25504   0.445   5.556   4.447
 8202SOL    HW125505   0.520   5.620   4.432
 8202SOL    HW225506   0.370   5.577   4.383
 8203SOL     OW25507   4.591   2.684   1.060
 8203SOL    HW125508   4.679   2.637   1.059
 8203SOL    HW225509   4.554   2.688   0.967
 8204SOL     OW25510   3.304   5.445   0.623
 8204SOL    HW125511   3.392   5.492   0.628
 8204SOL    HW225512   3.246   5.474   0.700
 8205SOL     OW25513   0.447   4.905   1.106
 8205SOL    HW125514   0.515   4.927   1.035
 8205SOL    HW225515   0.472   4.952   1.191
 8206SOL     OW25516   4.539   2.436   5.870
 8206SOL    HW125517   4.549   2.535   5.865
 8206SOL    HW225518   4.503   2.410   5.960
 8207SOL     OW25519   3.980   3.995   5.274
 8207SOL    HW125520   3.895   4.006   5.325
 8207SOL    HW225521   3.992   3.899   5.248
 8208SOL     OW25522   2.069   6.728   1.499
 8208SOL    HW125523   2.081   6.823   1.527
 8208SOL    HW225524   2.093   6.719   1.402
 8209SOL     OW25525   1.145   1.550   5.842
 8209SOL    HW125526   1.067   1.592   5.798
 8209SOL    HW225527   1.210   1.621   5.870
 8210SOL     OW25528   2.682   0.868   1.428
 8210SOL    HW125529   2.642   0.848   1.517
 8210SOL    HW225530   2.609   0.878   1.360
 8211SOL     OW25531   3.444   3.862   3.128
 8211SOL    HW125532   3.522   3.890   3.185
 8211SOL    HW225533   3.388   3.943   3.108
 8212SOL     OW25534   3.173   1.464   1.047
 8212SOL    HW125535   3.184   1.549   1.099
 8212SOL    HW225536   3.149   1.486   0.953
 8213SOL     OW25537   5.151   4.678   2.175
 8213SOL    HW125538   5.057   4.679   2.142
 8213SOL    HW225539   5.157   4.624   2.259
 8214SOL     OW25540   1.243   5.660   4.178
 8214SOL    HW125541   1.203   5.570   4.161
 8214SOL    HW225542   1.193   5.706   4.251
 8215SOL     OW25543   3.533   5.609   6.429
 8215SOL    HW125544   3.566   5.688   6.479
 8215SOL    HW225545   3.538   5.527   6.487
 8216SOL     OW25546   5.178   6.402   3.134
 8216SOL    HW125547   5.116   6.479   3.119
 8216SOL    HW225548   5.202   6.361   3.046
 8217SOL     OW25549   2.188   3.901   2.435
 8217SOL    HW125550   2.185   3.868   2.341
 8217SOL    HW225551   2.155   3.829   2.497
 8218SOL     OW25552   1.199   6.779   4.542
 8218SOL    HW125553   1.191   6.743   4.635
 8218SOL    HW225554   1.108   6.790   4.502
 8219SOL     OW25555   3.697   3.555   1.719
 8219SOL    HW125556   3.695   3.651   1.690
 8219SOL    HW225557   3.634   3.502   1.662
 8220SOL     OW25558   3.393   4.142   5.349
 8220SOL    HW125559   3.333   4.221   5.336
 8220SOL    HW225560   3.339   4.063   5.376
 8221SOL     OW25561   6.149   5.496   3.436
 8221SOL    HW125562   6.129   5.589   3.405
 8221SOL    HW225563   6.238   5.468   3.402
 8222SOL     OW25564   5.276   2.282   1.593
 8222SOL    HW125565   5.225   2.335   1.661
 8222SOL    HW225566   5.313   2.199   1.636
 8223SOL     OW25567   0.437   4.427   5.832
 8223SOL    HW125568   0.383   4.354   5.874
 8223SOL    HW225569   0.503   4.388   5.769
 8224SOL     OW25570   5.581   2.416   1.602
 8224SOL    HW125571   5.504   2.471   1.634
 8224SOL    HW225572   5.657   2.476   1.577
 8225SOL     OW25573   3.374   1.280   1.681
 8225SOL    HW125574   3.329   1.193   1.702
 8225SOL    HW225575   3.432   1.307   1.758
 8226SOL     OW25576   3.429   0.310   0.625
 8226SOL    HW125577   3.356   0.379   0.627
 8226SOL    HW225578   3.453   0.290   0.530
 8227SOL     OW25579   0.210   1.646   2.256
 8227SOL    HW125580   0.183   1.742   2.263
 8227SOL    HW225581   0.136   1.588   2.290
 8228SOL     OW25582   0.948   1.613   5.616
 8228SOL    HW125583   1.020   1.575   5.558
 8228SOL    HW225584   0.916   1.543   5.680
 8229SOL     OW25585   3.833   4.630   1.012
 8229SOL    HW125586   3.883   4.716   1.020
 8229SOL    HW225587   3.736   4.649   1.002
 8230SOL     OW25588   4.005   0.006   5.985
 8230SOL    HW125589   3.916   0.026   5.945
 8230SOL    HW225590   4.078   0.033   5.921
 8231SOL     OW25591   3.423   2.407   1.518
 8231SOL    HW125592   3.491   2.424   1.590
 8231SOL    HW225593   3.359   2.337   1.549
 8232SOL     OW25594   5.824   1.958   1.999
 8232SOL    HW125595   5.782   1.871   2.027
 8232SOL    HW225596   5.868   1.946   1.910
 8233SOL     OW25597   1.390   6.876   6.351
 8233SOL    HW125598   1.424   6.849   6.261
 8233SOL    HW225599   1.305   6.928   6.340
 8234SOL     OW25600   2.906   3.949   0.362
 8234SOL    HW125601   2.953   3.894   0.431
 8234SOL    HW225602   2.927   3.911   0.271
 8235SOL     OW25603   0.224   3.536   6.809
 8235SOL    HW125604   0.298   3.469   6.799
 8235SOL    HW225605   0.137   3.492   6.789
 8236SOL     OW25606   6.828   4.945   6.297
 8236SOL    HW125607   6.801   5.030   6.251
 8236SOL    HW225608   6.842   4.874   6.228
 8237SOL     OW25609   4.972   6.354   6.481
 8237SOL    HW125610   5.060   6.308   6.478
 8237SOL    HW225611   4.914   6.321   6.406
 8238SOL     OW25612   0.334   6.197   6.902
 8238SOL    HW125613   0.291   6.110   6.876
 8238SOL    HW225614   0.359   6.247   6.819
 8239SOL     OW25615   1.058   0.869   4.883
 8239SOL    HW125616   1.116   0.905   4.956
 8239SOL    HW225617   1.043   0.771   4.897
 8240SOL     OW25618   3.272   3.883   3.369
 8240SOL    HW125619   3.288   3.940   3.450
 8240SOL    HW225620   3.320   3.922   3.291
 8241SOL     OW25621   2.564   4.524   6.071
 8241SOL    HW125622   2.480   4.531   6.018
 8241SOL    HW225623   2.542   4.502   6.166
 8242SOL     OW25624   0.498   3.390   4.674
 8242SOL    HW125625   0.583   3.443   4.665
 8242SOL    HW225626   0.491   3.355   4.767
 8243SOL     OW25627   6.952   3.644   0.887
 8243SOL    HW125628   6.914   3.575   0.826
 8243SOL    HW225629   0.025   3.665   0.859
 8244SOL     OW25630   0.659   0.490   4.334
 8244SOL    HW125631   0.725   0.562   4.355
 8244SOL    HW225632   0.621   0.505   4.242
 8245SOL     OW25633   3.704   1.649   2.818
 8245SOL    HW125634   3.716   1.716   2.892
 8245SOL    HW225635   3.717   1.557   2.855
 8246SOL     OW25636   0.250   4.579   6.389
 8246SOL    HW125637   0.200   4.581   6.303
 8246SOL    HW225638   0.272   4.673   6.417
 8247SOL     OW25639   2.116   6.384   3.485
 8247SOL    HW125640   2.077   6.467   3.444
 8247SOL    HW225641   2.072   6.367   3.573
 8248SOL     OW25642   0.497   4.828   4.946
 8248SOL    HW125643   0.535   4.736   4.935
 8248SOL    HW225644   0.571   4.895   4.946
 8249SOL     OW25645   2.007   1.420   5.629
 8249SOL    HW125646   2.093   1.392   5.587
 8249SOL    HW225647   2.022   1.505   5.680
 8250SOL     OW25648   2.990   2.430   1.064
 8250SOL    HW125649   3.049   2.355   1.034
 8250SOL    HW225650   2.918   2.394   1.124
 8251SOL     OW25651   5.275   0.992   4.985
 8251SOL    HW125652   5.264   1.090   4.970
 8251SOL    HW225653   5.221   0.941   4.918
 8252SOL     OW25654   3.942   1.956   0.123
 8252SOL    HW125655   3.856   2.004   0.106
 8252SOL    HW225656   3.929   1.891   0.198
 8253SOL     OW25657   3.835   5.769   6.731
 8253SOL    HW125658   3.750   5.748   6.684
 8253SOL    HW225659   3.905   5.794   6.664
 8254SOL     OW25660   4.874   4.566   5.573
 8254SOL    HW125661   4.896   4.487   5.516
 8254SOL    HW225662   4.957   4.620   5.589
 8255SOL     OW25663   1.314   6.907   5.638
 8255SOL    HW125664   1.356   6.983   5.589
 8255SOL    HW225665   1.365   6.890   5.723
 8256SOL     OW25666   6.936   6.518   2.956
 8256SOL    HW125667   6.972   6.579   3.027
 8256SOL    HW225668   6.915   6.429   2.997
 8257SOL     OW25669   5.378   4.039   4.071
 8257SOL    HW125670   5.474   4.031   4.046
 8257SOL    HW225671   5.331   3.953   4.053
 8258SOL     OW25672   4.844   3.073   1.730
 8258SOL    HW125673   4.786   3.071   1.811
 8258SOL    HW225674   4.939   3.054   1.757
 8259SOL     OW25675   3.627   2.206   5.604
 8259SOL    HW125676   3.643   2.151   5.522
 8259SOL    HW225677   3.583   2.292   5.578
 8260SOL     OW25678   1.903   6.284   1.765
 8260SOL    HW125679   1.964   6.344   1.712
 8260SOL    HW225680   1.881   6.203   1.711
 8261SOL     OW25681   5.492   6.346   3.388
 8261SOL    HW125682   5.437   6.410   3.334
 8261SOL    HW225683   5.502   6.260   3.338
 8262SOL     OW25684   0.573   4.833   0.629
 8262SOL    HW125685   0.599   4.851   0.534
 8262SOL    HW225686   0.576   4.735   0.647
 8263SOL     OW25687   6.747   3.007   6.658
 8263SOL    HW125688   6.780   2.913   6.656
 8263SOL    HW225689   6.653   3.009   6.691
 8264SOL     OW25690   0.922   6.718   1.695
 8264SOL    HW125691   0.912   6.719   1.595
 8264SOL    HW225692   0.906   6.810   1.731
 8265SOL     OW25693   5.114   0.492   2.090
 8265SOL    HW125694   5.066   0.534   2.167
 8265SOL    HW225695   5.119   0.557   2.014
 8266SOL     OW25696   2.584   0.743   4.795
 8266SOL    HW125697   2.557   0.687   4.716
 8266SOL    HW225698   2.682   0.764   4.789
 8267SOL     OW25699   1.642   4.540   1.662
 8267SOL    HW125700   1.554   4.500   1.687
 8267SOL    HW225701   1.641   4.638   1.683
 8268SOL     OW25702   3.530   5.642   6.156
 8268SOL    HW125703   3.460   5.714   6.146
 8268SOL    HW225704   3.528   5.608   6.250
 8269SOL     OW25705   4.447   2.474   2.653
 8269SOL    HW125706   4.382   2.414   2.605
 8269SOL    HW225707   4.418   2.485   2.748
 8270SOL     OW25708   2.868   5.494   5.493
 8270SOL    HW125709   2.901   5.565   5.430
 8270SOL    HW225710   2.855   5.533   5.584
 8271SOL     OW25711   6.179   6.363   3.611
 8271SOL    HW125712   6.196   6.301   3.535
 8271SOL    HW225713   6.167   6.456   3.577
 8272SOL     OW25714   6.744   1.312   2.531
 8272SOL    HW125715   6.844   1.313   2.527
 8272SOL    HW225716   6.714   1.320   2.626
 8273SOL     OW25717   2.975   0.991   0.072
 8273SOL    HW125718   2.881   1.015   0.047
 8273SOL    HW225719   3.017   0.941   7.017
 8274SOL     OW25720   4.095   4.717   5.733
 8274SOL    HW125721   4.159   4.767   5.674
 8274SOL    HW225722   4.015   4.774   5.750
 8275SOL     OW25723   6.097   0.330   4.480
 8275SOL    HW125724   6.196   0.336   4.483
 8275SOL    HW225725   6.067   0.317   4.385
 8276SOL     OW25726   6.597   1.993   5.478
 8276SOL    HW125727   6.661   1.916   5.479
 8276SOL    HW225728   6.515   1.967   5.427
 8277SOL     OW25729   1.658   5.971   5.369
 8277SOL    HW125730   1.651   5.940   5.274
 8277SOL    HW225731   1.578   5.940   5.420
 8278SOL     OW25732   3.118   1.977   6.834
 8278SOL    HW125733   3.066   1.901   6.794
 8278SOL    HW225734   3.075   2.064   6.808
 8279SOL     OW25735   6.454   6.230   5.212
 8279SOL    HW125736   6.379   6.296   5.210
 8279SOL    HW225737   6.531   6.266   5.160
 8280SOL     OW25738   3.837   2.746   0.678
 8280SOL    HW125739   3.750   2.797   0.673
 8280SOL    HW225740   3.892   2.781   0.754
 8281SOL     OW25741   2.363   4.441   2.106
 8281SOL    HW125742   2.360   4.417   2.203
 8281SOL    HW225743   2.277   4.414   2.062
 8282SOL     OW25744   2.780   3.600   6.736
 8282SOL    HW125745   2.825   3.689   6.724
 8282SOL    HW225746   2.845   3.535   6.774
 8283SOL     OW25747   1.619   5.104   4.431
 8283SOL    HW125748   1.702   5.111   4.376
 8283SOL    HW225749   1.557   5.038   4.388
 8284SOL     OW25750   1.710   4.242   2.257
 8284SOL    HW125751   1.678   4.296   2.179
 8284SOL    HW225752   1.745   4.303   2.328
 8285SOL     OW25753   4.031   3.394   5.482
 8285SOL    HW125754   4.099   3.354   5.543
 8285SOL    HW225755   4.072   3.409   5.392
 8286SOL     OW25756   5.532   1.871   4.647
 8286SOL    HW125757   5.522   1.964   4.683
 8286SOL    HW225758   5.542   1.874   4.548
 8287SOL     OW25759   1.127   6.114   3.788
 8287SOL    HW125760   1.180   6.042   3.743
 8287SOL    HW225761   1.177   6.145   3.869
 8288SOL     OW25762   1.012   2.814   2.522
 8288SOL    HW125763   1.017   2.721   2.484
 8288SOL    HW225764   0.968   2.874   2.455
 8289SOL     OW25765   5.893   0.722   6.733
 8289SOL    HW125766   5.968   0.658   6.719
 8289SOL    HW225767   5.812   0.672   6.765
 8290SOL     OW25768   4.922   1.963   1.335
 8290SOL    HW125769   4.842   1.979   1.278
 8290SOL    HW225770   4.907   2.002   1.426
 8291SOL     OW25771   5.952   5.708   6.358
 8291SOL    HW125772   5.866   5.717   6.307
 8291SOL    HW225773   5.972   5.794   6.405
 8292SOL     OW25774   2.695   5.726   6.422
 8292SOL    HW125775   2.639   5.681   6.491
 8292SOL    HW225776   2.759   5.788   6.466
 8293SOL     OW25777   1.618   4.204   1.460
 8293SOL    HW125778   1.526   4.184   1.495
 8293SOL    HW225779   1.625   4.302   1.442
 8294SOL     OW25780   6.089   3.310   4.604
 8294SOL    HW125781   6.018   3.350   4.662
 8294SOL    HW225782   6.055   3.303   4.510
 8295SOL     OW25783   5.137   3.140   3.042
 8295SOL    HW125784   5.046   3.180   3.051
 8295SOL    HW225785   5.140   3.082   2.961
 8296SOL     OW25786   3.284   5.445   6.838
 8296SOL    HW125787   3.259   5.497   6.920
 8296SOL    HW225788   3.328   5.360   6.865
 8297SOL     OW25789   6.517   3.077   2.596
 8297SOL    HW125790   6.428   3.107   2.630
 8297SOL    HW225791   6.523   3.094   2.498
 8298SOL     OW25792   6.891   0.189   0.508
 8298SOL    HW125793   6.960   0.209   0.439
 8298SOL    HW225794   6.838   0.109   0.481
 8299SOL     OW25795   0.389   2.713   0.977
 8299SOL    HW125796   0.478   2.678   1.007
 8299SOL    HW225797   0.339   2.748   1.057
 8300SOL     OW25798   6.886   6.974   4.739
 8300SOL    HW125799   6.851   0.035   4.783
 8300SOL    HW225800   6.816   6.902   4.743
 8301SOL     OW25801   4.693   0.525   6.906
 8301SOL    HW125802   4.763   0.460   6.937
 8301SOL    HW225803   4.603   0.496   6.938
 8302SOL     OW25804   4.829   0.030   5.871
 8302SOL    HW125805   4.807   6.975   5.932
 8302SOL    HW225806   4.903   0.084   5.911
 8303SOL     OW25807   6.584   0.509   2.990
 8303SOL    HW125808   6.625   0.420   3.011
 8303SOL    HW225809   6.509   0.497   2.926
 8304SOL     OW25810   5.694   4.705   1.808
 8304SOL    HW125811   5.640   4.772   1.859
 8304SOL    HW225812   5.634   4.655   1.745
 8305SOL     OW25813   4.086   4.815   4.373
 8305SOL    HW125814   4.003   4.862   4.343
 8305SOL    HW225815   4.064   4.755   4.450
 8306SOL     OW25816   6.759   1.252   3.185
 8306SOL    HW125817   6.748   1.334   3.240
 8306SOL    HW225818   6.745   1.171   3.242
 8307SOL     OW25819   3.368   5.435   1.620
 8307SOL    HW125820   3.388   5.451   1.717
 8307SOL    HW225821   3.326   5.517   1.581
 8308SOL     OW25822   1.969   4.805   0.392
 8308SOL    HW125823   1.956   4.729   0.329
 8308SOL    HW225824   2.045   4.785   0.453
 8309SOL     OW25825   5.678   5.123   2.826
 8309SOL    HW125826   5.668   5.108   2.924
 8309SOL    HW225827   5.725   5.211   2.811
 8310SOL     OW25828   1.210   5.302   0.852
 8310SOL    HW125829   1.181   5.236   0.922
 8310SOL    HW225830   1.201   5.394   0.888
 8311SOL     OW25831   5.836   0.452   4.550
 8311SOL    HW125832   5.813   0.470   4.646
 8311SOL    HW225833   5.931   0.422   4.543
 8312SOL     OW25834   5.461   1.088   6.758
 8312SOL    HW125835   5.434   1.127   6.670
 8312SOL    HW225836   5.561   1.090   6.765
 8313SOL     OW25837   5.100   0.437   5.813
 8313SOL    HW125838   5.114   0.455   5.910
 8313SOL    HW225839   5.148   0.505   5.759
 8314SOL     OW25840   5.899   6.555   6.501
 8314SOL    HW125841   5.912   6.535   6.404
 8314SOL    HW225842   5.823   6.619   6.512
 8315SOL     OW25843   3.901   3.008   2.916
 8315SOL    HW125844   3.975   3.059   2.958
 8315SOL    HW225845   3.843   2.968   2.987
 8316SOL     OW25846   1.869   3.370   0.923
 8316SOL    HW125847   1.881   3.326   1.012
 8316SOL    HW225848   1.900   3.465   0.929
 8317SOL     OW25849   2.193   1.941   3.123
 8317SOL    HW125850   2.190   2.026   3.175
 8317SOL    HW225851   2.100   1.910   3.103
 8318SOL     OW25852   4.037   1.693   5.720
 8318SOL    HW125853   3.960   1.652   5.770
 8318SOL    HW225854   4.035   1.793   5.732
 8319SOL     OW25855   1.688   0.161   0.265
 8319SOL    HW125856   1.718   0.077   0.310
 8319SOL    HW225857   1.691   0.237   0.330
 8320SOL     OW25858   3.499   4.159   3.371
 8320SOL    HW125859   3.498   4.173   3.471
 8320SOL    HW225860   3.554   4.078   3.349
 8321SOL     OW25861   0.148   0.212   6.376
 8321SOL    HW125862   0.198   0.246   6.455
 8321SOL    HW225863   0.098   0.288   6.333
 8322SOL     OW25864   0.044   1.844   0.286
 8322SOL    HW125865   7.002   1.896   0.229
 8322SOL    HW225866   0.127   1.897   0.301
 8323SOL     OW25867   3.433   4.875   1.258
 8323SOL    HW125868   3.521   4.829   1.265
 8323SOL    HW225869   3.360   4.807   1.257
 8324SOL     OW25870   5.046   0.404   0.512
 8324SOL    HW125871   4.972   0.342   0.487
 8324SOL    HW225872   5.008   0.490   0.544
 8325SOL     OW25873   0.588   4.051   5.506
 8325SOL    HW125874   0.632   4.010   5.585
 8325SOL    HW225875   0.657   4.072   5.437
 8326SOL     OW25876   4.287   4.083   6.495
 8326SOL    HW125877   4.275   4.078   6.396
 8326SOL    HW225878   4.357   4.152   6.516
 8327SOL     OW25879   0.791   0.694   5.783
 8327SOL    HW125880   0.697   0.666   5.802
 8327SOL    HW225881   0.802   0.790   5.809
 8328SOL     OW25882   2.537   6.605   6.219
 8328SOL    HW125883   2.457   6.648   6.176
 8328SOL    HW225884   2.592   6.561   6.149
 8329SOL     OW25885   0.173   2.244   5.177
 8329SOL    HW125886   0.273   2.236   5.183
 8329SOL    HW225887   0.135   2.159   5.141
 8330SOL     OW25888   3.528   1.669   6.745
 8330SOL    HW125889   3.488   1.733   6.679
 8330SOL    HW225890   3.470   1.665   6.826
 8331SOL     OW25891   3.470   0.946   0.679
 8331SOL    HW125892   3.561   0.906   0.663
 8331SOL    HW225893   3.479   1.024   0.741
 8332SOL     OW25894   5.839   5.309   1.948
 8332SOL    HW125895   5.839   5.259   2.034
 8332SOL    HW225896   5.910   5.380   1.950
 8333SOL     OW25897   1.682   4.448   6.525
 8333SOL    HW125898   1.781   4.445   6.515
 8333SOL    HW225899   1.641   4.487   6.442
 8334SOL     OW25900   2.763   2.400   5.813
 8334SOL    HW125901   2.840   2.448   5.771
 8334SOL    HW225902   2.677   2.440   5.782
 8335SOL     OW25903   3.669   2.334   6.837
 8335SOL    HW125904   3.754   2.281   6.841
 8335SOL    HW225905   3.622   2.329   6.925
 8336SOL     OW25906   0.734   3.993   2.887
 8336SOL    HW125907   0.753   4.014   2.983
 8336SOL    HW225908   0.805   3.931   2.852
 8337SOL     OW25909   0.037   6.997   3.917
 8337SOL    HW125910   0.120   7.001   3.973
 8337SOL    HW225911   6.996   0.049   3.945
 8338SOL     OW25912   3.751   5.600   1.720
 8338SOL    HW125913   3.712   5.535   1.655
 8338SOL    HW225914   3.814   5.661   1.673
 8339SOL     OW25915   0.358   0.709   1.697
 8339SOL    HW125916   0.263   0.729   1.723
 8339SOL    HW225917   0.415   0.705   1.779
 8340SOL     OW25918   5.353   3.883   0.869
 8340SOL    HW125919   5.333   3.852   0.962
 8340SOL    HW225920   5.334   3.981   0.863
 8341SOL     OW25921   3.949   0.385   6.916
 8341SOL    HW125922   4.005   0.310   6.950
 8341SOL    HW225923   3.907   0.359   6.829
 8342SOL     OW25924   4.208   6.660   0.757
 8342SOL    HW125925   4.154   6.631   0.836
 8342SOL    HW225926   4.148   6.695   0.685
 8343SOL     OW25927   6.797   5.350   3.820
 8343SOL    HW125928   6.855   5.350   3.739
 8343SOL    HW225929   6.761   5.258   3.836
 8344SOL     OW25930   6.643   4.715   4.832
 8344SOL    HW125931   6.600   4.625   4.834
 8344SOL    HW225932   6.573   4.785   4.823
 8345SOL     OW25933   4.375   2.365   3.691
 8345SOL    HW125934   4.335   2.389   3.603
 8345SOL    HW225935   4.304   2.325   3.750
 8346SOL     OW25936   3.787   3.870   6.583
 8346SOL    HW125937   3.876   3.910   6.605
 8346SOL    HW225938   3.799   3.798   6.514
 8347SOL     OW25939   3.272   6.541   5.977
 8347SOL    HW125940   3.337   6.586   5.916
 8347SOL    HW225941   3.317   6.464   6.022
 8348SOL     OW25942   2.140   0.894   1.413
 8348SOL    HW125943   2.053   0.898   1.462
 8348SOL    HW225944   2.146   0.971   1.349
 8349SOL     OW25945   1.315   6.314   2.010
 8349SOL    HW125946   1.386   6.358   1.954
 8349SOL    HW225947   1.357   6.281   2.095
 8350SOL     OW25948   3.060   6.732   6.300
 8350SOL    HW125949   3.145   6.785   6.305
 8350SOL    HW225950   3.055   6.686   6.211
 8351SOL     OW25951   5.886   5.435   4.675
 8351SOL    HW125952   5.881   5.358   4.612
 8351SOL    HW225953   5.802   5.488   4.670
 8352SOL     OW25954   1.490   6.807   2.849
 8352SOL    HW125955   1.579   6.851   2.847
 8352SOL    HW225956   1.424   6.866   2.895
 8353SOL     OW25957   0.809   3.688   0.851
 8353SOL    HW125958   0.880   3.619   0.838
 8353SOL    HW225959   0.832   3.745   0.930
 8354SOL     OW25960   3.498   0.251   4.195
 8354SOL    HW125961   3.421   0.229   4.254
 8354SOL    HW225962   3.466   0.259   4.100
 8355SOL     OW25963   1.696   1.394   4.583
 8355SOL    HW125964   1.621   1.372   4.646
 8355SOL    HW225965   1.674   1.479   4.534
 8356SOL     OW25966   1.326   5.828   1.451
 8356SOL    HW125967   1.378   5.910   1.475
 8356SOL    HW225968   1.301   5.779   1.534
 8357SOL     OW25969   3.961   6.911   5.548
 8357SOL    HW125970   4.036   6.883   5.489
 8357SOL    HW225971   3.945   7.009   5.538
 8358SOL     OW25972   1.017   2.874   4.569
 8358SOL    HW125973   1.075   2.848   4.492
 8358SOL    HW225974   0.980   2.965   4.553
 8359SOL     OW25975   2.758   1.731   5.118
 8359SOL    HW125976   2.698   1.653   5.136
 8359SOL    HW225977   2.798   1.722   5.027
 8360SOL     OW25978   4.786   7.009   1.110
 8360SOL    HW125979   4.872   6.968   1.141
 8360SOL    HW225980   4.794   0.009   1.012
 8361SOL     OW25981   3.484   0.720   0.321
 8361SOL    HW125982   3.501   0.778   0.241
 8361SOL    HW225983   3.566   0.666   0.340
 8362SOL     OW25984   5.630   2.121   0.839
 8362SOL    HW125985   5.610   2.107   0.742
 8362SOL    HW225986   5.613   2.036   0.889
 8363SOL     OW25987   5.082   2.290   0.645
 8363SOL    HW125988   5.052   2.202   0.608
 8363SOL    HW225989   5.181   2.290   0.655
 8364SOL     OW25990   0.147   2.586   3.975
 8364SOL    HW125991   0.149   2.607   3.877
 8364SOL    HW225992   0.053   2.594   4.008
 8365SOL     OW25993   1.802   2.242   2.583
 8365SOL    HW125994   1.850   2.176   2.525
 8365SOL    HW225995   1.704   2.224   2.580
 8366SOL     OW25996   3.475   5.439   0.970
 8366SOL    HW125997   3.439   5.399   1.054
 8366SOL    HW225998   3.398   5.464   0.910
 8367SOL     OW25999   3.418   5.484   4.907
 8367SOL    HW126000   3.503   5.519   4.945
 8367SOL    HW226001   3.343   5.547   4.927
 8368SOL     OW26002   0.891   5.766   0.303
 8368SOL    HW126003   0.819   5.793   0.239
 8368SOL    HW226004   0.942   5.689   0.264
 8369SOL     OW26005   0.958   0.551   6.634
 8369SOL    HW126006   0.985   0.481   6.700
 8369SOL    HW226007   0.873   0.594   6.664
 8370SOL     OW26008   2.448   1.252   5.934
 8370SOL    HW126009   2.442   1.265   5.835
 8370SOL    HW226010   2.376   1.189   5.964
 8371SOL     OW26011   2.707   3.578   6.992
 8371SOL    HW126012   2.717   3.596   6.894
 8371SOL    HW226013   2.765   3.502   7.019
 8372SOL     OW26014   1.562   5.908   1.745
 8372SOL    HW126015   1.532   5.816   1.770
 8372SOL    HW226016   1.535   5.972   1.817
 8373SOL     OW26017   1.866   6.998   4.578
 8373SOL    HW126018   1.780   6.950   4.562
 8373SOL    HW226019   1.925   6.943   4.636
 8374SOL     OW26020   0.276   0.354   4.774
 8374SOL    HW126021   0.363   0.345   4.822
 8374SOL    HW226022   0.285   0.315   4.683
 8375SOL     OW26023   3.453   6.677   5.828
 8375SOL    HW126024   3.406   6.756   5.789
 8375SOL    HW226025   3.547   6.702   5.850
 8376SOL     OW26026   1.472   0.994   3.740
 8376SOL    HW126027   1.571   0.988   3.756
 8376SOL    HW226028   1.445   0.929   3.669
 8377SOL     OW26029   5.692   6.019   0.330
 8377SOL    HW126030   5.706   5.968   0.415
 8377SOL    HW226031   5.778   6.027   0.280
 8378SOL     OW26032   3.732   5.160   3.505
 8378SOL    HW126033   3.659   5.226   3.488
 8378SOL    HW226034   3.703   5.094   3.575
 8379SOL     OW26035   4.925   2.782   2.043
 8379SOL    HW126036   5.023   2.792   2.025
 8379SOL    HW226037   4.873   2.838   1.978
 8380SOL     OW26038   0.151   7.013   0.346
 8380SOL    HW126039   0.139   7.021   0.247
 8380SOL    HW226040   0.210   6.934   0.365
 8381SOL     OW26041   0.190   2.355   3.552
 8381SOL    HW126042   0.144   2.400   3.475
 8381SOL    HW226043   0.266   2.412   3.584
 8382SOL     OW26044   2.032   6.457   1.591
 8382SOL    HW126045   2.123   6.426   1.619
 8382SOL    HW226046   2.039   6.549   1.552
 8383SOL     OW26047   2.930   6.751   5.748
 8383SOL    HW126048   2.971   6.841   5.732
 8383SOL    HW226049   2.982   6.682   5.698
 8384SOL     OW26050   6.708   1.807   1.046
 8384SOL    HW126051   6.790   1.791   1.101
 8384SOL    HW226052   6.672   1.719   1.014
 8385SOL     OW26053   4.443   2.183   0.559
 8385SOL    HW126054   4.407   2.273   0.583
 8385SOL    HW226055   4.392   2.113   0.608
 8386SOL     OW26056   1.984   6.008   1.168
 8386SOL    HW126057   1.933   5.923   1.182
 8386SOL    HW226058   2.071   5.987   1.122
 8387SOL     OW26059   1.430   2.171   1.369
 8387SOL    HW126060   1.412   2.135   1.277
 8387SOL    HW226061   1.344   2.178   1.419
 8388SOL     OW26062   1.466   6.545   1.251
 8388SOL    HW126063   1.514   6.543   1.164
 8388SOL    HW226064   1.525   6.588   1.320
 8389SOL     OW26065   0.035   2.887   4.158
 8389SOL    HW126066   0.109   2.896   4.091
 8389SOL    HW226067   6.969   2.875   4.111
 8390SOL     OW26068   3.947   6.576   6.984
 8390SOL    HW126069   3.961   6.524   6.900
 8390SOL    HW226070   3.889   6.524   0.026
 8391SOL     OW26071   4.672   4.959   1.103
 8391SOL    HW126072   4.580   4.949   1.064
 8391SOL    HW226073   4.715   4.869   1.109
 8392SOL     OW26074   6.604   5.298   5.364
 8392SOL    HW126075   6.518   5.298   5.414
 8392SOL    HW226076   6.587   5.272   5.268
 8393SOL     OW26077   0.534   0.041   4.021
 8393SOL    HW126078   0.579   6.977   4.046
 8393SOL    HW226079   0.586   0.085   3.947
 8394SOL     OW26080   0.257   2.897   1.624
 8394SOL    HW126081   0.286   2.923   1.532
 8394SOL    HW226082   0.185   2.959   1.655
 8395SOL     OW26083   1.517   5.947   4.089
 8395SOL    HW126084   1.572   5.890   4.150
 8395SOL    HW226085   1.553   6.041   4.089
 8396SOL     OW26086   4.281   4.674   2.014
 8396SOL    HW126087   4.332   4.655   2.098
 8396SOL    HW226088   4.183   4.661   2.031
 8397SOL     OW26089   2.635   1.028   3.197
 8397SOL    HW126090   2.574   1.105   3.218
 8397SOL    HW226091   2.693   1.009   3.276
 8398SOL     OW26092   4.344   2.453   6.364
 8398SOL    HW126093   4.394   2.368   6.381
 8398SOL    HW226094   4.309   2.488   6.451
 8399SOL     OW26095   5.782   0.066   0.017
 8399SOL    HW126096   5.712   0.024   6.981
 8399SOL    HW226097   5.871   0.059   6.994
 8400SOL     OW26098   1.169   0.371   3.980
 8400SOL    HW126099   1.168   0.416   3.890
 8400SOL    HW226100   1.253   0.396   4.029
 8401SOL     OW26101   3.448   1.989   6.303
 8401SOL    HW126102   3.469   2.023   6.212
 8401SOL    HW226103   3.517   1.922   6.330
 8402SOL     OW26104   4.048   2.039   5.520
 8402SOL    HW126105   4.017   1.971   5.454
 8402SOL    HW226106   4.148   2.033   5.529
 8403SOL     OW26107   0.929   1.722   2.694
 8403SOL    HW126108   0.883   1.683   2.774
 8403SOL    HW226109   0.891   1.683   2.611
 8404SOL     OW26110   4.493   5.889   6.657
 8404SOL    HW126111   4.571   5.858   6.603
 8404SOL    HW226112   4.498   5.988   6.670
 8405SOL     OW26113   2.521   1.006   5.458
 8405SOL    HW126114   2.580   0.998   5.378
 8405SOL    HW226115   2.480   1.097   5.461
 8406SOL     OW26116   5.030   6.920   1.153
 8406SOL    HW126117   5.089   6.840   1.142
 8406SOL    HW226118   5.085   7.003   1.143
 8407SOL     OW26119   4.706   6.315   4.127
 8407SOL    HW126120   4.780   6.382   4.128
 8407SOL    HW226121   4.744   6.223   4.136
 8408SOL     OW26122   5.095   2.934   2.384
 8408SOL    HW126123   4.999   2.957   2.368
 8408SOL    HW226124   5.148   3.018   2.395
 8409SOL     OW26125   6.242   3.283   3.298
 8409SOL    HW126126   6.294   3.287   3.212
 8409SOL    HW226127   6.212   3.375   3.323
 8410SOL     OW26128   4.797   0.704   1.622
 8410SOL    HW126129   4.886   0.664   1.643
 8410SOL    HW226130   4.800   0.747   1.532
 8411SOL     OW26131   1.141   5.520   6.152
 8411SOL    HW126132   1.053   5.525   6.199
 8411SOL    HW226133   1.155   5.604   6.099
 8412SOL     OW26134   4.152   2.063   2.428
 8412SOL    HW126135   4.159   2.145   2.371
 8412SOL    HW226136   4.100   2.084   2.510
 8413SOL     OW26137   4.247   4.825   0.058
 8413SOL    HW126138   4.324   4.854   0.001
 8413SOL    HW226139   4.173   4.793   7.021
 8414SOL     OW26140   4.400   5.380   3.366
 8414SOL    HW126141   4.356   5.419   3.447
 8414SOL    HW226142   4.475   5.439   3.337
 8415SOL     OW26143   6.471   5.339   3.652
 8415SOL    HW126144   6.563   5.345   3.692
 8415SOL    HW226145   6.421   5.424   3.669
 8416SOL     OW26146   5.353   4.178   2.941
 8416SOL    HW126147   5.352   4.108   3.012
 8416SOL    HW226148   5.423   4.157   2.873
 8417SOL     OW26149   1.519   5.085   6.132
 8417SOL    HW126150   1.553   4.992   6.125
 8417SOL    HW226151   1.430   5.092   6.087
 8418SOL     OW26152   6.231   5.299   1.234
 8418SOL    HW126153   6.269   5.363   1.300
 8418SOL    HW226154   6.216   5.211   1.279
 8419SOL     OW26155   5.552   1.239   2.722
 8419SOL    HW126156   5.550   1.254   2.821
 8419SOL    HW226157   5.591   1.149   2.702
 8420SOL     OW26158   4.379   6.820   0.893
 8420SOL    HW126159   4.345   6.802   0.985
 8420SOL    HW226160   4.331   6.763   0.827
 8421SOL     OW26161   3.008   6.021   0.672
 8421SOL    HW126162   3.018   6.028   0.573
 8421SOL    HW226163   2.959   5.937   0.695
 8422SOL     OW26164   4.477   0.992   1.028
 8422SOL    HW126165   4.446   0.984   1.123
 8422SOL    HW226166   4.413   0.946   0.968
 8423SOL     OW26167   3.785   4.737   5.847
 8423SOL    HW126168   3.698   4.709   5.888
 8423SOL    HW226169   3.784   4.835   5.831
 8424SOL     OW26170   2.411   2.519   2.491
 8424SOL    HW126171   2.457   2.525   2.579
 8424SOL    HW226172   2.317   2.551   2.500
 8425SOL     OW26173   5.426   5.792   0.466
 8425SOL    HW126174   5.379   5.707   0.491
 8425SOL    HW226175   5.524   5.775   0.458
 8426SOL     OW26176   3.067   3.243   4.034
 8426SOL    HW126177   2.999   3.297   3.985
 8426SOL    HW226178   3.102   3.296   4.112
 8427SOL     OW26179   2.794   3.549   5.422
 8427SOL    HW126180   2.789   3.587   5.330
 8427SOL    HW226181   2.839   3.614   5.483
 8428SOL     OW26182   0.307   3.802   1.976
 8428SOL    HW126183   0.298   3.778   1.879
 8428SOL    HW226184   0.217   3.827   2.012
 8429SOL     OW26185   2.200   4.065   3.722
 8429SOL    HW126186   2.225   4.146   3.668
 8429SOL    HW226187   2.242   4.071   3.813
 8430SOL     OW26188   3.661   5.704   4.358
 8430SOL    HW126189   3.658   5.796   4.397
 8430SOL    HW226190   3.753   5.666   4.370
 8431SOL     OW26191   3.328   5.068   0.896
 8431SOL    HW126192   3.229   5.052   0.894
 8431SOL    HW226193   3.357   5.112   0.812
 8432SOL     OW26194   5.491   6.949   6.577
 8432SOL    HW126195   5.401   6.964   6.619
 8432SOL    HW226196   5.481   6.885   6.501
 8433SOL     OW26197   6.352   2.340   0.683
 8433SOL    HW126198   6.428   2.280   0.708
 8433SOL    HW226199   6.330   2.400   0.760
 8434SOL     OW26200   3.229   6.843   5.292
 8434SOL    HW126201   3.260   6.796   5.209
 8434SOL    HW226202   3.235   6.780   5.370
 8435SOL     OW26203   5.457   0.786   1.090
 8435SOL    HW126204   5.419   0.852   1.025
 8435SOL    HW226205   5.509   0.717   1.041
 8436SOL     OW26206   3.254   0.018   4.325
 8436SOL    HW126207   3.239   0.117   4.328
 8436SOL    HW226208   3.293   7.010   4.413
 8437SOL     OW26209   1.519   0.115   3.570
 8437SOL    HW126210   1.554   0.051   3.639
 8437SOL    HW226211   1.508   0.067   3.483
 8438SOL     OW26212   2.842   5.061   2.242
 8438SOL    HW126213   2.792   5.037   2.325
 8438SOL    HW226214   2.778   5.095   2.173
 8439SOL     OW26215   6.282   5.219   1.876
 8439SOL    HW126216   6.253   5.149   1.941
 8439SOL    HW226217   6.324   5.176   1.797
 8440SOL     OW26218   0.929   1.688   3.301
 8440SOL    HW126219   0.984   1.731   3.229
 8440SOL    HW226220   0.987   1.669   3.381
 8441SOL     OW26221   5.716   6.441   0.160
 8441SOL    HW126222   5.717   6.541   0.155
 8441SOL    HW226223   5.703   6.403   0.068
 8442SOL     OW26224   3.005   2.527   5.695
 8442SOL    HW126225   2.941   2.598   5.666
 8442SOL    HW226226   3.046   2.552   5.782
 8443SOL     OW26227   1.734   6.174   3.623
 8443SOL    HW126228   1.747   6.269   3.596
 8443SOL    HW226229   1.644   6.142   3.593
 8444SOL     OW26230   3.599   6.141   3.890
 8444SOL    HW126231   3.577   6.047   3.866
 8444SOL    HW226232   3.514   6.192   3.907
 8445SOL     OW26233   3.571   5.448   1.380
 8445SOL    HW126234   3.593   5.444   1.478
 8445SOL    HW226235   3.473   5.436   1.367
 8446SOL     OW26236   4.499   4.910   6.963
 8446SOL    HW126237   4.570   4.897   0.010
 8446SOL    HW226238   4.512   4.845   6.888
 8447SOL     OW26239   5.469   2.456   1.935
 8447SOL    HW126240   5.377   2.469   1.972
 8447SOL    HW226241   5.466   2.456   1.835
 8448SOL     OW26242   5.519   5.292   4.447
 8448SOL    HW126243   5.463   5.282   4.365
 8448SOL    HW226244   5.511   5.210   4.504
 8449SOL     OW26245   6.329   2.886   3.975
 8449SOL    HW126246   6.388   2.854   4.050
 8449SOL    HW226247   6.366   2.971   3.938
 8450SOL     OW26248   1.340   5.702   2.095
 8450SOL    HW126249   1.320   5.800   2.106
 8450SOL    HW226250   1.272   5.649   2.145
 8451SOL     OW26251   4.814   2.847   0.732
 8451SOL    HW126252   4.719   2.850   0.699
 8451SOL    HW226253   4.858   2.763   0.699
 8452SOL     OW26254   6.585   1.086   2.543
 8452SOL    HW126255   6.512   1.077   2.611
 8452SOL    HW226256   6.611   1.182   2.534
 8453SOL     OW26257   6.790   4.028   6.468
 8453SOL    HW126258   6.864   4.057   6.528
 8453SOL    HW226259   6.703   4.057   6.506
 8454SOL     OW26260   0.379   6.263   1.021
 8454SOL    HW126261   0.418   6.268   0.929
 8454SOL    HW226262   0.312   6.337   1.033
 8455SOL     OW26263   5.662   2.202   1.793
 8455SOL    HW126264   5.762   2.202   1.782
 8455SOL    HW226265   5.621   2.256   1.719
 8456SOL     OW26266   4.570   5.035   3.096
 8456SOL    HW126267   4.638   5.042   3.168
 8456SOL    HW226268   4.511   5.116   3.097
 8457SOL     OW26269   0.055   6.686   5.348
 8457SOL    HW126270   0.127   6.680   5.279
 8457SOL    HW226271   0.009   6.597   5.355
 8458SOL     OW26272   2.361   1.261   6.965
 8458SOL    HW126273   2.432   1.260   0.014
 8458SOL    HW226274   2.280   1.307   7.001
 8459SOL     OW26275   3.548   6.358   1.986
 8459SOL    HW126276   3.514   6.284   2.043
 8459SOL    HW226277   3.637   6.333   1.949
 8460SOL     OW26278   5.048   2.872   5.578
 8460SOL    HW126279   4.991   2.794   5.605
 8460SOL    HW226280   5.006   2.919   5.501
 8461SOL     OW26281   0.415   4.189   3.246
 8461SOL    HW126282   0.379   4.223   3.159
 8461SOL    HW226283   0.340   4.158   3.304
 8462SOL     OW26284   3.785   2.453   0.084
 8462SOL    HW126285   3.810   2.465   0.180
 8462SOL    HW226286   3.687   2.432   0.078
 8463SOL     OW26287   5.827   0.017   0.292
 8463SOL    HW126288   5.858   6.944   0.290
 8463SOL    HW226289   5.830   0.055   0.199
 8464SOL     OW26290   5.784   3.387   5.885
 8464SOL    HW126291   5.783   3.453   5.960
 8464SOL    HW226292   5.876   3.350   5.875
 8465SOL     OW26293   1.946   2.678   0.856
 8465SOL    HW126294   1.951   2.632   0.944
 8465SOL    HW226295   2.000   2.762   0.858
 8466SOL     OW26296   0.194   6.950   5.194
 8466SOL    HW126297   0.135   6.980   5.268
 8466SOL    HW226298   0.158   6.982   5.107
 8467SOL     OW26299   3.751   0.393   1.247
 8467SOL    HW126300   3.725   0.363   1.339
 8467SOL    HW226301   3.837   0.350   1.221
 8468SOL     OW26302   4.782   2.636   0.550
 8468SOL    HW126303   4.734   2.591   0.624
 8468SOL    HW226304   4.848   2.573   0.509
 8469SOL     OW26305   3.211   1.460   5.441
 8469SOL    HW126306   3.261   1.376   5.422
 8469SOL    HW226307   3.232   1.528   5.372
 8470SOL     OW26308   0.514   4.771   0.199
 8470SOL    HW126309   0.438   4.801   0.256
 8470SOL    HW226310   0.500   4.802   0.105
 8471SOL     OW26311   4.259   0.602   4.529
 8471SOL    HW126312   4.268   0.638   4.622
 8471SOL    HW226313   4.231   0.506   4.533
 8472SOL     OW26314   6.654   0.594   5.385
 8472SOL    HW126315   6.706   0.680   5.386
 8472SOL    HW226316   6.608   0.582   5.473
 8473SOL     OW26317   6.658   5.938   1.185
 8473SOL    HW126318   6.646   5.996   1.105
 8473SOL    HW226319   6.721   5.864   1.164
 8474SOL     OW26320   3.562   3.505   2.490
 8474SOL    HW126321   3.619   3.423   2.491
 8474SOL    HW226322   3.620   3.586   2.498
 8475SOL     OW26323   0.047   2.548   3.416
 8475SOL    HW126324   0.036   2.628   3.475
 8475SOL    HW226325   6.992   2.544   3.351
 8476SOL     OW26326   6.557   1.824   0.779
 8476SOL    HW126327   6.517   1.827   0.870
 8476SOL    HW226328   6.546   1.913   0.735
 8477SOL     OW26329   4.605   6.760   2.574
 8477SOL    HW126330   4.571   6.825   2.506
 8477SOL    HW226331   4.535   6.747   2.645
 8478SOL     OW26332   1.655   0.053   6.191
 8478SOL    HW126333   1.650   0.147   6.225
 8478SOL    HW226334   1.626   0.051   6.095
 8479SOL     OW26335   0.908   2.537   0.794
 8479SOL    HW126336   0.901   2.602   0.870
 8479SOL    HW226337   0.817   2.505   0.769
 8480SOL     OW26338   5.196   2.516   0.107
 8480SOL    HW126339   5.117   2.485   0.056
 8480SOL    HW226340   5.166   2.570   0.186
 8481SOL     OW26341   5.165   2.914   4.801
 8481SOL    HW126342   5.207   2.825   4.819
 8481SOL    HW226343   5.092   2.931   4.868
 8482SOL     OW26344   4.673   6.483   2.586
 8482SOL    HW126345   4.591   6.428   2.568
 8482SOL    HW226346   4.664   6.572   2.542
 8483SOL     OW26347   3.918   6.508   1.836
 8483SOL    HW126348   3.968   6.540   1.916
 8483SOL    HW226349   3.825   6.543   1.838
 8484SOL     OW26350   0.129   6.075   3.591
 8484SOL    HW126351   0.146   5.994   3.535
 8484SOL    HW226352   0.184   6.070   3.675
 8485SOL     OW26353   3.450   2.497   0.401
 8485SOL    HW126354   3.438   2.503   0.500
 8485SOL    HW226355   3.363   2.514   0.355
 8486SOL     OW26356   2.446   1.788   2.127
 8486SOL    HW126357   2.435   1.693   2.097
 8486SOL    HW226358   2.508   1.791   2.205
 8487SOL     OW26359   5.911   1.354   5.283
 8487SOL    HW126360   5.859   1.347   5.197
 8487SOL    HW226361   5.853   1.324   5.359
 8488SOL     OW26362   5.137   6.497   0.953
 8488SOL    HW126363   5.157   6.427   1.023
 8488SOL    HW226364   5.043   6.527   0.963
 8489SOL     OW26365   6.163   1.801   1.641
 8489SOL    HW126366   6.080   1.816   1.695
 8489SOL    HW226367   6.153   1.718   1.587
 8490SOL     OW26368   4.253   6.791   4.902
 8490SOL    HW126369   4.230   6.814   4.807
 8490SOL    HW226370   4.193   6.717   4.934
 8491SOL     OW26371   2.483   5.638   1.594
 8491SOL    HW126372   2.476   5.558   1.535
 8491SOL    HW226373   2.577   5.647   1.628
 8492SOL     OW26374   5.652   3.772   5.347
 8492SOL    HW126375   5.675   3.691   5.402
 8492SOL    HW226376   5.714   3.777   5.268
 8493SOL     OW26377   2.151   2.220   6.042
 8493SOL    HW126378   2.139   2.319   6.039
 8493SOL    HW226379   2.243   2.197   6.010
 8494SOL     OW26380   4.164   5.255   1.414
 8494SOL    HW126381   4.109   5.251   1.330
 8494SOL    HW226382   4.245   5.310   1.397
 8495SOL     OW26383   6.869   4.745   2.001
 8495SOL    HW126384   6.809   4.824   2.013
 8495SOL    HW226385   6.844   4.673   2.066
 8496SOL     OW26386   1.431   2.247   2.295
 8496SOL    HW126387   1.344   2.268   2.250
 8496SOL    HW226388   1.467   2.162   2.257
 8497SOL     OW26389   6.799   0.779   3.497
 8497SOL    HW126390   6.833   0.719   3.424
 8497SOL    HW226391   6.826   0.742   3.586
 8498SOL     OW26392   6.115   6.050   3.194
 8498SOL    HW126393   6.127   6.104   3.110
 8498SOL    HW226394   6.189   6.071   3.258
 8499SOL     OW26395   2.085   4.192   6.653
 8499SOL    HW126396   2.007   4.189   6.715
 8499SOL    HW226397   2.080   4.114   6.590
 8500SOL     OW26398   1.169   5.938   5.689
 8500SOL    HW126399   1.074   5.951   5.660
 8500SOL    HW226400   1.204   5.853   5.651
 8501SOL     OW26401   0.514   2.707   6.687
 8501SOL    HW126402   0.448   2.681   6.758
 8501SOL    HW226403   0.494   2.656   6.603
 8502SOL     OW26404   0.610   3.675   1.027
 8502SOL    HW126405   0.667   3.667   0.945
 8502SOL    HW226406   0.514   3.675   1.001
 8503SOL     OW26407   0.266   6.365   4.251
 8503SOL    HW126408   0.343   6.303   4.261
 8503SOL    HW226409   0.211   6.338   4.172
 8504SOL     OW26410   2.618   4.739   2.663
 8504SOL    HW126411   2.635   4.703   2.755
 8504SOL    HW226412   2.539   4.800   2.665
 8505SOL     OW26413   5.953   3.279   3.385
 8505SOL    HW126414   5.913   3.201   3.337
 8505SOL    HW226415   6.052   3.280   3.368
 8506SOL     OW26416   1.051   0.483   6.874
 8506SOL    HW126417   0.964   0.469   6.922
 8506SOL    HW226418   1.121   0.426   6.917
 8507SOL     OW26419   4.022   0.491   4.703
 8507SOL    HW126420   4.059   0.437   4.628
 8507SOL    HW226421   4.086   0.565   4.725
 8508SOL     OW26422   5.294   1.805   4.776
 8508SOL    HW126423   5.376   1.820   4.721
 8508SOL    HW226424   5.221   1.865   4.743
 8509SOL     OW26425   4.623   1.165   4.452
 8509SOL    HW126426   4.575   1.079   4.469
 8509SOL    HW226427   4.720   1.146   4.436
 8510SOL     OW26428   5.768   4.517   2.386
 8510SOL    HW126429   5.715   4.459   2.325
 8510SOL    HW226430   5.712   4.543   2.465
 8511SOL     OW26431   6.329   4.569   2.446
 8511SOL    HW126432   6.334   4.531   2.539
 8511SOL    HW226433   6.235   4.564   2.413
 8512SOL     OW26434   2.790   1.375   2.679
 8512SOL    HW126435   2.712   1.330   2.721
 8512SOL    HW226436   2.826   1.319   2.605
 8513SOL     OW26437   6.487   5.278   0.816
 8513SOL    HW126438   6.538   5.363   0.804
 8513SOL    HW226439   6.519   5.232   0.899
 8514SOL     OW26440   1.915   2.216   4.353
 8514SOL    HW126441   1.910   2.146   4.282
 8514SOL    HW226442   1.941   2.303   4.311
 8515SOL     OW26443   4.836   2.145   1.618
 8515SOL    HW126444   4.755   2.193   1.652
 8515SOL    HW226445   4.856   2.068   1.679
 8516SOL     OW26446   6.809   1.776   2.097
 8516SOL    HW126447   6.835   1.743   2.006
 8516SOL    HW226448   6.773   1.699   2.151
 8517SOL     OW26449   0.796   2.612   6.264
 8517SOL    HW126450   0.787   2.581   6.359
 8517SOL    HW226451   0.854   2.694   6.261
 8518SOL     OW26452   4.273   4.471   0.020
 8518SOL    HW126453   4.351   4.533   0.033
 8518SOL    HW226454   4.292   4.411   6.963
 8519SOL     OW26455   1.963   4.773   2.239
 8519SOL    HW126456   2.048   4.827   2.235
 8519SOL    HW226457   1.939   4.758   2.335
 8520SOL     OW26458   3.670   2.162   0.630
 8520SOL    HW126459   3.742   2.092   0.630
 8520SOL    HW226460   3.645   2.183   0.535
 8521SOL     OW26461   1.395   4.707   5.939
 8521SOL    HW126462   1.353   4.659   6.015
 8521SOL    HW226463   1.480   4.750   5.970
 8522SOL     OW26464   1.307   5.390   1.434
 8522SOL    HW126465   1.330   5.347   1.522
 8522SOL    HW226466   1.208   5.407   1.431
 8523SOL     OW26467   3.075   0.239   6.378
 8523SOL    HW126468   2.987   0.201   6.350
 8523SOL    HW226469   3.095   0.321   6.323
 8524SOL     OW26470   1.104   2.036   4.982
 8524SOL    HW126471   1.036   1.996   5.042
 8524SOL    HW226472   1.163   2.097   5.034
 8525SOL     OW26473   6.291   4.318   2.867
 8525SOL    HW126474   6.386   4.320   2.900
 8525SOL    HW226475   6.278   4.238   2.809
 8526SOL     OW26476   3.393   5.203   6.873
 8526SOL    HW126477   3.397   5.181   6.971
 8526SOL    HW226478   3.485   5.204   6.835
 8527SOL     OW26479   3.096   0.590   5.004
 8527SOL    HW126480   3.004   0.571   4.970
 8527SOL    HW226481   3.099   0.682   5.043
 8528SOL     OW26482   4.903   2.654   6.246
 8528SOL    HW126483   4.837   2.714   6.291
 8528SOL    HW226484   4.854   2.586   6.191
 8529SOL     OW26485   0.440   6.848   0.567
 8529SOL    HW126486   0.392   6.841   0.479
 8529SOL    HW226487   0.500   6.928   0.565
 8530SOL     OW26488   2.301   4.072   5.380
 8530SOL    HW126489   2.346   4.046   5.294
 8530SOL    HW226490   2.203   4.056   5.373
 8531SOL     OW26491   6.587   4.182   1.555
 8531SOL    HW126492   6.609   4.207   1.461
 8531SOL    HW226493   6.488   4.172   1.564
 8532SOL     OW26494   4.243   5.037   4.513
 8532SOL    HW126495   4.216   4.965   4.448
 8532SOL    HW226496   4.176   5.111   4.511
 8533SOL     OW26497   1.842   0.214   5.766
 8533SOL    HW126498   1.923   0.180   5.813
 8533SOL    HW226499   1.868   0.251   5.677
 8534SOL     OW26500   6.538   3.345   3.887
 8534SOL    HW126501   6.634   3.323   3.870
 8534SOL    HW226502   6.532   3.428   3.943
 8535SOL     OW26503   0.436   2.259   5.124
 8535SOL    HW126504   0.490   2.337   5.155
 8535SOL    HW226505   0.406   2.274   5.030
 8536SOL     OW26506   6.150   1.949   5.049
 8536SOL    HW126507   6.213   1.884   5.006
 8536SOL    HW226508   6.201   2.029   5.079
 8537SOL     OW26509   5.730   1.422   2.615
 8537SOL    HW126510   5.661   1.351   2.629
 8537SOL    HW226511   5.803   1.387   2.556
 8538SOL     OW26512   0.878   1.496   5.835
 8538SOL    HW126513   0.798   1.500   5.895
 8538SOL    HW226514   0.961   1.496   5.891
 8539SOL     OW26515   6.677   1.501   1.747
 8539SOL    HW126516   6.711   1.452   1.827
 8539SOL    HW226517   6.625   1.580   1.777
 8540SOL     OW26518   3.901   1.771   0.302
 8540SOL    HW126519   3.959   1.781   0.383
 8540SOL    HW226520   3.824   1.712   0.325
 8541SOL     OW26521   3.183   2.082   4.369
 8541SOL    HW126522   3.135   2.168   4.350
 8541SOL    HW226523   3.221   2.046   4.284
 8542SOL     OW26524   2.482   4.341   5.740
 8542SOL    HW126525   2.512   4.308   5.829
 8542SOL    HW226526   2.559   4.386   5.694
 8543SOL     OW26527   3.091   1.393   6.948
 8543SOL    HW126528   3.128   1.412   0.018
 8543SOL    HW226529   3.163   1.360   6.888
 8544SOL     OW26530   5.438   2.911   4.393
 8544SOL    HW126531   5.487   2.935   4.309
 8544SOL    HW226532   5.349   2.959   4.394
 8545SOL     OW26533   4.733   0.058   5.364
 8545SOL    HW126534   4.763   7.019   5.438
 8545SOL    HW226535   4.812   0.083   5.308
 8546SOL     OW26536   0.682   0.031   2.544
 8546SOL    HW126537   0.750   7.003   2.491
 8546SOL    HW226538   0.725   0.071   2.625
 8547SOL     OW26539   0.635   6.930   6.653
 8547SOL    HW126540   0.581   6.875   6.716
 8547SOL    HW226541   0.676   7.007   6.701
 8548SOL     OW26542   6.819   3.188   5.975
 8548SOL    HW126543   6.909   3.168   6.014
 8548SOL    HW226544   6.829   3.248   5.896
 8549SOL     OW26545   1.011   2.243   4.078
 8549SOL    HW126546   1.023   2.176   4.005
 8549SOL    HW226547   1.094   2.299   4.086
 8550SOL     OW26548   1.136   5.027   0.506
 8550SOL    HW126549   1.147   4.933   0.536
 8550SOL    HW226550   1.180   5.089   0.571
 8551SOL     OW26551   2.701   2.765   0.009
 8551SOL    HW126552   2.718   2.734   6.937
 8551SOL    HW226553   2.603   2.759   0.029
 8552SOL     OW26554   2.179   0.569   2.529
 8552SOL    HW126555   2.150   0.639   2.463
 8552SOL    HW226556   2.105   0.550   2.592
 8553SOL     OW26557   3.882   4.563   6.775
 8553SOL    HW126558   3.921   4.644   6.732
 8553SOL    HW226559   3.793   4.543   6.734
 8554SOL     OW26560   0.614   5.596   0.571
 8554SOL    HW126561   0.640   5.617   0.666
 8554SOL    HW226562   0.692   5.558   0.522
 8555SOL     OW26563   3.529   0.937   3.492
 8555SOL    HW126564   3.497   0.999   3.420
 8555SOL    HW226565   3.456   0.926   3.560
 8556SOL     OW26566   1.979   6.294   5.446
 8556SOL    HW126567   2.012   6.277   5.353
 8556SOL    HW226568   1.972   6.392   5.461
 8557SOL     OW26569   6.201   6.898   2.212
 8557SOL    HW126570   6.134   6.935   2.147
 8557SOL    HW226571   6.153   6.847   2.283
 8558SOL     OW26572   2.497   5.651   3.413
 8558SOL    HW126573   2.480   5.649   3.511
 8558SOL    HW226574   2.534   5.740   3.387
 8559SOL     OW26575   1.901   6.620   2.402
 8559SOL    HW126576   1.946   6.602   2.489
 8559SOL    HW226577   1.963   6.596   2.327
 8560SOL     OW26578   1.585   5.622   2.226
 8560SOL    HW126579   1.614   5.714   2.252
 8560SOL    HW226580   1.493   5.624   2.187
 8561SOL     OW26581   3.466   0.063   2.798
 8561SOL    HW126582   3.479   0.027   2.706
 8561SOL    HW226583   3.451   7.008   2.862
 8562SOL     OW26584   3.788   6.485   6.425
 8562SOL    HW126585   3.751   6.513   6.336
 8562SOL    HW226586   3.764   6.554   6.494
 8563SOL     OW26587   1.024   5.002   1.979
 8563SOL    HW126588   0.931   4.968   1.989
 8563SOL    HW226589   1.088   4.931   2.008
 8564SOL     OW26590   3.064   0.048   4.929
 8564SOL    HW126591   3.130   0.039   5.003
 8564SOL    HW226592   3.022   0.139   4.932
 8565SOL     OW26593   3.805   5.033   0.896
 8565SOL    HW126594   3.792   4.963   0.826
 8565SOL    HW226595   3.731   5.028   0.963
 8566SOL     OW26596   0.692   6.844   1.478
 8566SOL    HW126597   0.696   6.751   1.441
 8566SOL    HW226598   0.726   6.908   1.410
 8567SOL     OW26599   0.153   2.109   2.285
 8567SOL    HW126600   0.091   2.033   2.305
 8567SOL    HW226601   0.226   2.110   2.353
 8568SOL     OW26602   5.139   1.993   6.976
 8568SOL    HW126603   5.049   1.968   6.940
 8568SOL    HW226604   5.182   1.912   7.017
 8569SOL     OW26605   5.035   1.433   5.521
 8569SOL    HW126606   5.052   1.483   5.436
 8569SOL    HW226607   5.050   1.335   5.506
 8570SOL     OW26608   1.104   1.345   3.876
 8570SOL    HW126609   1.005   1.326   3.872
 8570SOL    HW226610   1.126   1.421   3.816
 8571SOL     OW26611   0.396   6.065   5.957
 8571SOL    HW126612   0.335   6.075   6.036
 8571SOL    HW226613   0.489   6.047   5.989
 8572SOL     OW26614   2.046   4.130   5.862
 8572SOL    HW126615   2.004   4.084   5.940
 8572SOL    HW226616   1.986   4.122   5.782
 8573SOL     OW26617   3.221   6.018   6.239
 8573SOL    HW126618   3.313   5.979   6.234
 8573SOL    HW226619   3.214   6.076   6.320
 8574SOL     OW26620   6.246   6.920   6.550
 8574SOL    HW126621   6.283   6.947   6.461
 8574SOL    HW226622   6.208   7.000   6.595
 8575SOL     OW26623   2.255   2.140   3.287
 8575SOL    HW126624   2.189   2.114   3.357
 8575SOL    HW226625   2.347   2.113   3.316
 8576SOL     OW26626   1.299   4.787   4.389
 8576SOL    HW126627   1.212   4.815   4.430
 8576SOL    HW226628   1.362   4.760   4.462
 8577SOL     OW26629   1.540   6.889   5.259
 8577SOL    HW126630   1.519   6.792   5.272
 8577SOL    HW226631   1.501   6.941   5.335
 8578SOL     OW26632   6.389   5.539   4.968
 8578SOL    HW126633   6.412   5.582   4.881
 8578SOL    HW226634   6.420   5.598   5.043
 8579SOL     OW26635   1.785   6.792   2.072
 8579SOL    HW126636   1.691   6.815   2.097
 8579SOL    HW226637   1.848   6.846   2.126
 8580SOL     OW26638   1.654   5.887   0.715
 8580SOL    HW126639   1.699   5.799   0.727
 8580SOL    HW226640   1.638   5.929   0.805
 8581SOL     OW26641   3.296   4.215   1.657
 8581SOL    HW126642   3.230   4.275   1.701
 8581SOL    HW226643   3.259   4.185   1.569
 8582SOL     OW26644   4.691   4.256   5.028
 8582SOL    HW126645   4.745   4.172   5.019
 8582SOL    HW226646   4.619   4.243   5.096
 8583SOL     OW26647   3.937   0.204   4.455
 8583SOL    HW126648   3.900   0.210   4.547
 8583SOL    HW226649   3.862   0.202   4.389
 8584SOL     OW26650   0.727   6.145   5.981
 8584SOL    HW126651   0.765   6.162   6.072
 8584SOL    HW226652   0.688   6.230   5.945
 8585SOL     OW26653   6.270   1.301   6.783
 8585SOL    HW126654   6.353   1.265   6.826
 8585SOL    HW226655   6.274   1.400   6.781
 8586SOL     OW26656   3.458   6.451   1.733
 8586SOL    HW126657   3.410   6.535   1.706
 8586SOL    HW226658   3.496   6.463   1.824
 8587SOL     OW26659   0.843   0.770   4.730
 8587SOL    HW126660   0.828   0.680   4.771
 8587SOL    HW226661   0.941   0.792   4.733
 8588SOL     OW26662   4.247   1.311   6.862
 8588SOL    HW126663   4.314   1.255   6.911
 8588SOL    HW226664   4.278   1.407   6.862
 8589SOL     OW26665   5.711   2.580   5.494
 8589SOL    HW126666   5.697   2.528   5.578
 8589SOL    HW226667   5.715   2.518   5.416
 8590SOL     OW26668   0.437   0.262   2.713
 8590SOL    HW126669   0.421   0.173   2.671
 8590SOL    HW226670   0.519   0.304   2.673
 8591SOL     OW26671   0.403   4.171   0.003
 8591SOL    HW126672   0.386   4.253   0.057
 8591SOL    HW226673   0.321   4.114   0.005
 8592SOL     OW26674   5.879   1.986   6.649
 8592SOL    HW126675   5.968   1.959   6.685
 8592SOL    HW226676   5.883   1.992   6.550
 8593SOL     OW26677   3.238   1.408   0.151
 8593SOL    HW126678   3.220   1.326   0.205
 8593SOL    HW226679   3.283   1.477   0.207
 8594SOL     OW26680   5.238   2.246   5.629
 8594SOL    HW126681   5.209   2.179   5.560
 8594SOL    HW226682   5.270   2.329   5.583
 8595SOL     OW26683   0.431   0.862   3.854
 8595SOL    HW126684   0.346   0.895   3.813
 8595SOL    HW226685   0.416   0.772   3.894
 8596SOL     OW26686   1.274   4.641   3.153
 8596SOL    HW126687   1.270   4.712   3.223
 8596SOL    HW226688   1.351   4.658   3.093
 8597SOL     OW26689   4.931   1.899   1.815
 8597SOL    HW126690   4.962   1.865   1.726
 8597SOL    HW226691   4.972   1.844   1.888
 8598SOL     OW26692   5.909   0.298   6.867
 8598SOL    HW126693   5.879   0.364   6.936
 8598SOL    HW226694   5.957   0.223   6.911
 8599SOL     OW26695   1.418   1.977   4.361
 8599SOL    HW126696   1.382   1.902   4.305
 8599SOL    HW226697   1.413   1.951   4.458
 8600SOL     OW26698   5.278   3.838   6.322
 8600SOL    HW126699   5.340   3.873   6.393
 8600SOL    HW226700   5.244   3.915   6.268
 8601SOL     OW26701   0.822   1.337   3.835
 8601SOL    HW126702   0.801   1.291   3.921
 8601SOL    HW226703   0.740   1.340   3.777
 8602SOL     OW26704   3.049   6.557   2.640
 8602SOL    HW126705   3.012   6.551   2.548
 8602SOL    HW226706   3.130   6.500   2.648
 8603SOL     OW26707   5.096   6.003   1.343
 8603SOL    HW126708   5.055   5.920   1.303
 8603SOL    HW226709   5.030   6.044   1.406
 8604SOL     OW26710   1.052   2.401   5.494
 8604SOL    HW126711   1.098   2.315   5.471
 8604SOL    HW226712   0.956   2.396   5.468
 8605SOL     OW26713   2.569   5.362   4.296
 8605SOL    HW126714   2.486   5.313   4.323
 8605SOL    HW226715   2.649   5.313   4.332
 8606SOL     OW26716   2.053   2.850   6.835
 8606SOL    HW126717   2.147   2.821   6.816
 8606SOL    HW226718   2.054   2.928   6.899
 8607SOL     OW26719   3.138   4.682   6.182
 8607SOL    HW126720   3.082   4.599   6.189
 8607SOL    HW226721   3.084   4.761   6.210
 8608SOL     OW26722   2.800   4.764   2.443
 8608SOL    HW126723   2.737   4.721   2.377
 8608SOL    HW226724   2.759   4.761   2.534
 8609SOL     OW26725   5.137   0.482   3.220
 8609SOL    HW126726   5.113   0.403   3.276
 8609SOL    HW226727   5.233   0.506   3.235
 8610SOL     OW26728   1.176   1.581   2.659
 8610SOL    HW126729   1.222   1.556   2.745
 8610SOL    HW226730   1.080   1.602   2.678
 8611SOL     OW26731   3.000   1.750   4.292
 8611SOL    HW126732   3.009   1.839   4.335
 8611SOL    HW226733   3.087   1.724   4.250
 8612SOL     OW26734   2.610   2.997   1.243
 8612SOL    HW126735   2.567   2.957   1.324
 8612SOL    HW226736   2.709   3.006   1.259
 8613SOL     OW26737   2.786   1.652   2.025
 8613SOL    HW126738   2.883   1.659   2.048
 8613SOL    HW226739   2.754   1.741   1.992
 8614SOL     OW26740   0.816   2.859   3.991
 8614SOL    HW126741   0.819   2.768   3.949
 8614SOL    HW226742   0.733   2.906   3.960
 8615SOL     OW26743   4.350   2.180   5.303
 8615SOL    HW126744   4.382   2.163   5.396
 8615SOL    HW226745   4.373   2.101   5.245
 8616SOL     OW26746   3.068   4.708   1.773
 8616SOL    HW126747   3.027   4.792   1.807
 8616SOL    HW226748   3.005   4.632   1.789
 8617SOL     OW26749   5.846   1.224   4.804
 8617SOL    HW126750   5.935   1.224   4.851
 8617SOL    HW226751   5.777   1.184   4.865
 8618SOL     OW26752   6.511   4.832   1.065
 8618SOL    HW126753   6.436   4.892   1.094
 8618SOL    HW226754   6.486   4.737   1.085
 8619SOL     OW26755   4.083   5.042   2.109
 8619SOL    HW126756   4.151   5.043   2.182
 8619SOL    HW226757   4.017   5.116   2.123
 8620SOL     OW26758   1.858   6.655   2.829
 8620SOL    HW126759   1.885   6.596   2.905
 8620SOL    HW226760   1.901   6.622   2.745
 8621SOL     OW26761   5.797   2.051   2.358
 8621SOL    HW126762   5.880   2.050   2.302
 8621SOL    HW226763   5.798   1.974   2.422
 8622SOL     OW26764   5.035   3.830   1.394
 8622SOL    HW126765   4.983   3.891   1.455
 8622SOL    HW226766   4.972   3.768   1.347
 8623SOL     OW26767   1.097   3.873   4.848
 8623SOL    HW126768   1.173   3.933   4.874
 8623SOL    HW226769   1.118   3.779   4.874
 8624SOL     OW26770   2.202   3.981   4.517
 8624SOL    HW126771   2.223   4.076   4.498
 8624SOL    HW226772   2.193   3.968   4.616
 8625SOL     OW26773   4.420   1.026   5.958
 8625SOL    HW126774   4.453   1.114   5.925
 8625SOL    HW226775   4.449   0.954   5.894
 8626SOL     OW26776   4.008   2.304   6.470
 8626SOL    HW126777   4.082   2.257   6.517
 8626SOL    HW226778   3.991   2.392   6.514
 8627SOL     OW26779   1.289   1.554   2.357
 8627SOL    HW126780   1.232   1.624   2.400
 8627SOL    HW226781   1.283   1.469   2.410
 8628SOL     OW26782   6.154   6.519   0.386
 8628SOL    HW126783   6.209   6.492   0.464
 8628SOL    HW226784   6.199   6.492   0.301
 8629SOL     OW26785   1.886   6.397   4.871
 8629SOL    HW126786   1.954   6.413   4.800
 8629SOL    HW226787   1.845   6.484   4.899
 8630SOL     OW26788   5.415   3.443   3.961
 8630SOL    HW126789   5.339   3.454   4.026
 8630SOL    HW226790   5.393   3.489   3.875
 8631SOL     OW26791   0.659   5.085   6.537
 8631SOL    HW126792   0.717   5.097   6.618
 8631SOL    HW226793   0.602   5.166   6.524
 8632SOL     OW26794   4.212   4.909   5.267
 8632SOL    HW126795   4.247   5.000   5.243
 8632SOL    HW226796   4.181   4.862   5.184
 8633SOL     OW26797   5.770   2.091   6.065
 8633SOL    HW126798   5.697   2.094   5.996
 8633SOL    HW226799   5.859   2.094   6.019
 8634SOL     OW26800   5.403   4.280   6.840
 8634SOL    HW126801   5.402   4.361   6.899
 8634SOL    HW226802   5.324   4.222   6.863
 8635SOL     OW26803   5.081   3.319   6.516
 8635SOL    HW126804   5.178   3.304   6.497
 8635SOL    HW226805   5.071   3.391   6.584
 8636SOL     OW26806   5.717   6.024   0.898
 8636SOL    HW126807   5.668   6.023   0.985
 8636SOL    HW226808   5.664   6.076   0.830
 8637SOL     OW26809   2.735   1.022   6.998
 8637SOL    HW126810   2.743   1.093   6.928
 8637SOL    HW226811   2.667   0.954   6.970
 8638SOL     OW26812   3.416   2.133   5.011
 8638SOL    HW126813   3.383   2.043   5.039
 8638SOL    HW226814   3.342   2.199   5.018
 8639SOL     OW26815   5.482   2.691   0.440
 8639SOL    HW126816   5.569   2.649   0.412
 8639SOL    HW226817   5.483   2.788   0.416
 8640SOL     OW26818   4.077   3.389   0.228
 8640SOL    HW126819   4.053   3.384   0.325
 8640SOL    HW226820   4.152   3.454   0.216
 8641SOL     OW26821   4.136   4.771   3.993
 8641SOL    HW126822   4.159   4.749   4.087
 8641SOL    HW226823   4.185   4.854   3.965
 8642SOL     OW26824   1.168   6.050   4.690
 8642SOL    HW126825   1.195   6.135   4.735
 8642SOL    HW226826   1.143   6.069   4.595
 8643SOL     OW26827   2.357   0.901   5.939
 8643SOL    HW126828   2.281   0.949   5.982
 8643SOL    HW226829   2.376   0.817   5.990
 8644SOL     OW26830   5.570   2.412   5.704
 8644SOL    HW126831   5.496   2.380   5.644
 8644SOL    HW226832   5.646   2.348   5.700
 8645SOL     OW26833   4.308   4.264   1.093
 8645SOL    HW126834   4.231   4.287   1.152
 8645SOL    HW226835   4.278   4.199   1.023
 8646SOL     OW26836   0.221   1.643   0.308
 8646SOL    HW126837   0.151   1.712   0.288
 8646SOL    HW226838   0.235   1.637   0.407
 8647SOL     OW26839   2.230   4.556   7.015
 8647SOL    HW126840   2.319   4.538   6.973
 8647SOL    HW226841   2.243   4.587   0.088
 8648SOL     OW26842   6.810   6.947   2.555
 8648SOL    HW126843   6.865   6.900   2.486
 8648SOL    HW226844   6.714   6.923   2.543
 8649SOL     OW26845   5.686   5.695   6.814
 8649SOL    HW126846   5.641   5.739   6.736
 8649SOL    HW226847   5.785   5.708   6.808
 8650SOL     OW26848   1.221   5.370   4.881
 8650SOL    HW126849   1.158   5.297   4.906
 8650SOL    HW226850   1.276   5.341   4.803
 8651SOL     OW26851   4.336   1.399   0.485
 8651SOL    HW126852   4.303   1.407   0.391
 8651SOL    HW226853   4.287   1.326   0.532
 8652SOL     OW26854   1.778   4.885   3.244
 8652SOL    HW126855   1.850   4.815   3.247
 8652SOL    HW226856   1.782   4.941   3.327
 8653SOL     OW26857   6.799   0.850   6.254
 8653SOL    HW126858   6.891   0.869   6.221
 8653SOL    HW226859   6.766   0.928   6.307
 8654SOL     OW26860   0.866   4.913   2.568
 8654SOL    HW126861   0.794   4.911   2.637
 8654SOL    HW226862   0.951   4.880   2.609
 8655SOL     OW26863   6.231   0.424   4.212
 8655SOL    HW126864   6.168   0.498   4.236
 8655SOL    HW226865   6.178   0.345   4.179
 8656SOL     OW26866   5.987   0.632   1.998
 8656SOL    HW126867   6.065   0.650   1.939
 8656SOL    HW226868   6.017   0.633   2.094
 8657SOL     OW26869   5.321   5.917   7.010
 8657SOL    HW126870   5.413   5.891   0.019
 8657SOL    HW226871   5.255   5.896   0.060
 8658SOL     OW26872   6.262   6.179   0.178
 8658SOL    HW126873   6.285   6.122   0.099
 8658SOL    HW226874   6.203   6.128   0.240
 8659SOL     OW26875   4.978   2.438   2.149
 8659SOL    HW126876   4.932   2.459   2.235
 8659SOL    HW226877   4.921   2.467   2.072
 8660SOL     OW26878   0.092   3.499   2.116
 8660SOL    HW126879   0.080   3.414   2.063
 8660SOL    HW226880   0.020   3.564   2.090
 8661SOL     OW26881   6.966   4.229   1.255
 8661SOL    HW126882   6.888   4.170   1.239
 8661SOL    HW226883   0.013   4.216   1.182
 8662SOL     OW26884   4.399   5.717   1.994
 8662SOL    HW126885   4.422   5.638   2.050
 8662SOL    HW226886   4.425   5.700   1.899
 8663SOL     OW26887   2.959   5.321   2.439
 8663SOL    HW126888   3.009   5.362   2.515
 8663SOL    HW226889   2.894   5.387   2.402
 8664SOL     OW26890   1.925   5.739   1.220
 8664SOL    HW126891   1.907   5.786   1.306
 8664SOL    HW226892   1.839   5.711   1.178
 8665SOL     OW26893   5.373   5.151   5.166
 8665SOL    HW126894   5.426   5.078   5.123
 8665SOL    HW226895   5.340   5.215   5.096
 8666SOL     OW26896   5.657   0.896   3.542
 8666SOL    HW126897   5.575   0.863   3.589
 8666SOL    HW226898   5.640   0.987   3.504
 8667SOL     OW26899   4.091   1.893   4.175
 8667SOL    HW126900   4.054   1.854   4.259
 8667SOL    HW226901   4.019   1.896   4.105
 8668SOL     OW26902   5.244   3.816   2.928
 8668SOL    HW126903   5.229   3.724   2.965
 8668SOL    HW226904   5.239   3.883   3.002
 8669SOL     OW26905   0.613   6.646   6.206
 8669SOL    HW126906   0.563   6.700   6.137
 8669SOL    HW226907   0.681   6.590   6.160
 8670SOL     OW26908   3.782   5.185   5.716
 8670SOL    HW126909   3.714   5.156   5.784
 8670SOL    HW226910   3.739   5.189   5.626
 8671SOL     OW26911   5.994   1.753   3.060
 8671SOL    HW126912   6.009   1.722   3.154
 8671SOL    HW226913   6.068   1.719   3.002
 8672SOL     OW26914   0.740   5.519   3.783
 8672SOL    HW126915   0.802   5.567   3.720
 8672SOL    HW226916   0.664   5.580   3.807
 8673SOL     OW26917   5.566   2.287   6.957
 8673SOL    HW126918   5.545   2.330   0.023
 8673SOL    HW226919   5.659   2.249   6.960
 8674SOL     OW26920   5.651   6.007   2.379
 8674SOL    HW126921   5.585   5.963   2.319
 8674SOL    HW226922   5.682   5.942   2.449
 8675SOL     OW26923   4.413   1.952   5.164
 8675SOL    HW126924   4.502   1.928   5.126
 8675SOL    HW226925   4.342   1.899   5.119
 8676SOL     OW26926   5.827   6.661   3.314
 8676SOL    HW126927   5.883   6.733   3.355
 8676SOL    HW226928   5.738   6.658   3.360
 8677SOL     OW26929   2.181   5.141   6.650
 8677SOL    HW126930   2.248   5.091   6.595
 8677SOL    HW226931   2.195   5.239   6.638
 8678SOL     OW26932   0.628   0.402   1.150
 8678SOL    HW126933   0.685   0.345   1.209
 8678SOL    HW226934   0.632   0.367   1.056
 8679SOL     OW26935   0.804   1.197   3.350
 8679SOL    HW126936   0.717   1.153   3.325
 8679SOL    HW226937   0.850   1.142   3.419
 8680SOL     OW26938   6.392   3.600   0.156
 8680SOL    HW126939   6.319   3.602   0.087
 8680SOL    HW226940   6.370   3.665   0.229
 8681SOL     OW26941   4.859   5.471   1.342
 8681SOL    HW126942   4.936   5.514   1.389
 8681SOL    HW226943   4.817   5.404   1.403
 8682SOL     OW26944   6.055   0.160   2.442
 8682SOL    HW126945   6.017   0.175   2.533
 8682SOL    HW226946   6.154   0.151   2.447
 8683SOL     OW26947   1.571   2.769   5.125
 8683SOL    HW126948   1.665   2.778   5.090
 8683SOL    HW226949   1.537   2.858   5.155
 8684SOL     OW26950   6.110   2.598   4.192
 8684SOL    HW126951   6.134   2.518   4.138
 8684SOL    HW226952   6.041   2.652   4.143
 8685SOL     OW26953   6.125   1.837   6.081
 8685SOL    HW126954   6.153   1.868   5.990
 8685SOL    HW226955   6.173   1.891   6.151
 8686SOL     OW26956   6.495   0.741   2.007
 8686SOL    HW126957   6.554   0.742   2.088
 8686SOL    HW226958   6.535   0.681   1.938
 8687SOL     OW26959   5.034   5.350   2.307
 8687SOL    HW126960   5.059   5.378   2.400
 8687SOL    HW226961   4.980   5.265   2.311
 8688SOL     OW26962   1.217   5.297   6.326
 8688SOL    HW126963   1.207   5.387   6.283
 8688SOL    HW226964   1.157   5.291   6.406
 8689SOL     OW26965   3.726   2.273   1.016
 8689SOL    HW126966   3.742   2.229   1.105
 8689SOL    HW226967   3.770   2.362   1.014
 8690SOL     OW26968   1.011   3.770   4.019
 8690SOL    HW126969   0.975   3.678   4.001
 8690SOL    HW226970   0.964   3.836   3.961
 8691SOL     OW26971   3.857   1.643   6.552
 8691SOL    HW126972   3.858   1.743   6.562
 8691SOL    HW226973   3.807   1.618   6.470
 8692SOL     OW26974   3.358   1.722   4.417
 8692SOL    HW126975   3.358   1.793   4.487
 8692SOL    HW226976   3.355   1.632   4.460
 8693SOL     OW26977   5.598   0.004   0.536
 8693SOL    HW126978   5.666   7.007   0.465
 8693SOL    HW226979   5.627   0.083   0.591
 8694SOL     OW26980   5.459   1.415   5.042
 8694SOL    HW126981   5.493   1.323   5.063
 8694SOL    HW226982   5.486   1.440   4.949
 8695SOL     OW26983   4.577   3.489   5.991
 8695SOL    HW126984   4.602   3.459   5.900
 8695SOL    HW226985   4.481   3.517   5.991
 8696SOL     OW26986   2.705   5.232   5.078
 8696SOL    HW126987   2.767   5.267   5.148
 8696SOL    HW226988   2.758   5.193   5.003
 8697SOL     OW26989   0.447   4.166   6.386
 8697SOL    HW126990   0.355   4.153   6.424
 8697SOL    HW226991   0.449   4.251   6.333
 8698SOL     OW26992   5.396   6.093   5.012
 8698SOL    HW126993   5.453   6.085   4.930
 8698SOL    HW226994   5.388   6.003   5.056
 8699SOL     OW26995   1.145   3.310   4.328
 8699SOL    HW126996   1.216   3.239   4.329
 8699SOL    HW226997   1.063   3.275   4.283
 8700SOL     OW26998   1.072   0.377   5.055
 8700SOL    HW126999   1.092   0.288   5.015
 8700SOL    HW227000   1.111   0.383   5.147
 8701SOL     OW27001   1.294   1.331   0.101
 8701SOL    HW127002   1.279   1.418   0.054
 8701SOL    HW227003   1.236   1.328   0.183
 8702SOL     OW27004   5.341   5.104   2.150
 8702SOL    HW127005   5.279   5.177   2.120
 8702SOL    HW227006   5.431   5.143   2.168
 8703SOL     OW27007   2.715   5.216   0.166
 8703SOL    HW127008   2.632   5.205   0.222
 8703SOL    HW227009   2.691   5.260   0.080
 8704SOL     OW27010   0.857   4.194   3.442
 8704SOL    HW127011   0.789   4.238   3.383
 8704SOL    HW227012   0.886   4.259   3.512
 8705SOL     OW27013   5.189   1.321   6.297
 8705SOL    HW127014   5.185   1.407   6.348
 8705SOL    HW227015   5.244   1.334   6.215
 8706SOL     OW27016   4.899   2.229   6.953
 8706SOL    HW127017   4.843   2.174   7.016
 8706SOL    HW227018   4.887   2.196   6.860
 8707SOL     OW27019   0.847   1.467   5.284
 8707SOL    HW127020   0.812   1.555   5.317
 8707SOL    HW227021   0.935   1.482   5.238
 8708SOL     OW27022   4.223   1.232   3.692
 8708SOL    HW127023   4.302   1.293   3.690
 8708SOL    HW227024   4.238   1.157   3.626
 8709SOL     OW27025   6.307   6.770   6.837
 8709SOL    HW127026   6.234   6.719   6.792
 8709SOL    HW227027   6.396   6.736   6.806
 8710SOL     OW27028   1.378   2.996   3.202
 8710SOL    HW127029   1.457   2.948   3.241
 8710SOL    HW227030   1.396   3.017   3.106
 8711SOL     OW27031   1.452   6.448   2.568
 8711SOL    HW127032   1.445   6.357   2.528
 8711SOL    HW227033   1.530   6.496   2.529
 8712SOL     OW27034   3.557   1.818   4.115
 8712SOL    HW127035   3.513   1.902   4.148
 8712SOL    HW227036   3.496   1.770   4.053
 8713SOL     OW27037   6.919   3.201   2.328
 8713SOL    HW127038   6.899   3.146   2.409
 8713SOL    HW227039   6.836   3.248   2.299
 8714SOL     OW27040   1.270   0.345   5.965
 8714SOL    HW127041   1.178   0.345   5.926
 8714SOL    HW227042   1.334   0.386   5.900
 8715SOL     OW27043   3.931   0.815   0.920
 8715SOL    HW127044   3.974   0.729   0.893
 8715SOL    HW227045   4.000   0.887   0.920
 8716SOL     OW27046   0.227   6.673   0.626
 8716SOL    HW127047   0.197   6.690   0.720
 8716SOL    HW227048   0.273   6.754   0.591
 8717SOL     OW27049   2.906   3.697   5.211
 8717SOL    HW127050   2.950   3.785   5.230
 8717SOL    HW227051   2.973   3.633   5.176
 8718SOL     OW27052   1.562   3.034   5.175
 8718SOL    HW127053   1.508   3.104   5.222
 8718SOL    HW227054   1.649   3.022   5.222
 8719SOL     OW27055   3.842   0.133   0.354
 8719SOL    HW127056   3.843   0.206   0.286
 8719SOL    HW227057   3.795   0.165   0.437
 8720SOL     OW27058   0.970   6.351   6.101
 8720SOL    HW127059   1.015   6.290   6.035
 8720SOL    HW227060   0.953   6.302   6.186
 8721SOL     OW27061   6.729   2.215   1.579
 8721SOL    HW127062   6.665   2.157   1.629
 8721SOL    HW227063   6.735   2.184   1.484
 8722SOL     OW27064   3.406   1.399   1.167
 8722SOL    HW127065   3.496   1.420   1.130
 8722SOL    HW227066   3.336   1.423   1.099
 8723SOL     OW27067   4.654   6.773   1.852
 8723SOL    HW127068   4.594   6.828   1.795
 8723SOL    HW227069   4.717   6.833   1.902
 8724SOL     OW27070   5.376   6.623   4.268
 8724SOL    HW127071   5.348   6.573   4.350
 8724SOL    HW227072   5.317   6.703   4.256
 8725SOL     OW27073   2.054   5.625   5.754
 8725SOL    HW127074   1.997   5.622   5.672
 8725SOL    HW227075   2.000   5.600   5.834
 8726SOL     OW27076   6.963   0.523   2.996
 8726SOL    HW127077   0.014   0.584   3.028
 8726SOL    HW227078   6.994   0.477   2.913
 8727SOL     OW27079   6.342   0.043   1.812
 8727SOL    HW127080   6.273   7.013   1.761
 8727SOL    HW227081   6.396   7.001   1.868
 8728SOL     OW27082   5.883   0.913   1.907
 8728SOL    HW127083   5.932   0.975   1.968
 8728SOL    HW227084   5.949   0.850   1.865
 8729SOL     OW27085   3.418   4.682   5.549
 8729SOL    HW127086   3.488   4.728   5.604
 8729SOL    HW227087   3.453   4.593   5.519
 8730SOL     OW27088   5.209   3.646   2.466
 8730SOL    HW127089   5.294   3.601   2.495
 8730SOL    HW227090   5.150   3.579   2.421
 8731SOL     OW27091   0.552   3.460   3.168
 8731SOL    HW127092   0.516   3.367   3.159
 8731SOL    HW227093   0.572   3.497   3.077
 8732SOL     OW27094   5.598   4.873   1.990
 8732SOL    HW127095   5.580   4.866   2.088
 8732SOL    HW227096   5.668   4.942   1.974
 8733SOL     OW27097   1.209   5.953   1.180
 8733SOL    HW127098   1.287   5.902   1.216
 8733SOL    HW227099   1.183   6.024   1.246
 8734SOL     OW27100   0.905   3.144   2.787
 8734SOL    HW127101   0.930   3.103   2.699
 8734SOL    HW227102   0.983   3.142   2.849
 8735SOL     OW27103   0.763   3.166   6.606
 8735SOL    HW127104   0.755   3.126   6.697
 8735SOL    HW227105   0.720   3.106   6.539
 8736SOL     OW27106   0.338   5.130   1.698
 8736SOL    HW127107   0.400   5.126   1.777
 8736SOL    HW227108   0.327   5.225   1.669
 8737SOL     OW27109   1.625   6.697   0.235
 8737SOL    HW127110   1.723   6.698   0.211
 8737SOL    HW227111   1.597   6.603   0.257
 8738SOL     OW27112   2.842   5.907   4.177
 8738SOL    HW127113   2.890   5.833   4.131
 8738SOL    HW227114   2.767   5.869   4.232
 8739SOL     OW27115   5.796   5.716   6.110
 8739SOL    HW127116   5.848   5.702   6.026
 8739SOL    HW227117   5.699   5.724   6.088
 8740SOL     OW27118   4.172   1.136   4.060
 8740SOL    HW127119   4.133   1.081   3.987
 8740SOL    HW227120   4.268   1.110   4.074
 8741SOL     OW27121   2.443   0.841   2.805
 8741SOL    HW127122   2.515   0.905   2.776
 8741SOL    HW227123   2.415   0.864   2.898
 8742SOL     OW27124   4.719   0.445   1.686
 8742SOL    HW127125   4.719   0.542   1.661
 8742SOL    HW227126   4.768   0.392   1.616
 8743SOL     OW27127   1.235   7.009   1.777
 8743SOL    HW127128   1.161   0.051   1.801
 8743SOL    HW227129   1.323   0.032   1.796
 8744SOL     OW27130   4.421   2.910   0.738
 8744SOL    HW127131   4.326   2.937   0.723
 8744SOL    HW227132   4.452   2.853   0.662
 8745SOL     OW27133   6.243   1.582   6.330
 8745SOL    HW127134   6.313   1.577   6.402
 8745SOL    HW227135   6.221   1.489   6.300
 8746SOL     OW27136   5.023   5.491   4.594
 8746SOL    HW127137   5.107   5.438   4.582
 8746SOL    HW227138   4.968   5.450   4.667
 8747SOL     OW27139   6.937   1.573   2.626
 8747SOL    HW127140   6.975   1.566   2.533
 8747SOL    HW227141   7.003   1.619   2.685
 8748SOL     OW27142   0.548   1.985   4.957
 8748SOL    HW127143   0.471   1.963   5.018
 8748SOL    HW227144   0.591   2.070   4.985
 8749SOL     OW27145   1.922   0.460   5.275
 8749SOL    HW127146   1.989   0.402   5.230
 8749SOL    HW227147   1.923   0.551   5.234
 8750SOL     OW27148   3.711   3.920   5.866
 8750SOL    HW127149   3.682   3.932   5.961
 8750SOL    HW227150   3.805   3.888   5.863
 8751SOL     OW27151   6.329   1.858   1.916
 8751SOL    HW127152   6.278   1.829   1.998
 8751SOL    HW227153   6.295   1.807   1.837
 8752SOL     OW27154   3.192   2.885   6.481
 8752SOL    HW127155   3.126   2.842   6.419
 8752SOL    HW227156   3.282   2.844   6.468
 8753SOL     OW27157   2.981   1.875   6.558
 8753SOL    HW127158   2.993   1.777   6.574
 8753SOL    HW227159   3.040   1.905   6.483
 8754SOL     OW27160   1.358   4.200   4.939
 8754SOL    HW127161   1.319   4.112   4.969
 8754SOL    HW227162   1.373   4.198   4.840
 8755SOL     OW27163   2.112   1.157   1.294
 8755SOL    HW127164   2.157   1.130   1.209
 8755SOL    HW227165   2.014   1.170   1.278
 8756SOL     OW27166   2.030   2.990   3.518
 8756SOL    HW127167   2.073   2.900   3.509
 8756SOL    HW227168   2.029   3.018   3.614
 8757SOL     OW27169   4.122   5.208   6.689
 8757SOL    HW127170   4.205   5.187   6.741
 8757SOL    HW227171   4.094   5.302   6.709
 8758SOL     OW27172   4.600   5.937   2.967
 8758SOL    HW127173   4.546   5.867   2.921
 8758SOL    HW227174   4.572   5.943   3.063
 8759SOL     OW27175   4.587   3.035   6.923
 8759SOL    HW127176   4.577   2.945   6.964
 8759SOL    HW227177   4.558   3.105   6.989
 8760SOL     OW27178   2.672   1.055   4.881
 8760SOL    HW127179   2.659   1.149   4.850
 8760SOL    HW227180   2.731   1.006   4.817
 8761SOL     OW27181   6.281   2.224   1.264
 8761SOL    HW127182   6.323   2.214   1.174
 8761SOL    HW227183   6.346   2.194   1.334
 8762SOL     OW27184   0.815   4.985   4.072
 8762SOL    HW127185   0.887   4.923   4.102
 8762SOL    HW227186   0.738   4.932   4.035
 8763SOL     OW27187   6.209   6.751   6.262
 8763SOL    HW127188   6.281   6.708   6.317
 8763SOL    HW227189   6.251   6.803   6.188
 8764SOL     OW27190   4.547   0.125   5.583
 8764SOL    HW127191   4.606   0.070   5.524
 8764SOL    HW227192   4.604   0.182   5.643
 8765SOL     OW27193   5.017   0.560   3.855
 8765SOL    HW127194   5.103   0.581   3.900
 8765SOL    HW227195   4.948   0.538   3.924
 8766SOL     OW27196   4.464   4.250   5.294
 8766SOL    HW127197   4.372   4.278   5.266
 8766SOL    HW227198   4.506   4.323   5.348
 8767SOL     OW27199   6.040   6.313   2.560
 8767SOL    HW127200   6.089   6.398   2.577
 8767SOL    HW227201   5.983   6.322   2.479
 8768SOL     OW27202   1.394   2.616   6.933
 8768SOL    HW127203   1.341   2.567   7.003
 8768SOL    HW227204   1.417   2.707   6.967
 8769SOL     OW27205   6.784   0.707   2.902
 8769SOL    HW127206   6.864   0.677   2.849
 8769SOL    HW227207   6.747   0.629   2.953
 8770SOL     OW27208   4.627   4.475   2.192
 8770SOL    HW127209   4.614   4.393   2.136
 8770SOL    HW227210   4.680   4.452   2.274
 8771SOL     OW27211   1.186   1.876   6.426
 8771SOL    HW127212   1.134   1.800   6.465
 8771SOL    HW227213   1.198   1.861   6.328
 8772SOL     OW27214   4.277   0.490   6.272
 8772SOL    HW127215   4.342   0.437   6.327
 8772SOL    HW227216   4.240   0.564   6.328
 8773SOL     OW27217   5.328   2.720   3.659
 8773SOL    HW127218   5.309   2.679   3.570
 8773SOL    HW227219   5.253   2.701   3.722
 8774SOL     OW27220   1.378   0.743   0.486
 8774SOL    HW127221   1.440   0.808   0.529
 8774SOL    HW227222   1.384   0.752   0.386
 8775SOL     OW27223   5.219   1.122   6.078
 8775SOL    HW127224   5.130   1.129   6.123
 8775SOL    HW227225   5.285   1.080   6.141
 8776SOL     OW27226   4.412   3.498   0.605
 8776SOL    HW127227   4.502   3.485   0.645
 8776SOL    HW227228   4.375   3.410   0.576
 8777SOL     OW27229   5.888   4.571   3.057
 8777SOL    HW127230   5.978   4.527   3.056
 8777SOL    HW227231   5.863   4.598   2.964
 8778SOL     OW27232   5.336   2.805   6.033
 8778SOL    HW127233   5.331   2.832   5.937
 8778SOL    HW227234   5.359   2.885   6.089
 8779SOL     OW27235   2.545   5.599   2.252
 8779SOL    HW127236   2.488   5.591   2.334
 8779SOL    HW227237   2.641   5.587   2.277
 8780SOL     OW27238   6.738   0.239   3.027
 8780SOL    HW127239   6.823   0.237   3.080
 8780SOL    HW227240   6.674   0.171   3.064
 8781SOL     OW27241   5.063   0.882   4.105
 8781SOL    HW127242   5.152   0.847   4.076
 8781SOL    HW227243   5.057   0.880   4.204
 8782SOL     OW27244   6.777   0.460   1.649
 8782SOL    HW127245   6.683   0.429   1.641
 8782SOL    HW227246   6.839   0.389   1.615
 8783SOL     OW27247   6.513   4.126   3.308
 8783SOL    HW127248   6.464   4.073   3.378
 8783SOL    HW227249   6.473   4.107   3.218
 8784SOL     OW27250   0.284   6.604   6.265
 8784SOL    HW127251   0.268   6.506   6.246
 8784SOL    HW227252   0.334   6.644   6.189
 8785SOL     OW27253   5.927   5.009   6.827
 8785SOL    HW127254   5.973   5.089   6.789
 8785SOL    HW227255   5.843   5.038   6.872
 8786SOL     OW27256   2.785   1.166   0.674
 8786SOL    HW127257   2.841   1.093   0.711
 8786SOL    HW227258   2.839   1.250   0.668
 8787SOL     OW27259   2.915   1.370   2.206
 8787SOL    HW127260   2.954   1.290   2.251
 8787SOL    HW227261   2.825   1.390   2.244
 8788SOL     OW27262   0.417   0.868   5.138
 8788SOL    HW127263   0.436   0.948   5.081
 8788SOL    HW227264   0.497   0.849   5.195
 8789SOL     OW27265   6.382   5.250   5.503
 8789SOL    HW127266   6.287   5.221   5.507
 8789SOL    HW227267   6.436   5.195   5.567
 8790SOL     OW27268   6.180   0.513   6.686
 8790SOL    HW127269   6.141   0.443   6.745
 8790SOL    HW227270   6.268   0.481   6.649
 8791SOL     OW27271   5.564   6.813   5.483
 8791SOL    HW127272   5.583   6.816   5.582
 8791SOL    HW227273   5.650   6.801   5.434
 8792SOL     OW27274   3.291   5.151   3.139
 8792SOL    HW127275   3.259   5.245   3.152
 8792SOL    HW227276   3.381   5.140   3.183
 8793SOL     OW27277   0.766   4.522   2.572
 8793SOL    HW127278   0.792   4.523   2.668
 8793SOL    HW227279   0.812   4.447   2.525
 8794SOL     OW27280   5.465   0.366   2.620
 8794SOL    HW127281   5.438   0.384   2.714
 8794SOL    HW227282   5.484   0.268   2.609
 8795SOL     OW27283   0.928   4.746   5.346
 8795SOL    HW127284   0.901   4.813   5.415
 8795SOL    HW227285   0.967   4.666   5.392
 8796SOL     OW27286   5.124   2.137   3.521
 8796SOL    HW127287   5.158   2.050   3.485
 8796SOL    HW227288   5.091   2.123   3.614
 8797SOL     OW27289   0.049   0.414   6.209
 8797SOL    HW127290   7.011   0.401   6.129
 8797SOL    HW227291   0.132   0.462   6.181
 8798SOL     OW27292   4.797   6.399   6.695
 8798SOL    HW127293   4.752   6.482   6.725
 8798SOL    HW227294   4.825   6.408   6.599
 8799SOL     OW27295   2.381   5.106   3.731
 8799SOL    HW127296   2.314   5.172   3.695
 8799SOL    HW227297   2.467   5.154   3.749
 8800SOL     OW27298   5.775   4.784   6.103
 8800SOL    HW127299   5.720   4.781   6.019
 8800SOL    HW227300   5.856   4.726   6.092
 8801SOL     OW27301   6.872   1.501   4.562
 8801SOL    HW127302   6.876   1.421   4.623
 8801SOL    HW227303   6.781   1.541   4.566
 8802SOL     OW27304   1.788   6.073   6.298
 8802SOL    HW127305   1.720   6.121   6.354
 8802SOL    HW227306   1.741   6.012   6.234
 8803SOL     OW27307   6.755   6.989   0.134
 8803SOL    HW127308   6.680   6.947   0.082
 8803SOL    HW227309   6.830   6.924   0.144
 8804SOL     OW27310   2.067   6.374   1.253
 8804SOL    HW127311   1.971   6.403   1.264
 8804SOL    HW227312   2.098   6.331   1.338
 8805SOL     OW27313   3.718   6.325   3.264
 8805SOL    HW127314   3.784   6.360   3.330
 8805SOL    HW227315   3.748   6.236   3.231
 8806SOL     OW27316   3.004   4.714   0.862
 8806SOL    HW127317   3.059   4.640   0.900
 8806SOL    HW227318   2.911   4.709   0.899
 8807SOL     OW27319   4.899   1.645   0.649
 8807SOL    HW127320   4.821   1.584   0.657
 8807SOL    HW227321   4.889   1.722   0.712
 8808SOL     OW27322   6.585   2.503   6.349
 8808SOL    HW127323   6.604   2.405   6.346
 8808SOL    HW227324   6.521   2.527   6.276
 8809SOL     OW27325   3.217   4.961   4.171
 8809SOL    HW127326   3.255   5.051   4.191
 8809SOL    HW227327   3.147   4.938   4.238
 8810SOL     OW27328   6.185   0.153   5.205
 8810SOL    HW127329   6.140   0.219   5.265
 8810SOL    HW227330   6.121   0.124   5.133
 8811SOL     OW27331   3.643   1.139   3.135
 8811SOL    HW127332   3.661   1.041   3.130
 8811SOL    HW227333   3.720   1.190   3.096
 8812SOL     OW27334   2.044   0.546   0.610
 8812SOL    HW127335   2.015   0.455   0.582
 8812SOL    HW227336   1.988   0.615   0.563
 8813SOL     OW27337   2.130   5.877   3.695
 8813SOL    HW127338   2.167   5.942   3.761
 8813SOL    HW227339   2.166   5.898   3.604
 8814SOL     OW27340   6.401   6.959   0.302
 8814SOL    HW127341   6.413   6.914   0.390
 8814SOL    HW227342   6.384   0.036   0.316
 8815SOL     OW27343   5.127   6.952   1.642
 8815SOL    HW127344   5.182   6.938   1.724
 8815SOL    HW227345   5.178   7.008   1.577
 8816SOL     OW27346   0.906   6.879   7.001
 8816SOL    HW127347   0.872   6.963   0.022
 8816SOL    HW227348   1.003   6.867   0.003
 8817SOL     OW27349   6.871   4.071   3.911
 8817SOL    HW127350   6.907   4.087   4.003
 8817SOL    HW227351   6.807   4.143   3.887
 8818SOL     OW27352   0.956   5.731   3.921
 8818SOL    HW127353   1.047   5.771   3.920
 8818SOL    HW227354   0.924   5.718   3.828
 8819SOL     OW27355   5.469   5.313   5.363
 8819SOL    HW127356   5.454   5.240   5.296
 8819SOL    HW227357   5.517   5.276   5.442
 8820SOL     OW27358   2.473   0.856   5.686
 8820SOL    HW127359   2.412   0.892   5.757
 8820SOL    HW227360   2.492   0.928   5.619
 8821SOL     OW27361   1.993   5.744   0.754
 8821SOL    HW127362   1.905   5.706   0.782
 8821SOL    HW227363   1.982   5.795   0.669
 8822SOL     OW27364   1.012   0.876   3.727
 8822SOL    HW127365   1.066   0.960   3.729
 8822SOL    HW227366   1.004   0.844   3.633
 8823SOL     OW27367   2.719   0.858   2.368
 8823SOL    HW127368   2.769   0.868   2.282
 8823SOL    HW227369   2.639   0.919   2.368
 8824SOL     OW27370   1.464   1.129   0.219
 8824SOL    HW127371   1.410   1.195   0.167
 8824SOL    HW227372   1.440   1.135   0.316
 8825SOL     OW27373   1.500   0.993   2.104
 8825SOL    HW127374   1.524   1.031   2.193
 8825SOL    HW227375   1.481   1.068   2.040
 8826SOL     OW27376   1.039   3.776   0.523
 8826SOL    HW127377   1.043   3.866   0.566
 8826SOL    HW227378   1.119   3.762   0.466
 8827SOL     OW27379   4.316   0.083   3.117
 8827SOL    HW127380   4.350   0.177   3.120
 8827SOL    HW227381   4.250   0.075   3.042
 8828SOL     OW27382   3.783   5.082   6.454
 8828SOL    HW127383   3.848   5.055   6.525
 8828SOL    HW227384   3.693   5.046   6.477
 8829SOL     OW27385   5.562   1.917   1.053
 8829SOL    HW127386   5.473   1.874   1.067
 8829SOL    HW227387   5.631   1.847   1.036
 8830SOL     OW27388   2.219   1.851   2.290
 8830SOL    HW127389   2.258   1.942   2.297
 8830SOL    HW227390   2.286   1.788   2.250
 8831SOL     OW27391   5.247   2.613   3.428
 8831SOL    HW127392   5.223   2.524   3.467
 8831SOL    HW227393   5.163   2.663   3.406
 8832SOL     OW27394   6.777   6.456   3.527
 8832SOL    HW127395   6.828   6.526   3.577
 8832SOL    HW227396   6.722   6.498   3.456
 8833SOL     OW27397   2.784   4.781   6.673
 8833SOL    HW127398   2.728   4.848   6.625
 8833SOL    HW227399   2.724   4.717   6.722
 8834SOL     OW27400   5.816   3.554   4.417
 8834SOL    HW127401   5.755   3.561   4.495
 8834SOL    HW227402   5.768   3.586   4.335
 8835SOL     OW27403   5.154   0.896   5.835
 8835SOL    HW127404   5.210   0.978   5.852
 8835SOL    HW227405   5.073   0.922   5.784
 8836SOL     OW27406   5.235   1.987   0.802
 8836SOL    HW127407   5.274   2.074   0.832
 8836SOL    HW227408   5.196   1.939   0.880
 8837SOL     OW27409   0.054   6.891   2.760
 8837SOL    HW127410   0.061   6.805   2.708
 8837SOL    HW227411   6.979   6.917   2.767
 8838SOL     OW27412   2.108   4.644   3.532
 8838SOL    HW127413   2.023   4.604   3.565
 8838SOL    HW227414   2.174   4.649   3.606
 8839SOL     OW27415   4.360   5.966   1.733
 8839SOL    HW127416   4.428   6.036   1.708
 8839SOL    HW227417   4.408   5.882   1.759
 8840SOL     OW27418   6.548   0.715   2.389
 8840SOL    HW127419   6.477   0.760   2.444
 8840SOL    HW227420   6.600   0.652   2.446
 8841SOL     OW27421   0.072   1.605   4.793
 8841SOL    HW127422   0.068   1.548   4.711
 8841SOL    HW227423   0.145   1.573   4.853
 8842SOL     OW27424   3.180   3.095   3.341
 8842SOL    HW127425   3.145   3.074   3.432
 8842SOL    HW227426   3.246   3.024   3.314
 8843SOL     OW27427   2.020   3.202   4.286
 8843SOL    HW127428   1.937   3.255   4.272
 8843SOL    HW227429   2.072   3.241   4.362
 8844SOL     OW27430   6.929   1.805   4.820
 8844SOL    HW127431   6.989   1.728   4.838
 8844SOL    HW227432   6.921   1.820   4.722
 8845SOL     OW27433   2.576   3.822   1.332
 8845SOL    HW127434   2.562   3.757   1.407
 8845SOL    HW227435   2.675   3.836   1.319
 8846SOL     OW27436   3.722   5.020   4.624
 8846SOL    HW127437   3.657   4.945   4.632
 8846SOL    HW227438   3.712   5.082   4.702
 8847SOL     OW27439   2.611   1.040   2.704
 8847SOL    HW127440   2.705   1.006   2.709
 8847SOL    HW227441   2.583   1.046   2.608
 8848SOL     OW27442   2.813   2.235   2.275
 8848SOL    HW127443   2.725   2.279   2.259
 8848SOL    HW227444   2.867   2.238   2.191
 8849SOL     OW27445   3.735   5.751   3.591
 8849SOL    HW127446   3.818   5.806   3.583
 8849SOL    HW227447   3.736   5.679   3.522
 8850SOL     OW27448   2.040   1.052   6.556
 8850SOL    HW127449   1.973   0.978   6.547
 8850SOL    HW227450   2.097   1.034   6.636
 8851SOL     OW27451   0.881   4.795   2.316
 8851SOL    HW127452   0.929   4.708   2.303
 8851SOL    HW227453   0.887   4.823   2.412
 8852SOL     OW27454   4.279   4.005   5.770
 8852SOL    HW127455   4.200   4.029   5.713
 8852SOL    HW227456   4.363   4.028   5.722
 8853SOL     OW27457   3.710   0.787   6.409
 8853SOL    HW127458   3.730   0.691   6.430
 8853SOL    HW227459   3.635   0.819   6.466
 8854SOL     OW27460   3.094   1.713   6.216
 8854SOL    HW127461   3.134   1.802   6.239
 8854SOL    HW227462   3.156   1.663   6.157
 8855SOL     OW27463   0.005   6.208   0.174
 8855SOL    HW127464   0.010   6.109   0.160
 8855SOL    HW227465   0.006   6.228   0.272
 8856SOL     OW27466   5.995   0.758   6.308
 8856SOL    HW127467   6.094   0.750   6.314
 8856SOL    HW227468   5.959   0.791   6.395
 8857SOL     OW27469   6.666   2.218   4.007
 8857SOL    HW127470   6.753   2.216   3.957
 8857SOL    HW227471   6.672   2.158   4.086
 8858SOL     OW27472   1.269   2.652   5.150
 8858SOL    HW127473   1.280   2.728   5.086
 8858SOL    HW227474   1.359   2.624   5.183
 8859SOL     OW27475   6.419   0.770   4.281
 8859SOL    HW127476   6.343   0.747   4.342
 8859SOL    HW227477   6.423   0.704   4.206
 8860SOL     OW27478   0.940   3.416   2.828
 8860SOL    HW127479   0.940   3.477   2.750
 8860SOL    HW227480   0.923   3.322   2.797
 8861SOL     OW27481   3.891   1.650   6.245
 8861SOL    HW127482   3.970   1.592   6.225
 8861SOL    HW227483   3.807   1.595   6.242
 8862SOL     OW27484   6.127   0.343   3.262
 8862SOL    HW127485   6.069   0.296   3.196
 8862SOL    HW227486   6.071   0.399   3.323
 8863SOL     OW27487   1.518   5.663   4.146
 8863SOL    HW127488   1.435   5.686   4.196
 8863SOL    HW227489   1.509   5.693   4.051
 8864SOL     OW27490   3.017   3.045   6.165
 8864SOL    HW127491   3.113   3.032   6.189
 8864SOL    HW227492   3.010   3.075   6.070
 8865SOL     OW27493   3.058   1.775   5.887
 8865SOL    HW127494   3.100   1.724   5.812
 8865SOL    HW227495   2.974   1.729   5.916
 8866SOL     OW27496   5.519   6.956   3.396
 8866SOL    HW127497   5.588   6.976   3.327
 8866SOL    HW227498   5.539   6.869   3.441
 8867SOL     OW27499   5.240   3.713   2.148
 8867SOL    HW127500   5.294   3.772   2.088
 8867SOL    HW227501   5.143   3.729   2.131
 8868SOL     OW27502   6.500   2.884   0.262
 8868SOL    HW127503   6.518   2.843   0.352
 8868SOL    HW227504   6.513   2.983   0.268
 8869SOL     OW27505   4.087   6.177   4.450
 8869SOL    HW127506   4.086   6.204   4.354
 8869SOL    HW227507   4.180   6.183   4.486
 8870SOL     OW27508   4.501   0.201   0.121
 8870SOL    HW127509   4.426   0.161   0.174
 8870SOL    HW227510   4.502   0.163   0.029
 8871SOL     OW27511   1.341   0.122   3.901
 8871SOL    HW127512   1.351   0.196   3.968
 8871SOL    HW227513   1.385   0.149   3.815
 8872SOL     OW27514   1.512   4.987   5.092
 8872SOL    HW127515   1.559   4.913   5.140
 8872SOL    HW227516   1.504   4.965   4.995
 8873SOL     OW27517   0.634   5.650   2.370
 8873SOL    HW127518   0.646   5.585   2.295
 8873SOL    HW227519   0.615   5.741   2.332
 8874SOL     OW27520   3.333   6.166   1.613
 8874SOL    HW127521   3.415   6.222   1.611
 8874SOL    HW227522   3.329   6.109   1.531
 8875SOL     OW27523   5.996   3.656   4.743
 8875SOL    HW127524   5.965   3.735   4.690
 8875SOL    HW227525   6.091   3.635   4.718
 8876SOL     OW27526   1.744   0.216   4.622
 8876SOL    HW127527   1.704   0.256   4.540
 8876SOL    HW227528   1.788   0.129   4.598
 8877SOL     OW27529   3.093   0.836   3.949
 8877SOL    HW127530   2.994   0.819   3.956
 8877SOL    HW227531   3.108   0.920   3.897
 8878SOL     OW27532   6.937   5.235   0.014
 8878SOL    HW127533   7.014   5.252   0.075
 8878SOL    HW227534   6.930   5.310   6.969
 8879SOL     OW27535   4.976   4.346   1.779
 8879SOL    HW127536   4.976   4.251   1.749
 8879SOL    HW227537   4.886   4.370   1.815
 8880SOL     OW27538   6.098   5.581   4.582
 8880SOL    HW127539   6.077   5.673   4.615
 8880SOL    HW227540   6.029   5.517   4.617
 8881SOL     OW27541   6.746   7.000   4.431
 8881SOL    HW127542   6.741   0.037   4.512
 8881SOL    HW227543   6.820   6.933   4.443
 8882SOL     OW27544   5.460   1.230   0.801
 8882SOL    HW127545   5.543   1.252   0.750
 8882SOL    HW227546   5.463   1.275   0.890
 8883SOL     OW27547   2.221   6.620   5.749
 8883SOL    HW127548   2.259   6.711   5.732
 8883SOL    HW227549   2.205   6.573   5.663
 8884SOL     OW27550   5.918   4.323   6.710
 8884SOL    HW127551   5.849   4.375   6.659
 8884SOL    HW227552   5.874   4.249   6.760
 8885SOL     OW27553   0.430   3.318   0.683
 8885SOL    HW127554   0.449   3.255   0.608
 8885SOL    HW227555   0.465   3.280   0.769
 8886SOL     OW27556   3.289   6.198   5.032
 8886SOL    HW127557   3.225   6.275   5.036
 8886SOL    HW227558   3.332   6.185   5.121
 8887SOL     OW27559   3.310   1.709   1.438
 8887SOL    HW127560   3.299   1.610   1.435
 8887SOL    HW227561   3.220   1.753   1.436
 8888SOL     OW27562   1.374   1.536   6.926
 8888SOL    HW127563   1.473   1.538   6.937
 8888SOL    HW227564   1.351   1.540   6.828
 8889SOL     OW27565   6.021   0.316   5.344
 8889SOL    HW127566   6.041   0.393   5.404
 8889SOL    HW227567   5.944   0.264   5.381
 8890SOL     OW27568   6.800   5.433   4.173
 8890SOL    HW127569   6.773   5.509   4.114
 8890SOL    HW227570   6.900   5.427   4.177
 8891SOL     OW27571   5.213   3.219   5.795
 8891SOL    HW127572   5.286   3.285   5.817
 8891SOL    HW227573   5.203   3.155   5.871
 8892SOL     OW27574   3.962   5.755   3.308
 8892SOL    HW127575   3.878   5.702   3.299
 8892SOL    HW227576   3.974   5.783   3.403
 8893SOL     OW27577   1.117   6.342   3.659
 8893SOL    HW127578   1.111   6.326   3.560
 8893SOL    HW227579   1.115   6.255   3.708
 8894SOL     OW27580   4.632   2.674   5.884
 8894SOL    HW127581   4.628   2.744   5.955
 8894SOL    HW227582   4.719   2.683   5.834
 8895SOL     OW27583   6.790   2.024   2.167
 8895SOL    HW127584   6.858   2.064   2.229
 8895SOL    HW227585   6.817   1.931   2.143
 8896SOL     OW27586   1.877   3.404   5.538
 8896SOL    HW127587   1.966   3.370   5.570
 8896SOL    HW227588   1.810   3.331   5.542
 8897SOL     OW27589   2.071   3.127   3.259
 8897SOL    HW127590   2.099   3.086   3.346
 8897SOL    HW227591   1.994   3.076   3.221
 8898SOL     OW27592   5.365   3.715   3.261
 8898SOL    HW127593   5.371   3.795   3.321
 8898SOL    HW227594   5.377   3.743   3.166
 8899SOL     OW27595   2.108   4.967   0.958
 8899SOL    HW127596   2.131   4.870   0.948
 8899SOL    HW227597   2.189   5.022   0.939
 8900SOL     OW27598   6.161   3.109   2.185
 8900SOL    HW127599   6.133   3.197   2.225
 8900SOL    HW227600   6.161   3.039   2.256
 8901SOL     OW27601   1.746   1.174   4.433
 8901SOL    HW127602   1.711   1.268   4.439
 8901SOL    HW227603   1.770   1.141   4.524
 8902SOL     OW27604   2.311   6.948   0.995
 8902SOL    HW127605   2.407   6.953   1.024
 8902SOL    HW227606   2.307   6.922   0.898
 8903SOL     OW27607   1.009   1.175   4.552
 8903SOL    HW127608   1.019   1.077   4.566
 8903SOL    HW227609   0.932   1.209   4.605
 8904SOL     OW27610   5.703   6.130   3.767
 8904SOL    HW127611   5.639   6.083   3.706
 8904SOL    HW227612   5.657   6.209   3.808
 8905SOL     OW27613   1.829   4.586   3.665
 8905SOL    HW127614   1.848   4.515   3.733
 8905SOL    HW227615   1.804   4.671   3.712
 8906SOL     OW27616   0.099   6.553   6.828
 8906SOL    HW127617   0.082   6.480   6.763
 8906SOL    HW227618   0.127   6.514   6.916
 8907SOL     OW27619   2.958   2.227   4.560
 8907SOL    HW127620   2.966   2.255   4.465
 8907SOL    HW227621   2.877   2.171   4.572
 8908SOL     OW27622   0.891   3.654   6.801
 8908SOL    HW127623   0.846   3.734   6.760
 8908SOL    HW227624   0.833   3.574   6.788
 8909SOL     OW27625   2.153   1.031   5.246
 8909SOL    HW127626   2.226   0.963   5.260
 8909SOL    HW227627   2.077   1.011   5.308
 8910SOL     OW27628   0.294   2.840   5.785
 8910SOL    HW127629   0.282   2.934   5.819
 8910SOL    HW227630   0.334   2.784   5.856
 8911SOL     OW27631   4.398   2.382   4.854
 8911SOL    HW127632   4.447   2.296   4.864
 8911SOL    HW227633   4.307   2.374   4.894
 8912SOL     OW27634   3.964   3.000   0.478
 8912SOL    HW127635   3.946   3.036   0.387
 8912SOL    HW227636   3.981   2.901   0.472
 8913SOL     OW27637   4.789   5.306   6.052
 8913SOL    HW127638   4.763   5.245   6.127
 8913SOL    HW227639   4.764   5.400   6.075
 8914SOL     OW27640   3.724   6.946   4.272
 8914SOL    HW127641   3.716   0.023   4.259
 8914SOL    HW227642   3.785   6.927   4.348
 8915SOL     OW27643   0.481   2.732   3.963
 8915SOL    HW127644   0.508   2.686   3.878
 8915SOL    HW227645   0.504   2.829   3.956
 8916SOL     OW27646   0.019   3.650   0.519
 8916SOL    HW127647   0.082   3.581   0.485
 8916SOL    HW227648   6.963   3.659   0.456
 8917SOL     OW27649   6.859   3.633   6.734
 8917SOL    HW127650   6.912   3.634   6.650
 8917SOL    HW227651   6.817   3.722   6.749
 8918SOL     OW27652   6.640   3.914   1.567
 8918SOL    HW127653   6.613   4.003   1.533
 8918SOL    HW227654   6.680   3.860   1.493
 8919SOL     OW27655   3.875   4.260   0.380
 8919SOL    HW127656   3.898   4.350   0.417
 8919SOL    HW227657   3.885   4.262   0.280
 8920SOL     OW27658   0.356   0.220   0.179
 8920SOL    HW127659   0.321   0.312   0.159
 8920SOL    HW227660   0.280   0.155   0.181
 8921SOL     OW27661   2.201   2.058   2.630
 8921SOL    HW127662   2.188   2.157   2.624
 8921SOL    HW227663   2.271   2.036   2.698
 8922SOL     OW27664   3.527   5.130   1.310
 8922SOL    HW127665   3.615   5.118   1.265
 8922SOL    HW227666   3.479   5.042   1.315
 8923SOL     OW27667   1.426   3.211   6.490
 8923SOL    HW127668   1.427   3.256   6.401
 8923SOL    HW227669   1.380   3.123   6.483
 8924SOL     OW27670   3.185   5.985   5.974
 8924SOL    HW127671   3.198   6.007   6.071
 8924SOL    HW227672   3.269   5.945   5.938
 8925SOL     OW27673   0.790   0.968   2.746
 8925SOL    HW127674   0.732   0.924   2.678
 8925SOL    HW227675   0.881   0.982   2.707
 8926SOL     OW27676   6.267   3.751   5.898
 8926SOL    HW127677   6.194   3.696   5.937
 8926SOL    HW227678   6.290   3.825   5.961
 8927SOL     OW27679   0.893   1.493   4.522
 8927SOL    HW127680   0.939   1.442   4.449
 8927SOL    HW227681   0.797   1.464   4.527
 8928SOL     OW27682   0.085   0.602   5.907
 8928SOL    HW127683   0.164   0.579   5.963
 8928SOL    HW227684   0.007   0.622   5.966
 8929SOL     OW27685   6.075   3.335   4.147
 8929SOL    HW127686   6.047   3.411   4.089
 8929SOL    HW227687   6.107   3.371   4.235
 8930SOL     OW27688   1.443   4.139   4.195
 8930SOL    HW127689   1.413   4.183   4.110
 8930SOL    HW227690   1.501   4.203   4.247
 8931SOL     OW27691   2.904   3.032   1.354
 8931SOL    HW127692   2.962   2.956   1.325
 8931SOL    HW227693   2.948   3.119   1.330
 8932SOL     OW27694   5.459   0.262   0.777
 8932SOL    HW127695   5.550   0.241   0.741
 8932SOL    HW227696   5.446   0.361   0.780
 8933SOL     OW27697   1.620   3.027   6.270
 8933SOL    HW127698   1.596   3.124   6.272
 8933SOL    HW227699   1.701   3.012   6.327
 8934SOL     OW27700   3.180   4.921   4.626
 8934SOL    HW127701   3.135   4.992   4.572
 8934SOL    HW227702   3.128   4.836   4.618
 8935SOL     OW27703   6.172   3.825   1.335
 8935SOL    HW127704   6.099   3.878   1.377
 8935SOL    HW227705   6.261   3.865   1.359
 8936SOL     OW27706   1.024   3.253   1.366
 8936SOL    HW127707   1.105   3.277   1.419
 8936SOL    HW227708   1.035   3.284   1.272
 8937SOL     OW27709   0.214   6.953   4.774
 8937SOL    HW127710   0.195   6.963   4.677
 8937SOL    HW227711   0.272   0.007   4.805
 8938SOL     OW27712   0.267   1.274   0.358
 8938SOL    HW127713   0.218   1.220   0.427
 8938SOL    HW227714   0.242   1.242   0.267
 8939SOL     OW27715   5.731   4.013   4.447
 8939SOL    HW127716   5.631   4.004   4.446
 8939SOL    HW227717   5.766   3.991   4.356
 8940SOL     OW27718   5.470   1.099   1.467
 8940SOL    HW127719   5.492   1.113   1.564
 8940SOL    HW227720   5.479   1.185   1.418
 8941SOL     OW27721   6.479   2.618   3.308
 8941SOL    HW127722   6.419   2.552   3.353
 8941SOL    HW227723   6.558   2.636   3.367
 8942SOL     OW27724   0.679   5.278   5.780
 8942SOL    HW127725   0.633   5.242   5.698
 8942SOL    HW227726   0.649   5.372   5.797
 8943SOL     OW27727   3.649   5.471   0.224
 8943SOL    HW127728   3.643   5.510   0.132
 8943SOL    HW227729   3.608   5.534   0.290
 8944SOL     OW27730   5.157   5.877   4.373
 8944SOL    HW127731   5.073   5.861   4.425
 8944SOL    HW227732   5.231   5.822   4.410
 8945SOL     OW27733   0.288   1.707   4.134
 8945SOL    HW127734   0.385   1.732   4.132
 8945SOL    HW227735   0.242   1.746   4.055
 8946SOL     OW27736   4.043   0.632   4.259
 8946SOL    HW127737   4.138   0.622   4.231
 8946SOL    HW227738   4.038   0.688   4.342
 8947SOL     OW27739   2.247   3.130   5.880
 8947SOL    HW127740   2.199   3.184   5.810
 8947SOL    HW227741   2.205   3.039   5.885
 8948SOL     OW27742   5.867   5.908   3.440
 8948SOL    HW127743   5.954   5.952   3.459
 8948SOL    HW227744   5.799   5.976   3.414
 8949SOL     OW27745   4.033   6.203   0.767
 8949SOL    HW127746   3.939   6.233   0.777
 8949SOL    HW227747   4.045   6.158   0.679
 8950SOL     OW27748   3.632   2.925   0.643
 8950SOL    HW127749   3.580   2.840   0.654
 8950SOL    HW227750   3.683   2.921   0.557
 8951SOL     OW27751   2.124   1.304   4.660
 8951SOL    HW127752   2.091   1.255   4.740
 8951SOL    HW227753   2.061   1.379   4.638
 8952SOL     OW27754   0.680   5.271   3.647
 8952SOL    HW127755   0.695   5.347   3.712
 8952SOL    HW227756   0.589   5.233   3.661
 8953SOL     OW27757   0.594   4.245   0.780
 8953SOL    HW127758   0.692   4.244   0.800
 8953SOL    HW227759   0.568   4.338   0.752
 8954SOL     OW27760   6.824   0.342   4.462
 8954SOL    HW127761   6.811   0.258   4.514
 8954SOL    HW227762   6.764   0.414   4.500
 8955SOL     OW27763   6.511   5.027   3.394
 8955SOL    HW127764   6.597   5.079   3.383
 8955SOL    HW227765   6.449   5.049   3.318
 8956SOL     OW27766   1.881   1.168   5.666
 8956SOL    HW127767   1.915   1.262   5.672
 8956SOL    HW227768   1.927   1.112   5.734
 8957SOL     OW27769   2.283   4.403   1.247
 8957SOL    HW127770   2.278   4.503   1.239
 8957SOL    HW227771   2.192   4.366   1.265
 8958SOL     OW27772   0.982   2.594   5.693
 8958SOL    HW127773   1.059   2.627   5.747
 8958SOL    HW227774   1.010   2.511   5.644
 8959SOL     OW27775   1.944   4.110   3.218
 8959SOL    HW127776   1.857   4.094   3.265
 8959SOL    HW227777   2.002   4.168   3.274
 8960SOL     OW27778   5.450   5.651   4.321
 8960SOL    HW127779   5.532   5.610   4.283
 8960SOL    HW227780   5.371   5.625   4.266
 8961SOL     OW27781   3.679   1.374   3.527
 8961SOL    HW127782   3.731   1.290   3.543
 8961SOL    HW227783   3.741   1.452   3.525
 8962SOL     OW27784   6.511   5.349   2.350
 8962SOL    HW127785   6.565   5.266   2.334
 8962SOL    HW227786   6.421   5.339   2.308
 8963SOL     OW27787   3.957   6.875   4.906
 8963SOL    HW127788   3.916   6.785   4.918
 8963SOL    HW227789   3.980   6.914   4.995
 8964SOL     OW27790   6.001   2.847   2.992
 8964SOL    HW127791   5.953   2.852   3.079
 8964SOL    HW227792   6.068   2.772   2.995
 8965SOL     OW27793   2.677   5.588   0.100
 8965SOL    HW127794   2.662   5.561   0.195
 8965SOL    HW227795   2.596   5.636   0.066
 8966SOL     OW27796   6.426   4.238   0.254
 8966SOL    HW127797   6.510   4.227   0.202
 8966SOL    HW227798   6.399   4.335   0.253
 8967SOL     OW27799   3.777   0.626   1.884
 8967SOL    HW127800   3.735   0.716   1.892
 8967SOL    HW227801   3.833   0.621   1.801
 8968SOL     OW27802   4.489   5.788   2.546
 8968SOL    HW127803   4.477   5.692   2.570
 8968SOL    HW227804   4.430   5.844   2.603
 8969SOL     OW27805   0.316   0.297   4.024
 8969SOL    HW127806   0.324   0.198   4.040
 8969SOL    HW227807   0.378   0.324   3.950
 8970SOL     OW27808   2.204   2.645   6.558
 8970SOL    HW127809   2.224   2.715   6.490
 8970SOL    HW227810   2.209   2.684   6.650
 8971SOL     OW27811   5.467   5.349   0.891
 8971SOL    HW127812   5.449   5.421   0.825
 8971SOL    HW227813   5.557   5.363   0.933
 8972SOL     OW27814   4.331   3.840   0.920
 8972SOL    HW127815   4.328   3.803   0.827
 8972SOL    HW227816   4.401   3.791   0.973
 8973SOL     OW27817   6.424   3.513   3.213
 8973SOL    HW127818   6.376   3.599   3.227
 8973SOL    HW227819   6.505   3.511   3.272
 8974SOL     OW27820   1.433   3.101   3.933
 8974SOL    HW127821   1.422   3.129   3.837
 8974SOL    HW227822   1.476   3.175   3.984
 8975SOL     OW27823   0.808   6.488   6.819
 8975SOL    HW127824   0.757   6.403   6.808
 8975SOL    HW227825   0.746   6.566   6.810
 8976SOL     OW27826   6.720   5.321   0.388
 8976SOL    HW127827   6.703   5.226   0.414
 8976SOL    HW227828   6.651   5.380   0.429
 8977SOL     OW27829   6.418   3.397   6.730
 8977SOL    HW127830   6.352   3.462   6.694
 8977SOL    HW227831   6.505   3.407   6.681
 8978SOL     OW27832   5.649   6.856   4.451
 8978SOL    HW127833   5.706   6.934   4.476
 8978SOL    HW227834   5.708   6.777   4.433
 8979SOL     OW27835   1.071   4.872   6.147
 8979SOL    HW127836   1.043   4.967   6.133
 8979SOL    HW227837   0.993   4.819   6.182
 8980SOL     OW27838   4.876   2.685   5.637
 8980SOL    HW127839   4.838   2.722   5.552
 8980SOL    HW227840   4.841   2.592   5.652
 8981SOL     OW27841   4.613   1.860   5.361
 8981SOL    HW127842   4.532   1.889   5.309
 8981SOL    HW227843   4.616   1.908   5.448
 8982SOL     OW27844   0.833   1.592   1.529
 8982SOL    HW127845   0.842   1.496   1.503
 8982SOL    HW227846   0.798   1.598   1.622
 8983SOL     OW27847   0.483   5.768   0.366
 8983SOL    HW127848   0.517   5.734   0.279
 8983SOL    HW227849   0.524   5.715   0.441
 8984SOL     OW27850   6.006   5.983   3.820
 8984SOL    HW127851   5.915   5.947   3.799
 8984SOL    HW227852   6.004   6.083   3.814
 8985SOL     OW27853   2.117   1.603   0.607
 8985SOL    HW127854   2.147   1.604   0.512
 8985SOL    HW227855   2.143   1.689   0.651
 8986SOL     OW27856   4.109   5.226   2.538
 8986SOL    HW127857   4.109   5.326   2.540
 8986SOL    HW227858   4.016   5.192   2.546
 8987SOL     OW27859   3.239   0.466   1.118
 8987SOL    HW127860   3.295   0.440   1.196
 8987SOL    HW227861   3.299   0.502   1.045
 8988SOL     OW27862   1.697   4.550   0.752
 8988SOL    HW127863   1.695   4.650   0.753
 8988SOL    HW227864   1.737   4.518   0.667
 8989SOL     OW27865   4.815   4.135   1.997
 8989SOL    HW127866   4.724   4.175   2.001
 8989SOL    HW227867   4.830   4.092   1.908
 8990SOL     OW27868   2.212   5.674   1.743
 8990SOL    HW127869   2.258   5.728   1.672
 8990SOL    HW227870   2.230   5.715   1.832
 8991SOL     OW27871   2.276   1.221   0.590
 8991SOL    HW127872   2.373   1.245   0.597
 8991SOL    HW227873   2.267   1.121   0.587
 8992SOL     OW27874   6.822   2.598   6.456
 8992SOL    HW127875   6.733   2.551   6.452
 8992SOL    HW227876   6.821   2.664   6.531
 8993SOL     OW27877   4.732   2.669   2.761
 8993SOL    HW127878   4.658   2.614   2.722
 8993SOL    HW227879   4.756   2.742   2.697
 8994SOL     OW27880   0.747   6.014   4.548
 8994SOL    HW127881   0.771   6.011   4.645
 8994SOL    HW227882   0.802   5.948   4.498
 8995SOL     OW27883   1.249   2.669   5.742
 8995SOL    HW127884   1.305   2.640   5.821
 8995SOL    HW227885   1.287   2.629   5.659
 8996SOL     OW27886   0.098   4.621   2.230
 8996SOL    HW127887   0.176   4.603   2.290
 8996SOL    HW227888   0.065   4.536   2.191
 8997SOL     OW27889   4.368   1.535   6.269
 8997SOL    HW127890   4.463   1.506   6.266
 8997SOL    HW227891   4.362   1.626   6.310
 8998SOL     OW27892   0.514   3.071   4.210
 8998SOL    HW127893   0.421   3.046   4.239
 8998SOL    HW227894   0.543   3.152   4.260
 8999SOL     OW27895   4.688   0.175   6.825
 8999SOL    HW127896   4.729   0.150   6.737
 8999SOL    HW227897   4.742   0.247   6.868
 9000SOL     OW27898   2.407   4.084   6.381
 9000SOL    HW127899   2.432   4.064   6.475
 9000SOL    HW227900   2.487   4.118   6.331
 9001SOL     OW27901   1.092   5.344   3.009
 9001SOL    HW127902   1.084   5.424   2.949
 9001SOL    HW227903   1.068   5.262   2.957
 9002SOL     OW27904   0.144   4.988   5.192
 9002SOL    HW127905   0.204   4.913   5.168
 9002SOL    HW227906   0.078   5.004   5.119
 9003SOL     OW27907   5.511   2.542   0.959
 9003SOL    HW127908   5.412   2.551   0.945
 9003SOL    HW227909   5.530   2.533   1.056
 9004SOL     OW27910   4.493   6.986   1.744
 9004SOL    HW127911   4.410   6.952   1.700
 9004SOL    HW227912   4.469   0.003   1.834
 9005SOL     OW27913   5.959   1.601   4.322
 9005SOL    HW127914   5.937   1.573   4.415
 9005SOL    HW227915   5.933   1.529   4.258
 9006SOL     OW27916   1.979   5.801   0.478
 9006SOL    HW127917   1.907   5.741   0.444
 9006SOL    HW227918   2.068   5.765   0.451
 9007SOL     OW27919   3.874   6.119   3.852
 9007SOL    HW127920   3.888   6.181   3.774
 9007SOL    HW227921   3.779   6.128   3.884
 9008SOL     OW27922   6.400   5.178   2.793
 9008SOL    HW127923   6.493   5.157   2.762
 9008SOL    HW227924   6.394   5.164   2.892
 9009SOL     OW27925   2.278   0.147   0.638
 9009SOL    HW127926   2.343   0.131   0.563
 9009SOL    HW227927   2.194   0.096   0.621
 9010SOL     OW27928   1.168   0.088   4.691
 9010SOL    HW127929   1.233   0.144   4.639
 9010SOL    HW227930   1.135   0.014   4.633
 9011SOL     OW27931   4.160   1.910   2.151
 9011SOL    HW127932   4.160   1.907   2.251
 9011SOL    HW227933   4.067   1.898   2.117
 9012SOL     OW27934   3.174   4.477   0.918
 9012SOL    HW127935   3.206   4.494   1.011
 9012SOL    HW227936   3.110   4.399   0.919
 9013SOL     OW27937   6.566   6.377   4.422
 9013SOL    HW127938   6.517   6.315   4.483
 9013SOL    HW227939   6.506   6.403   4.346
 9014SOL     OW27940   0.873   0.878   0.494
 9014SOL    HW127941   0.971   0.874   0.512
 9014SOL    HW227942   0.854   0.834   0.406
 9015SOL     OW27943   6.335   1.268   0.680
 9015SOL    HW127944   6.280   1.350   0.664
 9015SOL    HW227945   6.327   1.206   0.602
 9016SOL     OW27946   0.375   6.346   6.652
 9016SOL    HW127947   0.376   6.436   6.608
 9016SOL    HW227948   0.328   6.281   6.592
 9017SOL     OW27949   5.163   2.674   2.276
 9017SOL    HW127950   5.089   2.612   2.298
 9017SOL    HW227951   5.137   2.767   2.302
 9018SOL     OW27952   4.294   1.270   5.142
 9018SOL    HW127953   4.208   1.252   5.095
 9018SOL    HW227954   4.369   1.223   5.094
 9019SOL     OW27955   0.314   0.309   0.977
 9019SOL    HW127956   0.346   0.231   1.031
 9019SOL    HW227957   0.392   0.360   0.942
 9020SOL     OW27958   1.259   3.737   1.541
 9020SOL    HW127959   1.203   3.774   1.466
 9020SOL    HW227960   1.344   3.790   1.548
 9021SOL     OW27961   6.473   0.550   3.691
 9021SOL    HW127962   6.405   0.478   3.675
 9021SOL    HW227963   6.563   0.515   3.667
 9022SOL     OW27964   2.842   1.067   1.343
 9022SOL    HW127965   2.915   1.063   1.411
 9022SOL    HW227966   2.786   0.984   1.349
 9023SOL     OW27967   3.213   3.026   2.747
 9023SOL    HW127968   3.186   3.027   2.843
 9023SOL    HW227969   3.149   3.081   2.694
 9024SOL     OW27970   0.571   5.530   5.796
 9024SOL    HW127971   0.560   5.563   5.702
 9024SOL    HW227972   0.584   5.608   5.857
 9025SOL     OW27973   0.386   5.922   0.908
 9025SOL    HW127974   0.356   5.875   0.825
 9025SOL    HW227975   0.307   5.957   0.957
 9026SOL     OW27976   3.618   3.285   2.270
 9026SOL    HW127977   3.676   3.290   2.351
 9026SOL    HW227978   3.526   3.254   2.297
 9027SOL     OW27979   1.925   1.920   3.035
 9027SOL    HW127980   1.982   1.923   2.953
 9027SOL    HW227981   1.837   1.964   3.016
 9028SOL     OW27982   2.697   3.070   6.488
 9028SOL    HW127983   2.670   3.078   6.585
 9028SOL    HW227984   2.615   3.075   6.431
 9029SOL     OW27985   3.265   5.830   5.265
 9029SOL    HW127986   3.276   5.827   5.165
 9029SOL    HW227987   3.203   5.756   5.293
 9030SOL     OW27988   1.999   0.802   3.187
 9030SOL    HW127989   2.061   0.875   3.218
 9030SOL    HW227990   1.946   0.836   3.109
 9031SOL     OW27991   4.769   5.689   5.171
 9031SOL    HW127992   4.784   5.644   5.259
 9031SOL    HW227993   4.684   5.741   5.174
 9032SOL     OW27994   3.376   3.029   0.678
 9032SOL    HW127995   3.471   3.000   0.692
 9032SOL    HW227996   3.355   3.104   0.741
 9033SOL     OW27997   2.279   4.271   3.551
 9033SOL    HW127998   2.337   4.347   3.579
 9033SOL    HW227999   2.327   4.215   3.484
 9034SOL     OW28000   3.396   0.518   4.531
 9034SOL    HW128001   3.385   0.513   4.631
 9034SOL    HW228002   3.358   0.605   4.498
 9035SOL     OW28003   1.497   6.279   5.686
 9035SOL    HW128004   1.507   6.273   5.785
 9035SOL    HW228005   1.559   6.214   5.642
 9036SOL     OW28006   1.645   0.734   4.955
 9036SOL    HW128007   1.620   0.816   5.008
 9036SOL    HW228008   1.627   0.652   5.010
 9037SOL     OW28009   1.658   4.249   5.541
 9037SOL    HW128010   1.580   4.190   5.561
 9037SOL    HW228011   1.718   4.254   5.620
 9038SOL     OW28012   4.182   0.593   5.330
 9038SOL    HW128013   4.107   0.656   5.350
 9038SOL    HW228014   4.255   0.606   5.397
 9039SOL     OW28015   2.089   4.564   4.604
 9039SOL    HW128016   2.158   4.493   4.613
 9039SOL    HW228017   2.119   4.646   4.653
 9040SOL     OW28018   3.003   1.704   2.931
 9040SOL    HW128019   3.060   1.725   2.852
 9040SOL    HW228020   3.042   1.746   3.013
 9041SOL     OW28021   0.793   2.648   2.107
 9041SOL    HW128022   0.817   2.554   2.130
 9041SOL    HW228023   0.693   2.660   2.114
 9042SOL     OW28024   3.217   6.904   3.913
 9042SOL    HW128025   3.150   6.966   3.954
 9042SOL    HW228026   3.233   6.827   3.974
 9043SOL     OW28027   2.333   1.478   6.020
 9043SOL    HW128028   2.380   1.490   6.108
 9043SOL    HW228029   2.359   1.390   5.981
 9044SOL     OW28030   6.237   1.466   1.844
 9044SOL    HW128031   6.263   1.469   1.748
 9044SOL    HW228032   6.153   1.520   1.858
 9045SOL     OW28033   3.448   1.701   2.741
 9045SOL    HW128034   3.418   1.626   2.801
 9045SOL    HW228035   3.548   1.700   2.734
 9046SOL     OW28036   3.234   3.511   4.167
 9046SOL    HW128037   3.169   3.565   4.221
 9046SOL    HW228038   3.307   3.477   4.226
 9047SOL     OW28039   1.540   3.375   5.231
 9047SOL    HW128040   1.636   3.345   5.228
 9047SOL    HW228041   1.531   3.448   5.299
 9048SOL     OW28042   5.774   2.452   6.344
 9048SOL    HW128043   5.838   2.478   6.271
 9048SOL    HW228044   5.697   2.403   6.304
 9049SOL     OW28045   3.838   0.240   6.731
 9049SOL    HW128046   3.853   0.220   6.634
 9049SOL    HW228047   3.846   0.156   6.784
 9050SOL     OW28048   0.273   4.832   5.751
 9050SOL    HW128049   0.191   4.778   5.771
 9050SOL    HW228050   0.348   4.770   5.727
 9051SOL     OW28051   4.495   5.882   0.890
 9051SOL    HW128052   4.587   5.909   0.863
 9051SOL    HW228053   4.469   5.798   0.843
 9052SOL     OW28054   2.125   2.721   3.183
 9052SOL    HW128055   2.142   2.787   3.256
 9052SOL    HW228056   2.036   2.740   3.141
 9053SOL     OW28057   1.967   1.535   3.035
 9053SOL    HW128058   1.956   1.574   3.126
 9053SOL    HW228059   2.047   1.475   3.034
 9054SOL     OW28060   1.548   6.893   2.129
 9054SOL    HW128061   1.576   6.958   2.200
 9054SOL    HW228062   1.500   6.816   2.172
 9055SOL     OW28063   6.490   3.895   3.525
 9055SOL    HW128064   6.465   3.798   3.520
 9055SOL    HW228065   6.588   3.903   3.542
 9056SOL     OW28066   6.178   0.017   1.394
 9056SOL    HW128067   6.172   6.944   1.361
 9056SOL    HW228068   6.155   0.019   1.491
 9057SOL     OW28069   6.237   5.074   6.176
 9057SOL    HW128070   6.157   5.016   6.196
 9057SOL    HW228071   6.238   5.096   6.079
 9058SOL     OW28072   1.788   1.799   3.439
 9058SOL    HW128073   1.730   1.879   3.424
 9058SOL    HW228074   1.845   1.814   3.520
 9059SOL     OW28075   0.980   1.310   4.320
 9059SOL    HW128076   0.910   1.247   4.288
 9059SOL    HW228077   1.033   1.267   4.393
 9060SOL     OW28078   0.390   2.919   2.119
 9060SOL    HW128079   0.311   2.892   2.063
 9060SOL    HW228080   0.384   3.016   2.141
 9061SOL     OW28081   3.390   5.702   2.183
 9061SOL    HW128082   3.462   5.675   2.119
 9061SOL    HW228083   3.368   5.625   2.243
 9062SOL     OW28084   1.861   5.479   2.171
 9062SOL    HW128085   1.900   5.390   2.195
 9062SOL    HW228086   1.788   5.501   2.235
 9063SOL     OW28087   2.071   6.640   2.604
 9063SOL    HW128088   2.124   6.687   2.534
 9063SOL    HW228089   2.121   6.642   2.691
 9064SOL     OW28090   5.678   3.611   4.619
 9064SOL    HW128091   5.610   3.598   4.691
 9064SOL    HW228092   5.696   3.709   4.608
 9065SOL     OW28093   3.404   5.956   6.688
 9065SOL    HW128094   3.351   6.006   6.757
 9065SOL    HW228095   3.390   5.858   6.701
 9066SOL     OW28096   5.742   0.615   0.234
 9066SOL    HW128097   5.747   0.712   0.255
 9066SOL    HW228098   5.828   0.570   0.259
 9067SOL     OW28099   6.437   0.014   4.702
 9067SOL    HW128100   6.410   7.014   4.796
 9067SOL    HW228101   6.360   0.058   4.655
 9068SOL     OW28102   2.800   0.945   5.412
 9068SOL    HW128103   2.825   0.912   5.321
 9068SOL    HW228104   2.769   0.868   5.469
 9069SOL     OW28105   2.894   2.447   1.623
 9069SOL    HW128106   2.914   2.446   1.721
 9069SOL    HW228107   2.865   2.539   1.595
 9070SOL     OW28108   1.139   3.837   5.441
 9070SOL    HW128109   1.046   3.810   5.416
 9070SOL    HW228110   1.172   3.778   5.514
 9071SOL     OW28111   5.010   6.775   0.606
 9071SOL    HW128112   5.098   6.753   0.564
 9071SOL    HW228113   4.942   6.708   0.577
 9072SOL     OW28114   6.234   1.205   1.806
 9072SOL    HW128115   6.312   1.254   1.769
 9072SOL    HW228116   6.215   1.237   1.898
 9073SOL     OW28117   3.451   6.291   0.643
 9073SOL    HW128118   3.485   6.360   0.707
 9073SOL    HW228119   3.469   6.319   0.549
 9074SOL     OW28120   2.066   0.692   2.104
 9074SOL    HW128121   2.071   0.734   2.014
 9074SOL    HW228122   2.117   0.748   2.169
 9075SOL     OW28123   0.748   0.652   1.660
 9075SOL    HW128124   0.708   0.712   1.590
 9075SOL    HW228125   0.676   0.593   1.698
 9076SOL     OW28126   5.803   1.434   5.057
 9076SOL    HW128127   5.715   1.417   5.013
 9076SOL    HW228128   5.860   1.489   4.996
 9077SOL     OW28129   6.005   0.891   6.915
 9077SOL    HW128130   5.953   0.816   6.873
 9077SOL    HW228131   6.096   0.896   6.874
 9078SOL     OW28132   4.663   3.896   0.038
 9078SOL    HW128133   4.757   3.895   0.072
 9078SOL    HW228134   4.602   3.854   0.106
 9079SOL     OW28135   2.264   6.307   4.402
 9079SOL    HW128136   2.292   6.402   4.419
 9079SOL    HW228137   2.186   6.285   4.462
 9080SOL     OW28138   5.874   2.446   0.572
 9080SOL    HW128139   5.913   2.372   0.518
 9080SOL    HW228140   5.804   2.410   0.634
 9081SOL     OW28141   3.868   6.802   2.687
 9081SOL    HW128142   3.817   6.887   2.698
 9081SOL    HW228143   3.804   6.725   2.680
 9082SOL     OW28144   2.654   6.685   5.532
 9082SOL    HW128145   2.592   6.757   5.562
 9082SOL    HW228146   2.733   6.725   5.486
 9083SOL     OW28147   4.105   4.382   6.016
 9083SOL    HW128148   4.178   4.317   5.992
 9083SOL    HW228149   4.016   4.342   5.992
 9084SOL     OW28150   3.144   3.369   6.117
 9084SOL    HW128151   3.133   3.467   6.098
 9084SOL    HW228152   3.118   3.317   6.036
 9085SOL     OW28153   1.190   4.759   0.631
 9085SOL    HW128154   1.099   4.720   0.645
 9085SOL    HW228155   1.259   4.688   0.642
 9086SOL     OW28156   0.168   4.741   0.729
 9086SOL    HW128157   0.081   4.733   0.681
 9086SOL    HW228158   0.224   4.812   0.686
 9087SOL     OW28159   4.783   2.555   1.978
 9087SOL    HW128160   4.814   2.648   1.996
 9087SOL    HW228161   4.687   2.546   2.006
 9088SOL     OW28162   6.322   5.853   0.894
 9088SOL    HW128163   6.333   5.900   0.806
 9088SOL    HW228164   6.385   5.776   0.899
 9089SOL     OW28165   5.204   6.088   4.676
 9089SOL    HW128166   5.113   6.067   4.641
 9089SOL    HW228167   5.240   6.008   4.725
 9090SOL     OW28168   6.519   6.110   3.698
 9090SOL    HW128169   6.589   6.106   3.769
 9090SOL    HW228170   6.433   6.074   3.733
 9091SOL     OW28171   2.653   3.695   1.055
 9091SOL    HW128172   2.722   3.752   1.099
 9091SOL    HW228173   2.698   3.632   0.991
 9092SOL     OW28174   7.007   1.773   0.752
 9092SOL    HW128175   6.934   1.823   0.800
 9092SOL    HW228176   0.024   1.831   0.681
 9093SOL     OW28177   1.535   6.242   5.942
 9093SOL    HW128178   1.463   6.267   6.007
 9093SOL    HW228179   1.623   6.277   5.975
 9094SOL     OW28180   6.012   5.147   2.565
 9094SOL    HW128181   6.020   5.219   2.634
 9094SOL    HW228182   5.967   5.067   2.606
 9095SOL     OW28183   4.650   4.065   6.388
 9095SOL    HW128184   4.678   4.049   6.483
 9095SOL    HW228185   4.729   4.097   6.335
 9096SOL     OW28186   5.923   4.084   1.975
 9096SOL    HW128187   5.886   4.175   1.957
 9096SOL    HW228188   5.885   4.019   1.909
 9097SOL     OW28189   1.122   2.125   6.561
 9097SOL    HW128190   1.060   2.134   6.640
 9097SOL    HW228191   1.129   2.029   6.536
 9098SOL     OW28192   3.246   2.610   6.701
 9098SOL    HW128193   3.246   2.535   6.635
 9098SOL    HW228194   3.330   2.607   6.755
 9099SOL     OW28195   2.663   3.067   6.760
 9099SOL    HW128196   2.595   3.099   6.826
 9099SOL    HW228197   2.661   2.967   6.756
 9100SOL     OW28198   0.743   3.907   4.190
 9100SOL    HW128199   0.806   3.842   4.234
 9100SOL    HW228200   0.667   3.857   4.150
 9101SOL     OW28201   2.516   2.046   3.087
 9101SOL    HW128202   2.466   1.996   3.017
 9101SOL    HW228203   2.599   1.996   3.111
 9102SOL     OW28204   2.899   0.168   1.810
 9102SOL    HW128205   2.834   0.143   1.739
 9102SOL    HW228206   2.851   0.212   1.886
 9103SOL     OW28207   5.977   3.220   6.526
 9103SOL    HW128208   5.954   3.315   6.503
 9103SOL    HW228209   6.051   3.189   6.467
 9104SOL     OW28210   6.320   6.413   2.049
 9104SOL    HW128211   6.394   6.348   2.065
 9104SOL    HW228212   6.327   6.448   1.955
 9105SOL     OW28213   1.626   1.657   6.977
 9105SOL    HW128214   1.673   1.686   6.894
 9105SOL    HW228215   1.635   1.728   0.026
 9106SOL     OW28216   6.971   3.901   6.952
 9106SOL    HW128217   0.023   3.953   6.908
 9106SOL    HW228218   6.884   3.919   6.905
 9107SOL     OW28219   3.360   1.202   6.240
 9107SOL    HW128220   3.268   1.161   6.234
 9107SOL    HW228221   3.428   1.129   6.236
 9108SOL     OW28222   4.483   3.743   5.313
 9108SOL    HW128223   4.506   3.837   5.338
 9108SOL    HW228224   4.555   3.705   5.256
 9109SOL     OW28225   0.559   2.816   2.623
 9109SOL    HW128226   0.624   2.868   2.679
 9109SOL    HW228227   0.598   2.802   2.532
 9110SOL     OW28228   2.123   3.562   3.680
 9110SOL    HW128229   2.088   3.564   3.587
 9110SOL    HW228230   2.123   3.655   3.717
 9111SOL     OW28231   4.621   1.761   0.954
 9111SOL    HW128232   4.549   1.692   0.940
 9111SOL    HW228233   4.588   1.850   0.924
 9112SOL     OW28234   0.202   4.870   3.906
 9112SOL    HW128235   0.269   4.817   3.958
 9112SOL    HW228236   0.113   4.824   3.909
 9113SOL     OW28237   5.019   1.293   2.681
 9113SOL    HW128238   5.055   1.269   2.771
 9113SOL    HW228239   5.010   1.211   2.625
 9114SOL     OW28240   0.668   4.588   2.055
 9114SOL    HW128241   0.614   4.630   2.128
 9114SOL    HW228242   0.608   4.535   1.995
 9115SOL     OW28243   0.116   5.280   4.844
 9115SOL    HW128244   0.098   5.236   4.932
 9115SOL    HW228245   0.123   5.379   4.857
 9116SOL     OW28246   6.813   0.906   1.881
 9116SOL    HW128247   6.726   0.948   1.855
 9116SOL    HW228248   6.814   0.890   1.979
 9117SOL     OW28249   5.746   2.755   0.440
 9117SOL    HW128250   5.713   2.828   0.499
 9117SOL    HW228251   5.842   2.738   0.458
 9118SOL     OW28252   6.510   3.989   0.370
 9118SOL    HW128253   6.468   4.071   0.332
 9118SOL    HW228254   6.439   3.929   0.408
 9119SOL     OW28255   4.431   0.430   2.322
 9119SOL    HW128256   4.483   0.496   2.268
 9119SOL    HW228257   4.475   0.418   2.411
 9120SOL     OW28258   6.495   1.811   5.813
 9120SOL    HW128259   6.442   1.870   5.753
 9120SOL    HW228260   6.442   1.788   5.895
 9121SOL     OW28261   3.917   0.813   4.881
 9121SOL    HW128262   3.839   0.786   4.825
 9121SOL    HW228263   3.924   0.913   4.882
 9122SOL     OW28264   2.089   4.233   2.242
 9122SOL    HW128265   2.146   4.156   2.216
 9122SOL    HW228266   2.090   4.302   2.169
 9123SOL     OW28267   2.927   0.864   3.636
 9123SOL    HW128268   2.917   0.807   3.718
 9123SOL    HW228269   3.024   0.883   3.622
 9124SOL     OW28270   5.415   6.113   0.297
 9124SOL    HW128271   5.511   6.088   0.293
 9124SOL    HW228272   5.383   6.108   0.392
 9125SOL     OW28273   4.804   3.745   0.832
 9125SOL    HW128274   4.903   3.732   0.823
 9125SOL    HW228275   4.756   3.677   0.777
 9126SOL     OW28276   6.294   3.644   1.195
 9126SOL    HW128277   6.263   3.665   1.103
 9126SOL    HW228278   6.264   3.716   1.258
 9127SOL     OW28279   6.931   1.971   6.127
 9127SOL    HW128280   7.016   1.987   6.076
 9127SOL    HW228281   6.884   2.059   6.140
 9128SOL     OW28282   5.839   1.636   5.426
 9128SOL    HW128283   5.759   1.696   5.412
 9128SOL    HW228284   5.874   1.608   5.337
 9129SOL     OW28285   0.162   2.295   0.277
 9129SOL    HW128286   0.218   2.308   0.195
 9129SOL    HW228287   0.221   2.264   0.352
 9130SOL     OW28288   0.392   3.204   6.065
 9130SOL    HW128289   0.318   3.170   6.007
 9130SOL    HW228290   0.412   3.300   6.042
 9131SOL     OW28291   6.149   3.054   5.232
 9131SOL    HW128292   6.187   3.010   5.151
 9131SOL    HW228293   6.204   3.030   5.312
 9132SOL     OW28294   0.578   6.204   4.482
 9132SOL    HW128295   0.541   6.189   4.390
 9132SOL    HW228296   0.647   6.134   4.501
 9133SOL     OW28297   3.667   6.418   1.585
 9133SOL    HW128298   3.583   6.429   1.639
 9133SOL    HW228299   3.656   6.464   1.498
 9134SOL     OW28300   4.336   5.618   1.191
 9134SOL    HW128301   4.293   5.528   1.181
 9134SOL    HW228302   4.417   5.622   1.133
 9135SOL     OW28303   6.702   6.723   1.748
 9135SOL    HW128304   6.687   6.649   1.814
 9135SOL    HW228305   6.784   6.705   1.694
 9136SOL     OW28306   5.055   6.567   6.899
 9136SOL    HW128307   4.990   6.642   6.917
 9136SOL    HW228308   5.055   6.546   6.801
 9137SOL     OW28309   5.462   0.916   0.475
 9137SOL    HW128310   5.442   0.867   0.390
 9137SOL    HW228311   5.435   1.012   0.466
 9138SOL     OW28312   6.893   5.878   6.638
 9138SOL    HW128313   6.943   5.949   6.688
 9138SOL    HW228314   6.803   5.913   6.612
 9139SOL     OW28315   2.212   1.543   3.244
 9139SOL    HW128316   2.264   1.601   3.181
 9139SOL    HW228317   2.120   1.582   3.256
 9140SOL     OW28318   6.891   3.328   2.755
 9140SOL    HW128319   6.791   3.333   2.756
 9140SOL    HW228320   6.929   3.414   2.721
 9141SOL     OW28321   4.995   0.771   0.907
 9141SOL    HW128322   5.087   0.796   0.876
 9141SOL    HW228323   4.999   0.745   1.004
 9142SOL     OW28324   0.693   2.892   1.022
 9142SOL    HW128325   0.710   2.952   0.944
 9142SOL    HW228326   0.599   2.856   1.016
 9143SOL     OW28327   6.521   3.333   0.103
 9143SOL    HW128328   6.447   3.268   0.089
 9143SOL    HW228329   6.483   3.422   0.129
 9144SOL     OW28330   2.347   4.887   4.639
 9144SOL    HW128331   2.371   4.852   4.729
 9144SOL    HW228332   2.421   4.943   4.604
 9145SOL     OW28333   0.502   5.828   6.681
 9145SOL    HW128334   0.524   5.832   6.583
 9145SOL    HW228335   0.586   5.828   6.734
 9146SOL     OW28336   5.533   3.240   3.805
 9146SOL    HW128337   5.459   3.261   3.741
 9146SOL    HW228338   5.527   3.301   3.884
 9147SOL     OW28339   5.868   6.800   5.608
 9147SOL    HW128340   5.863   6.775   5.511
 9147SOL    HW228341   5.962   6.825   5.631
 9148SOL     OW28342   5.745   6.144   1.464
 9148SOL    HW128343   5.836   6.102   1.476
 9148SOL    HW228344   5.752   6.220   1.400
 9149SOL     OW28345   5.398   4.175   2.548
 9149SOL    HW128346   5.359   4.088   2.518
 9149SOL    HW228347   5.498   4.171   2.543
 9150SOL     OW28348   3.764   5.286   1.229
 9150SOL    HW128349   3.694   5.333   1.283
 9150SOL    HW228350   3.747   5.301   1.131
 9151SOL     OW28351   2.360   4.791   3.296
 9151SOL    HW128352   2.390   4.871   3.348
 9151SOL    HW228353   2.334   4.718   3.360
 9152SOL     OW28354   2.258   4.301   5.014
 9152SOL    HW128355   2.275   4.202   5.012
 9152SOL    HW228356   2.286   4.337   5.103
 9153SOL     OW28357   6.991   2.808   7.002
 9153SOL    HW128358   6.934   2.891   6.996
 9153SOL    HW228359   0.013   2.806   0.071
 9154SOL     OW28360   5.314   4.819   6.355
 9154SOL    HW128361   5.276   4.728   6.374
 9154SOL    HW228362   5.321   4.832   6.256
 9155SOL     OW28363   1.614   3.995   2.286
 9155SOL    HW128364   1.665   4.077   2.260
 9155SOL    HW228365   1.679   3.921   2.306
 9156SOL     OW28366   0.995   2.253   0.260
 9156SOL    HW128367   0.941   2.170   0.272
 9156SOL    HW228368   0.955   2.327   0.314
 9157SOL     OW28369   1.923   3.769   6.633
 9157SOL    HW128370   1.982   3.693   6.608
 9157SOL    HW228371   1.932   3.788   6.730
 9158SOL     OW28372   5.958   3.528   4.010
 9158SOL    HW128373   5.889   3.479   4.062
 9158SOL    HW228374   5.917   3.609   3.968
 9159SOL     OW28375   1.487   1.136   2.346
 9159SOL    HW128376   1.482   1.074   2.424
 9159SOL    HW228377   1.529   1.222   2.375
 9160SOL     OW28378   7.003   6.813   6.140
 9160SOL    HW128379   6.991   6.909   6.116
 9160SOL    HW228380   0.079   6.790   6.140
 9161SOL     OW28381   5.378   5.256   4.211
 9161SOL    HW128382   5.399   5.174   4.158
 9161SOL    HW228383   5.339   5.326   4.151
 9162SOL     OW28384   4.264   1.010   3.512
 9162SOL    HW128385   4.343   1.015   3.450
 9162SOL    HW228386   4.278   0.936   3.578
 9163SOL     OW28387   0.613   2.523   4.602
 9163SOL    HW128388   0.651   2.615   4.587
 9163SOL    HW228389   0.645   2.489   4.691
 9164SOL     OW28390   2.514   0.532   0.196
 9164SOL    HW128391   2.461   0.496   0.273
 9164SOL    HW228392   2.562   0.457   0.151
 9165SOL     OW28393   6.355   1.255   5.495
 9165SOL    HW128394   6.317   1.347   5.488
 9165SOL    HW228395   6.381   1.222   5.404
 9166SOL     OW28396   4.307   5.876   1.100
 9166SOL    HW128397   4.291   5.788   1.143
 9166SOL    HW228398   4.365   5.864   1.019
 9167SOL     OW28399   2.080   1.829   6.130
 9167SOL    HW128400   2.017   1.888   6.080
 9167SOL    HW228401   2.155   1.883   6.167
 9168SOL     OW28402   6.496   5.985   5.959
 9168SOL    HW128403   6.439   5.903   5.962
 9168SOL    HW228404   6.546   5.988   5.873
 9169SOL     OW28405   6.715   0.208   6.207
 9169SOL    HW128406   6.672   0.189   6.295
 9169SOL    HW228407   6.735   0.122   6.160
 9170SOL     OW28408   1.775   0.217   7.016
 9170SOL    HW128409   1.847   0.283   0.016
 9170SOL    HW228410   1.715   0.207   0.074
 9171SOL     OW28411   3.744   5.886   0.375
 9171SOL    HW128412   3.833   5.893   0.330
 9171SOL    HW228413   3.724   5.790   0.395
 9172SOL     OW28414   4.979   1.322   3.100
 9172SOL    HW128415   5.062   1.376   3.085
 9172SOL    HW228416   4.986   1.274   3.188
 9173SOL     OW28417   5.786   4.385   5.973
 9173SOL    HW128418   5.706   4.444   5.979
 9173SOL    HW228419   5.866   4.440   5.950
 9174SOL     OW28420   6.746   4.471   0.551
 9174SOL    HW128421   6.822   4.455   0.615
 9174SOL    HW228422   6.663   4.491   0.603
 9175SOL     OW28423   1.610   6.210   6.440
 9175SOL    HW128424   1.514   6.210   6.414
 9175SOL    HW228425   1.637   6.303   6.465
 9176SOL     OW28426   2.331   1.428   2.754
 9176SOL    HW128427   2.359   1.348   2.701
 9176SOL    HW228428   2.240   1.411   2.793
 9177SOL     OW28429   0.881   4.624   3.737
 9177SOL    HW128430   0.796   4.669   3.762
 9177SOL    HW228431   0.922   4.670   3.658
 9178SOL     OW28432   2.090   5.339   0.789
 9178SOL    HW128433   2.034   5.327   0.707
 9178SOL    HW228434   2.044   5.296   0.867
 9179SOL     OW28435   2.203   5.301   4.040
 9179SOL    HW128436   2.207   5.232   3.968
 9179SOL    HW228437   2.244   5.265   4.123
 9180SOL     OW28438   6.567   2.281   3.253
 9180SOL    HW128439   6.568   2.296   3.154
 9180SOL    HW228440   6.507   2.348   3.296
 9181SOL     OW28441   5.849   2.135   4.331
 9181SOL    HW128442   5.890   2.131   4.423
 9181SOL    HW228443   5.827   2.229   4.309
 9182SOL     OW28444   3.037   0.120   3.300
 9182SOL    HW128445   3.070   0.195   3.357
 9182SOL    HW228446   3.115   0.070   3.262
 9183SOL     OW28447   4.793   4.431   0.094
 9183SOL    HW128448   4.761   4.340   0.124
 9183SOL    HW228449   4.885   4.447   0.131
 9184SOL     OW28450   4.507   2.379   1.435
 9184SOL    HW128451   4.426   2.383   1.376
 9184SOL    HW228452   4.589   2.375   1.378
 9185SOL     OW28453   6.108   6.439   5.181
 9185SOL    HW128454   6.030   6.484   5.137
 9185SOL    HW228455   6.176   6.416   5.112
 9186SOL     OW28456   5.846   0.020   4.527
 9186SOL    HW128457   5.824   0.074   4.445
 9186SOL    HW228458   5.818   0.070   4.608
 9187SOL     OW28459   3.342   2.105   0.272
 9187SOL    HW128460   3.293   2.098   0.185
 9187SOL    HW228461   3.385   2.017   0.293
 9188SOL     OW28462   2.321   0.373   1.826
 9188SOL    HW128463   2.391   0.347   1.760
 9188SOL    HW228464   2.304   0.471   1.819
 9189SOL     OW28465   3.147   5.820   2.115
 9189SOL    HW128466   3.230   5.770   2.140
 9189SOL    HW228467   3.074   5.755   2.093
 9190SOL     OW28468   1.326   3.305   5.602
 9190SOL    HW128469   1.356   3.400   5.613
 9190SOL    HW228470   1.344   3.275   5.509
 9191SOL     OW28471   5.579   0.957   0.078
 9191SOL    HW128472   5.628   0.897   0.141
 9191SOL    HW228473   5.645   1.006   0.020
 9192SOL     OW28474   0.112   2.341   6.273
 9192SOL    HW128475   0.062   2.369   6.355
 9192SOL    HW228476   0.186   2.279   6.299
 9193SOL     OW28477   3.892   3.677   4.960
 9193SOL    HW128478   3.974   3.724   4.927
 9193SOL    HW228479   3.864   3.609   4.893
 9194SOL     OW28480   3.343   0.858   2.517
 9194SOL    HW128481   3.298   0.770   2.534
 9194SOL    HW228482   3.439   0.852   2.545
 9195SOL     OW28483   1.328   3.399   2.950
 9195SOL    HW128484   1.357   3.409   3.045
 9195SOL    HW228485   1.302   3.304   2.932
 9196SOL     OW28486   5.657   6.465   3.569
 9196SOL    HW128487   5.607   6.405   3.506
 9196SOL    HW228488   5.738   6.417   3.603
 9197SOL     OW28489   3.064   4.974   0.865
 9197SOL    HW128490   2.979   5.014   0.830
 9197SOL    HW228491   3.057   4.875   0.868
 9198SOL     OW28492   6.438   4.436   6.249
 9198SOL    HW128493   6.498   4.357   6.250
 9198SOL    HW228494   6.463   4.497   6.173
 9199SOL     OW28495   6.679   2.879   5.622
 9199SOL    HW128496   6.718   2.820   5.552
 9199SOL    HW228497   6.622   2.948   5.580
 9200SOL     OW28498   2.942   5.772   5.619
 9200SOL    HW128499   2.875   5.844   5.636
 9200SOL    HW228500   2.981   5.783   5.528
 9201SOL     OW28501   6.695   3.387   6.914
 9201SOL    HW128502   6.615   3.359   6.967
 9201SOL    HW228503   6.743   3.460   6.963
 9202SOL     OW28504   0.886   5.969   3.734
 9202SOL    HW128505   0.939   6.053   3.743
 9202SOL    HW228506   0.806   5.972   3.794
 9203SOL     OW28507   6.322   3.371   5.940
 9203SOL    HW128508   6.266   3.408   5.866
 9203SOL    HW228509   6.363   3.284   5.910
 9204SOL     OW28510   4.995   3.634   4.303
 9204SOL    HW128511   4.970   3.730   4.295
 9204SOL    HW228512   5.025   3.614   4.396
 9205SOL     OW28513   4.892   5.775   3.217
 9205SOL    HW128514   4.961   5.705   3.234
 9205SOL    HW228515   4.870   5.821   3.303
 9206SOL     OW28516   3.448   6.232   3.103
 9206SOL    HW128517   3.505   6.185   3.171
 9206SOL    HW228518   3.507   6.277   3.035
 9207SOL     OW28519   4.512   4.143   0.358
 9207SOL    HW128520   4.455   4.214   0.317
 9207SOL    HW228521   4.597   4.184   0.392
 9208SOL     OW28522   5.457   4.482   2.465
 9208SOL    HW128523   5.485   4.536   2.545
 9208SOL    HW228524   5.469   4.537   2.383
 9209SOL     OW28525   4.575   1.203   0.577
 9209SOL    HW128526   4.562   1.129   0.644
 9209SOL    HW228527   4.515   1.187   0.499
 9210SOL     OW28528   1.226   1.776   0.965
 9210SOL    HW128529   1.261   1.869   0.957
 9210SOL    HW228530   1.266   1.732   1.045
 9211SOL     OW28531   5.966   2.568   6.151
 9211SOL    HW128532   5.979   2.520   6.064
 9211SOL    HW228533   6.041   2.632   6.165
 9212SOL     OW28534   5.310   4.464   4.105
 9212SOL    HW128535   5.233   4.435   4.048
 9212SOL    HW228536   5.394   4.461   4.051
 9213SOL     OW28537   4.878   5.101   4.571
 9213SOL    HW128538   4.787   5.113   4.610
 9213SOL    HW228539   4.895   5.171   4.502
 9214SOL     OW28540   6.846   2.788   5.061
 9214SOL    HW128541   6.872   2.782   5.157
 9214SOL    HW228542   6.817   2.881   5.040
 9215SOL     OW28543   1.408   4.348   2.112
 9215SOL    HW128544   1.404   4.349   2.212
 9215SOL    HW228545   1.423   4.254   2.080
 9216SOL     OW28546   2.319   6.952   3.126
 9216SOL    HW128547   2.384   6.902   3.069
 9216SOL    HW228548   2.364   0.012   3.165
 9217SOL     OW28549   6.143   3.454   6.819
 9217SOL    HW128550   6.159   3.517   6.894
 9217SOL    HW228551   6.098   3.371   6.854
 9218SOL     OW28552   3.673   0.969   6.917
 9218SOL    HW128553   3.638   1.063   6.914
 9218SOL    HW228554   3.729   0.952   6.836
 9219SOL     OW28555   4.920   3.892   6.321
 9219SOL    HW128556   4.844   3.832   6.298
 9219SOL    HW228557   4.967   3.856   6.402
 9220SOL     OW28558   1.317   6.119   1.832
 9220SOL    HW128559   1.244   6.073   1.780
 9220SOL    HW228560   1.276   6.184   1.896
 9221SOL     OW28561   1.760   0.381   3.390
 9221SOL    HW128562   1.830   0.452   3.399
 9221SOL    HW228563   1.694   0.390   3.465
 9222SOL     OW28564   2.520   5.456   5.620
 9222SOL    HW128565   2.537   5.393   5.545
 9222SOL    HW228566   2.450   5.417   5.681
 9223SOL     OW28567   1.539   2.212   4.288
 9223SOL    HW128568   1.494   2.297   4.316
 9223SOL    HW228569   1.482   2.134   4.313
 9224SOL     OW28570   0.706   5.317   3.959
 9224SOL    HW128571   0.779   5.267   4.007
 9224SOL    HW228572   0.746   5.397   3.913
 9225SOL     OW28573   2.897   5.980   5.930
 9225SOL    HW128574   2.995   5.966   5.944
 9225SOL    HW228575   2.872   6.073   5.958
 9226SOL     OW28576   0.445   6.887   1.347
 9226SOL    HW128577   0.524   6.872   1.407
 9226SOL    HW228578   0.407   6.978   1.366
 9227SOL     OW28579   2.196   5.637   0.930
 9227SOL    HW128580   2.148   5.630   1.018
 9227SOL    HW228581   2.132   5.618   0.856
 9228SOL     OW28582   2.440   1.406   6.739
 9228SOL    HW128583   2.374   1.397   6.665
 9228SOL    HW228584   2.416   1.344   6.813
 9229SOL     OW28585   0.513   5.095   5.326
 9229SOL    HW128586   0.488   5.023   5.390
 9229SOL    HW228587   0.609   5.086   5.301
 9230SOL     OW28588   5.072   3.279   3.609
 9230SOL    HW128589   5.047   3.285   3.512
 9230SOL    HW228590   5.168   3.305   3.620
 9231SOL     OW28591   1.506   3.651   5.317
 9231SOL    HW128592   1.586   3.690   5.272
 9231SOL    HW228593   1.424   3.700   5.288
 9232SOL     OW28594   3.218   5.285   6.347
 9232SOL    HW128595   3.166   5.304   6.431
 9232SOL    HW228596   3.315   5.273   6.370
 9233SOL     OW28597   6.013   6.008   1.270
 9233SOL    HW128598   5.968   6.001   1.360
 9233SOL    HW228599   6.060   6.096   1.264
 9234SOL     OW28600   3.367   5.843   0.447
 9234SOL    HW128601   3.273   5.809   0.448
 9234SOL    HW228602   3.377   5.917   0.513
 9235SOL     OW28603   2.037   2.491   3.481
 9235SOL    HW128604   2.013   2.400   3.516
 9235SOL    HW228605   2.083   2.481   3.392
 9236SOL     OW28606   2.303   4.315   6.790
 9236SOL    HW128607   2.329   4.264   6.872
 9236SOL    HW228608   2.226   4.268   6.745
 9237SOL     OW28609   0.762   5.704   2.876
 9237SOL    HW128610   0.685   5.744   2.927
 9237SOL    HW228611   0.848   5.737   2.915
 9238SOL     OW28612   2.075   2.909   6.125
 9238SOL    HW128613   2.007   2.840   6.151
 9238SOL    HW228614   2.083   2.911   6.025
 9239SOL     OW28615   0.467   3.464   5.970
 9239SOL    HW128616   0.394   3.533   5.967
 9239SOL    HW228617   0.544   3.495   5.913
 9240SOL     OW28618   5.427   2.656   2.246
 9240SOL    HW128619   5.453   2.560   2.235
 9240SOL    HW228620   5.331   2.661   2.274
 9241SOL     OW28621   0.324   4.737   6.780
 9241SOL    HW128622   0.417   4.707   6.802
 9241SOL    HW228623   0.301   4.817   6.835
 9242SOL     OW28624   1.054   4.258   0.512
 9242SOL    HW128625   1.134   4.285   0.459
 9242SOL    HW228626   1.078   4.183   0.573
 9243SOL     OW28627   0.484   0.133   1.363
 9243SOL    HW128628   0.569   0.184   1.379
 9243SOL    HW228629   0.474   0.114   1.266
 9244SOL     OW28630   3.565   5.447   5.954
 9244SOL    HW128631   3.564   5.532   6.005
 9244SOL    HW228632   3.510   5.458   5.870
 9245SOL     OW28633   1.028   5.936   4.188
 9245SOL    HW128634   0.984   5.848   4.207
 9245SOL    HW228635   0.972   5.988   4.124
 9246SOL     OW28636   6.343   0.015   2.836
 9246SOL    HW128637   6.407   0.067   2.779
 9246SOL    HW228638   6.308   6.959   2.783
 9247SOL     OW28639   2.586   5.912   3.366
 9247SOL    HW128640   2.640   5.950   3.441
 9247SOL    HW228641   2.559   5.985   3.303
 9248SOL     OW28642   3.323   2.045   4.138
 9248SOL    HW128643   3.297   1.950   4.127
 9248SOL    HW228644   3.271   2.102   4.074
 9249SOL     OW28645   3.737   5.054   1.617
 9249SOL    HW128646   3.689   4.967   1.624
 9249SOL    HW228647   3.800   5.051   1.539
 9250SOL     OW28648   5.763   2.417   4.219
 9250SOL    HW128649   5.731   2.512   4.215
 9250SOL    HW228650   5.828   2.401   4.144
 9251SOL     OW28651   3.669   1.877   2.965
 9251SOL    HW128652   3.581   1.923   2.949
 9251SOL    HW228653   3.742   1.930   2.923
 9252SOL     OW28654   5.085   0.868   4.415
 9252SOL    HW128655   5.167   0.915   4.449
 9252SOL    HW228656   5.008   0.889   4.476
 9253SOL     OW28657   5.333   5.534   5.323
 9253SOL    HW128658   5.385   5.454   5.352
 9253SOL    HW228659   5.254   5.505   5.270
 9254SOL     OW28660   5.638   5.151   3.354
 9254SOL    HW128661   5.560   5.212   3.365
 9254SOL    HW228662   5.711   5.177   3.418
 9255SOL     OW28663   4.332   4.052   0.646
 9255SOL    HW128664   4.326   3.953   0.640
 9255SOL    HW228665   4.386   4.088   0.569
 9256SOL     OW28666   3.277   6.996   3.169
 9256SOL    HW128667   3.310   6.952   3.086
 9256SOL    HW228668   3.324   0.062   3.181
 9257SOL     OW28669   0.000   4.576   3.525
 9257SOL    HW128670   0.079   4.522   3.495
 9257SOL    HW228671   6.998   4.550   3.619
 9258SOL     OW28672   3.659   4.022   2.772
 9258SOL    HW128673   3.736   4.025   2.708
 9258SOL    HW228674   3.601   3.944   2.750
 9259SOL     OW28675   0.507   1.747   0.489
 9259SOL    HW128676   0.532   1.833   0.533
 9259SOL    HW228677   0.429   1.706   0.535
 9260SOL     OW28678   6.272   1.489   5.375
 9260SOL    HW128679   6.353   1.518   5.325
 9260SOL    HW228680   6.269   1.536   5.464
 9261SOL     OW28681   3.040   1.386   0.635
 9261SOL    HW128682   3.048   1.466   0.694
 9261SOL    HW228683   3.058   1.411   0.540
 9262SOL     OW28684   6.869   4.867   4.894
 9262SOL    HW128685   6.787   4.824   4.858
 9262SOL    HW228686   6.848   4.912   4.981
 9263SOL     OW28687   4.829   0.666   1.964
 9263SOL    HW128688   4.830   0.575   1.923
 9263SOL    HW228689   4.898   0.723   1.920
 9264SOL     OW28690   5.286   4.450   0.731
 9264SOL    HW128691   5.265   4.363   0.775
 9264SOL    HW228692   5.304   4.520   0.800
 9265SOL     OW28693   4.322   2.345   6.986
 9265SOL    HW128694   4.291   2.411   0.032
 9265SOL    HW228695   4.284   2.369   6.896
 9266SOL     OW28696   0.988   6.286   0.507
 9266SOL    HW128697   1.014   6.236   0.590
 9266SOL    HW228698   0.890   6.274   0.490
 9267SOL     OW28699   0.407   2.288   4.568
 9267SOL    HW128700   0.434   2.219   4.501
 9267SOL    HW228701   0.480   2.356   4.578
 9268SOL     OW28702   0.952   5.602   2.682
 9268SOL    HW128703   0.880   5.636   2.743
 9268SOL    HW228704   0.948   5.650   2.595
 9269SOL     OW28705   4.123   0.999   6.302
 9269SOL    HW128706   4.072   1.055   6.367
 9269SOL    HW228707   4.216   0.983   6.337
 9270SOL     OW28708   4.234   6.301   6.122
 9270SOL    HW128709   4.197   6.213   6.094
 9270SOL    HW228710   4.177   6.340   6.194
 9271SOL     OW28711   6.347   0.463   1.247
 9271SOL    HW128712   6.357   0.366   1.225
 9271SOL    HW228713   6.279   0.504   1.186
 9272SOL     OW28714   0.692   5.720   5.357
 9272SOL    HW128715   0.692   5.698   5.260
 9272SOL    HW228716   0.782   5.700   5.396
 9273SOL     OW28717   6.233   6.568   2.553
 9273SOL    HW128718   6.305   6.509   2.589
 9273SOL    HW228719   6.263   6.610   2.467
 9274SOL     OW28720   6.552   1.277   0.317
 9274SOL    HW128721   6.620   1.218   0.360
 9274SOL    HW228722   6.474   1.221   0.287
 9275SOL     OW28723   6.311   1.093   0.461
 9275SOL    HW128724   6.291   0.999   0.432
 9275SOL    HW228725   6.236   1.152   0.434
 9276SOL     OW28726   1.528   3.888   1.567
 9276SOL    HW128727   1.563   3.888   1.474
 9276SOL    HW228728   1.599   3.858   1.630
 9277SOL     OW28729   4.433   4.463   0.514
 9277SOL    HW128730   4.455   4.545   0.567
 9277SOL    HW228731   4.354   4.417   0.555
 9278SOL     OW28732   2.065   0.398   6.087
 9278SOL    HW128733   2.149   0.370   6.134
 9278SOL    HW228734   1.998   0.429   6.155
 9279SOL     OW28735   3.412   0.628   2.094
 9279SOL    HW128736   3.382   0.594   2.005
 9279SOL    HW228737   3.378   0.567   2.166
 9280SOL     OW28738   2.347   1.936   2.875
 9280SOL    HW128739   2.318   1.847   2.839
 9280SOL    HW228740   2.289   1.960   2.954
 9281SOL     OW28741   2.274   3.720   6.655
 9281SOL    HW128742   2.369   3.747   6.672
 9281SOL    HW228743   2.265   3.685   6.562
 9282SOL     OW28744   5.966   0.512   3.444
 9282SOL    HW128745   5.916   0.596   3.424
 9282SOL    HW228746   6.051   0.534   3.491
 9283SOL     OW28747   5.277   0.576   3.953
 9283SOL    HW128748   5.283   0.673   3.931
 9283SOL    HW228749   5.257   0.565   4.051
 9284SOL     OW28750   2.863   3.309   5.858
 9284SOL    HW128751   2.797   3.337   5.788
 9284SOL    HW228752   2.821   3.319   5.948
 9285SOL     OW28753   5.075   2.953   1.409
 9285SOL    HW128754   5.008   3.023   1.386
 9285SOL    HW228755   5.030   2.864   1.416
 9286SOL     OW28756   5.698   5.523   0.915
 9286SOL    HW128757   5.692   5.616   0.879
 9286SOL    HW228758   5.785   5.511   0.962
 9287SOL     OW28759   3.141   5.116   0.146
 9287SOL    HW128760   3.182   5.199   0.185
 9287SOL    HW228761   3.056   5.141   0.099
 9288SOL     OW28762   4.302   1.483   2.974
 9288SOL    HW128763   4.385   1.440   2.938
 9288SOL    HW228764   4.300   1.475   3.073
 9289SOL     OW28765   3.926   0.631   1.628
 9289SOL    HW128766   3.873   0.564   1.576
 9289SOL    HW228767   4.016   0.641   1.586
 9290SOL     OW28768   5.637   0.903   2.989
 9290SOL    HW128769   5.614   0.962   3.067
 9290SOL    HW228770   5.553   0.879   2.940
 9291SOL     OW28771   1.087   5.507   5.240
 9291SOL    HW128772   1.158   5.449   5.280
 9291SOL    HW228773   1.003   5.499   5.293
 9292SOL     OW28774   2.138   3.268   6.661
 9292SOL    HW128775   2.124   3.208   6.583
 9292SOL    HW228776   2.051   3.281   6.709
 9293SOL     OW28777   5.836   2.980   6.300
 9293SOL    HW128778   5.927   2.997   6.339
 9293SOL    HW228779   5.817   2.882   6.302
 9294SOL     OW28780   4.433   6.663   6.191
 9294SOL    HW128781   4.511   6.640   6.133
 9294SOL    HW228782   4.463   6.669   6.287
 9295SOL     OW28783   6.337   1.014   4.961
 9295SOL    HW128784   6.331   1.104   4.917
 9295SOL    HW228785   6.328   0.943   4.891
 9296SOL     OW28786   1.431   5.687   6.494
 9296SOL    HW128787   1.461   5.659   6.403
 9296SOL    HW228788   1.332   5.676   6.501
 9297SOL     OW28789   0.890   6.646   3.151
 9297SOL    HW128790   0.827   6.593   3.093
 9297SOL    HW228791   0.909   6.595   3.235
 9298SOL     OW28792   0.793   6.374   6.478
 9298SOL    HW128793   0.733   6.348   6.554
 9298SOL    HW228794   0.810   6.473   6.482
 9299SOL     OW28795   0.640   2.399   4.858
 9299SOL    HW128796   0.542   2.385   4.849
 9299SOL    HW228797   0.683   2.313   4.887
 9300SOL     OW28798   0.309   4.220   5.940
 9300SOL    HW128799   0.362   4.198   6.022
 9300SOL    HW228800   0.303   4.139   5.882
 9301SOL     OW28801   5.318   5.295   4.923
 9301SOL    HW128802   5.288   5.223   4.860
 9301SOL    HW228803   5.378   5.358   4.874
 9302SOL     OW28804   2.011   2.429   3.862
 9302SOL    HW128805   1.946   2.353   3.860
 9302SOL    HW228806   1.961   2.515   3.846
 9303SOL     OW28807   2.830   3.914   1.136
 9303SOL    HW128808   2.922   3.875   1.146
 9303SOL    HW228809   2.819   3.988   1.203
 9304SOL     OW28810   3.859   4.578   1.535
 9304SOL    HW128811   3.844   4.545   1.442
 9304SOL    HW228812   3.813   4.518   1.600
 9305SOL     OW28813   3.414   1.266   0.607
 9305SOL    HW128814   3.375   1.204   0.675
 9305SOL    HW228815   3.343   1.293   0.541
 9306SOL     OW28816   0.710   4.398   5.424
 9306SOL    HW128817   0.661   4.480   5.394
 9306SOL    HW228818   0.676   4.370   5.513
 9307SOL     OW28819   0.918   3.884   1.089
 9307SOL    HW128820   0.888   3.805   1.143
 9307SOL    HW228821   0.898   3.968   1.140
 9308SOL     OW28822   1.626   3.530   0.670
 9308SOL    HW128823   1.526   3.528   0.665
 9308SOL    HW228824   1.657   3.624   0.670
 9309SOL     OW28825   3.581   5.167   5.892
 9309SOL    HW128826   3.594   5.102   5.967
 9309SOL    HW228827   3.555   5.256   5.929
 9310SOL     OW28828   5.669   5.852   5.469
 9310SOL    HW128829   5.680   5.758   5.439
 9310SOL    HW228830   5.754   5.902   5.455
 9311SOL     OW28831   4.617   4.465   1.582
 9311SOL    HW128832   4.533   4.413   1.571
 9311SOL    HW228833   4.671   4.427   1.656
 9312SOL     OW28834   1.119   3.848   1.335
 9312SOL    HW128835   1.157   3.835   1.244
 9312SOL    HW228836   1.029   3.805   1.339
 9313SOL     OW28837   6.951   0.176   1.351
 9313SOL    HW128838   6.930   0.263   1.307
 9313SOL    HW228839   0.027   0.174   1.377
 9314SOL     OW28840   6.190   4.531   7.017
 9314SOL    HW128841   6.276   4.483   7.004
 9314SOL    HW228842   6.206   4.614   0.050
 9315SOL     OW28843   6.877   6.868   5.790
 9315SOL    HW128844   6.859   6.770   5.786
 9315SOL    HW228845   6.880   6.906   5.698
 9316SOL     OW28846   5.422   6.494   5.984
 9316SOL    HW128847   5.432   6.410   6.038
 9316SOL    HW228848   5.443   6.473   5.888
 9317SOL     OW28849   5.103   5.729   3.952
 9317SOL    HW128850   5.175   5.796   3.972
 9317SOL    HW228851   5.017   5.759   3.994
 9318SOL     OW28852   6.167   1.334   6.250
 9318SOL    HW128853   6.217   1.278   6.183
 9318SOL    HW228854   6.100   1.276   6.298
 9319SOL     OW28855   2.310   2.784   6.782
 9319SOL    HW128856   2.350   2.778   6.873
 9319SOL    HW228857   2.380   2.767   6.713
 9320SOL     OW28858   3.676   0.599   4.904
 9320SOL    HW128859   3.637   0.691   4.908
 9320SOL    HW228860   3.715   0.583   4.814
 9321SOL     OW28861   0.815   0.124   4.939
 9321SOL    HW128862   0.803   0.194   4.869
 9321SOL    HW228863   0.912   0.118   4.964
 9322SOL     OW28864   6.718   3.556   5.912
 9322SOL    HW128865   6.769   3.578   5.995
 9322SOL    HW228866   6.620   3.562   5.931
 9323SOL     OW28867   1.282   1.106   5.637
 9323SOL    HW128868   1.320   1.182   5.690
 9323SOL    HW228869   1.321   1.108   5.545
 9324SOL     OW28870   1.223   4.801   2.021
 9324SOL    HW128871   1.309   4.826   2.065
 9324SOL    HW228872   1.231   4.710   1.981
 9325SOL     OW28873   6.149   1.269   0.020
 9325SOL    HW128874   6.176   1.238   6.950
 9325SOL    HW228875   6.088   1.348   0.011
 9326SOL     OW28876   2.649   4.865   0.216
 9326SOL    HW128877   2.668   4.792   0.282
 9326SOL    HW228878   2.550   4.871   0.200
 9327SOL     OW28879   4.683   0.405   2.464
 9327SOL    HW128880   4.780   0.408   2.440
 9327SOL    HW228881   4.663   0.476   2.532
 9328SOL     OW28882   2.478   1.051   4.513
 9328SOL    HW128883   2.555   1.100   4.553
 9328SOL    HW228884   2.511   0.970   4.464
 9329SOL     OW28885   5.727   3.779   1.074
 9329SOL    HW128886   5.667   3.699   1.074
 9329SOL    HW228887   5.822   3.749   1.081
 9330SOL     OW28888   6.627   0.197   5.585
 9330SOL    HW128889   6.666   0.205   5.493
 9330SOL    HW228890   6.689   0.238   5.652
 9331SOL     OW28891   2.551   0.859   6.644
 9331SOL    HW128892   2.620   0.847   6.573
 9331SOL    HW228893   2.462   0.829   6.609
 9332SOL     OW28894   4.112   4.591   0.422
 9332SOL    HW128895   4.121   4.509   0.480
 9332SOL    HW228896   4.040   4.575   0.354
 9333SOL     OW28897   3.521   4.794   6.787
 9333SOL    HW128898   3.436   4.780   6.838
 9333SOL    HW228899   3.549   4.708   6.743
 9334SOL     OW28900   5.079   6.411   4.340
 9334SOL    HW128901   5.150   6.461   4.390
 9334SOL    HW228902   5.014   6.476   4.301
 9335SOL     OW28903   1.550   1.140   6.716
 9335SOL    HW128904   1.458   1.172   6.694
 9335SOL    HW228905   1.616   1.215   6.703
 9336SOL     OW28906   3.863   0.042   5.291
 9336SOL    HW128907   3.846   0.105   5.216
 9336SOL    HW228908   3.917   6.986   5.259
 9337SOL     OW28909   3.938   0.628   5.102
 9337SOL    HW128910   3.937   0.684   5.185
 9337SOL    HW228911   3.942   0.688   5.022
 9338SOL     OW28912   6.176   6.773   1.097
 9338SOL    HW128913   6.082   6.743   1.114
 9338SOL    HW228914   6.228   6.770   1.182
 9339SOL     OW28915   5.748   6.724   0.390
 9339SOL    HW128916   5.702   6.730   0.301
 9339SOL    HW228917   5.844   6.748   0.379
 9340SOL     OW28918   3.920   4.864   3.818
 9340SOL    HW128919   3.981   4.804   3.870
 9340SOL    HW228920   3.948   4.959   3.829
 9341SOL     OW28921   6.311   5.023   1.111
 9341SOL    HW128922   6.354   5.110   1.083
 9341SOL    HW228923   6.219   5.018   1.074
 9342SOL     OW28924   3.269   6.709   4.105
 9342SOL    HW128925   3.214   6.650   4.164
 9342SOL    HW228926   3.355   6.731   4.150
 9343SOL     OW28927   5.025   3.967   1.720
 9343SOL    HW128928   5.000   3.988   1.625
 9343SOL    HW228929   4.943   3.942   1.771
 9344SOL     OW28930   5.633   6.152   1.712
 9344SOL    HW128931   5.693   6.124   1.637
 9344SOL    HW228932   5.656   6.099   1.794
 9345SOL     OW28933   6.932   5.101   1.317
 9345SOL    HW128934   6.884   5.052   1.244
 9345SOL    HW228935   6.975   5.036   1.379
 9346SOL     OW28936   5.083   0.981   1.901
 9346SOL    HW128937   5.120   1.067   1.936
 9346SOL    HW228938   4.984   0.987   1.896
 9347SOL     OW28939   3.639   4.280   0.495
 9347SOL    HW128940   3.722   4.256   0.445
 9347SOL    HW228941   3.663   4.344   0.568
 9348SOL     OW28942   2.607   6.276   2.124
 9348SOL    HW128943   2.550   6.245   2.201
 9348SOL    HW228944   2.674   6.205   2.102
 9349SOL     OW28945   5.853   5.014   1.906
 9349SOL    HW128946   5.939   4.965   1.889
 9349SOL    HW228947   5.872   5.112   1.909
 9350SOL     OW28948   6.744   2.451   5.578
 9350SOL    HW128949   6.724   2.369   5.524
 9350SOL    HW228950   6.843   2.468   5.578
 9351SOL     OW28951   3.121   0.388   6.130
 9351SOL    HW128952   3.059   0.343   6.065
 9351SOL    HW228953   3.206   0.412   6.084
 9352SOL     OW28954   3.156   1.429   6.400
 9352SOL    HW128955   3.253   1.450   6.410
 9352SOL    HW228956   3.137   1.340   6.441
 9353SOL     OW28957   0.173   4.464   0.714
 9353SOL    HW128958   0.261   4.428   0.684
 9353SOL    HW228959   0.186   4.555   0.753
 9354SOL     OW28960   0.286   1.996   6.148
 9354SOL    HW128961   0.253   2.066   6.211
 9354SOL    HW228962   0.334   1.925   6.199
 9355SOL     OW28963   0.381   1.702   4.568
 9355SOL    HW128964   0.322   1.782   4.568
 9355SOL    HW228965   0.329   1.623   4.533
 9356SOL     OW28966   4.841   6.174   2.175
 9356SOL    HW128967   4.857   6.141   2.082
 9356SOL    HW228968   4.770   6.245   2.173
 9357SOL     OW28969   1.650   3.298   6.668
 9357SOL    HW128970   1.664   3.369   6.599
 9357SOL    HW228971   1.578   3.235   6.637
 9358SOL     OW28972   6.834   3.067   2.559
 9358SOL    HW128973   6.742   3.046   2.593
 9358SOL    HW228974   6.902   3.031   2.622
 9359SOL     OW28975   1.734   3.746   5.176
 9359SOL    HW128976   1.770   3.832   5.142
 9359SOL    HW228977   1.806   3.696   5.225
 9360SOL     OW28978   1.369   5.670   6.810
 9360SOL    HW128979   1.339   5.753   6.764
 9360SOL    HW228980   1.417   5.694   6.894
 9361SOL     OW28981   1.898   5.791   2.464
 9361SOL    HW128982   1.984   5.760   2.425
 9361SOL    HW228983   1.867   5.727   2.534
 9362SOL     OW28984   2.171   3.618   2.866
 9362SOL    HW128985   2.215   3.570   2.790
 9362SOL    HW228986   2.125   3.552   2.925
 9363SOL     OW28987   3.654   6.872   2.042
 9363SOL    HW128988   3.722   6.880   2.115
 9363SOL    HW228989   3.661   6.950   1.981
 9364SOL     OW28990   3.831   3.315   6.576
 9364SOL    HW128991   3.778   3.397   6.597
 9364SOL    HW228992   3.792   3.269   6.496
 9365SOL     OW28993   2.463   2.106   4.371
 9365SOL    HW128994   2.391   2.107   4.302
 9365SOL    HW228995   2.423   2.116   4.462
 9366SOL     OW28996   3.524   6.832   6.271
 9366SOL    HW128997   3.556   6.852   6.364
 9366SOL    HW228998   3.470   6.748   6.272
 9367SOL     OW28999   0.463   6.955   2.834
 9367SOL    HW129000   0.417   6.927   2.918
 9367SOL    HW229001   0.399   7.008   2.778
 9368SOL     OW29002   2.883   0.993   2.729
 9368SOL    HW129003   2.867   1.036   2.818
 9368SOL    HW229004   2.951   0.920   2.739
 9369SOL     OW29005   6.849   6.043   4.598
 9369SOL    HW129006   6.907   5.961   4.599
 9369SOL    HW229007   6.753   6.015   4.595
 9370SOL     OW29008   5.068   0.401   3.627
 9370SOL    HW129009   4.999   0.333   3.652
 9370SOL    HW229010   5.083   0.463   3.704
 9371SOL     OW29011   2.945   5.454   0.662
 9371SOL    HW129012   2.912   5.367   0.700
 9371SOL    HW229013   2.914   5.463   0.568
 9372SOL     OW29014   5.531   0.093   2.602
 9372SOL    HW129015   5.573   0.047   2.524
 9372SOL    HW229016   5.600   0.109   2.673
 9373SOL     OW29017   4.913   2.162   2.593
 9373SOL    HW129018   4.890   2.212   2.510
 9373SOL    HW229019   5.001   2.195   2.628
 9374SOL     OW29020   0.727   3.849   0.294
 9374SOL    HW129021   0.726   3.839   0.394
 9374SOL    HW229022   0.636   3.832   0.258
 9375SOL     OW29023   0.414   0.938   1.565
 9375SOL    HW129024   0.353   1.000   1.615
 9375SOL    HW229025   0.394   0.844   1.590
 9376SOL     OW29026   2.463   4.066   1.321
 9376SOL    HW129027   2.489   3.970   1.331
 9376SOL    HW229028   2.401   4.091   1.395
 9377SOL     OW29029   1.961   5.711   4.119
 9377SOL    HW129030   1.930   5.784   4.179
 9377SOL    HW229031   1.951   5.739   4.024
 9378SOL     OW29032   1.602   1.303   3.625
 9378SOL    HW129033   1.662   1.223   3.625
 9378SOL    HW229034   1.571   1.322   3.532
 9379SOL     OW29035   4.672   6.180   5.610
 9379SOL    HW129036   4.769   6.160   5.620
 9379SOL    HW229037   4.648   6.258   5.668
 9380SOL     OW29038   4.711   5.967   4.798
 9380SOL    HW129039   4.786   6.007   4.851
 9380SOL    HW229040   4.647   5.921   4.860
 9381SOL     OW29041   4.143   2.969   5.911
 9381SOL    HW129042   4.055   3.013   5.898
 9381SOL    HW229043   4.130   2.871   5.927
 9382SOL     OW29044   3.738   0.398   3.717
 9382SOL    HW129045   3.807   0.382   3.646
 9382SOL    HW229046   3.649   0.411   3.674
 9383SOL     OW29047   0.403   5.812   4.613
 9383SOL    HW129048   0.402   5.715   4.634
 9383SOL    HW229049   0.469   5.859   4.672
 9384SOL     OW29050   4.217   0.534   2.188
 9384SOL    HW129051   4.283   0.502   2.256
 9384SOL    HW229052   4.254   0.520   2.097
 9385SOL     OW29053   3.999   0.950   3.510
 9385SOL    HW129054   4.095   0.978   3.510
 9385SOL    HW229055   3.989   0.865   3.563
 9386SOL     OW29056   1.874   5.934   5.103
 9386SOL    HW129057   1.944   5.960   5.169
 9386SOL    HW229058   1.843   5.841   5.122
 9387SOL     OW29059   2.836   1.613   6.765
 9387SOL    HW129060   2.933   1.611   6.739
 9387SOL    HW229061   2.784   1.555   6.702
 9388SOL     OW29062   3.014   6.567   2.979
 9388SOL    HW129063   3.040   6.658   3.010
 9388SOL    HW229064   3.040   6.556   2.883
 9389SOL     OW29065   1.936   0.568   3.337
 9389SOL    HW129066   1.990   0.641   3.294
 9389SOL    HW229067   1.975   0.479   3.313
 9390SOL     OW29068   4.531   4.826   6.244
 9390SOL    HW129069   4.479   4.749   6.205
 9390SOL    HW229070   4.495   4.912   6.208
 9391SOL     OW29071   1.621   1.604   5.065
 9391SOL    HW129072   1.669   1.677   5.017
 9391SOL    HW229073   1.567   1.643   5.140
 9392SOL     OW29074   5.722   5.777   5.070
 9392SOL    HW129075   5.735   5.854   5.132
 9392SOL    HW229076   5.655   5.713   5.109
 9393SOL     OW29077   2.970   6.743   6.968
 9393SOL    HW129078   2.899   6.705   0.006
 9393SOL    HW229079   3.030   6.802   0.001
 9394SOL     OW29080   6.491   0.251   1.701
 9394SOL    HW129081   6.445   0.162   1.707
 9394SOL    HW229082   6.535   0.261   1.613
 9395SOL     OW29083   3.415   1.739   1.185
 9395SOL    HW129084   3.330   1.758   1.137
 9395SOL    HW229085   3.396   1.727   1.283
 9396SOL     OW29086   2.238   4.151   4.079
 9396SOL    HW129087   2.168   4.216   4.109
 9396SOL    HW229088   2.208   4.058   4.100
 9397SOL     OW29089   4.111   6.891   6.216
 9397SOL    HW129090   4.097   6.933   6.306
 9397SOL    HW229091   4.088   6.957   6.145
 9398SOL     OW29092   6.334   1.272   4.821
 9398SOL    HW129093   6.407   1.340   4.827
 9398SOL    HW229094   6.288   1.279   4.733
 9399SOL     OW29095   1.026   3.012   5.395
 9399SOL    HW129096   1.006   3.109   5.404
 9399SOL    HW229097   1.053   2.975   5.484
 9400SOL     OW29098   4.572   1.278   1.459
 9400SOL    HW129099   4.626   1.196   1.444
 9400SOL    HW229100   4.632   1.358   1.465
 9401SOL     OW29101   6.480   0.727   3.188
 9401SOL    HW129102   6.504   0.635   3.159
 9401SOL    HW229103   6.449   0.780   3.109
 9402SOL     OW29104   1.146   5.176   2.578
 9402SOL    HW129105   1.175   5.081   2.586
 9402SOL    HW229106   1.216   5.236   2.618
 9403SOL     OW29107   6.562   1.307   2.128
 9403SOL    HW129108   6.537   1.382   2.066
 9403SOL    HW229109   6.612   1.237   2.077
 9404SOL     OW29110   0.928   2.478   0.366
 9404SOL    HW129111   0.837   2.500   0.401
 9404SOL    HW229112   0.953   2.544   0.294
 9405SOL     OW29113   2.408   4.325   3.993
 9405SOL    HW129114   2.359   4.361   3.914
 9405SOL    HW229115   2.351   4.258   4.040
 9406SOL     OW29116   6.712   2.928   6.225
 9406SOL    HW129117   6.658   2.962   6.302
 9406SOL    HW229118   6.654   2.920   6.145
 9407SOL     OW29119   2.972   4.904   3.610
 9407SOL    HW129120   2.976   4.884   3.708
 9407SOL    HW229121   2.877   4.918   3.583
 9408SOL     OW29122   6.509   3.158   6.058
 9408SOL    HW129123   6.554   3.246   6.046
 9408SOL    HW229124   6.480   3.122   5.969
 9409SOL     OW29125   5.927   5.149   0.459
 9409SOL    HW129126   5.897   5.119   0.369
 9409SOL    HW229127   6.024   5.175   0.455
 9410SOL     OW29128   1.826   0.592   2.171
 9410SOL    HW129129   1.921   0.621   2.157
 9410SOL    HW229130   1.766   0.671   2.163
 9411SOL     OW29131   3.601   3.807   2.551
 9411SOL    HW129132   3.571   3.891   2.506
 9411SOL    HW229133   3.531   3.777   2.616
 9412SOL     OW29134   1.028   1.013   2.570
 9412SOL    HW129135   1.067   1.062   2.493
 9412SOL    HW229136   0.986   0.928   2.538
 9413SOL     OW29137   4.289   5.896   3.639
 9413SOL    HW129138   4.220   5.928   3.704
 9413SOL    HW229139   4.280   5.946   3.553
 9414SOL     OW29140   3.089   0.989   3.075
 9414SOL    HW129141   3.025   1.051   3.029
 9414SOL    HW229142   3.040   0.908   3.105
 9415SOL     OW29143   2.452   6.977   2.322
 9415SOL    HW129144   2.372   6.987   2.382
 9415SOL    HW229145   2.444   0.020   2.246
 9416SOL     OW29146   0.067   2.026   6.363
 9416SOL    HW129147   0.007   1.971   6.305
 9416SOL    HW229148   0.019   2.050   6.448
 9417SOL     OW29149   4.341   0.335   0.940
 9417SOL    HW129150   4.384   0.247   0.920
 9417SOL    HW229151   4.368   0.366   1.031
 9418SOL     OW29152   3.226   0.779   1.345
 9418SOL    HW129153   3.241   0.790   1.247
 9418SOL    HW229154   3.275   0.850   1.395
 9419SOL     OW29155   2.562   4.153   5.922
 9419SOL    HW129156   2.615   4.172   5.839
 9419SOL    HW229157   2.617   4.098   5.985
 9420SOL     OW29158   5.564   4.561   6.352
 9420SOL    HW129159   5.480   4.549   6.405
 9420SOL    HW229160   5.622   4.630   6.398
 9421SOL     OW29161   2.609   6.442   4.662
 9421SOL    HW129162   2.655   6.523   4.627
 9421SOL    HW229163   2.677   6.376   4.695
 9422SOL     OW29164   3.029   5.413   2.805
 9422SOL    HW129165   3.080   5.434   2.722
 9422SOL    HW229166   3.006   5.316   2.807
 9423SOL     OW29167   2.905   6.646   3.543
 9423SOL    HW129168   2.941   6.733   3.508
 9423SOL    HW229169   2.890   6.654   3.642
 9424SOL     OW29170   5.082   2.079   4.949
 9424SOL    HW129171   5.087   2.091   4.850
 9424SOL    HW229172   5.123   1.991   4.974
 9425SOL     OW29173   5.271   3.705   1.312
 9425SOL    HW129174   5.365   3.723   1.342
 9425SOL    HW229175   5.207   3.736   1.382
 9426SOL     OW29176   3.293   1.634   6.040
 9426SOL    HW129177   3.256   1.704   5.979
 9426SOL    HW229178   3.363   1.581   5.991
 9427SOL     OW29179   2.576   5.379   3.288
 9427SOL    HW129180   2.532   5.466   3.311
 9427SOL    HW229181   2.633   5.350   3.365
 9428SOL     OW29182   6.508   1.294   1.688
 9428SOL    HW129183   6.558   1.379   1.705
 9428SOL    HW229184   6.515   1.270   1.592
 9429SOL     OW29185   2.082   3.946   3.469
 9429SOL    HW129186   2.128   3.976   3.553
 9429SOL    HW229187   2.145   3.955   3.391
 9430SOL     OW29188   0.272   2.939   4.937
 9430SOL    HW129189   0.306   3.005   4.870
 9430SOL    HW229190   0.185   2.902   4.907
 9431SOL     OW29191   6.584   4.161   0.715
 9431SOL    HW129192   6.645   4.102   0.662
 9431SOL    HW229193   6.600   4.257   0.691
 9432SOL     OW29194   5.531   0.269   3.381
 9432SOL    HW129195   5.514   0.212   3.460
 9432SOL    HW229196   5.628   0.296   3.380
 9433SOL     OW29197   3.100   5.998   3.486
 9433SOL    HW129198   3.081   5.917   3.430
 9433SOL    HW229199   3.116   6.077   3.426
 9434SOL     OW29200   5.472   5.761   1.929
 9434SOL    HW129201   5.447   5.850   1.967
 9434SOL    HW229202   5.395   5.725   1.876
 9435SOL     OW29203   0.423   2.928   3.538
 9435SOL    HW129204   0.421   2.840   3.585
 9435SOL    HW229205   0.411   3.002   3.605
 9436SOL     OW29206   1.631   2.798   1.206
 9436SOL    HW129207   1.708   2.778   1.267
 9436SOL    HW229208   1.651   2.881   1.154
 9437SOL     OW29209   1.390   5.923   3.184
 9437SOL    HW129210   1.437   6.011   3.195
 9437SOL    HW229211   1.416   5.882   3.097
 9438SOL     OW29212   0.463   6.788   1.709
 9438SOL    HW129213   0.464   6.706   1.652
 9438SOL    HW229214   0.545   6.791   1.766
 9439SOL     OW29215   0.476   2.857   0.075
 9439SOL    HW129216   0.481   2.762   0.106
 9439SOL    HW229217   0.535   2.914   0.132
 9440SOL     OW29218   4.026   4.926   3.239
 9440SOL    HW129219   4.046   4.901   3.333
 9440SOL    HW229220   4.109   4.918   3.184
 9441SOL     OW29221   6.135   4.401   6.208
 9441SOL    HW129222   6.230   4.431   6.219
 9441SOL    HW229223   6.131   4.302   6.218
 9442SOL     OW29224   4.855   3.659   1.276
 9442SOL    HW129225   4.829   3.734   1.215
 9442SOL    HW229226   4.816   3.573   1.242
 9443SOL     OW29227   2.384   5.035   0.946
 9443SOL    HW129228   2.412   5.123   0.908
 9443SOL    HW229229   2.376   5.042   1.046
 9444SOL     OW29230   2.087   3.660   0.724
 9444SOL    HW129231   2.039   3.743   0.752
 9444SOL    HW229232   2.135   3.621   0.802
 9445SOL     OW29233   6.054   3.361   2.937
 9445SOL    HW129234   6.028   3.268   2.910
 9445SOL    HW229235   6.152   3.364   2.957
 9446SOL     OW29236   6.202   5.363   4.906
 9446SOL    HW129237   6.259   5.443   4.921
 9446SOL    HW229238   6.107   5.384   4.931
 9447SOL     OW29239   5.943   4.686   3.866
 9447SOL    HW129240   5.985   4.741   3.939
 9447SOL    HW229241   5.927   4.743   3.786
 9448SOL     OW29242   6.778   0.321   5.794
 9448SOL    HW129243   6.872   0.322   5.828
 9448SOL    HW229244   6.749   0.415   5.774
 9449SOL     OW29245   5.319   0.300   0.513
 9449SOL    HW129246   5.341   0.300   0.610
 9449SOL    HW229247   5.232   0.348   0.499
 9450SOL     OW29248   2.437   5.827   3.987
 9450SOL    HW129249   2.392   5.899   4.039
 9450SOL    HW229250   2.472   5.758   4.051
 9451SOL     OW29251   4.631   6.532   5.698
 9451SOL    HW129252   4.606   6.586   5.618
 9451SOL    HW229253   4.549   6.509   5.750
 9452SOL     OW29254   1.887   3.377   0.221
 9452SOL    HW129255   1.942   3.310   0.269
 9452SOL    HW229256   1.946   3.437   0.167
 9453SOL     OW29257   3.068   4.891   2.930
 9453SOL    HW129258   2.981   4.842   2.932
 9453SOL    HW229259   3.117   4.874   3.015
 9454SOL     OW29260   3.609   3.705   6.296
 9454SOL    HW129261   3.533   3.655   6.335
 9454SOL    HW229262   3.691   3.692   6.353
 9455SOL     OW29263   2.218   1.848   3.615
 9455SOL    HW129264   2.309   1.853   3.655
 9455SOL    HW229265   2.212   1.765   3.558
 9456SOL     OW29266   0.093   3.303   0.994
 9456SOL    HW129267   0.142   3.361   0.929
 9456SOL    HW229268   0.009   3.269   0.952
 9457SOL     OW29269   1.742   3.783   3.844
 9457SOL    HW129270   1.791   3.871   3.841
 9457SOL    HW229271   1.698   3.773   3.932
 9458SOL     OW29272   0.516   3.457   6.486
 9458SOL    HW129273   0.575   3.528   6.526
 9458SOL    HW229274   0.434   3.500   6.450
 9459SOL     OW29275   5.383   4.835   3.789
 9459SOL    HW129276   5.464   4.782   3.766
 9459SOL    HW229277   5.359   4.818   3.885
 9460SOL     OW29278   1.543   3.317   4.070
 9460SOL    HW129279   1.628   3.319   4.123
 9460SOL    HW229280   1.545   3.389   4.001
 9461SOL     OW29281   0.487   1.861   1.382
 9461SOL    HW129282   0.395   1.837   1.411
 9461SOL    HW229283   0.554   1.823   1.446
 9462SOL     OW29284   1.725   3.646   3.605
 9462SOL    HW129285   1.729   3.689   3.695
 9462SOL    HW229286   1.799   3.680   3.548
 9463SOL     OW29287   5.939   0.187   1.252
 9463SOL    HW129288   5.943   0.110   1.188
 9463SOL    HW229289   6.022   0.187   1.308
 9464SOL     OW29290   5.752   0.349   1.159
 9464SOL    HW129291   5.766   0.407   1.239
 9464SOL    HW229292   5.820   0.276   1.159
 9465SOL     OW29293   0.348   4.057   1.831
 9465SOL    HW129294   0.429   4.049   1.773
 9465SOL    HW229295   0.350   3.986   1.901
 9466SOL     OW29296   3.764   4.901   5.224
 9466SOL    HW129297   3.801   4.944   5.142
 9466SOL    HW229298   3.808   4.940   5.305
 9467SOL     OW29299   1.618   2.375   1.175
 9467SOL    HW129300   1.632   2.367   1.274
 9467SOL    HW229301   1.531   2.421   1.157
 9468SOL     OW29302   5.680   3.929   6.199
 9468SOL    HW129303   5.708   3.989   6.274
 9468SOL    HW229304   5.714   3.966   6.112
 9469SOL     OW29305   0.004   4.674   1.801
 9469SOL    HW129306   0.033   4.579   1.813
 9469SOL    HW229307   6.952   4.695   1.866
 9470SOL     OW29308   4.959   3.541   6.635
 9470SOL    HW129309   4.864   3.520   6.612
 9470SOL    HW229310   4.994   3.609   6.570
 9471SOL     OW29311   6.503   2.361   4.227
 9471SOL    HW129312   6.602   2.348   4.229
 9471SOL    HW229313   6.463   2.308   4.152
 9472SOL     OW29314   6.208   2.648   5.009
 9472SOL    HW129315   6.292   2.615   5.053
 9472SOL    HW229316   6.224   2.737   4.967
 9473SOL     OW29317   3.147   5.307   0.464
 9473SOL    HW129318   3.186   5.328   0.374
 9473SOL    HW229319   3.205   5.347   0.535
 9474SOL     OW29320   7.020   3.476   0.106
 9474SOL    HW129321   6.939   3.514   0.061
 9474SOL    HW229322   0.007   3.379   0.084
 9475SOL     OW29323   3.662   3.026   0.218
 9475SOL    HW129324   3.639   3.091   0.291
 9475SOL    HW229325   3.580   3.009   0.162
 9476SOL     OW29326   4.018   3.774   4.114
 9476SOL    HW129327   4.057   3.864   4.129
 9476SOL    HW229328   4.034   3.746   4.019
 9477SOL     OW29329   1.009   2.878   0.319
 9477SOL    HW129330   1.093   2.882   0.373
 9477SOL    HW229331   0.942   2.942   0.357
 9478SOL     OW29332   5.114   3.298   1.445
 9478SOL    HW129333   5.014   3.299   1.455
 9478SOL    HW229334   5.138   3.337   1.356
 9479SOL     OW29335   4.452   6.658   0.409
 9479SOL    HW129336   4.474   6.565   0.380
 9479SOL    HW229337   4.516   6.687   0.479
 9480SOL     OW29338   5.512   4.370   0.560
 9480SOL    HW129339   5.427   4.412   0.590
 9480SOL    HW229340   5.515   4.275   0.590
 9481SOL     OW29341   4.900   3.245   2.847
 9481SOL    HW129342   4.860   3.305   2.777
 9481SOL    HW229343   4.989   3.212   2.816
 9482SOL     OW29344   0.518   1.259   2.436
 9482SOL    HW129345   0.462   1.341   2.423
 9482SOL    HW229346   0.598   1.264   2.377
 9483SOL     OW29347   1.549   0.399   1.198
 9483SOL    HW129348   1.501   0.356   1.121
 9483SOL    HW229349   1.635   0.350   1.214
 9484SOL     OW29350   4.168   0.341   4.528
 9484SOL    HW129351   4.215   0.275   4.587
 9484SOL    HW229352   4.103   0.294   4.469
 9485SOL     OW29353   0.377   0.787   1.018
 9485SOL    HW129354   0.356   0.874   1.063
 9485SOL    HW229355   0.399   0.719   1.087
 9486SOL     OW29356   3.783   6.389   0.716
 9486SOL    HW129357   3.865   6.412   0.663
 9486SOL    HW229358   3.701   6.413   0.664
 9487SOL     OW29359   3.288   3.834   3.817
 9487SOL    HW129360   3.346   3.844   3.898
 9487SOL    HW229361   3.201   3.883   3.832
 9488SOL     OW29362   2.971   0.405   1.104
 9488SOL    HW129363   2.938   0.470   1.172
 9488SOL    HW229364   3.069   0.417   1.090
 9489SOL     OW29365   4.607   4.079   1.080
 9489SOL    HW129366   4.645   3.987   1.095
 9489SOL    HW229367   4.508   4.076   1.095
 9490SOL     OW29368   6.103   5.276   2.324
 9490SOL    HW129369   6.087   5.248   2.418
 9490SOL    HW229370   6.021   5.259   2.269
 9491SOL     OW29371   5.629   4.664   3.870
 9491SOL    HW129372   5.665   4.665   3.963
 9491SOL    HW229373   5.681   4.728   3.813
 9492SOL     OW29374   3.525   3.176   4.362
 9492SOL    HW129375   3.516   3.110   4.437
 9492SOL    HW229376   3.621   3.201   4.351
 9493SOL     OW29377   2.684   5.695   4.862
 9493SOL    HW129378   2.613   5.765   4.866
 9493SOL    HW229379   2.642   5.605   4.863
 9494SOL     OW29380   5.244   2.854   2.592
 9494SOL    HW129381   5.206   2.764   2.570
 9494SOL    HW229382   5.219   2.919   2.520
 9495SOL     OW29383   6.688   1.813   3.036
 9495SOL    HW129384   6.783   1.786   3.048
 9495SOL    HW229385   6.671   1.833   2.939
 9496SOL     OW29386   6.207   3.678   1.653
 9496SOL    HW129387   6.208   3.609   1.580
 9496SOL    HW229388   6.298   3.719   1.661
 9497SOL     OW29389   5.935   6.905   6.337
 9497SOL    HW129390   5.853   6.849   6.352
 9497SOL    HW229391   6.005   6.850   6.291
 9498SOL     OW29392   5.250   6.564   3.992
 9498SOL    HW129393   5.212   6.472   3.995
 9498SOL    HW229394   5.328   6.570   4.054
 9499SOL     OW29395   2.241   4.462   6.215
 9499SOL    HW129396   2.331   4.476   6.256
 9499SOL    HW229397   2.192   4.390   6.263
 9500SOL     OW29398   4.773   0.245   1.212
 9500SOL    HW129399   4.714   0.310   1.164
 9500SOL    HW229400   4.762   0.154   1.172
 9501SOL     OW29401   2.951   1.234   5.421
 9501SOL    HW129402   2.925   1.148   5.465
 9501SOL    HW229403   3.025   1.277   5.474
 9502SOL     OW29404   5.854   2.339   5.342
 9502SOL    HW129405   5.777   2.365   5.284
 9502SOL    HW229406   5.935   2.391   5.314
 9503SOL     OW29407   0.916   1.753   0.992
 9503SOL    HW129408   0.928   1.757   1.091
 9503SOL    HW229409   0.994   1.707   0.950
 9504SOL     OW29410   6.999   2.970   0.441
 9504SOL    HW129411   6.977   2.929   0.529
 9504SOL    HW229412   0.063   3.022   0.448
 9505SOL     OW29413   5.337   4.318   4.373
 9505SOL    HW129414   5.348   4.351   4.279
 9505SOL    HW229415   5.240   4.316   4.396
 9506SOL     OW29416   1.580   2.304   6.311
 9506SOL    HW129417   1.600   2.285   6.407
 9506SOL    HW229418   1.508   2.242   6.280
 9507SOL     OW29419   0.376   1.110   2.612
 9507SOL    HW129420   0.322   1.049   2.555
 9507SOL    HW229421   0.430   1.171   2.554
 9508SOL     OW29422   6.258   1.877   1.293
 9508SOL    HW129423   6.271   1.971   1.260
 9508SOL    HW229424   6.168   1.868   1.334
 9509SOL     OW29425   0.285   0.855   3.519
 9509SOL    HW129426   0.233   0.931   3.480
 9509SOL    HW229427   0.383   0.877   3.516
 9510SOL     OW29428   1.884   3.752   3.427
 9510SOL    HW129429   1.956   3.690   3.394
 9510SOL    HW229430   1.926   3.834   3.467
 9511SOL     OW29431   1.676   0.084   1.173
 9511SOL    HW129432   1.694   0.085   1.075
 9511SOL    HW229433   1.577   0.090   1.189
 9512SOL     OW29434   6.252   1.556   1.582
 9512SOL    HW129435   6.319   1.575   1.510
 9512SOL    HW229436   6.185   1.490   1.548
 9513SOL     OW29437   2.016   3.896   6.210
 9513SOL    HW129438   2.023   3.872   6.113
 9513SOL    HW229439   2.106   3.891   6.253
 9514SOL     OW29440   1.659   4.980   5.881
 9514SOL    HW129441   1.707   4.892   5.880
 9514SOL    HW229442   1.685   5.031   5.963
 9515SOL     OW29443   1.402   5.781   0.647
 9515SOL    HW129444   1.375   5.785   0.744
 9515SOL    HW229445   1.496   5.814   0.637
 9516SOL     OW29446   6.366   5.119   6.813
 9516SOL    HW129447   6.284   5.170   6.839
 9516SOL    HW229448   6.400   5.152   6.725
 9517SOL     OW29449   1.360   4.395   1.168
 9517SOL    HW129450   1.411   4.436   1.092
 9517SOL    HW229451   1.417   4.326   1.213
 9518SOL     OW29452   2.078   1.847   0.407
 9518SOL    HW129453   2.029   1.916   0.460
 9518SOL    HW229454   2.013   1.776   0.378
 9519SOL     OW29455   2.916   3.680   4.613
 9519SOL    HW129456   2.986   3.739   4.573
 9519SOL    HW229457   2.888   3.612   4.545
 9520SOL     OW29458   1.922   2.099   3.247
 9520SOL    HW129459   1.849   2.162   3.220
 9520SOL    HW229460   1.934   2.030   3.176
 9521SOL     OW29461   4.882   5.414   1.777
 9521SOL    HW129462   4.951   5.342   1.771
 9521SOL    HW229463   4.926   5.503   1.767
 9522SOL     OW29464   2.278   5.899   1.068
 9522SOL    HW129465   2.358   5.951   1.038
 9522SOL    HW229466   2.265   5.820   1.009
 9523SOL     OW29467   2.968   5.023   4.984
 9523SOL    HW129468   3.055   5.069   4.968
 9523SOL    HW229469   2.981   4.950   5.051
 9524SOL     OW29470   3.769   2.903   1.492
 9524SOL    HW129471   3.716   2.838   1.438
 9524SOL    HW229472   3.760   2.994   1.452
 9525SOL     OW29473   2.366   3.199   5.581
 9525SOL    HW129474   2.431   3.226   5.652
 9525SOL    HW229475   2.403   3.222   5.491
 9526SOL     OW29476   5.299   5.607   1.781
 9526SOL    HW129477   5.340   5.558   1.704
 9526SOL    HW229478   5.309   5.553   1.865
 9527SOL     OW29479   0.938   0.339   3.339
 9527SOL    HW129480   1.021   0.368   3.292
 9527SOL    HW229481   0.907   0.413   3.399
 9528SOL     OW29482   0.529   0.977   6.947
 9528SOL    HW129483   0.489   0.914   6.881
 9528SOL    HW229484   0.549   1.064   6.902
 9529SOL     OW29485   6.226   2.936   4.975
 9529SOL    HW129486   6.283   3.017   4.970
 9529SOL    HW229487   6.131   2.960   4.957
 9530SOL     OW29488   1.819   3.800   2.285
 9530SOL    HW129489   1.818   3.721   2.224
 9530SOL    HW229490   1.837   3.883   2.232
 9531SOL     OW29491   5.088   5.541   3.177
 9531SOL    HW129492   5.150   5.494   3.114
 9531SOL    HW229493   5.122   5.530   3.271
 9532SOL     OW29494   0.407   6.925   2.214
 9532SOL    HW129495   0.439   6.839   2.254
 9532SOL    HW229496   0.461   7.000   2.249
 9533SOL     OW29497   6.830   7.004   5.541
 9533SOL    HW129498   6.742   0.009   5.580
 9533SOL    HW229499   6.819   6.920   5.487
 9534SOL     OW29500   6.541   3.094   5.465
 9534SOL    HW129501   6.616   3.155   5.490
 9534SOL    HW229502   6.540   3.080   5.366
 9535SOL     OW29503   2.929   1.673   5.520
 9535SOL    HW129504   3.028   1.688   5.527
 9535SOL    HW229505   2.882   1.761   5.525
 9536SOL     OW29506   2.725   4.723   5.348
 9536SOL    HW129507   2.766   4.660   5.283
 9536SOL    HW229508   2.626   4.713   5.346
 9537SOL     OW29509   2.720   6.417   2.745
 9537SOL    HW129510   2.767   6.359   2.812
 9537SOL    HW229511   2.786   6.451   2.678
 9538SOL     OW29512   6.216   2.098   3.755
 9538SOL    HW129513   6.315   2.109   3.758
 9538SOL    HW229514   6.192   2.036   3.680
 9539SOL     OW29515   2.102   3.703   5.450
 9539SOL    HW129516   2.131   3.689   5.544
 9539SOL    HW229517   2.182   3.718   5.392
 9540SOL     OW29518   5.397   4.052   4.340
 9540SOL    HW129519   5.413   4.044   4.241
 9540SOL    HW229520   5.391   4.149   4.365
 9541SOL     OW29521   3.319   1.605   5.656
 9541SOL    HW129522   3.257   1.683   5.650
 9541SOL    HW229523   3.314   1.551   5.572
 9542SOL     OW29524   5.186   3.944   4.676
 9542SOL    HW129525   5.230   3.889   4.748
 9542SOL    HW229526   5.238   4.028   4.662
 9543SOL     OW29527   3.447   1.092   4.971
 9543SOL    HW129528   3.515   1.134   4.911
 9543SOL    HW229529   3.356   1.103   4.932
 9544SOL     OW29530   0.349   1.271   3.329
 9544SOL    HW129531   0.270   1.214   3.351
 9544SOL    HW229532   0.431   1.214   3.326
 9545SOL     OW29533   6.082   5.103   3.779
 9545SOL    HW129534   6.008   5.094   3.847
 9545SOL    HW229535   6.057   5.172   3.712
 9546SOL     OW29536   3.477   2.885   5.708
 9546SOL    HW129537   3.385   2.895   5.670
 9546SOL    HW229538   3.490   2.953   5.780
 9547SOL     OW29539   2.347   6.075   4.117
 9547SOL    HW129540   2.256   6.068   4.160
 9547SOL    HW229541   2.353   6.161   4.066
 9548SOL     OW29542   5.766   6.360   5.381
 9548SOL    HW129543   5.703   6.421   5.333
 9548SOL    HW229544   5.714   6.294   5.435
 9549SOL     OW29545   2.917   3.452   1.385
 9549SOL    HW129546   2.985   3.409   1.326
 9549SOL    HW229547   2.864   3.381   1.432
 9550SOL     OW29548   0.364   1.367   0.620
 9550SOL    HW129549   0.298   1.332   0.553
 9550SOL    HW229550   0.414   1.291   0.660
 9551SOL     OW29551   6.277   0.885   3.854
 9551SOL    HW129552   6.350   0.825   3.887
 9551SOL    HW229553   6.189   0.839   3.862
 9552SOL     OW29554   1.090   6.248   2.347
 9552SOL    HW129555   1.061   6.153   2.359
 9552SOL    HW229556   1.068   6.278   2.254
 9553SOL     OW29557   6.032   4.010   6.865
 9553SOL    HW129558   6.027   4.005   6.766
 9553SOL    HW229559   5.991   4.096   6.896
 9554SOL     OW29560   2.313   0.637   1.897
 9554SOL    HW129561   2.374   0.689   1.956
 9554SOL    HW229562   2.229   0.689   1.881
 9555SOL     OW29563   1.058   1.124   2.021
 9555SOL    HW129564   1.057   1.086   1.929
 9555SOL    HW229565   1.035   1.052   2.087
 9556SOL     OW29566   2.310   2.476   1.433
 9556SOL    HW129567   2.333   2.552   1.373
 9556SOL    HW229568   2.355   2.487   1.521
 9557SOL     OW29569   6.946   0.578   2.668
 9557SOL    HW129570   7.001   0.509   2.621
 9557SOL    HW229571   6.850   0.566   2.643
 9558SOL     OW29572   6.424   6.027   4.311
 9558SOL    HW129573   6.354   5.957   4.298
 9558SOL    HW229574   6.481   6.033   4.229
 9559SOL     OW29575   0.159   3.861   1.386
 9559SOL    HW129576   0.154   3.865   1.485
 9559SOL    HW229577   0.199   3.945   1.351
 9560SOL     OW29578   1.555   1.458   2.852
 9560SOL    HW129579   1.465   1.455   2.896
 9560SOL    HW229580   1.570   1.374   2.800
 9561SOL     OW29581   1.125   6.515   0.063
 9561SOL    HW129582   1.116   6.436   0.123
 9561SOL    HW229583   1.109   6.487   6.989
 9562SOL     OW29584   3.206   0.125   5.143
 9562SOL    HW129585   3.220   0.221   5.163
 9562SOL    HW229586   3.167   0.079   5.223
 9563SOL     OW29587   6.532   6.775   0.178
 9563SOL    HW129588   6.445   6.744   0.140
 9563SOL    HW229589   6.521   6.869   0.212
 9564SOL     OW29590   2.610   6.873   6.724
 9564SOL    HW129591   2.678   6.800   6.718
 9564SOL    HW229592   2.617   6.918   6.813
 9565SOL     OW29593   3.886   6.384   5.409
 9565SOL    HW129594   3.908   6.419   5.500
 9565SOL    HW229595   3.951   6.311   5.385
 9566SOL     OW29596   2.842   5.240   6.492
 9566SOL    HW129597   2.939   5.234   6.514
 9566SOL    HW229598   2.800   5.313   6.546
 9567SOL     OW29599   6.437   4.687   6.692
 9567SOL    HW129600   6.362   4.733   6.739
 9567SOL    HW229601   6.408   4.660   6.600
 9568SOL     OW29602   4.908   2.479   0.012
 9568SOL    HW129603   4.891   2.389   6.993
 9568SOL    HW229604   4.845   2.495   0.088
 9569SOL     OW29605   0.231   0.427   2.632
 9569SOL    HW129606   0.309   0.374   2.666
 9569SOL    HW229607   0.258   0.522   2.618
 9570SOL     OW29608   1.231   2.612   2.144
 9570SOL    HW129609   1.317   2.657   2.169
 9570SOL    HW229610   1.154   2.674   2.162
 9571SOL     OW29611   2.685   3.904   6.909
 9571SOL    HW129612   2.598   3.901   6.859
 9571SOL    HW229613   2.668   3.900   7.007
 9572SOL     OW29614   1.524   5.301   0.966
 9572SOL    HW129615   1.458   5.373   0.990
 9572SOL    HW229616   1.582   5.333   0.891
 9573SOL     OW29617   0.604   1.694   6.492
 9573SOL    HW129618   0.572   1.600   6.506
 9573SOL    HW229619   0.668   1.718   6.565
 9574SOL     OW29620   3.809   3.106   4.296
 9574SOL    HW129621   3.754   3.026   4.318
 9574SOL    HW229622   3.867   3.129   4.374
 9575SOL     OW29623   5.611   0.572   0.998
 9575SOL    HW129624   5.647   0.495   1.051
 9575SOL    HW229625   5.676   0.595   0.925
 9576SOL     OW29626   3.112   0.604   2.523
 9576SOL    HW129627   3.071   0.649   2.602
 9576SOL    HW229628   3.079   0.647   2.439
 9577SOL     OW29629   1.154   1.097   3.755
 9577SOL    HW129630   1.253   1.086   3.746
 9577SOL    HW229631   1.134   1.188   3.793
 9578SOL     OW29632   6.685   3.641   3.455
 9578SOL    HW129633   6.756   3.651   3.385
 9578SOL    HW229634   6.726   3.654   3.546
 9579SOL     OW29635   1.864   5.159   2.951
 9579SOL    HW129636   1.784   5.141   3.008
 9579SOL    HW229637   1.944   5.176   3.008
 9580SOL     OW29638   4.642   2.888   1.222
 9580SOL    HW129639   4.556   2.913   1.267
 9580SOL    HW229640   4.622   2.834   1.140
 9581SOL     OW29641   1.072   5.254   6.534
 9581SOL    HW129642   1.101   5.318   6.606
 9581SOL    HW229643   1.007   5.188   6.573
 9582SOL     OW29644   4.334   4.703   4.792
 9582SOL    HW129645   4.300   4.681   4.883
 9582SOL    HW229646   4.429   4.733   4.798
 9583SOL     OW29647   2.809   3.463   0.925
 9583SOL    HW129648   2.896   3.413   0.920
 9583SOL    HW229649   2.803   3.527   0.849
 9584SOL     OW29650   6.188   6.427   0.095
 9584SOL    HW129651   6.130   6.420   0.015
 9584SOL    HW229652   6.227   6.337   0.116
 9585SOL     OW29653   6.789   1.068   2.857
 9585SOL    HW129654   6.745   1.150   2.893
 9585SOL    HW229655   6.839   1.022   2.931
 9586SOL     OW29656   6.359   3.920   2.333
 9586SOL    HW129657   6.268   3.924   2.291
 9586SOL    HW229658   6.367   3.838   2.389
 9587SOL     OW29659   6.119   0.640   2.243
 9587SOL    HW129660   6.116   0.567   2.310
 9587SOL    HW229661   6.145   0.726   2.287
 9588SOL     OW29662   0.685   1.788   2.243
 9588SOL    HW129663   0.702   1.887   2.247
 9588SOL    HW229664   0.747   1.747   2.177
 9589SOL     OW29665   2.626   5.508   6.222
 9589SOL    HW129666   2.548   5.453   6.248
 9589SOL    HW229667   2.646   5.575   6.293
 9590SOL     OW29668   0.386   5.166   2.783
 9590SOL    HW129669   0.327   5.233   2.738
 9590SOL    HW229670   0.432   5.110   2.714
 9591SOL     OW29671   3.242   6.139   6.856
 9591SOL    HW129672   3.297   6.095   6.928
 9591SOL    HW229673   3.156   6.172   6.896
 9592SOL     OW29674   3.834   5.121   1.847
 9592SOL    HW129675   3.856   5.218   1.853
 9592SOL    HW229676   3.790   5.102   1.759
 9593SOL     OW29677   6.006   1.290   4.430
 9593SOL    HW129678   6.098   1.302   4.469
 9593SOL    HW229679   5.942   1.265   4.503
 9594SOL     OW29680   0.639   6.073   3.598
 9594SOL    HW129681   0.589   6.036   3.519
 9594SOL    HW229682   0.737   6.057   3.585
 9595SOL     OW29683   1.971   4.173   4.345
 9595SOL    HW129684   1.949   4.087   4.390
 9595SOL    HW229685   1.941   4.170   4.250
 9596SOL     OW29686   0.055   5.612   0.476
 9596SOL    HW129687   7.016   5.567   0.410
 9596SOL    HW229688   7.020   5.651   0.550
 9597SOL     OW29689   6.895   4.207   0.930
 9597SOL    HW129690   6.981   4.240   0.968
 9597SOL    HW229691   6.893   4.107   0.933
 9598SOL     OW29692   0.673   3.710   4.957
 9598SOL    HW129693   0.704   3.651   4.882
 9598SOL    HW229694   0.646   3.654   5.035
 9599SOL     OW29695   3.046   0.811   5.167
 9599SOL    HW129696   3.130   0.860   5.190
 9599SOL    HW229697   2.995   0.862   5.097
 9600SOL     OW29698   2.259   6.794   6.043
 9600SOL    HW129699   2.253   6.859   5.967
 9600SOL    HW229700   2.174   6.741   6.049
 9601SOL     OW29701   6.198   3.892   0.042
 9601SOL    HW129702   6.283   3.942   0.057
 9601SOL    HW229703   6.148   3.933   6.987
 9602SOL     OW29704   6.472   4.901   6.178
 9602SOL    HW129705   6.453   4.827   6.243
 9602SOL    HW229706   6.387   4.951   6.159
 9603SOL     OW29707   2.707   6.970   4.383
 9603SOL    HW129708   2.707   6.970   4.483
 9603SOL    HW229709   2.785   6.918   4.348
 9604SOL     OW29710   4.958   0.323   0.793
 9604SOL    HW129711   4.864   0.312   0.758
 9604SOL    HW229712   5.022   0.282   0.729
 9605SOL     OW29713   0.104   4.539   5.335
 9605SOL    HW129714   0.148   4.627   5.319
 9605SOL    HW229715   0.174   4.470   5.356
 9606SOL     OW29716   1.264   6.636   4.774
 9606SOL    HW129717   1.173   6.672   4.792
 9606SOL    HW229718   1.307   6.611   4.861
 9607SOL     OW29719   1.064   2.309   1.927
 9607SOL    HW129720   0.993   2.248   1.891
 9607SOL    HW229721   1.107   2.359   1.851
 9608SOL     OW29722   0.303   6.539   2.677
 9608SOL    HW129723   0.240   6.532   2.754
 9608SOL    HW229724   0.378   6.602   2.700
 9609SOL     OW29725   1.401   4.205   4.666
 9609SOL    HW129726   1.430   4.123   4.615
 9609SOL    HW229727   1.467   4.278   4.652
 9610SOL     OW29728   1.475   3.917   4.630
 9610SOL    HW129729   1.551   3.935   4.692
 9610SOL    HW229730   1.399   3.876   4.682
 9611SOL     OW29731   0.302   6.266   1.505
 9611SOL    HW129732   0.274   6.171   1.495
 9611SOL    HW229733   0.302   6.310   1.415
 9612SOL     OW29734   6.183   3.224   1.369
 9612SOL    HW129735   6.202   3.212   1.466
 9612SOL    HW229736   6.087   3.251   1.357
 9613SOL     OW29737   5.100   5.874   3.710
 9613SOL    HW129738   5.119   5.867   3.612
 9613SOL    HW229739   5.091   5.783   3.749
 9614SOL     OW29740   3.823   3.804   1.157
 9614SOL    HW129741   3.745   3.792   1.096
 9614SOL    HW229742   3.873   3.887   1.133
 9615SOL     OW29743   1.276   6.529   2.242
 9615SOL    HW129744   1.202   6.497   2.301
 9615SOL    HW229745   1.283   6.469   2.162
 9616SOL     OW29746   3.965   3.980   0.530
 9616SOL    HW129747   4.031   4.013   0.463
 9616SOL    HW229748   3.893   4.049   0.543
 9617SOL     OW29749   0.905   4.155   4.149
 9617SOL    HW129750   0.961   4.177   4.229
 9617SOL    HW229751   0.873   4.060   4.156
 9618SOL     OW29752   3.743   6.810   6.133
 9618SOL    HW129753   3.656   6.806   6.181
 9618SOL    HW229754   3.766   6.905   6.113
 9619SOL     OW29755   1.554   0.316   0.874
 9619SOL    HW129756   1.591   0.223   0.870
 9619SOL    HW229757   1.464   0.314   0.917
 9620SOL     OW29758   5.209   1.738   6.744
 9620SOL    HW129759   5.222   1.837   6.754
 9620SOL    HW229760   5.172   1.718   6.653
 9621SOL     OW29761   1.563   1.230   2.703
 9621SOL    HW129762   1.470   1.195   2.709
 9621SOL    HW229763   1.580   1.264   2.611
 9622SOL     OW29764   5.903   1.659   6.865
 9622SOL    HW129765   5.848   1.742   6.856
 9622SOL    HW229766   5.843   1.579   6.860
 9623SOL     OW29767   4.170   5.443   5.691
 9623SOL    HW129768   4.211   5.519   5.741
 9623SOL    HW229769   4.073   5.434   5.716
 9624SOL     OW29770   5.278   4.109   5.035
 9624SOL    HW129771   5.365   4.129   5.080
 9624SOL    HW229772   5.277   4.014   5.004
 9625SOL     OW29773   5.059   4.428   6.932
 9625SOL    HW129774   5.117   4.355   6.970
 9625SOL    HW229775   5.112   4.481   6.865
 9626SOL     OW29776   2.372   5.806   5.395
 9626SOL    HW129777   2.458   5.759   5.416
 9626SOL    HW229778   2.388   5.874   5.323
 9627SOL     OW29779   0.312   4.161   4.706
 9627SOL    HW129780   0.374   4.186   4.779
 9627SOL    HW229781   0.269   4.244   4.669
 9628SOL     OW29782   6.221   3.840   1.001
 9628SOL    HW129783   6.164   3.911   0.960
 9628SOL    HW229784   6.308   3.879   1.028
 9629SOL     OW29785   6.704   5.975   3.320
 9629SOL    HW129786   6.617   6.015   3.292
 9629SOL    HW229787   6.772   5.989   3.247
 9630SOL     OW29788   6.039   6.103   5.548
 9630SOL    HW129789   6.135   6.086   5.572
 9630SOL    HW229790   6.033   6.186   5.493
 9631SOL     OW29791   4.347   2.000   0.734
 9631SOL    HW129792   4.273   2.042   0.786
 9631SOL    HW229793   4.321   1.907   0.707
 9632SOL     OW29794   2.023   5.280   2.289
 9632SOL    HW129795   2.108   5.332   2.294
 9632SOL    HW229796   1.979   5.277   2.379
 9633SOL     OW29797   3.690   4.033   0.060
 9633SOL    HW129798   3.755   4.105   0.037
 9633SOL    HW229799   3.642   4.004   6.999
 9634SOL     OW29800   6.657   5.676   3.266
 9634SOL    HW129801   6.576   5.710   3.313
 9634SOL    HW229802   6.739   5.712   3.310
 9635SOL     OW29803   1.218   4.289   5.474
 9635SOL    HW129804   1.136   4.254   5.429
 9635SOL    HW229805   1.298   4.237   5.445
 9636SOL     OW29806   3.811   1.587   5.842
 9636SOL    HW129807   3.721   1.554   5.817
 9636SOL    HW229808   3.851   1.528   5.913
 9637SOL     OW29809   3.788   3.214   1.445
 9637SOL    HW129810   3.864   3.182   1.388
 9637SOL    HW229811   3.825   3.258   1.527
 9638SOL     OW29812   6.865   3.374   5.756
 9638SOL    HW129813   6.963   3.366   5.774
 9638SOL    HW229814   6.824   3.439   5.821
 9639SOL     OW29815   4.323   2.166   1.821
 9639SOL    HW129816   4.353   2.083   1.867
 9639SOL    HW229817   4.254   2.212   1.877
 9640SOL     OW29818   3.368   0.412   2.256
 9640SOL    HW129819   3.336   0.416   2.350
 9640SOL    HW229820   3.301   0.363   2.200
 9641SOL     OW29821   5.964   5.901   2.073
 9641SOL    HW129822   5.918   5.835   2.132
 9641SOL    HW229823   6.010   5.852   1.999
 9642SOL     OW29824   1.432   6.392   4.168
 9642SOL    HW129825   1.336   6.414   4.149
 9642SOL    HW229826   1.436   6.318   4.234
 9643SOL     OW29827   5.063   4.067   3.839
 9643SOL    HW129828   5.076   3.980   3.792
 9643SOL    HW229829   5.083   4.056   3.936
 9644SOL     OW29830   1.659   5.676   5.690
 9644SOL    HW129831   1.758   5.679   5.675
 9644SOL    HW229832   1.630   5.581   5.698
 9645SOL     OW29833   2.343   4.550   4.838
 9645SOL    HW129834   2.341   4.551   4.938
 9645SOL    HW229835   2.293   4.470   4.805
 9646SOL     OW29836   2.828   5.294   1.959
 9646SOL    HW129837   2.736   5.263   1.984
 9646SOL    HW229838   2.894   5.221   1.978
 9647SOL     OW29839   0.151   0.061   3.527
 9647SOL    HW129840   0.223   0.034   3.591
 9647SOL    HW229841   0.064   0.022   3.556
 9648SOL     OW29842   4.389   2.542   0.891
 9648SOL    HW129843   4.322   2.490   0.837
 9648SOL    HW229844   4.343   2.582   0.970
 9649SOL     OW29845   2.410   4.176   6.983
 9649SOL    HW129846   2.392   4.080   7.005
 9649SOL    HW229847   2.506   4.197   7.003
 9650SOL     OW29848   4.589   4.426   2.801
 9650SOL    HW129849   4.508   4.453   2.749
 9650SOL    HW229850   4.614   4.332   2.777
 9651SOL     OW29851   4.744   1.285   1.204
 9651SOL    HW129852   4.737   1.333   1.292
 9651SOL    HW229853   4.832   1.306   1.162
 9652SOL     OW29854   0.957   5.040   1.546
 9652SOL    HW129855   0.864   5.033   1.511
 9652SOL    HW229856   0.963   5.119   1.608
 9653SOL     OW29857   4.648   4.711   4.808
 9653SOL    HW129858   4.623   4.673   4.897
 9653SOL    HW229859   4.729   4.769   4.818
 9654SOL     OW29860   3.053   3.424   3.016
 9654SOL    HW129861   3.013   3.418   2.924
 9654SOL    HW229862   3.012   3.354   3.074
 9655SOL     OW29863   0.075   1.965   0.567
 9655SOL    HW129864   0.066   1.915   0.481
 9655SOL    HW229865   7.012   2.015   0.585
 9656SOL     OW29866   4.399   2.932   1.357
 9656SOL    HW129867   4.376   2.837   1.337
 9656SOL    HW229868   4.412   2.943   1.456
 9657SOL     OW29869   5.874   3.937   2.628
 9657SOL    HW129870   5.797   3.913   2.568
 9657SOL    HW229871   5.846   3.926   2.723
 9658SOL     OW29872   5.597   1.497   2.233
 9658SOL    HW129873   5.587   1.476   2.136
 9658SOL    HW229874   5.507   1.504   2.276
 9659SOL     OW29875   1.039   2.916   6.956
 9659SOL    HW129876   1.097   2.991   6.986
 9659SOL    HW229877   1.061   2.833   7.007
 9660SOL     OW29878   0.741   6.968   2.841
 9660SOL    HW129879   0.771   6.872   2.843
 9660SOL    HW229880   0.642   6.973   2.851
 9661SOL     OW29881   3.924   6.281   1.497
 9661SOL    HW129882   3.867   6.221   1.442
 9661SOL    HW229883   3.866   6.332   1.561
 9662SOL     OW29884   5.015   3.803   6.900
 9662SOL    HW129885   5.081   3.769   6.832
 9662SOL    HW229886   4.984   3.726   6.956
 9663SOL     OW29887   0.347   5.814   2.796
 9663SOL    HW129888   0.256   5.807   2.756
 9663SOL    HW229889   0.416   5.815   2.723
 9664SOL     OW29890   5.692   4.720   4.122
 9664SOL    HW129891   5.701   4.633   4.170
 9664SOL    HW229892   5.690   4.794   4.189
 9665SOL     OW29893   5.809   6.754   6.081
 9665SOL    HW129894   5.860   6.697   6.146
 9665SOL    HW229895   5.746   6.813   6.132
 9666SOL     OW29896   6.423   3.850   1.977
 9666SOL    HW129897   6.468   3.939   1.970
 9666SOL    HW229898   6.326   3.860   1.956
 9667SOL     OW29899   3.888   3.684   6.901
 9667SOL    HW129900   3.944   3.628   6.840
 9667SOL    HW229901   3.794   3.651   6.900
 9668SOL     OW29902   0.891   0.455   6.398
 9668SOL    HW129903   0.932   0.502   6.476
 9668SOL    HW229904   0.904   0.356   6.409
 9669SOL     OW29905   2.352   6.833   1.722
 9669SOL    HW129906   2.280   6.899   1.743
 9669SOL    HW229907   2.312   6.742   1.714
 9670SOL     OW29908   0.150   5.113   5.821
 9670SOL    HW129909   0.142   5.032   5.762
 9670SOL    HW229910   0.214   5.094   5.895
 9671SOL     OW29911   6.686   4.180   0.119
 9671SOL    HW129912   6.743   4.206   0.040
 9671SOL    HW229913   6.740   4.124   0.181
 9672SOL     OW29914   2.068   4.757   3.299
 9672SOL    HW129915   2.092   4.709   3.384
 9672SOL    HW229916   2.151   4.773   3.245
 9673SOL     OW29917   3.351   3.375   0.597
 9673SOL    HW129918   3.307   3.308   0.538
 9673SOL    HW229919   3.282   3.436   0.636
 9674SOL     OW29920   4.178   6.493   3.315
 9674SOL    HW129921   4.239   6.422   3.281
 9674SOL    HW229922   4.227   6.580   3.321
 9675SOL     OW29923   5.326   2.388   6.554
 9675SOL    HW129924   5.370   2.425   6.635
 9675SOL    HW229925   5.359   2.437   6.473
 9676SOL     OW29926   1.401   3.377   5.931
 9676SOL    HW129927   1.463   3.315   5.882
 9676SOL    HW229928   1.309   3.368   5.894
 9677SOL     OW29929   6.448   4.908   4.819
 9677SOL    HW129930   6.420   4.967   4.744
 9677SOL    HW229931   6.472   4.963   4.898
 9678SOL     OW29932   2.887   3.449   3.944
 9678SOL    HW129933   2.790   3.472   3.955
 9678SOL    HW229934   2.940   3.532   3.933
 9679SOL     OW29935   2.086   0.493   3.734
 9679SOL    HW129936   2.037   0.452   3.657
 9679SOL    HW229937   2.184   0.474   3.724
 9680SOL     OW29938   4.472   0.160   4.257
 9680SOL    HW129939   4.563   0.157   4.298
 9680SOL    HW229940   4.420   0.079   4.285
 9681SOL     OW29941   2.557   2.243   0.720
 9681SOL    HW129942   2.566   2.285   0.810
 9681SOL    HW229943   2.642   2.257   0.668
 9682SOL     OW29944   4.781   4.200   3.785
 9682SOL    HW129945   4.736   4.196   3.696
 9682SOL    HW229946   4.804   4.107   3.815
 9683SOL     OW29947   3.399   6.658   1.503
 9683SOL    HW129948   3.448   6.710   1.433
 9683SOL    HW229949   3.347   6.585   1.460
 9684SOL     OW29950   0.897   3.513   5.637
 9684SOL    HW129951   0.874   3.453   5.713
 9684SOL    HW229952   0.980   3.564   5.658
 9685SOL     OW29953   4.925   4.053   1.076
 9685SOL    HW129954   4.875   4.125   1.028
 9685SOL    HW229955   4.861   3.982   1.105
 9686SOL     OW29956   0.517   2.947   6.049
 9686SOL    HW129957   0.450   2.873   6.045
 9686SOL    HW229958   0.470   3.035   6.050
 9687SOL     OW29959   0.687   0.918   3.738
 9687SOL    HW129960   0.592   0.914   3.767
 9687SOL    HW229961   0.733   0.833   3.765
 9688SOL     OW29962   0.920   2.746   0.964
 9688SOL    HW129963   0.936   2.795   0.878
 9688SOL    HW229964   0.844   2.789   1.012
 9689SOL     OW29965   1.247   4.480   6.364
 9689SOL    HW129966   1.257   4.403   6.427
 9689SOL    HW229967   1.233   4.564   6.417
 9690SOL     OW29968   5.823   6.234   6.411
 9690SOL    HW129969   5.788   6.319   6.450
 9690SOL    HW229970   5.923   6.238   6.406
 9691SOL     OW29971   2.799   4.143   1.284
 9691SOL    HW129972   2.712   4.172   1.324
 9691SOL    HW229973   2.856   4.223   1.267
 9692SOL     OW29974   4.193   6.245   1.481
 9692SOL    HW129975   4.221   6.194   1.400
 9692SOL    HW229976   4.095   6.265   1.476
 9693SOL     OW29977   5.926   4.192   2.556
 9693SOL    HW129978   5.946   4.228   2.465
 9693SOL    HW229979   5.905   4.094   2.548
 9694SOL     OW29980   3.044   1.354   1.662
 9694SOL    HW129981   3.115   1.422   1.641
 9694SOL    HW229982   3.024   1.355   1.760
 9695SOL     OW29983   7.012   2.846   3.201
 9695SOL    HW129984   6.980   2.837   3.296
 9695SOL    HW229985   7.015   2.943   3.177
 9696SOL     OW29986   5.328   2.732   1.418
 9696SOL    HW129987   5.255   2.801   1.419
 9696SOL    HW229988   5.291   2.645   1.387
 9697SOL     OW29989   0.403   5.522   0.075
 9697SOL    HW129990   0.451   5.609   0.082
 9697SOL    HW229991   0.410   5.472   0.161
 9698SOL     OW29992   5.607   2.309   6.188
 9698SOL    HW129993   5.512   2.310   6.158
 9698SOL    HW229994   5.660   2.247   6.130
 9699SOL     OW29995   6.614   5.688   6.839
 9699SOL    HW129996   6.599   5.598   6.879
 9699SOL    HW229997   6.529   5.739   6.837
 9700SOL     OW29998   5.683   5.317   5.102
 9700SOL    HW129999   5.715   5.265   5.181
 9700SOL    HW230000   5.622   5.260   5.048
 9701SOL     OW30001   4.650   4.379   5.568
 9701SOL    HW130002   4.744   4.379   5.533
 9701SOL    HW230003   4.646   4.430   5.653
 9702SOL     OW30004   3.554   2.334   0.069
 9702SOL    HW130005   3.459   2.310   0.092
 9702SOL    HW230006   3.614   2.257   0.092
 9703SOL     OW30007   4.942   3.718   3.662
 9703SOL    HW130008   5.039   3.730   3.685
 9703SOL    HW230009   4.914   3.624   3.682
 9704SOL     OW30010   3.231   6.397   1.005
 9704SOL    HW130011   3.230   6.300   1.028
 9704SOL    HW230012   3.149   6.419   0.951
 9705SOL     OW30013   5.701   4.339   6.259
 9705SOL    HW130014   5.663   4.425   6.294
 9705SOL    HW230015   5.718   4.347   6.161
 9706SOL     OW30016   2.213   2.622   1.068
 9706SOL    HW130017   2.225   2.636   0.970
 9706SOL    HW230018   2.180   2.529   1.084
 9707SOL     OW30019   6.579   4.601   2.637
 9707SOL    HW130020   6.512   4.532   2.608
 9707SOL    HW230021   6.552   4.691   2.603
 9708SOL     OW30022   0.658   1.312   3.597
 9708SOL    HW130023   0.564   1.281   3.580
 9708SOL    HW230024   0.708   1.314   3.510
 9709SOL     OW30025   5.545   6.260   2.377
 9709SOL    HW130026   5.577   6.169   2.405
 9709SOL    HW230027   5.616   6.327   2.395
 9710SOL     OW30028   6.590   1.380   1.306
 9710SOL    HW130029   6.645   1.392   1.223
 9710SOL    HW230030   6.520   1.451   1.310
 9711SOL     OW30031   3.394   5.300   5.273
 9711SOL    HW130032   3.395   5.260   5.181
 9711SOL    HW230033   3.382   5.227   5.340
 9712SOL     OW30034   5.453   3.812   6.561
 9712SOL    HW130035   5.513   3.743   6.520
 9712SOL    HW230036   5.507   3.894   6.581
 9713SOL     OW30037   2.061   4.278   3.411
 9713SOL    HW130038   2.122   4.291   3.489
 9713SOL    HW230039   1.987   4.345   3.415
 9714SOL     OW30040   4.389   6.445   6.561
 9714SOL    HW130041   4.444   6.527   6.543
 9714SOL    HW230042   4.402   6.380   6.485
 9715SOL     OW30043   5.852   4.106   0.188
 9715SOL    HW130044   5.923   4.173   0.164
 9715SOL    HW230045   5.765   4.135   0.148
 9716SOL     OW30046   3.285   4.674   6.946
 9716SOL    HW130047   3.273   4.583   6.985
 9716SOL    HW230048   3.230   4.740   6.998
 9717SOL     OW30049   5.318   6.659   6.185
 9717SOL    HW130050   5.305   6.748   6.143
 9717SOL    HW230051   5.336   6.591   6.114
 9718SOL     OW30052   5.041   3.334   0.552
 9718SOL    HW130053   4.964   3.386   0.518
 9718SOL    HW230054   5.008   3.257   0.607
 9719SOL     OW30055   6.137   1.082   5.613
 9719SOL    HW130056   6.077   1.150   5.655
 9719SOL    HW230057   6.212   1.128   5.565
 9720SOL     OW30058   1.048   4.277   2.089
 9720SOL    HW130059   0.964   4.315   2.127
 9720SOL    HW230060   1.090   4.215   2.156
 9721SOL     OW30061   0.275   1.613   0.603
 9721SOL    HW130062   0.196   1.643   0.656
 9721SOL    HW230063   0.294   1.517   0.621
 9722SOL     OW30064   4.021   1.632   5.122
 9722SOL    HW130065   4.030   1.699   5.195
 9722SOL    HW230066   4.026   1.678   5.033
 9723SOL     OW30067   3.967   6.488   3.478
 9723SOL    HW130068   3.897   6.559   3.481
 9723SOL    HW230069   4.041   6.517   3.416
 9724SOL     OW30070   1.948   5.034   6.743
 9724SOL    HW130071   1.889   4.984   6.678
 9724SOL    HW230072   2.028   5.069   6.694
 9725SOL     OW30073   4.784   6.031   6.138
 9725SOL    HW130074   4.713   6.094   6.106
 9725SOL    HW230075   4.820   5.979   6.060
 9726SOL     OW30076   4.947   1.325   3.737
 9726SOL    HW130077   4.889   1.381   3.797
 9726SOL    HW230078   4.897   1.243   3.709
 9727SOL     OW30079   1.154   2.510   6.833
 9727SOL    HW130080   1.151   2.430   6.892
 9727SOL    HW230081   1.220   2.576   6.868
 9728SOL     OW30082   0.892   0.757   5.460
 9728SOL    HW130083   0.885   0.660   5.485
 9728SOL    HW230084   0.888   0.767   5.361
 9729SOL     OW30085   0.908   3.926   3.533
 9729SOL    HW130086   0.871   4.013   3.502
 9729SOL    HW230087   0.992   3.942   3.586
 9730SOL     OW30088   1.763   4.868   2.795
 9730SOL    HW130089   1.760   4.780   2.843
 9730SOL    HW230090   1.855   4.907   2.803
 9731SOL     OW30091   5.074   5.563   1.494
 9731SOL    HW130092   5.117   5.635   1.440
 9731SOL    HW230093   5.136   5.533   1.566
 9732SOL     OW30094   0.585   4.664   2.387
 9732SOL    HW130095   0.578   4.764   2.384
 9732SOL    HW230096   0.664   4.638   2.443
 9733SOL     OW30097   5.014   5.222   0.648
 9733SOL    HW130098   4.949   5.174   0.590
 9733SOL    HW230099   4.972   5.239   0.738
 9734SOL     OW30100   6.658   1.034   0.819
 9734SOL    HW130101   6.622   1.032   0.726
 9734SOL    HW230102   6.703   0.947   0.839
 9735SOL     OW30103   2.106   3.573   3.374
 9735SOL    HW130104   2.178   3.629   3.333
 9735SOL    HW230105   2.104   3.484   3.330
 9736SOL     OW30106   5.940   1.275   5.697
 9736SOL    HW130107   5.899   1.309   5.613
 9736SOL    HW230108   5.886   1.306   5.775
 9737SOL     OW30109   5.038   2.106   3.191
 9737SOL    HW130110   5.028   2.006   3.199
 9737SOL    HW230111   4.948   2.149   3.195
 9738SOL     OW30112   2.404   0.058   0.374
 9738SOL    HW130113   2.466   7.005   0.400
 9738SOL    HW230114   2.328   0.020   0.321
 9739SOL     OW30115   4.803   5.936   0.818
 9739SOL    HW130116   4.852   5.988   0.888
 9739SOL    HW230117   4.857   5.935   0.734
 9740SOL     OW30118   0.251   1.393   3.560
 9740SOL    HW130119   0.305   1.373   3.478
 9740SOL    HW230120   0.214   1.486   3.554
 9741SOL     OW30121   3.133   1.788   2.369
 9741SOL    HW130122   3.126   1.727   2.290
 9741SOL    HW230123   3.084   1.873   2.350
 9742SOL     OW30124   3.825   1.315   0.260
 9742SOL    HW130125   3.874   1.402   0.256
 9742SOL    HW230126   3.727   1.331   0.253
 9743SOL     OW30127   6.910   3.602   4.022
 9743SOL    HW130128   7.006   3.629   4.015
 9743SOL    HW230129   6.890   3.575   4.117
 9744SOL     OW30130   1.210   6.756   1.897
 9744SOL    HW130131   1.193   6.835   1.838
 9744SOL    HW230132   1.150   6.681   1.871
 9745SOL     OW30133   5.074   2.437   6.531
 9745SOL    HW130134   5.022   2.355   6.552
 9745SOL    HW230135   5.172   2.415   6.528
 9746SOL     OW30136   6.091   0.544   5.984
 9746SOL    HW130137   6.045   0.547   6.072
 9746SOL    HW230138   6.190   0.542   5.997
 9747SOL     OW30139   2.728   1.865   1.856
 9747SOL    HW130140   2.750   1.821   1.769
 9747SOL    HW230141   2.743   1.963   1.849
 9748SOL     OW30142   6.538   6.767   3.710
 9748SOL    HW130143   6.563   6.671   3.722
 9748SOL    HW230144   6.488   6.799   3.790
 9749SOL     OW30145   1.953   0.378   4.303
 9749SOL    HW130146   1.954   0.457   4.241
 9749SOL    HW230147   1.859   0.346   4.315
 9750SOL     OW30148   5.608   5.146   3.086
 9750SOL    HW130149   5.626   5.161   3.183
 9750SOL    HW230150   5.510   5.162   3.068
 9751SOL     OW30151   2.506   0.410   1.017
 9751SOL    HW130152   2.582   0.353   0.985
 9751SOL    HW230153   2.434   0.411   0.949
 9752SOL     OW30154   3.949   2.189   5.228
 9752SOL    HW130155   3.904   2.109   5.267
 9752SOL    HW230156   3.896   2.224   5.151
 9753SOL     OW30157   0.166   5.438   6.525
 9753SOL    HW130158   0.260   5.468   6.509
 9753SOL    HW230159   0.161   5.391   6.614
 9754SOL     OW30160   1.879   0.420   0.876
 9754SOL    HW130161   1.863   0.323   0.892
 9754SOL    HW230162   1.806   0.457   0.819
 9755SOL     OW30163   3.558   3.641   4.204
 9755SOL    HW130164   3.658   3.638   4.212
 9755SOL    HW230165   3.517   3.602   4.286
 9756SOL     OW30166   5.746   2.712   6.362
 9756SOL    HW130167   5.659   2.721   6.313
 9756SOL    HW230168   5.790   2.626   6.335
 9757SOL     OW30169   5.653   4.305   4.023
 9757SOL    HW130170   5.644   4.207   4.042
 9757SOL    HW230171   5.597   4.328   3.943
 9758SOL     OW30172   2.392   0.520   6.630
 9758SOL    HW130173   2.419   0.475   6.714
 9758SOL    HW230174   2.372   0.617   6.648
 9759SOL     OW30175   1.322   0.639   0.740
 9759SOL    HW130176   1.247   0.699   0.768
 9759SOL    HW230177   1.367   0.678   0.659
 9760SOL     OW30178   5.164   2.883   5.833
 9760SOL    HW130179   5.151   2.878   5.734
 9760SOL    HW230180   5.075   2.897   5.878
 9761SOL     OW30181   0.473   1.598   2.078
 9761SOL    HW130182   0.392   1.573   2.131
 9761SOL    HW230183   0.539   1.643   2.138
 9762SOL     OW30184   3.084   1.902   4.636
 9762SOL    HW130185   3.134   1.921   4.552
 9762SOL    HW230186   3.059   1.988   4.681
 9763SOL     OW30187   4.926   1.895   2.641
 9763SOL    HW130188   4.911   1.990   2.617
 9763SOL    HW230189   4.861   1.837   2.593
 9764SOL     OW30190   6.749   2.982   3.101
 9764SOL    HW130191   6.808   2.928   3.041
 9764SOL    HW230192   6.665   3.006   3.052
 9765SOL     OW30193   6.574   6.491   3.724
 9765SOL    HW130194   6.646   6.460   3.663
 9765SOL    HW230195   6.488   6.445   3.701
 9766SOL     OW30196   2.660   7.016   2.026
 9766SOL    HW130197   2.749   0.018   2.067
 9766SOL    HW230198   2.587   0.040   2.078
 9767SOL     OW30199   3.649   1.441   5.662
 9767SOL    HW130200   3.718   1.374   5.634
 9767SOL    HW230201   3.623   1.496   5.583
 9768SOL     OW30202   5.539   1.092   1.772
 9768SOL    HW130203   5.456   1.123   1.818
 9768SOL    HW230204   5.519   1.007   1.723
 9769SOL     OW30205   4.420   0.551   4.787
 9769SOL    HW130206   4.447   0.606   4.866
 9769SOL    HW230207   4.396   0.459   4.817
 9770SOL     OW30208   3.782   1.129   6.031
 9770SOL    HW130209   3.825   1.057   6.085
 9770SOL    HW230210   3.696   1.097   5.994
 9771SOL     OW30211   2.844   5.760   0.463
 9771SOL    HW130212   2.855   5.764   0.563
 9771SOL    HW230213   2.811   5.848   0.430
 9772SOL     OW30214   1.430   6.061   1.519
 9772SOL    HW130215   1.452   6.152   1.484
 9772SOL    HW230216   1.435   6.062   1.619
 9773SOL     OW30217   5.243   5.332   4.571
 9773SOL    HW130218   5.336   5.365   4.557
 9773SOL    HW230219   5.236   5.238   4.537
 9774SOL     OW30220   6.857   5.812   2.050
 9774SOL    HW130221   6.805   5.740   2.005
 9774SOL    HW230222   6.951   5.782   2.063
 9775SOL     OW30223   3.002   0.550   3.225
 9775SOL    HW130224   3.032   0.500   3.144
 9775SOL    HW230225   3.022   0.497   3.307
 9776SOL     OW30226   0.678   4.682   5.222
 9776SOL    HW130227   0.654   4.708   5.128
 9776SOL    HW230228   0.775   4.701   5.238
 9777SOL     OW30229   5.925   5.919   0.242
 9777SOL    HW130230   5.896   5.831   0.280
 9777SOL    HW230231   5.932   5.912   0.143
 9778SOL     OW30232   0.409   1.482   4.266
 9778SOL    HW130233   0.402   1.581   4.252
 9778SOL    HW230234   0.323   1.447   4.304
 9779SOL     OW30235   0.878   1.736   3.916
 9779SOL    HW130236   0.805   1.674   3.886
 9779SOL    HW230237   0.842   1.796   3.988
 9780SOL     OW30238   2.221   2.380   0.544
 9780SOL    HW130239   2.216   2.326   0.628
 9780SOL    HW230240   2.296   2.446   0.551
 9781SOL     OW30241   1.947   2.276   4.773
 9781SOL    HW130242   2.040   2.301   4.748
 9781SOL    HW230243   1.913   2.341   4.842
 9782SOL     OW30244   0.342   0.993   1.287
 9782SOL    HW130245   0.384   1.075   1.247
 9782SOL    HW230246   0.381   0.977   1.378
 9783SOL     OW30247   4.741   2.787   3.329
 9783SOL    HW130248   4.831   2.747   3.346
 9783SOL    HW230249   4.729   2.867   3.387
 9784SOL     OW30250   3.231   2.358   6.224
 9784SOL    HW130251   3.278   2.319   6.145
 9784SOL    HW230252   3.166   2.292   6.261
 9785SOL     OW30253   1.233   2.250   5.917
 9785SOL    HW130254   1.189   2.227   6.004
 9785SOL    HW230255   1.163   2.258   5.846
 9786SOL     OW30256   2.650   4.328   0.363
 9786SOL    HW130257   2.744   4.307   0.392
 9786SOL    HW230258   2.645   4.325   0.263
 9787SOL     OW30259   3.189   3.519   2.576
 9787SOL    HW130260   3.241   3.543   2.494
 9787SOL    HW230261   3.123   3.592   2.596
 9788SOL     OW30262   0.793   0.264   3.689
 9788SOL    HW130263   0.822   0.259   3.785
 9788SOL    HW230264   0.873   0.263   3.630
 9789SOL     OW30265   1.740   5.634   0.758
 9789SOL    HW130266   1.754   5.563   0.827
 9789SOL    HW230267   1.691   5.595   0.680
 9790SOL     OW30268   6.574   4.909   6.604
 9790SOL    HW130269   6.594   4.942   6.696
 9790SOL    HW230270   6.500   4.841   6.608
 9791SOL     OW30271   0.438   0.727   0.305
 9791SOL    HW130272   0.440   0.672   0.221
 9791SOL    HW230273   0.503   0.803   0.297
 9792SOL     OW30274   3.526   4.086   0.334
 9792SOL    HW130275   3.546   4.154   0.404
 9792SOL    HW230276   3.611   4.039   0.308
 9793SOL     OW30277   4.085   6.953   2.517
 9793SOL    HW130278   4.002   6.901   2.535
 9793SOL    HW230279   4.105   7.011   2.596
 9794SOL     OW30280   0.084   4.076   6.796
 9794SOL    HW130281   0.012   4.131   6.754
 9794SOL    HW230282   0.169   4.128   6.799
 9795SOL     OW30283   1.721   1.660   4.418
 9795SOL    HW130284   1.692   1.743   4.371
 9795SOL    HW230285   1.683   1.659   4.510
 9796SOL     OW30286   3.000   3.144   2.591
 9796SOL    HW130287   3.017   3.169   2.496
 9796SOL    HW230288   2.934   3.069   2.595
 9797SOL     OW30289   1.812   5.620   0.227
 9797SOL    HW130290   1.775   5.701   0.182
 9797SOL    HW230291   1.777   5.538   0.183
 9798SOL     OW30292   3.319   0.416   2.509
 9798SOL    HW130293   3.248   0.486   2.504
 9798SOL    HW230294   3.318   0.375   2.600
 9799SOL     OW30295   3.006   3.983   5.621
 9799SOL    HW130296   3.048   4.055   5.675
 9799SOL    HW230297   2.931   4.020   5.566
 9800SOL     OW30298   4.308   5.074   4.953
 9800SOL    HW130299   4.356   5.133   4.887
 9800SOL    HW230300   4.210   5.083   4.940
 9801SOL     OW30301   4.905   3.965   0.335
 9801SOL    HW130302   4.905   4.038   0.403
 9801SOL    HW230303   4.946   3.998   0.250
 9802SOL     OW30304   0.008   4.397   2.097
 9802SOL    HW130305   0.023   4.365   2.004
 9802SOL    HW230306   0.014   4.320   2.160
 9803SOL     OW30307   1.829   2.094   6.433
 9803SOL    HW130308   1.892   2.141   6.371
 9803SOL    HW230309   1.781   2.162   6.488
 9804SOL     OW30310   1.236   5.805   3.408
 9804SOL    HW130311   1.180   5.724   3.386
 9804SOL    HW230312   1.301   5.820   3.334
 9805SOL     OW30313   0.886   6.566   3.782
 9805SOL    HW130314   0.950   6.498   3.747
 9805SOL    HW230315   0.936   6.642   3.824
 9806SOL     OW30316   1.330   1.029   6.450
 9806SOL    HW130317   1.429   1.016   6.459
 9806SOL    HW230318   1.293   0.961   6.387
 9807SOL     OW30319   3.391   4.350   0.517
 9807SOL    HW130320   3.371   4.408   0.596
 9807SOL    HW230321   3.483   4.313   0.526
 9808SOL     OW30322   3.562   0.402   5.458
 9808SOL    HW130323   3.492   0.440   5.519
 9808SOL    HW230324   3.588   0.471   5.390
 9809SOL     OW30325   0.775   3.397   6.731
 9809SOL    HW130326   0.743   3.329   6.664
 9809SOL    HW230327   0.854   3.360   6.781
 9810SOL     OW30328   1.890   2.721   3.861
 9810SOL    HW130329   1.974   2.772   3.881
 9810SOL    HW230330   1.841   2.765   3.786
 9811SOL     OW30331   5.463   4.796   3.031
 9811SOL    HW130332   5.486   4.858   2.956
 9811SOL    HW230333   5.438   4.706   2.993
 9812SOL     OW30334   3.748   2.432   5.845
 9812SOL    HW130335   3.661   2.421   5.798
 9812SOL    HW230336   3.738   2.401   5.940
 9813SOL     OW30337   4.891   1.358   0.879
 9813SOL    HW130338   4.909   1.436   0.939
 9813SOL    HW230339   4.812   1.377   0.821
 9814SOL     OW30340   6.545   0.258   6.918
 9814SOL    HW130341   6.580   0.234   7.009
 9814SOL    HW230342   6.514   0.175   6.872
 9815SOL     OW30343   5.686   3.951   4.720
 9815SOL    HW130344   5.719   4.024   4.780
 9815SOL    HW230345   5.716   3.969   4.626
 9816SOL     OW30346   0.713   0.783   6.122
 9816SOL    HW130347   0.781   0.845   6.085
 9816SOL    HW230348   0.741   0.688   6.105
 9817SOL     OW30349   3.361   6.893   3.407
 9817SOL    HW130350   3.298   6.818   3.428
 9817SOL    HW230351   3.320   6.953   3.337
 9818SOL     OW30352   0.976   0.493   3.817
 9818SOL    HW130353   0.979   0.440   3.902
 9818SOL    HW230354   0.930   0.580   3.833
 9819SOL     OW30355   4.870   3.458   3.683
 9819SOL    HW130356   4.862   3.384   3.749
 9819SOL    HW230357   4.939   3.433   3.614
 9820SOL     OW30358   4.268   3.318   6.478
 9820SOL    HW130359   4.305   3.277   6.395
 9820SOL    HW230360   4.299   3.413   6.485
 9821SOL     OW30361   5.151   0.929   6.526
 9821SOL    HW130362   5.176   0.840   6.564
 9821SOL    HW230363   5.113   0.916   6.434
 9822SOL     OW30364   2.102   6.683   3.681
 9822SOL    HW130365   2.048   6.752   3.730
 9822SOL    HW230366   2.161   6.728   3.614
 9823SOL     OW30367   2.420   1.118   0.290
 9823SOL    HW130368   2.486   1.128   0.215
 9823SOL    HW230369   2.446   1.179   0.365
 9824SOL     OW30370   1.625   4.858   4.699
 9824SOL    HW130371   1.684   4.823   4.771
 9824SOL    HW230372   1.624   4.958   4.701
 9825SOL     OW30373   5.056   5.747   5.178
 9825SOL    HW130374   4.959   5.735   5.156
 9825SOL    HW230375   5.109   5.673   5.136
 9826SOL     OW30376   4.411   5.162   5.851
 9826SOL    HW130377   4.507   5.184   5.835
 9826SOL    HW230378   4.353   5.236   5.817
 9827SOL     OW30379   2.113   3.340   3.889
 9827SOL    HW130380   2.067   3.400   3.955
 9827SOL    HW230381   2.133   3.391   3.806
 9828SOL     OW30382   2.314   2.655   5.637
 9828SOL    HW130383   2.332   2.743   5.593
 9828SOL    HW230384   2.221   2.626   5.617
 9829SOL     OW30385   4.098   5.582   6.299
 9829SOL    HW130386   4.113   5.523   6.379
 9829SOL    HW230387   4.048   5.531   6.230
 9830SOL     OW30388   6.132   2.268   1.776
 9830SOL    HW130389   6.172   2.238   1.863
 9830SOL    HW230390   6.113   2.366   1.781
 9831SOL     OW30391   2.429   5.458   1.393
 9831SOL    HW130392   2.370   5.411   1.327
 9831SOL    HW230393   2.512   5.489   1.347
 9832SOL     OW30394   5.293   5.738   2.534
 9832SOL    HW130395   5.366   5.695   2.480
 9832SOL    HW230396   5.212   5.750   2.477
 9833SOL     OW30397   3.102   3.558   5.020
 9833SOL    HW130398   3.173   3.618   4.982
 9833SOL    HW230399   3.120   3.541   5.116
 9834SOL     OW30400   2.762   4.097   5.465
 9834SOL    HW130401   2.724   4.030   5.401
 9834SOL    HW230402   2.689   4.135   5.521
 9835SOL     OW30403   3.947   3.029   5.243
 9835SOL    HW130404   3.896   2.949   5.210
 9835SOL    HW230405   3.883   3.097   5.279
 9836SOL     OW30406   6.472   4.333   3.586
 9836SOL    HW130407   6.410   4.324   3.508
 9836SOL    HW230408   6.534   4.410   3.571
 9837SOL     OW30409   3.321   0.319   2.802
 9837SOL    HW130410   3.392   0.384   2.828
 9837SOL    HW230411   3.358   0.227   2.799
 9838SOL     OW30412   1.493   6.928   7.006
 9838SOL    HW130413   1.445   6.844   0.013
 9838SOL    HW230414   1.449   6.965   6.924
 9839SOL     OW30415   5.421   0.283   3.634
 9839SOL    HW130416   5.374   0.194   3.637
 9839SOL    HW230417   5.469   0.298   3.721
 9840SOL     OW30418   5.659   1.343   0.634
 9840SOL    HW130419   5.756   1.367   0.622
 9840SOL    HW230420   5.602   1.424   0.621
 9841SOL     OW30421   1.606   4.736   5.222
 9841SOL    HW130422   1.594   4.644   5.183
 9841SOL    HW230423   1.542   4.748   5.298
 9842SOL     OW30424   3.481   3.146   1.939
 9842SOL    HW130425   3.382   3.161   1.938
 9842SOL    HW230426   3.522   3.199   2.014
 9843SOL     OW30427   6.152   1.304   1.441
 9843SOL    HW130428   6.146   1.330   1.344
 9843SOL    HW230429   6.242   1.265   1.459
 9844SOL     OW30430   6.394   0.796   2.605
 9844SOL    HW130431   6.446   0.855   2.667
 9844SOL    HW230432   6.296   0.807   2.623
 9845SOL     OW30433   2.005   2.957   3.011
 9845SOL    HW130434   2.091   3.003   3.031
 9845SOL    HW230435   2.021   2.882   2.946
 9846SOL     OW30436   3.851   3.137   2.168
 9846SOL    HW130437   3.758   3.168   2.187
 9846SOL    HW230438   3.915   3.183   2.230
 9847SOL     OW30439   3.656   2.939   3.790
 9847SOL    HW130440   3.617   3.030   3.777
 9847SOL    HW230441   3.699   2.935   3.881
 9848SOL     OW30442   3.689   3.196   4.859
 9848SOL    HW130443   3.653   3.285   4.830
 9848SOL    HW230444   3.650   3.172   4.949
 9849SOL     OW30445   1.230   6.933   6.845
 9849SOL    HW130446   1.218   6.920   6.944
 9849SOL    HW230447   1.158   6.992   6.810
 9850SOL     OW30448   6.252   6.655   4.386
 9850SOL    HW130449   6.330   6.595   4.370
 9850SOL    HW230450   6.248   6.724   4.314
 9851SOL     OW30451   6.398   0.528   4.605
 9851SOL    HW130452   6.491   0.554   4.628
 9851SOL    HW230453   6.399   0.451   4.542
 9852SOL     OW30454   3.828   1.803   4.088
 9852SOL    HW130455   3.851   1.882   4.032
 9852SOL    HW230456   3.730   1.806   4.111
 9853SOL     OW30457   4.995   3.692   4.617
 9853SOL    HW130458   4.948   3.779   4.598
 9853SOL    HW230459   4.945   3.643   4.688
 9854SOL     OW30460   6.535   5.609   5.229
 9854SOL    HW130461   6.593   5.631   5.150
 9854SOL    HW230462   6.539   5.511   5.248
 9855SOL     OW30463   2.276   3.723   0.957
 9855SOL    HW130464   2.271   3.767   1.047
 9855SOL    HW230465   2.354   3.759   0.906
 9856SOL     OW30466   4.887   3.979   4.664
 9856SOL    HW130467   4.983   3.954   4.652
 9856SOL    HW230468   4.843   3.987   4.575
 9857SOL     OW30469   4.716   2.693   3.016
 9857SOL    HW130470   4.704   2.686   2.917
 9857SOL    HW230471   4.790   2.758   3.037
 9858SOL     OW30472   6.971   0.693   1.571
 9858SOL    HW130473   0.031   0.712   1.627
 9858SOL    HW230474   6.920   0.617   1.610
 9859SOL     OW30475   6.431   6.391   2.576
 9859SOL    HW130476   6.509   6.452   2.567
 9859SOL    HW230477   6.443   6.312   2.517
 9860SOL     OW30478   1.529   1.937   3.233
 9860SOL    HW130479   1.548   1.857   3.176
 9860SOL    HW230480   1.477   2.004   3.180
 9861SOL     OW30481   2.929   0.561   3.584
 9861SOL    HW130482   2.840   0.607   3.580
 9861SOL    HW230483   2.973   0.582   3.671
 9862SOL     OW30484   3.958   2.750   6.876
 9862SOL    HW130485   4.047   2.730   6.918
 9862SOL    HW230486   3.914   2.825   6.926
 9863SOL     OW30487   3.100   6.805   2.731
 9863SOL    HW130488   3.077   6.715   2.693
 9863SOL    HW230489   3.141   6.862   2.660
 9864SOL     OW30490   3.888   6.305   3.652
 9864SOL    HW130491   3.922   6.387   3.607
 9864SOL    HW230492   3.788   6.306   3.652
 9865SOL     OW30493   1.655   0.310   4.388
 9865SOL    HW130494   1.592   0.387   4.380
 9865SOL    HW230495   1.634   0.242   4.317
 9866SOL     OW30496   4.967   4.337   6.143
 9866SOL    HW130497   4.958   4.280   6.225
 9866SOL    HW230498   4.881   4.384   6.126
 9867SOL     OW30499   6.816   1.410   0.796
 9867SOL    HW130500   6.750   1.469   0.842
 9867SOL    HW230501   6.785   1.392   0.702
 9868SOL     OW30502   0.730   3.720   5.535
 9868SOL    HW130503   0.754   3.787   5.464
 9868SOL    HW230504   0.808   3.660   5.552
 9869SOL     OW30505   0.953   2.718   1.603
 9869SOL    HW130506   0.983   2.802   1.647
 9869SOL    HW230507   1.032   2.669   1.567
 9870SOL     OW30508   3.663   5.950   2.548
 9870SOL    HW130509   3.728   5.877   2.525
 9870SOL    HW230510   3.659   5.959   2.648
 9871SOL     OW30511   0.203   6.061   6.133
 9871SOL    HW130512   0.124   6.025   6.083
 9871SOL    HW230513   0.172   6.105   6.217
 9872SOL     OW30514   2.556   5.447   4.852
 9872SOL    HW130515   2.542   5.349   4.833
 9872SOL    HW230516   2.469   5.490   4.873
 9873SOL     OW30517   2.426   2.585   0.531
 9873SOL    HW130518   2.378   2.662   0.489
 9873SOL    HW230519   2.489   2.544   0.465
 9874SOL     OW30520   5.675   3.232   5.333
 9874SOL    HW130521   5.705   3.137   5.328
 9874SOL    HW230522   5.710   3.282   5.253
 9875SOL     OW30523   6.189   6.121   1.852
 9875SOL    HW130524   6.108   6.147   1.905
 9875SOL    HW230525   6.197   6.179   1.771
 9876SOL     OW30526   6.164   0.637   3.604
 9876SOL    HW130527   6.192   0.559   3.660
 9876SOL    HW230528   6.070   0.662   3.626
 9877SOL     OW30529   6.123   5.402   4.249
 9877SOL    HW130530   6.068   5.326   4.283
 9877SOL    HW230531   6.070   5.454   4.183
 9878SOL     OW30532   2.738   3.880   6.027
 9878SOL    HW130533   2.660   3.836   6.072
 9878SOL    HW230534   2.808   3.899   6.095
 9879SOL     OW30535   5.357   5.775   5.455
 9879SOL    HW130536   5.366   5.690   5.403
 9879SOL    HW230537   5.405   5.849   5.407
 9880SOL     OW30538   3.879   0.720   0.237
 9880SOL    HW130539   3.905   0.684   0.148
 9880SOL    HW230540   3.853   0.816   0.228
 9881SOL     OW30541   1.460   1.385   3.882
 9881SOL    HW130542   1.494   1.345   3.797
 9881SOL    HW230543   1.399   1.461   3.862
 9882SOL     OW30544   1.654   3.661   4.309
 9882SOL    HW130545   1.730   3.612   4.352
 9882SOL    HW230546   1.567   3.621   4.338
 9883SOL     OW30547   1.183   6.143   0.847
 9883SOL    HW130548   1.282   6.156   0.848
 9883SOL    HW230549   1.161   6.053   0.810
 9884SOL     OW30550   4.854   2.421   1.745
 9884SOL    HW130551   4.771   2.392   1.698
 9884SOL    HW230552   4.831   2.482   1.820
 9885SOL     OW30553   0.111   2.153   4.874
 9885SOL    HW130554   0.071   2.244   4.869
 9885SOL    HW230555   0.080   2.106   4.956
 9886SOL     OW30556   1.372   5.211   2.072
 9886SOL    HW130557   1.436   5.280   2.107
 9886SOL    HW230558   1.409   5.170   1.989
 9887SOL     OW30559   4.875   0.314   6.969
 9887SOL    HW130560   4.972   0.337   6.979
 9887SOL    HW230561   4.831   0.317   0.038
 9888SOL     OW30562   5.466   4.991   2.483
 9888SOL    HW130563   5.399   4.951   2.422
 9888SOL    HW230564   5.430   5.076   2.523
 9889SOL     OW30565   6.182   4.910   0.707
 9889SOL    HW130566   6.262   4.878   0.758
 9889SOL    HW230567   6.192   5.008   0.687
 9890SOL     OW30568   0.844   3.042   1.194
 9890SOL    HW130569   0.803   2.968   1.141
 9890SOL    HW230570   0.936   3.015   1.224
 9891SOL     OW30571   5.901   3.388   1.472
 9891SOL    HW130572   5.918   3.431   1.384
 9891SOL    HW230573   5.848   3.451   1.530
 9892SOL     OW30574   1.613   4.912   2.337
 9892SOL    HW130575   1.590   4.816   2.353
 9892SOL    HW230576   1.710   4.926   2.356
 9893SOL     OW30577   0.262   0.116   2.388
 9893SOL    HW130578   0.362   0.125   2.389
 9893SOL    HW230579   0.237   0.022   2.365
 9894SOL     OW30580   2.933   2.605   0.206
 9894SOL    HW130581   2.975   2.691   0.236
 9894SOL    HW230582   2.979   2.572   0.124
 9895SOL     OW30583   5.345   3.797   5.437
 9895SOL    HW130584   5.304   3.887   5.419
 9895SOL    HW230585   5.437   3.809   5.475
 9896SOL     OW30586   6.009   1.446   1.168
 9896SOL    HW130587   6.071   1.477   1.096
 9896SOL    HW230588   5.927   1.407   1.127
 9897SOL     OW30589   5.991   6.970   2.025
 9897SOL    HW130590   6.030   0.034   1.990
 9897SOL    HW230591   5.920   6.938   1.962
 9898SOL     OW30592   1.002   4.946   6.529
 9898SOL    HW130593   0.934   4.980   6.594
 9898SOL    HW230594   1.018   5.015   6.458
 9899SOL     OW30595   0.910   5.286   1.656
 9899SOL    HW130596   0.815   5.256   1.651
 9899SOL    HW230597   0.934   5.306   1.751
 9900SOL     OW30598   1.576   3.113   2.361
 9900SOL    HW130599   1.665   3.151   2.333
 9900SOL    HW230600   1.537   3.170   2.434
 9901SOL     OW30601   3.148   0.695   6.505
 9901SOL    HW130602   3.208   0.725   6.431
 9901SOL    HW230603   3.069   0.648   6.467
 9902SOL     OW30604   3.539   4.116   1.652
 9902SOL    HW130605   3.604   4.153   1.585
 9902SOL    HW230606   3.457   4.173   1.653
 9903SOL     OW30607   5.494   1.471   1.445
 9903SOL    HW130608   5.503   1.534   1.367
 9903SOL    HW230609   5.514   1.519   1.530
 9904SOL     OW30610   0.347   3.591   6.302
 9904SOL    HW130611   0.298   3.516   6.257
 9904SOL    HW230612   0.361   3.665   6.237
 9905SOL     OW30613   2.553   0.236   5.734
 9905SOL    HW130614   2.536   0.233   5.832
 9905SOL    HW230615   2.529   0.326   5.698
 9906SOL     OW30616   1.921   3.174   0.755
 9906SOL    HW130617   1.894   3.261   0.796
 9906SOL    HW230618   2.021   3.167   0.754
 9907SOL     OW30619   1.637   0.411   1.515
 9907SOL    HW130620   1.550   0.457   1.496
 9907SOL    HW230621   1.675   0.376   1.429
 9908SOL     OW30622   6.189   2.369   4.867
 9908SOL    HW130623   6.123   2.330   4.931
 9908SOL    HW230624   6.203   2.466   4.888
 9909SOL     OW30625   4.127   0.863   2.702
 9909SOL    HW130626   4.189   0.939   2.722
 9909SOL    HW230627   4.112   0.857   2.604
 9910SOL     OW30628   1.272   5.167   1.281
 9910SOL    HW130629   1.277   5.248   1.338
 9910SOL    HW230630   1.183   5.165   1.234
 9911SOL     OW30631   2.825   5.888   1.821
 9911SOL    HW130632   2.782   5.823   1.759
 9911SOL    HW230633   2.918   5.857   1.842
 9912SOL     OW30634   3.852   1.562   0.804
 9912SOL    HW130635   3.831   1.572   0.902
 9912SOL    HW230636   3.851   1.465   0.780
 9913SOL     OW30637   6.393   3.384   0.612
 9913SOL    HW130638   6.433   3.299   0.646
 9913SOL    HW230639   6.343   3.366   0.527
 9914SOL     OW30640   6.654   0.104   5.940
 9914SOL    HW130641   6.710   0.175   5.897
 9914SOL    HW230642   6.565   0.142   5.964
 9915SOL     OW30643   5.717   0.647   3.449
 9915SOL    HW130644   5.681   0.738   3.467
 9915SOL    HW230645   5.679   0.582   3.515
 9916SOL     OW30646   2.164   2.408   3.269
 9916SOL    HW130647   2.207   2.322   3.295
 9916SOL    HW230648   2.195   2.435   3.177
 9917SOL     OW30649   3.871   3.729   5.612
 9917SOL    HW130650   3.831   3.819   5.596
 9917SOL    HW230651   3.833   3.663   5.547
 9918SOL     OW30652   1.516   2.843   2.838
 9918SOL    HW130653   1.495   2.904   2.762
 9918SOL    HW230654   1.606   2.800   2.823
 9919SOL     OW30655   2.467   5.308   1.726
 9919SOL    HW130656   2.428   5.236   1.668
 9919SOL    HW230657   2.417   5.393   1.712
 9920SOL     OW30658   4.785   0.448   2.822
 9920SOL    HW130659   4.864   0.433   2.764
 9920SOL    HW230660   4.762   0.546   2.823
 9921SOL     OW30661   4.538   6.250   4.354
 9921SOL    HW130662   4.611   6.265   4.420
 9921SOL    HW230663   4.567   6.283   4.264
 9922SOL     OW30664   3.941   4.348   0.948
 9922SOL    HW130665   4.017   4.360   1.011
 9922SOL    HW230666   3.897   4.436   0.931
 9923SOL     OW30667   6.133   3.625   0.010
 9923SOL    HW130668   6.038   3.594   0.009
 9923SOL    HW230669   6.135   3.725   0.022
 9924SOL     OW30670   5.798   2.106   2.837
 9924SOL    HW130671   5.734   2.169   2.882
 9924SOL    HW230672   5.747   2.047   2.773
 9925SOL     OW30673   0.241   5.066   3.708
 9925SOL    HW130674   0.202   5.125   3.778
 9925SOL    HW230675   0.241   4.971   3.741
 9926SOL     OW30676   3.988   2.512   0.980
 9926SOL    HW130677   3.954   2.517   1.074
 9926SOL    HW230678   4.041   2.428   0.968
 9927SOL     OW30679   1.357   1.306   0.881
 9927SOL    HW130680   1.428   1.367   0.847
 9927SOL    HW230681   1.387   1.263   0.966
 9928SOL     OW30682   5.091   4.585   3.468
 9928SOL    HW130683   5.184   4.589   3.431
 9928SOL    HW230684   5.031   4.642   3.412
 9929SOL     OW30685   3.578   4.058   4.209
 9929SOL    HW130686   3.531   4.066   4.296
 9929SOL    HW230687   3.677   4.060   4.224
 9930SOL     OW30688   0.853   6.879   5.979
 9930SOL    HW130689   0.934   6.881   5.921
 9930SOL    HW230690   0.771   6.867   5.923
 9931SOL     OW30691   6.726   5.561   4.687
 9931SOL    HW130692   6.718   5.482   4.748
 9931SOL    HW230693   6.638   5.581   4.645
 9932SOL     OW30694   2.799   2.722   5.641
 9932SOL    HW130695   2.779   2.819   5.629
 9932SOL    HW230696   2.714   2.671   5.651
 9933SOL     OW30697   2.179   6.719   4.029
 9933SOL    HW130698   2.278   6.729   4.041
 9933SOL    HW230699   2.154   6.623   4.035
 9934SOL     OW30700   0.308   2.139   6.409
 9934SOL    HW130701   0.217   2.098   6.402
 9934SOL    HW230702   0.314   2.193   6.493
 9935SOL     OW30703   2.622   0.186   1.292
 9935SOL    HW130704   2.582   0.277   1.298
 9935SOL    HW230705   2.720   0.194   1.272
 9936SOL     OW30706   6.508   4.704   0.420
 9936SOL    HW130707   6.493   4.657   0.507
 9936SOL    HW230708   6.488   4.801   0.432
 9937SOL     OW30709   0.469   1.614   1.619
 9937SOL    HW130710   0.382   1.657   1.597
 9937SOL    HW230711   0.513   1.663   1.695
 9938SOL     OW30712   5.342   5.053   4.037
 9938SOL    HW130713   5.268   5.086   3.980
 9938SOL    HW230714   5.316   4.966   4.079
 9939SOL     OW30715   3.471   2.400   1.033
 9939SOL    HW130716   3.559   2.354   1.026
 9939SOL    HW230717   3.434   2.387   1.125
 9940SOL     OW30718   1.184   0.099   2.088
 9940SOL    HW130719   1.183   7.021   2.094
 9940SOL    HW230720   1.123   0.137   2.158
 9941SOL     OW30721   3.188   4.336   5.980
 9941SOL    HW130722   3.281   4.341   6.016
 9941SOL    HW230723   3.122   4.353   6.053
 9942SOL     OW30724   3.651   5.472   2.239
 9942SOL    HW130725   3.637   5.529   2.319
 9942SOL    HW230726   3.673   5.378   2.268
 9943SOL     OW30727   1.098   4.818   6.944
 9943SOL    HW130728   1.061   4.749   6.882
 9943SOL    HW230729   1.171   4.868   6.898
 9944SOL     OW30730   0.981   4.436   6.950
 9944SOL    HW130731   1.014   4.468   0.017
 9944SOL    HW230732   0.907   4.369   6.963
 9945SOL     OW30733   4.638   5.824   0.202
 9945SOL    HW130734   4.618   5.763   0.126
 9945SOL    HW230735   4.571   5.809   0.275
 9946SOL     OW30736   6.514   6.823   3.452
 9946SOL    HW130737   6.504   6.742   3.394
 9946SOL    HW230738   6.530   6.794   3.546
 9947SOL     OW30739   2.593   2.467   4.377
 9947SOL    HW130740   2.501   2.429   4.382
 9947SOL    HW230741   2.594   2.559   4.416
 9948SOL     OW30742   6.991   5.131   5.015
 9948SOL    HW130743   6.957   5.164   4.927
 9948SOL    HW230744   6.914   5.099   5.070
 9949SOL     OW30745   6.988   4.730   3.870
 9949SOL    HW130746   6.919   4.731   3.943
 9949SOL    HW230747   6.965   4.658   3.805
 9950SOL     OW30748   5.631   6.065   6.464
 9950SOL    HW130749   5.713   6.115   6.437
 9950SOL    HW230750   5.575   6.048   6.383
 9951SOL     OW30751   1.042   2.463   3.371
 9951SOL    HW130752   0.963   2.405   3.352
 9951SOL    HW230753   1.057   2.526   3.295
 9952SOL     OW30754   1.543   4.364   0.568
 9952SOL    HW130755   1.589   4.299   0.628
 9952SOL    HW230756   1.610   4.428   0.529
 9953SOL     OW30757   6.380   1.668   4.590
 9953SOL    HW130758   6.337   1.703   4.507
 9953SOL    HW230759   6.336   1.710   4.670
 9954SOL     OW30760   1.443   0.046   5.456
 9954SOL    HW130761   1.514   0.116   5.460
 9954SOL    HW230762   1.369   0.077   5.396
 9955SOL     OW30763   4.387   4.453   6.569
 9955SOL    HW130764   4.378   4.409   6.480
 9955SOL    HW230765   4.297   4.465   6.610
 9956SOL     OW30766   0.755   5.177   4.266
 9956SOL    HW130767   0.665   5.145   4.296
 9956SOL    HW230768   0.782   5.128   4.184
 9957SOL     OW30769   5.913   0.010   1.025
 9957SOL    HW130770   5.829   0.043   0.981
 9957SOL    HW230771   5.893   6.947   1.075
 9958SOL     OW30772   2.652   6.085   6.949
 9958SOL    HW130773   2.626   6.162   7.007
 9958SOL    HW230774   2.607   6.094   6.860
 9959SOL     OW30775   4.125   3.606   3.496
 9959SOL    HW130776   4.224   3.593   3.488
 9959SOL    HW230777   4.088   3.635   3.408
 9960SOL     OW30778   0.539   0.143   2.333
 9960SOL    HW130779   0.579   0.066   2.383
 9960SOL    HW230780   0.572   0.229   2.371
 9961SOL     OW30781   1.082   4.968   4.765
 9961SOL    HW130782   1.079   4.890   4.702
 9961SOL    HW230783   1.104   5.051   4.713
 9962SOL     OW30784   4.698   0.381   3.071
 9962SOL    HW130785   4.727   0.401   2.977
 9962SOL    HW230786   4.772   0.334   3.119
 9963SOL     OW30787   2.416   2.107   6.004
 9963SOL    HW130788   2.419   2.021   6.055
 9963SOL    HW230789   2.507   2.147   6.000
 9964SOL     OW30790   4.339   4.203   6.030
 9964SOL    HW130791   4.328   4.225   5.933
 9964SOL    HW230792   4.428   4.161   6.045
 9965SOL     OW30793   3.917   4.954   5.696
 9965SOL    HW130794   3.846   5.025   5.696
 9965SOL    HW230795   3.962   4.952   5.606
 9966SOL     OW30796   2.551   5.841   2.183
 9966SOL    HW130797   2.535   5.744   2.201
 9966SOL    HW230798   2.463   5.888   2.176
 9967SOL     OW30799   6.078   5.710   1.491
 9967SOL    HW130800   6.144   5.782   1.509
 9967SOL    HW230801   6.112   5.623   1.527
 9968SOL     OW30802   3.191   4.587   6.489
 9968SOL    HW130803   3.132   4.517   6.529
 9968SOL    HW230804   3.139   4.671   6.477
 9969SOL     OW30805   1.243   2.361   4.100
 9969SOL    HW130806   1.261   2.318   4.188
 9969SOL    HW230807   1.285   2.452   4.097
 9970SOL     OW30808   6.076   4.509   2.366
 9970SOL    HW130809   6.083   4.447   2.287
 9970SOL    HW230810   5.981   4.513   2.396
 9971SOL     OW30811   2.670   4.007   0.216
 9971SOL    HW130812   2.594   3.956   0.258
 9971SOL    HW230813   2.740   4.025   0.285
 9972SOL     OW30814   3.699   4.877   0.686
 9972SOL    HW130815   3.621   4.815   0.694
 9972SOL    HW230816   3.695   4.925   0.598
 9973SOL     OW30817   4.733   2.294   4.704
 9973SOL    HW130818   4.700   2.278   4.797
 9973SOL    HW230819   4.668   2.352   4.655
 9974SOL     OW30820   5.809   3.389   3.590
 9974SOL    HW130821   5.840   3.338   3.510
 9974SOL    HW230822   5.875   3.378   3.664
 9975SOL     OW30823   6.836   4.446   0.284
 9975SOL    HW130824   6.805   4.459   0.378
 9975SOL    HW230825   6.757   4.427   0.225
 9976SOL     OW30826   0.137   5.654   6.091
 9976SOL    HW130827   0.178   5.600   6.018
 9976SOL    HW230828   0.086   5.731   6.051
 9977SOL     OW30829   6.938   5.226   6.100
 9977SOL    HW130830   6.882   5.209   6.181
 9977SOL    HW230831   6.891   5.292   6.041
 9978SOL     OW30832   6.379   2.429   3.478
 9978SOL    HW130833   6.351   2.454   3.571
 9978SOL    HW230834   6.305   2.380   3.433
 9979SOL     OW30835   6.617   4.933   5.962
 9979SOL    HW130836   6.626   5.032   5.950
 9979SOL    HW230837   6.554   4.914   6.037
 9980SOL     OW30838   1.819   1.394   6.936
 9980SOL    HW130839   1.853   1.328   7.003
 9980SOL    HW230840   1.770   1.467   6.983
 9981SOL     OW30841   2.392   1.689   1.090
 9981SOL    HW130842   2.479   1.675   1.044
 9981SOL    HW230843   2.390   1.636   1.175
 9982SOL     OW30844   0.563   1.101   3.291
 9982SOL    HW130845   0.536   1.028   3.354
 9982SOL    HW230846   0.550   1.071   3.197
 9983SOL     OW30847   1.523   2.054   2.098
 9983SOL    HW130848   1.539   2.109   2.016
 9983SOL    HW230849   1.442   1.996   2.083
 9984SOL     OW30850   1.267   0.354   0.704
 9984SOL    HW130851   1.169   0.363   0.721
 9984SOL    HW230852   1.312   0.442   0.722
 9985SOL     OW30853   2.476   0.808   2.014
 9985SOL    HW130854   2.565   0.769   1.987
 9985SOL    HW230855   2.470   0.902   1.979
 9986SOL     OW30856   5.216   4.181   6.443
 9986SOL    HW130857   5.198   4.167   6.345
 9986SOL    HW230858   5.300   4.135   6.469
 9987SOL     OW30859   5.805   1.639   2.794
 9987SOL    HW130860   5.903   1.636   2.775
 9987SOL    HW230861   5.764   1.549   2.777
 9988SOL     OW30862   0.270   5.205   5.272
 9988SOL    HW130863   0.202   5.133   5.261
 9988SOL    HW230864   0.358   5.164   5.297
 9989SOL     OW30865   5.601   4.142   2.833
 9989SOL    HW130866   5.666   4.070   2.857
 9989SOL    HW230867   5.623   4.178   2.742
 9990SOL     OW30868   2.763   6.952   3.031
 9990SOL    HW130869   2.756   0.029   3.014
 9990SOL    HW230870   2.788   6.906   2.946
 9991SOL     OW30871   1.704   3.529   4.730
 9991SOL    HW130872   1.723   3.490   4.820
 9991SOL    HW230873   1.631   3.478   4.686
 9992SOL     OW30874   5.080   3.717   0.859
 9992SOL    HW130875   5.116   3.761   0.941
 9992SOL    HW230876   5.125   3.756   0.778
 9993SOL     OW30877   4.012   0.452   2.362
 9993SOL    HW130878   4.065   0.456   2.278
 9993SOL    HW230879   4.019   0.361   2.402
 9994SOL     OW30880   6.915   3.647   4.315
 9994SOL    HW130881   6.936   3.745   4.308
 9994SOL    HW230882   6.985   3.602   4.370
 9995SOL     OW30883   3.078   0.174   2.694
 9995SOL    HW130884   3.120   0.095   2.648
 9995SOL    HW230885   3.149   0.234   2.729
 9996SOL     OW30886   2.760   3.249   1.508
 9996SOL    HW130887   2.677   3.227   1.560
 9996SOL    HW230888   2.815   3.166   1.496
 9997SOL     OW30889   4.125   2.281   0.955
 9997SOL    HW130890   4.068   2.264   0.874
 9997SOL    HW230891   4.085   2.235   1.034
 9998SOL     OW30892   6.757   3.800   2.174
 9998SOL    HW130893   6.710   3.838   2.254
 9998SOL    HW230894   6.689   3.775   2.105
 9999SOL     OW30895   6.387   4.552   5.114
 9999SOL    HW130896   6.330   4.590   5.187
 9999SOL    HW230897   6.376   4.607   5.031
10000SOL     OW30898   5.387   3.022   0.008
10000SOL    HW130899   5.376   3.102   6.970
10000SOL    HW230900   5.384   2.939   6.974
10001SOL     OW30901   4.858   1.264   1.842
10001SOL    HW130902   4.866   1.353   1.797
10001SOL    HW230903   4.763   1.235   1.840
10002SOL     OW30904   1.584   0.634   1.297
10002SOL    HW130905   1.515   0.642   1.368
10002SOL    HW230906   1.588   0.540   1.264
10003SOL     OW30907   3.853   1.777   3.477
10003SOL    HW130908   3.918   1.850   3.499
10003SOL    HW230909   3.763   1.800   3.515
10004SOL     OW30910   4.663   2.692   4.536
10004SOL    HW130911   4.712   2.614   4.497
10004SOL    HW230912   4.662   2.767   4.469
10005SOL     OW30913   4.830   6.606   3.452
10005SOL    HW130914   4.741   6.598   3.497
10005SOL    HW230915   4.878   6.519   3.458
10006SOL     OW30916   5.365   0.819   4.146
10006SOL    HW130917   5.449   0.795   4.098
10006SOL    HW230918   5.387   0.848   4.240
10007SOL     OW30919   0.748   4.389   5.026
10007SOL    HW130920   0.821   4.456   5.039
10007SOL    HW230921   0.778   4.320   4.960
10008SOL     OW30922   4.760   1.477   3.912
10008SOL    HW130923   4.837   1.536   3.937
10008SOL    HW230924   4.676   1.510   3.955
10009SOL     OW30925   1.858   4.139   1.642
10009SOL    HW130926   1.864   4.237   1.620
10009SOL    HW230927   1.771   4.103   1.609
10010SOL     OW30928   2.325   6.834   6.850
10010SOL    HW130929   2.377   6.790   6.777
10010SOL    HW230930   2.297   6.926   6.821
10011SOL     OW30931   6.009   2.225   5.006
10011SOL    HW130932   6.057   2.139   5.024
10011SOL    HW230933   5.951   2.214   4.926
10012SOL     OW30934   4.891   7.014   2.803
10012SOL    HW130935   4.928   0.064   2.743
10012SOL    HW230936   4.860   6.936   2.748
10013SOL     OW30937   1.545   1.764   4.054
10013SOL    HW130938   1.524   1.860   4.038
10013SOL    HW230939   1.536   1.713   3.968
10014SOL     OW30940   6.460   2.843   6.834
10014SOL    HW130941   6.461   2.790   6.750
10014SOL    HW230942   6.492   2.936   6.815
10015SOL     OW30943   2.828   4.411   0.580
10015SOL    HW130944   2.877   4.472   0.517
10015SOL    HW230945   2.881   4.328   0.595
10016SOL     OW30946   2.188   0.409   4.913
10016SOL    HW130947   2.205   0.407   5.012
10016SOL    HW230948   2.109   0.352   4.892
10017SOL     OW30949   2.053   2.602   2.292
10017SOL    HW130950   2.147   2.632   2.308
10017SOL    HW230951   2.011   2.577   2.379
10018SOL     OW30952   4.950   6.721   5.883
10018SOL    HW130953   4.997   6.809   5.870
10018SOL    HW230954   4.941   6.675   5.795
10019SOL     OW30955   1.458   1.941   2.765
10019SOL    HW130956   1.395   1.920   2.691
10019SOL    HW230957   1.518   1.863   2.781
10020SOL     OW30958   0.750   2.863   1.469
10020SOL    HW130959   0.830   2.803   1.457
10020SOL    HW230960   0.694   2.829   1.545
10021SOL     OW30961   0.353   3.375   1.156
10021SOL    HW130962   0.273   3.434   1.160
10021SOL    HW230963   0.411   3.392   1.236
10022SOL     OW30964   3.651   6.892   0.441
10022SOL    HW130965   3.553   6.886   0.420
10022SOL    HW230966   3.664   6.895   0.540
10023SOL     OW30967   1.492   5.315   6.311
10023SOL    HW130968   1.548   5.249   6.261
10023SOL    HW230969   1.396   5.291   6.302
10024SOL     OW30970   2.491   6.925   1.505
10024SOL    HW130971   2.433   6.941   1.425
10024SOL    HW230972   2.434   6.895   1.582
10025SOL     OW30973   0.876   0.956   1.407
10025SOL    HW130974   0.954   0.945   1.346
10025SOL    HW230975   0.909   0.980   1.498
10026SOL     OW30976   4.780   6.824   3.696
10026SOL    HW130977   4.793   6.851   3.791
10026SOL    HW230978   4.721   6.743   3.694
10027SOL     OW30979   0.298   3.967   5.155
10027SOL    HW130980   0.252   4.039   5.206
10027SOL    HW230981   0.348   3.908   5.218
10028SOL     OW30982   1.128   2.098   1.400
10028SOL    HW130983   1.094   2.127   1.311
10028SOL    HW230984   1.054   2.055   1.452
10029SOL     OW30985   3.933   1.943   3.882
10029SOL    HW130986   3.994   2.013   3.845
10029SOL    HW230987   3.865   1.918   3.812
10030SOL     OW30988   2.203   6.440   3.771
10030SOL    HW130989   2.294   6.437   3.730
10030SOL    HW230990   2.160   6.527   3.749
10031SOL     OW30991   5.806   5.098   3.812
10031SOL    HW130992   5.729   5.047   3.851
10031SOL    HW230993   5.841   5.050   3.731
10032SOL     OW30994   2.870   1.962   4.873
10032SOL    HW130995   2.965   1.980   4.897
10032SOL    HW230996   2.812   1.972   4.953
10033SOL     OW30997   4.813   2.225   3.979
10033SOL    HW130998   4.741   2.246   3.914
10033SOL    HW230999   4.873   2.155   3.940
10034SOL     OW31000   2.838   0.248   4.027
10034SOL    HW131001   2.748   0.212   4.047
10034SOL    HW231002   2.861   0.230   3.932
10035SOL     OW31003   6.790   4.519   2.119
10035SOL    HW131004   6.864   4.460   2.086
10035SOL    HW231005   6.792   4.521   2.219
10036SOL     OW31006   5.679   1.922   1.400
10036SOL    HW131007   5.635   1.935   1.488
10036SOL    HW231008   5.713   2.010   1.366
10037SOL     OW31009   6.333   1.079   0.894
10037SOL    HW131010   6.337   1.144   0.818
10037SOL    HW231011   6.250   1.024   0.887
10038SOL     OW31012   4.660   0.788   7.001
10038SOL    HW131013   4.693   0.696   6.980
10038SOL    HW231014   4.724   0.832   0.043
10039SOL     OW31015   3.675   0.691   3.501
10039SOL    HW131016   3.615   0.762   3.464
10039SOL    HW231017   3.621   0.609   3.520
10040SOL     OW31018   4.438   5.639   6.266
10040SOL    HW131019   4.446   5.577   6.344
10040SOL    HW231020   4.530   5.659   6.230
10041SOL     OW31021   4.091   6.215   6.682
10041SOL    HW131022   4.172   6.217   6.740
10041SOL    HW231023   4.118   6.197   6.587
10042SOL     OW31024   1.114   1.901   4.419
10042SOL    HW131025   1.185   1.840   4.381
10042SOL    HW231026   1.118   1.898   4.519
10043SOL     OW31027   6.467   1.661   4.925
10043SOL    HW131028   6.380   1.662   4.876
10043SOL    HW231029   6.506   1.753   4.925
10044SOL     OW31030   2.514   1.975   4.917
10044SOL    HW131031   2.506   2.061   4.867
10044SOL    HW231032   2.594   1.925   4.885
10045SOL     OW31033   3.453   0.192   3.183
10045SOL    HW131034   3.408   0.246   3.112
10045SOL    HW231035   3.545   0.169   3.154
10046SOL     OW31036   2.286   3.871   0.622
10046SOL    HW131037   2.261   3.930   0.699
10046SOL    HW231038   2.266   3.776   0.646
10047SOL     OW31039   1.021   3.522   4.462
10047SOL    HW131040   1.093   3.553   4.524
10047SOL    HW231041   1.052   3.441   4.412
10048SOL     OW31042   6.448   0.401   2.545
10048SOL    HW131043   6.544   0.422   2.525
10048SOL    HW231044   6.414   0.462   2.616
10049SOL     OW31045   1.228   1.863   6.151
10049SOL    HW131046   1.323   1.857   6.120
10049SOL    HW231047   1.169   1.814   6.086
10050SOL     OW31048   5.286   3.483   5.004
10050SOL    HW131049   5.316   3.390   4.985
10050SOL    HW231050   5.212   3.480   5.071
10051SOL     OW31051   6.234   4.070   5.404
10051SOL    HW131052   6.135   4.082   5.416
10051SOL    HW231053   6.283   4.124   5.471
10052SOL     OW31054   2.168   1.119   2.841
10052SOL    HW131055   2.151   1.161   2.752
10052SOL    HW231056   2.133   1.025   2.841
10053SOL     OW31057   4.011   5.577   3.066
10053SOL    HW131058   4.084   5.621   3.013
10053SOL    HW231059   3.979   5.640   3.137
10054SOL     OW31060   5.546   6.285   6.189
10054SOL    HW131061   5.578   6.333   6.270
10054SOL    HW231062   5.573   6.189   6.193
10055SOL     OW31063   6.084   1.307   4.928
10055SOL    HW131064   6.156   1.266   4.873
10055SOL    HW231065   6.103   1.292   5.025
10056SOL     OW31066   5.198   4.794   2.688
10056SOL    HW131067   5.290   4.755   2.688
10056SOL    HW231068   5.131   4.720   2.697
10057SOL     OW31069   4.014   2.794   5.611
10057SOL    HW131070   3.947   2.744   5.665
10057SOL    HW231071   4.005   2.768   5.515
10058SOL     OW31072   6.060   3.766   5.069
10058SOL    HW131073   6.114   3.684   5.048
10058SOL    HW231074   5.964   3.747   5.051
10059SOL     OW31075   0.244   1.661   6.675
10059SOL    HW131076   0.236   1.759   6.691
10059SOL    HW231077   0.167   1.614   6.719
10060SOL     OW31078   2.342   2.761   2.295
10060SOL    HW131079   2.404   2.756   2.373
10060SOL    HW231080   2.301   2.852   2.291
10061SOL     OW31081   4.934   1.666   3.752
10061SOL    HW131082   4.978   1.636   3.837
10061SOL    HW231083   5.004   1.700   3.689
10062SOL     OW31084   5.824   0.386   3.675
10062SOL    HW131085   5.888   0.430   3.612
10062SOL    HW231086   5.838   0.420   3.767
10063SOL     OW31087   2.832   1.279   4.676
10063SOL    HW131088   2.863   1.346   4.608
10063SOL    HW231089   2.744   1.308   4.713
10064SOL     OW31090   5.056   6.381   0.400
10064SOL    HW131091   5.111   6.355   0.322
10064SOL    HW231092   5.115   6.394   0.480
10065SOL     OW31093   2.573   0.348   2.401
10065SOL    HW131094   2.477   0.360   2.376
10065SOL    HW231095   2.606   0.430   2.448
10066SOL     OW31096   0.486   2.768   4.866
10066SOL    HW131097   0.441   2.838   4.921
10066SOL    HW231098   0.417   2.710   4.823
10067SOL     OW31099   0.673   3.501   5.131
10067SOL    HW131100   0.735   3.425   5.151
10067SOL    HW231101   0.632   3.534   5.216
10068SOL     OW31102   0.785   3.445   3.750
10068SOL    HW131103   0.874   3.460   3.706
10068SOL    HW231104   0.714   3.492   3.698
10069SOL     OW31105   3.378   5.169   1.564
10069SOL    HW131106   3.370   5.268   1.572
10069SOL    HW231107   3.454   5.146   1.503
10070SOL     OW31108   0.225   6.071   5.547
10070SOL    HW131109   0.222   6.171   5.542
10070SOL    HW231110   0.313   6.039   5.510
10071SOL     OW31111   6.922   6.098   4.330
10071SOL    HW131112   6.884   6.069   4.418
10071SOL    HW231113   7.000   6.040   4.306
10072SOL     OW31114   0.062   0.089   4.241
10072SOL    HW131115   0.141   0.035   4.213
10072SOL    HW231116   0.087   0.186   4.245
10073SOL     OW31117   6.584   3.830   4.326
10073SOL    HW131118   6.513   3.805   4.391
10073SOL    HW231119   6.666   3.776   4.344
10074SOL     OW31120   2.207   6.933   6.536
10074SOL    HW131121   2.288   6.875   6.548
10074SOL    HW231122   2.231   7.013   6.481
10075SOL     OW31123   1.455   2.422   1.807
10075SOL    HW131124   1.517   2.359   1.854
10075SOL    HW231125   1.493   2.514   1.807
10076SOL     OW31126   5.786   6.665   3.024
10076SOL    HW131127   5.835   6.684   3.109
10076SOL    HW231128   5.849   6.628   2.956
10077SOL     OW31129   3.990   3.603   0.674
10077SOL    HW131130   4.035   3.646   0.752
10077SOL    HW231131   3.983   3.669   0.599
10078SOL     OW31132   6.064   6.252   4.490
10078SOL    HW131133   5.998   6.309   4.540
10078SOL    HW231134   6.028   6.160   4.480
10079SOL     OW31135   5.644   3.224   3.138
10079SOL    HW131136   5.733   3.190   3.107
10079SOL    HW231137   5.629   3.197   3.233
10080SOL     OW31138   4.961   1.526   6.233
10080SOL    HW131139   5.056   1.499   6.219
10080SOL    HW231140   4.925   1.569   6.150
10081SOL     OW31141   0.710   1.682   6.761
10081SOL    HW131142   0.620   1.640   6.774
10081SOL    HW231143   0.779   1.630   6.811
10082SOL     OW31144   0.504   5.507   2.036
10082SOL    HW131145   0.420   5.464   2.003
10082SOL    HW231146   0.580   5.443   2.026
10083SOL     OW31147   3.459   0.245   3.913
10083SOL    HW131148   3.428   0.295   3.833
10083SOL    HW231149   3.453   0.146   3.896
10084SOL     OW31150   0.728   0.172   5.375
10084SOL    HW131151   0.742   0.088   5.427
10084SOL    HW231152   0.686   0.150   5.287
10085SOL     OW31153   3.705   0.066   0.868
10085SOL    HW131154   3.787   0.123   0.869
10085SOL    HW231155   3.694   0.023   0.958
10086SOL     OW31156   6.033   5.814   3.052
10086SOL    HW131157   6.065   5.901   3.092
10086SOL    HW231158   5.935   5.805   3.065
10087SOL     OW31159   6.435   5.717   4.211
10087SOL    HW131160   6.374   5.740   4.287
10087SOL    HW231161   6.529   5.739   4.236
10088SOL     OW31162   6.864   0.292   1.866
10088SOL    HW131163   6.912   0.251   1.789
10088SOL    HW231164   6.779   0.241   1.883
10089SOL     OW31165   3.256   2.049   3.311
10089SOL    HW131166   3.347   2.053   3.268
10089SOL    HW231167   3.262   1.996   3.396
10090SOL     OW31168   0.290   5.095   2.055
10090SOL    HW131169   0.219   5.110   1.986
10090SOL    HW231170   0.274   5.008   2.102
10091SOL     OW31171   6.407   5.634   6.384
10091SOL    HW131172   6.442   5.709   6.328
10091SOL    HW231173   6.358   5.569   6.325
10092SOL     OW31174   1.687   2.625   6.199
10092SOL    HW131175   1.727   2.624   6.290
10092SOL    HW231176   1.593   2.592   6.204
10093SOL     OW31177   4.609   3.401   5.387
10093SOL    HW131178   4.570   3.460   5.458
10093SOL    HW231179   4.617   3.452   5.302
10094SOL     OW31180   2.396   6.253   1.272
10094SOL    HW131181   2.314   6.289   1.228
10094SOL    HW231182   2.472   6.254   1.207
10095SOL     OW31183   5.235   1.525   4.716
10095SOL    HW131184   5.290   1.488   4.641
10095SOL    HW231185   5.257   1.622   4.729
10096SOL     OW31186   4.710   6.858   3.337
10096SOL    HW131187   4.767   6.906   3.270
10096SOL    HW231188   4.769   6.806   3.399
10097SOL     OW31189   1.677   2.282   6.568
10097SOL    HW131190   1.599   2.234   6.606
10097SOL    HW231191   1.739   2.309   6.642
10098SOL     OW31192   2.858   6.651   4.860
10098SOL    HW131193   2.866   6.711   4.940
10098SOL    HW231194   2.765   6.615   4.855
10099SOL     OW31195   0.242   4.770   1.671
10099SOL    HW131196   0.152   4.761   1.715
10099SOL    HW231197   0.313   4.779   1.740
10100SOL     OW31198   5.199   5.998   5.781
10100SOL    HW131199   5.284   5.949   5.800
10100SOL    HW231200   5.175   6.054   5.861
10101SOL     OW31201   0.071   3.203   2.045
10101SOL    HW131202   0.052   3.164   1.955
10101SOL    HW231203   7.006   3.216   2.095
10102SOL     OW31204   6.317   1.010   1.261
10102SOL    HW131205   6.377   0.964   1.196
10102SOL    HW231206   6.227   0.966   1.261
10103SOL     OW31207   2.363   0.415   5.576
10103SOL    HW131208   2.330   0.501   5.616
10103SOL    HW231209   2.412   0.436   5.491
10104SOL     OW31210   1.550   1.514   5.484
10104SOL    HW131211   1.458   1.553   5.474
10104SOL    HW231212   1.561   1.438   5.420
10105SOL     OW31213   2.332   0.860   6.301
10105SOL    HW131214   2.325   0.764   6.327
10105SOL    HW231215   2.425   0.879   6.270
10106SOL     OW31216   4.076   6.536   0.955
10106SOL    HW131217   4.107   6.559   1.047
10106SOL    HW231218   4.117   6.450   0.926
10107SOL     OW31219   5.354   1.572   6.363
10107SOL    HW131220   5.422   1.556   6.292
10107SOL    HW231221   5.391   1.545   6.452
10108SOL     OW31222   0.140   1.781   7.003
10108SOL    HW131223   0.153   1.843   6.925
10108SOL    HW231224   0.204   1.805   0.055
10109SOL     OW31225   0.424   1.087   0.970
10109SOL    HW131226   0.462   1.151   1.038
10109SOL    HW231227   0.324   1.092   0.973
10110SOL     OW31228   4.618   4.404   4.186
10110SOL    HW131229   4.611   4.312   4.147
10110SOL    HW231230   4.644   4.398   4.282
10111SOL     OW31231   6.964   3.584   3.305
10111SOL    HW131232   0.022   3.643   3.291
10111SOL    HW231233   6.993   3.489   3.304
10112SOL     OW31234   5.987   3.339   2.641
10112SOL    HW131235   6.009   3.350   2.738
10112SOL    HW231236   5.916   3.270   2.630
10113SOL     OW31237   4.474   0.103   0.960
10113SOL    HW131238   4.451   0.072   1.052
10113SOL    HW231239   4.496   0.024   0.903
10114SOL     OW31240   4.434   2.088   2.547
10114SOL    HW131241   4.372   2.020   2.507
10114SOL    HW231242   4.381   2.167   2.577
10115SOL     OW31243   4.212   1.878   4.986
10115SOL    HW131244   4.188   1.974   4.970
10115SOL    HW231245   4.162   1.820   4.922
10116SOL     OW31246   0.373   6.951   6.939
10116SOL    HW131247   0.361   0.017   6.891
10116SOL    HW231248   0.318   6.952   0.002
10117SOL     OW31249   0.011   6.370   6.000
10117SOL    HW131250   6.956   6.414   5.953
10117SOL    HW231251   0.063   6.315   5.935
10118SOL     OW31252   2.566   4.562   3.981
10118SOL    HW131253   2.580   4.583   3.885
10118SOL    HW231254   2.575   4.463   3.995
10119SOL     OW31255   6.275   4.612   3.857
10119SOL    HW131256   6.216   4.684   3.820
10119SOL    HW231257   6.294   4.631   3.953
10120SOL     OW31258   1.795   3.356   4.198
10120SOL    HW131259   1.800   3.399   4.288
10120SOL    HW231260   1.819   3.422   4.128
10121SOL     OW31261   5.965   3.840   0.215
10121SOL    HW131262   5.956   3.937   0.192
10121SOL    HW231263   5.925   3.823   0.304
10122SOL     OW31264   5.601   2.155   3.733
10122SOL    HW131265   5.643   2.104   3.658
10122SOL    HW231266   5.624   2.112   3.820
10123SOL     OW31267   5.909   6.272   0.873
10123SOL    HW131268   5.888   6.337   0.800
10123SOL    HW231269   5.882   6.180   0.845
10124SOL     OW31270   1.594   5.231   0.586
10124SOL    HW131271   1.666   5.170   0.620
10124SOL    HW231272   1.634   5.320   0.564
10125SOL     OW31273   2.419   1.319   1.014
10125SOL    HW131274   2.338   1.327   0.955
10125SOL    HW231275   2.487   1.262   0.968
10126SOL     OW31276   0.192   0.149   6.092
10126SOL    HW131277   0.103   0.113   6.067
10126SOL    HW231278   0.188   0.186   6.185
10127SOL     OW31279   1.927   3.545   0.534
10127SOL    HW131280   1.868   3.465   0.543
10127SOL    HW231281   1.970   3.565   0.622
10128SOL     OW31282   2.731   0.821   5.781
10128SOL    HW131283   2.751   0.900   5.839
10128SOL    HW231284   2.634   0.822   5.756
10129SOL     OW31285   0.029   1.843   2.273
10129SOL    HW131286   6.997   1.847   2.188
10129SOL    HW231287   6.988   1.846   2.351
10130SOL     OW31288   0.495   3.474   1.383
10130SOL    HW131289   0.502   3.563   1.338
10130SOL    HW231290   0.465   3.486   1.478
10131SOL     OW31291   1.441   0.376   4.044
10131SOL    HW131292   1.472   0.390   4.138
10131SOL    HW231293   1.487   0.442   3.984
10132SOL     OW31294   1.630   0.611   2.885
10132SOL    HW131295   1.723   0.624   2.918
10132SOL    HW231296   1.590   0.530   2.926
10133SOL     OW31297   4.570   6.560   0.823
10133SOL    HW131298   4.476   6.577   0.791
10133SOL    HW231299   4.581   6.597   0.915
10134SOL     OW31300   5.850   1.126   2.880
10134SOL    HW131301   5.802   1.157   2.962
10134SOL    HW231302   5.812   1.039   2.850
10135SOL     OW31303   4.879   2.532   3.931
10135SOL    HW131304   4.893   2.540   3.832
10135SOL    HW231305   4.874   2.436   3.956
10136SOL     OW31306   5.457   1.772   2.370
10136SOL    HW131307   5.367   1.729   2.358
10136SOL    HW231308   5.474   1.785   2.467
10137SOL     OW31309   0.446   4.896   5.508
10137SOL    HW131310   0.419   4.803   5.483
10137SOL    HW231311   0.512   4.893   5.583
10138SOL     OW31312   5.964   3.172   0.540
10138SOL    HW131313   5.874   3.202   0.506
10138SOL    HW231314   6.008   3.248   0.588
10139SOL     OW31315   3.086   4.034   4.728
10139SOL    HW131316   3.113   4.130   4.738
10139SOL    HW231317   3.043   4.002   4.812
10140SOL     OW31318   0.114   6.468   6.449
10140SOL    HW131319   0.186   6.529   6.417
10140SOL    HW231320   0.041   6.464   6.381
10141SOL     OW31321   3.919   1.100   4.917
10141SOL    HW131322   3.916   1.122   5.015
10141SOL    HW231323   3.993   1.151   4.874
10142SOL     OW31324   6.028   6.771   5.895
10142SOL    HW131325   6.123   6.742   5.907
10142SOL    HW231326   5.975   6.744   5.974
10143SOL     OW31327   5.522   2.986   0.293
10143SOL    HW131328   5.616   3.002   0.321
10143SOL    HW231329   5.516   2.987   0.193
10144SOL     OW31330   4.845   6.175   5.239
10144SOL    HW131331   4.889   6.097   5.285
10144SOL    HW231332   4.914   6.226   5.188
10145SOL     OW31333   3.709   5.513   3.112
10145SOL    HW131334   3.661   5.426   3.106
10145SOL    HW231335   3.770   5.523   3.033
10146SOL     OW31336   6.823   3.877   4.583
10146SOL    HW131337   6.893   3.840   4.645
10146SOL    HW231338   6.768   3.945   4.631
10147SOL     OW31339   4.949   4.153   6.359
10147SOL    HW131340   4.948   4.054   6.349
10147SOL    HW231341   5.001   4.179   6.441
10148SOL     OW31342   5.828   4.034   1.026
10148SOL    HW131343   5.818   3.935   1.040
10148SOL    HW231344   5.908   4.051   0.969
10149SOL     OW31345   5.040   4.714   1.406
10149SOL    HW131346   5.072   4.626   1.442
10149SOL    HW231347   4.940   4.714   1.404
10150SOL     OW31348   4.367   3.337   1.493
10150SOL    HW131349   4.332   3.409   1.553
10150SOL    HW231350   4.444   3.291   1.538
10151SOL     OW31351   0.939   0.190   6.469
10151SOL    HW131352   1.013   0.151   6.415
10151SOL    HW231353   0.856   0.136   6.456
10152SOL     OW31354   6.324   5.774   3.960
10152SOL    HW131355   6.228   5.750   3.975
10152SOL    HW231356   6.379   5.741   4.037
10153SOL     OW31357   4.689   5.808   4.302
10153SOL    HW131358   4.693   5.813   4.401
10153SOL    HW231359   4.782   5.795   4.265
10154SOL     OW31360   3.336   6.308   5.692
10154SOL    HW131361   3.386   6.389   5.665
10154SOL    HW231362   3.388   6.257   5.761
10155SOL     OW31363   5.034   2.453   5.530
10155SOL    HW131364   4.968   2.404   5.473
10155SOL    HW231365   4.995   2.540   5.560
10156SOL     OW31366   5.455   0.834   1.676
10156SOL    HW131367   5.504   0.795   1.598
10156SOL    HW231368   5.357   0.836   1.657
10157SOL     OW31369   6.925   2.295   0.205
10157SOL    HW131370   0.003   2.296   0.219
10157SOL    HW231371   6.904   2.327   0.113
10158SOL     OW31372   6.020   6.480   1.706
10158SOL    HW131373   5.933   6.432   1.697
10158SOL    HW231374   6.094   6.421   1.674
10159SOL     OW31375   3.769   3.335   2.498
10159SOL    HW131376   3.854   3.386   2.508
10159SOL    HW231377   3.771   3.254   2.557
10160SOL     OW31378   1.913   3.822   3.183
10160SOL    HW131379   1.921   3.922   3.193
10160SOL    HW231380   1.899   3.781   3.273
10161SOL     OW31381   3.288   5.035   6.455
10161SOL    HW131382   3.229   5.016   6.533
10161SOL    HW231383   3.254   5.114   6.405
10162SOL     OW31384   2.377   4.335   0.744
10162SOL    HW131385   2.405   4.241   0.725
10162SOL    HW231386   2.396   4.356   0.840
10163SOL     OW31387   0.640   4.857   6.333
10163SOL    HW131388   0.647   4.878   6.430
10163SOL    HW231389   0.544   4.852   6.306
10164SOL     OW31390   5.868   3.125   4.583
10164SOL    HW131391   5.871   3.180   4.499
10164SOL    HW231392   5.907   3.035   4.564
10165SOL     OW31393   6.373   2.516   3.793
10165SOL    HW131394   6.425   2.599   3.775
10165SOL    HW231395   6.423   2.437   3.758
10166SOL     OW31396   1.365   1.775   1.464
10166SOL    HW131397   1.371   1.683   1.426
10166SOL    HW231398   1.269   1.800   1.477
10167SOL     OW31399   6.741   5.851   0.061
10167SOL    HW131400   6.802   5.806   7.017
10167SOL    HW231401   6.673   5.786   0.094
10168SOL     OW31402   6.674   1.836   6.226
10168SOL    HW131403   6.772   1.859   6.230
10168SOL    HW231404   6.620   1.919   6.241
10169SOL     OW31405   6.312   3.754   3.270
10169SOL    HW131406   6.213   3.758   3.258
10169SOL    HW231407   6.336   3.782   3.363
10170SOL     OW31408   6.494   5.830   6.250
10170SOL    HW131409   6.587   5.866   6.240
10170SOL    HW231410   6.431   5.905   6.266
10171SOL     OW31411   0.767   2.435   4.381
10171SOL    HW131412   0.712   2.487   4.315
10171SOL    HW231413   0.724   2.439   4.471
10172SOL     OW31414   0.507   0.047   4.587
10172SOL    HW131415   0.480   6.984   4.634
10172SOL    HW231416   0.442   0.119   4.608
10173SOL     OW31417   2.386   3.246   6.537
10173SOL    HW131418   2.463   3.305   6.560
10173SOL    HW231419   2.301   3.287   6.569
10174SOL     OW31420   4.479   4.518   3.658
10174SOL    HW131421   4.492   4.455   3.735
10174SOL    HW231422   4.403   4.580   3.679
10175SOL     OW31423   6.056   1.650   4.040
10175SOL    HW131424   6.065   1.749   4.025
10175SOL    HW231425   6.062   1.602   3.952
10176SOL     OW31426   6.289   2.998   5.481
10176SOL    HW131427   6.271   2.956   5.570
10176SOL    HW231428   6.362   3.065   5.489
10177SOL     OW31429   1.640   0.053   0.895
10177SOL    HW131430   1.562   7.019   0.925
10177SOL    HW231431   1.706   7.016   0.848
10178SOL     OW31432   1.513   0.945   0.615
10178SOL    HW131433   1.609   0.969   0.632
10178SOL    HW231434   1.470   1.017   0.561
10179SOL     OW31435   0.376   3.710   6.556
10179SOL    HW131436   0.295   3.738   6.607
10179SOL    HW231437   0.348   3.679   6.465
10180SOL     OW31438   4.485   0.375   0.576
10180SOL    HW131439   4.421   0.409   0.507
10180SOL    HW231440   4.557   0.442   0.591
10181SOL     OW31441   0.689   3.247   1.151
10181SOL    HW131442   0.604   3.200   1.127
10181SOL    HW231443   0.757   3.179   1.180
10182SOL     OW31444   4.936   1.592   0.151
10182SOL    HW131445   5.004   1.520   0.137
10182SOL    HW231446   4.951   1.636   0.240
10183SOL     OW31447   5.920   3.017   6.040
10183SOL    HW131448   5.834   3.002   5.992
10183SOL    HW231449   5.902   3.028   6.138
10184SOL     OW31450   5.054   2.705   0.271
10184SOL    HW131451   4.955   2.690   0.269
10184SOL    HW231452   5.077   2.781   0.210
10185SOL     OW31453   6.020   5.855   2.444
10185SOL    HW131454   5.964   5.860   2.361
10185SOL    HW231455   6.107   5.811   2.423
10186SOL     OW31456   4.916   3.519   4.848
10186SOL    HW131457   4.860   3.555   4.922
10186SOL    HW231458   4.921   3.420   4.854
10187SOL     OW31459   1.666   4.695   5.611
10187SOL    HW131460   1.752   4.673   5.565
10187SOL    HW231461   1.685   4.730   5.702
10188SOL     OW31462   2.610   5.016   6.872
10188SOL    HW131463   2.566   5.104   6.888
10188SOL    HW231464   2.691   5.008   6.929
10189SOL     OW31465   1.670   0.682   6.272
10189SOL    HW131466   1.720   0.595   6.267
10189SOL    HW231467   1.605   0.679   6.348
10190SOL     OW31468   4.320   3.231   1.769
10190SOL    HW131469   4.402   3.286   1.785
10190SOL    HW231470   4.342   3.156   1.706
10191SOL     OW31471   5.362   5.524   0.435
10191SOL    HW131472   5.319   5.559   0.352
10191SOL    HW231473   5.360   5.424   0.433
10192SOL     OW31474   3.354   1.889   5.060
10192SOL    HW131475   3.281   1.857   4.999
10192SOL    HW231476   3.356   1.833   5.142
10193SOL     OW31477   2.977   3.814   2.326
10193SOL    HW131478   2.978   3.749   2.250
10193SOL    HW231479   2.941   3.902   2.293
10194SOL     OW31480   4.437   0.658   4.335
10194SOL    HW131481   4.352   0.656   4.387
10194SOL    HW231482   4.490   0.576   4.357
10195SOL     OW31483   6.634   0.145   1.910
10195SOL    HW131484   6.600   0.058   1.944
10195SOL    HW231485   6.598   0.162   1.818
10196SOL     OW31486   5.279   1.895   3.414
10196SOL    HW131487   5.363   1.913   3.363
10196SOL    HW231488   5.211   1.856   3.353
10197SOL     OW31489   4.654   1.579   4.272
10197SOL    HW131490   4.713   1.656   4.246
10197SOL    HW231491   4.622   1.532   4.190
10198SOL     OW31492   3.657   6.795   1.073
10198SOL    HW131493   3.702   6.739   1.004
10198SOL    HW231494   3.575   6.837   1.034
10199SOL     OW31495   0.585   2.119   6.381
10199SOL    HW131496   0.486   2.106   6.386
10199SOL    HW231497   0.631   2.053   6.442
10200SOL     OW31498   5.021   3.418   5.446
10200SOL    HW131499   5.105   3.451   5.488
10200SOL    HW231500   4.988   3.337   5.495
10201SOL     OW31501   0.511   5.616   1.293
10201SOL    HW131502   0.422   5.572   1.278
10201SOL    HW231503   0.531   5.678   1.218
10202SOL     OW31504   1.444   3.969   0.600
10202SOL    HW131505   1.482   4.006   0.684
10202SOL    HW231506   1.432   3.870   0.609
10203SOL     OW31507   1.224   3.011   1.600
10203SOL    HW131508   1.232   2.935   1.664
10203SOL    HW231509   1.316   3.040   1.571
10204SOL     OW31510   3.239   5.696   6.140
10204SOL    HW131511   3.215   5.598   6.141
10204SOL    HW231512   3.180   5.744   6.076
10205SOL     OW31513   3.416   1.304   2.193
10205SOL    HW131514   3.439   1.248   2.113
10205SOL    HW231515   3.381   1.245   2.266
10206SOL     OW31516   5.025   6.593   6.610
10206SOL    HW131517   4.980   6.680   6.596
10206SOL    HW231518   5.004   6.531   6.534
10207SOL     OW31519   2.039   1.359   0.457
10207SOL    HW131520   2.077   1.438   0.408
10207SOL    HW231521   2.109   1.318   0.514
10208SOL     OW31522   6.308   4.745   4.110
10208SOL    HW131523   6.226   4.744   4.166
10208SOL    HW231524   6.326   4.838   4.078
10209SOL     OW31525   0.577   0.561   5.485
10209SOL    HW131526   0.603   0.521   5.397
10209SOL    HW231527   0.498   0.621   5.471
10210SOL     OW31528   4.927   0.270   1.875
10210SOL    HW131529   4.963   0.177   1.878
10210SOL    HW231530   4.877   0.283   1.789
10211SOL     OW31531   4.267   6.475   5.391
10211SOL    HW131532   4.326   6.415   5.445
10211SOL    HW231533   4.312   6.496   5.304
10212SOL     OW31534   0.295   1.126   4.535
10212SOL    HW131535   0.315   1.221   4.560
10212SOL    HW231536   0.352   1.099   4.458
10213SOL     OW31537   6.037   2.534   1.900
10213SOL    HW131538   5.954   2.499   1.944
10213SOL    HW231539   6.020   2.626   1.865
10214SOL     OW31540   1.115   2.164   2.393
10214SOL    HW131541   1.114   2.076   2.347
10214SOL    HW231542   1.106   2.237   2.326
10215SOL     OW31543   3.791   2.926   4.039
10215SOL    HW131544   3.855   2.982   4.092
10215SOL    HW231545   3.710   2.907   4.095
10216SOL     OW31546   0.609   0.274   0.897
10216SOL    HW131547   0.676   0.199   0.905
10216SOL    HW231548   0.591   0.293   0.801
10217SOL     OW31549   2.740   1.809   3.992
10217SOL    HW131550   2.728   1.766   3.902
10217SOL    HW231551   2.756   1.739   4.061
10218SOL     OW31552   1.662   0.676   1.913
10218SOL    HW131553   1.717   0.686   1.831
10218SOL    HW231554   1.668   0.581   1.946
10219SOL     OW31555   0.529   3.294   1.881
10219SOL    HW131556   0.520   3.317   1.978
10219SOL    HW231557   0.502   3.199   1.866
10220SOL     OW31558   4.374   1.476   1.955
10220SOL    HW131559   4.353   1.471   1.857
10220SOL    HW231560   4.310   1.538   2.000
10221SOL     OW31561   1.495   2.570   3.843
10221SOL    HW131562   1.506   2.567   3.743
10221SOL    HW231563   1.472   2.664   3.870
10222SOL     OW31564   2.272   3.125   6.185
10222SOL    HW131565   2.203   3.055   6.162
10222SOL    HW231566   2.362   3.093   6.157
10223SOL     OW31567   1.586   6.090   6.692
10223SOL    HW131568   1.562   6.137   6.607
10223SOL    HW231569   1.605   5.994   6.673
10224SOL     OW31570   6.633   1.882   4.872
10224SOL    HW131571   6.701   1.829   4.822
10224SOL    HW231572   6.679   1.952   4.927
10225SOL     OW31573   1.989   6.180   6.167
10225SOL    HW131574   2.058   6.119   6.127
10225SOL    HW231575   1.921   6.125   6.215
10226SOL     OW31576   2.563   7.008   6.971
10226SOL    HW131577   2.509   0.069   6.954
10226SOL    HW231578   2.513   6.947   0.011
10227SOL     OW31579   5.087   4.974   1.014
10227SOL    HW131580   5.070   4.899   0.950
10227SOL    HW231581   5.143   4.941   1.089
10228SOL     OW31582   1.067   5.629   2.155
10228SOL    HW131583   0.989   5.571   2.179
10228SOL    HW231584   1.037   5.724   2.149
10229SOL     OW31585   0.690   1.497   4.261
10229SOL    HW131586   0.595   1.472   4.244
10229SOL    HW231587   0.742   1.415   4.283
10230SOL     OW31588   6.458   6.366   3.195
10230SOL    HW131589   6.368   6.405   3.217
10230SOL    HW231590   6.488   6.306   3.269
10231SOL     OW31591   6.478   5.616   5.616
10231SOL    HW131592   6.400   5.563   5.583
10231SOL    HW231593   6.561   5.560   5.614
10232SOL     OW31594   2.697   0.560   4.007
10232SOL    HW131595   2.715   0.545   4.104
10232SOL    HW231596   2.645   0.483   3.971
10233SOL     OW31597   4.838   3.613   5.390
10233SOL    HW131598   4.764   3.597   5.324
10233SOL    HW231599   4.902   3.536   5.388
10234SOL     OW31600   4.956   1.295   0.534
10234SOL    HW131601   4.976   1.262   0.626
10234SOL    HW231602   5.041   1.302   0.482
10235SOL     OW31603   4.677   2.468   0.196
10235SOL    HW131604   4.701   2.382   0.241
10235SOL    HW231605   4.663   2.452   0.098
10236SOL     OW31606   2.762   6.800   1.848
10236SOL    HW131607   2.737   6.857   1.926
10236SOL    HW231608   2.737   6.845   1.763
10237SOL     OW31609   6.069   4.103   0.856
10237SOL    HW131610   6.038   4.112   0.761
10237SOL    HW231611   6.169   4.097   0.858
10238SOL     OW31612   3.338   3.984   3.611
10238SOL    HW131613   3.428   4.020   3.636
10238SOL    HW231614   3.306   3.924   3.684
10239SOL     OW31615   1.053   4.047   5.098
10239SOL    HW131616   0.992   3.989   5.045
10239SOL    HW231617   1.067   4.134   5.050
10240SOL     OW31618   2.250   5.019   2.998
10240SOL    HW131619   2.182   5.074   3.046
10240SOL    HW231620   2.307   5.079   2.941
10241SOL     OW31621   6.711   0.500   2.499
10241SOL    HW131622   6.732   0.409   2.535
10241SOL    HW231623   6.746   0.507   2.405
10242SOL     OW31624   6.988   1.311   6.643
10242SOL    HW131625   7.002   1.300   6.741
10242SOL    HW231626   6.988   1.222   6.599
10243SOL     OW31627   0.731   4.975   1.395
10243SOL    HW131628   0.703   4.911   1.467
10243SOL    HW231629   0.732   4.927   1.307
10244SOL     OW31630   1.373   4.486   0.237
10244SOL    HW131631   1.391   4.571   0.288
10244SOL    HW231632   1.342   4.415   0.300
10245SOL     OW31633   2.948   4.954   6.808
10245SOL    HW131634   2.904   4.989   6.891
10245SOL    HW231635   2.887   4.890   6.762
10246SOL     OW31636   3.035   3.875   4.035
10246SOL    HW131637   3.003   3.810   3.966
10246SOL    HW231638   2.993   3.854   4.123
10247SOL     OW31639   0.052   5.373   5.362
10247SOL    HW131640   0.131   5.314   5.345
10247SOL    HW231641   6.991   5.330   5.327
10248SOL     OW31642   3.789   6.723   2.371
10248SOL    HW131643   3.799   6.637   2.320
10248SOL    HW231644   3.809   6.800   2.311
10249SOL     OW31645   3.529   1.396   6.127
10249SOL    HW131646   3.469   1.324   6.163
10249SOL    HW231647   3.513   1.406   6.029
10250SOL     OW31648   6.877   2.551   0.773
10250SOL    HW131649   6.861   2.630   0.714
10250SOL    HW231650   6.791   2.504   0.791
10251SOL     OW31651   2.858   2.235   5.056
10251SOL    HW131652   2.889   2.295   5.129
10251SOL    HW231653   2.829   2.147   5.095
10252SOL     OW31654   5.536   5.604   7.001
10252SOL    HW131655   5.604   5.607   6.928
10252SOL    HW231656   5.445   5.594   6.961
10253SOL     OW31657   4.815   5.557   0.055
10253SOL    HW131658   4.830   5.646   0.012
10253SOL    HW231659   4.753   5.502   7.020
10254SOL     OW31660   4.315   1.571   5.151
10254SOL    HW131661   4.229   1.525   5.129
10254SOL    HW231662   4.363   1.593   5.067
10255SOL     OW31663   1.781   6.148   1.324
10255SOL    HW131664   1.857   6.137   1.260
10255SOL    HW231665   1.807   6.110   1.413
10256SOL     OW31666   5.713   0.662   1.874
10256SOL    HW131667   5.800   0.629   1.911
10256SOL    HW231668   5.725   0.753   1.836
10257SOL     OW31669   1.617   5.385   4.469
10257SOL    HW131670   1.701   5.430   4.501
10257SOL    HW231671   1.638   5.290   4.447
10258SOL     OW31672   4.301   0.828   4.138
10258SOL    HW131673   4.336   0.800   4.227
10258SOL    HW231674   4.373   0.872   4.086
10259SOL     OW31675   0.349   4.525   3.175
10259SOL    HW131676   0.402   4.586   3.116
10259SOL    HW231677   0.318   4.446   3.121
10260SOL     OW31678   0.219   0.222   3.302
10260SOL    HW131679   0.275   0.156   3.251
10260SOL    HW231680   0.219   0.198   3.399
10261SOL     OW31681   6.412   5.024   3.659
10261SOL    HW131682   6.404   5.124   3.665
10261SOL    HW231683   6.446   4.998   3.568
10262SOL     OW31684   2.684   6.675   4.559
10262SOL    HW131685   2.749   6.749   4.572
10262SOL    HW231686   2.596   6.713   4.529
10263SOL     OW31687   4.701   0.842   6.351
10263SOL    HW131688   4.701   0.909   6.425
10263SOL    HW231689   4.703   0.750   6.390
10264SOL     OW31690   5.887   2.190   6.373
10264SOL    HW131691   5.813   2.129   6.400
10264SOL    HW231692   5.868   2.283   6.404
10265SOL     OW31693   3.097   2.004   2.902
10265SOL    HW131694   3.192   2.020   2.878
10265SOL    HW231695   3.046   2.090   2.896
10266SOL     OW31696   3.168   2.896   4.970
10266SOL    HW131697   3.183   2.885   4.872
10266SOL    HW231698   3.171   2.993   4.994
10267SOL     OW31699   5.909   1.552   0.122
10267SOL    HW131700   5.968   1.569   0.201
10267SOL    HW231701   5.945   1.601   0.042
10268SOL     OW31702   4.640   4.848   1.695
10268SOL    HW131703   4.704   4.924   1.709
10268SOL    HW231704   4.631   4.796   1.780
10269SOL     OW31705   0.992   2.669   5.124
10269SOL    HW131706   0.948   2.705   5.042
10269SOL    HW231707   1.090   2.689   5.120
10270SOL     OW31708   2.617   5.213   3.793
10270SOL    HW131709   2.672   5.231   3.711
10270SOL    HW231710   2.677   5.212   3.873
10271SOL     OW31711   4.045   2.732   0.504
10271SOL    HW131712   3.950   2.717   0.532
10271SOL    HW231713   4.106   2.682   0.565
10272SOL     OW31714   0.400   0.049   4.930
10272SOL    HW131715   0.444   0.111   4.996
10272SOL    HW231716   0.450   6.984   4.927
10273SOL     OW31717   4.226   5.146   3.505
10273SOL    HW131718   4.291   5.143   3.429
10273SOL    HW231719   4.266   5.197   3.581
10274SOL     OW31720   0.640   4.228   4.638
10274SOL    HW131721   0.583   4.222   4.721
10274SOL    HW231722   0.623   4.148   4.581
10275SOL     OW31723   0.662   6.155   2.089
10275SOL    HW131724   0.683   6.212   2.009
10275SOL    HW231725   0.564   6.162   2.109
10276SOL     OW31726   5.951   5.885   5.772
10276SOL    HW131727   5.978   5.844   5.685
10276SOL    HW231728   5.919   5.979   5.757
10277SOL     OW31729   2.570   5.630   4.146
10277SOL    HW131730   2.523   5.546   4.173
10277SOL    HW231731   2.643   5.608   4.082
10278SOL     OW31732   6.170   1.460   4.605
10278SOL    HW131733   6.072   1.476   4.595
10278SOL    HW231734   6.220   1.523   4.545
10279SOL     OW31735   2.140   5.829   4.970
10279SOL    HW131736   2.157   5.833   4.871
10279SOL    HW231737   2.042   5.841   4.987
10280SOL     OW31738   1.539   3.738   0.948
10280SOL    HW131739   1.501   3.723   0.857
10280SOL    HW231740   1.588   3.657   0.978
10281SOL     OW31741   6.390   1.463   2.996
10281SOL    HW131742   6.414   1.552   2.957
10281SOL    HW231743   6.290   1.455   3.000
10282SOL     OW31744   6.294   4.130   4.237
10282SOL    HW131745   6.300   4.067   4.315
10282SOL    HW231746   6.231   4.205   4.259
10283SOL     OW31747   0.671   3.523   0.596
10283SOL    HW131748   0.642   3.484   0.683
10283SOL    HW231749   0.766   3.554   0.603
10284SOL     OW31750   5.230   3.693   5.187
10284SOL    HW131751   5.219   3.737   5.276
10284SOL    HW231752   5.156   3.627   5.172
10285SOL     OW31753   4.740   1.490   1.390
10285SOL    HW131754   4.819   1.539   1.426
10285SOL    HW231755   4.697   1.543   1.317
10286SOL     OW31756   3.060   1.739   3.620
10286SOL    HW131757   3.108   1.673   3.677
10286SOL    HW231758   2.998   1.690   3.557
10287SOL     OW31759   2.620   6.071   1.696
10287SOL    HW131760   2.718   6.063   1.715
10287SOL    HW231761   2.574   6.110   1.776
10288SOL     OW31762   5.283   6.012   2.582
10288SOL    HW131763   5.324   5.921   2.572
10288SOL    HW231764   5.194   6.004   2.628
10289SOL     OW31765   3.054   1.058   1.954
10289SOL    HW131766   2.968   1.034   1.908
10289SOL    HW231767   3.087   0.979   2.006
10290SOL     OW31768   3.240   4.054   2.156
10290SOL    HW131769   3.308   4.128   2.159
10290SOL    HW231770   3.266   3.982   2.220
10291SOL     OW31771   4.207   1.408   4.133
10291SOL    HW131772   4.179   1.312   4.128
10291SOL    HW231773   4.260   1.423   4.216
10292SOL     OW31774   1.968   0.791   4.562
10292SOL    HW131775   1.991   0.820   4.469
10292SOL    HW231776   1.882   0.741   4.561
10293SOL     OW31777   1.917   5.490   3.800
10293SOL    HW131778   1.995   5.475   3.861
10293SOL    HW231779   1.872   5.576   3.823
10294SOL     OW31780   4.819   3.925   2.512
10294SOL    HW131781   4.866   3.937   2.425
10294SOL    HW231782   4.846   3.838   2.553
10295SOL     OW31783   5.891   5.639   5.868
10295SOL    HW131784   5.983   5.598   5.860
10295SOL    HW231785   5.894   5.733   5.835
10296SOL     OW31786   4.280   3.598   7.009
10296SOL    HW131787   4.193   3.553   6.988
10296SOL    HW231788   4.297   3.593   0.086
10297SOL     OW31789   2.076   6.381   6.299
10297SOL    HW131790   2.021   6.316   6.246
10297SOL    HW231791   2.038   6.390   6.391
10298SOL     OW31792   3.587   5.098   1.965
10298SOL    HW131793   3.676   5.105   1.920
10298SOL    HW231794   3.582   5.013   2.017
10299SOL     OW31795   4.808   4.894   2.829
10299SOL    HW131796   4.838   4.949   2.907
10299SOL    HW231797   4.865   4.915   2.749
10300SOL     OW31798   1.510   4.762   2.966
10300SOL    HW131799   1.550   4.725   3.049
10300SOL    HW231800   1.508   4.862   2.972
10301SOL     OW31801   6.173   2.338   3.362
10301SOL    HW131802   6.113   2.414   3.338
10301SOL    HW231803   6.167   2.267   3.292
10302SOL     OW31804   0.627   5.851   4.142
10302SOL    HW131805   0.616   5.808   4.052
10302SOL    HW231806   0.696   5.922   4.137
10303SOL     OW31807   2.206   5.217   1.865
10303SOL    HW131808   2.157   5.294   1.907
10303SOL    HW231809   2.303   5.240   1.857
10304SOL     OW31810   5.067   1.046   2.832
10304SOL    HW131811   5.156   1.078   2.799
10304SOL    HW231812   5.061   0.947   2.822
10305SOL     OW31813   0.605   4.801   6.903
10305SOL    HW131814   0.609   4.901   6.894
10305SOL    HW231815   0.680   4.770   6.960
10306SOL     OW31816   4.222   6.482   0.178
10306SOL    HW131817   4.211   6.479   0.277
10306SOL    HW231818   4.182   6.567   0.143
10307SOL     OW31819   1.756   2.278   4.551
10307SOL    HW131820   1.797   2.247   4.465
10307SOL    HW231821   1.828   2.287   4.620
10308SOL     OW31822   2.769   5.325   4.034
10308SOL    HW131823   2.771   5.421   4.007
10308SOL    HW231824   2.863   5.291   4.041
10309SOL     OW31825   6.041   1.147   3.182
10309SOL    HW131826   6.045   1.089   3.262
10309SOL    HW231827   6.128   1.195   3.171
10310SOL     OW31828   4.566   2.618   1.659
10310SOL    HW131829   4.616   2.577   1.583
10310SOL    HW231830   4.624   2.685   1.704
10311SOL     OW31831   0.673   5.407   1.129
10311SOL    HW131832   0.693   5.494   1.175
10311SOL    HW231833   0.722   5.333   1.175
10312SOL     OW31834   2.240   6.014   0.529
10312SOL    HW131835   2.147   6.023   0.493
10312SOL    HW231836   2.237   6.013   0.628
10313SOL     OW31837   3.928   0.121   1.547
10313SOL    HW131838   4.019   0.106   1.586
10313SOL    HW231839   3.904   0.044   1.488
10314SOL     OW31840   7.000   0.506   1.922
10314SOL    HW131841   6.973   0.564   1.998
10314SOL    HW231842   6.940   0.426   1.916
10315SOL     OW31843   6.295   5.469   4.455
10315SOL    HW131844   6.232   5.522   4.512
10315SOL    HW231845   6.249   5.441   4.371
10316SOL     OW31846   6.247   2.256   4.520
10316SOL    HW131847   6.253   2.349   4.484
10316SOL    HW231848   6.282   2.253   4.613
10317SOL     OW31849   3.327   6.324   6.161
10317SOL    HW131850   3.229   6.323   6.184
10317SOL    HW231851   3.380   6.303   6.243
10318SOL     OW31852   4.685   6.336   0.108
10318SOL    HW131853   4.694   6.241   0.136
10318SOL    HW231854   4.773   6.383   0.117
10319SOL     OW31855   2.025   2.652   5.606
10319SOL    HW131856   1.957   2.693   5.668
10319SOL    HW231857   1.978   2.598   5.537
10320SOL     OW31858   0.514   0.638   1.215
10320SOL    HW131859   0.557   0.551   1.189
10320SOL    HW231860   0.584   0.709   1.220
10321SOL     OW31861   4.178   0.618   3.698
10321SOL    HW131862   4.176   0.624   3.598
10321SOL    HW231863   4.093   0.655   3.735
10322SOL     OW31864   6.109   5.668   6.117
10322SOL    HW131865   6.066   5.638   6.202
10322SOL    HW231866   6.111   5.767   6.113
10323SOL     OW31867   6.458   3.983   5.811
10323SOL    HW131868   6.498   3.969   5.720
10323SOL    HW231869   6.403   3.903   5.835
10324SOL     OW31870   2.968   3.234   3.198
10324SOL    HW131871   2.876   3.215   3.232
10324SOL    HW231872   3.033   3.231   3.275
10325SOL     OW31873   6.647   4.342   3.168
10325SOL    HW131874   6.581   4.287   3.219
10325SOL    HW231875   6.720   4.372   3.229
10326SOL     OW31876   4.163   2.704   0.028
10326SOL    HW131877   4.252   2.658   0.028
10326SOL    HW231878   4.117   2.685   0.114
10327SOL     OW31879   2.669   1.416   1.867
10327SOL    HW131880   2.656   1.383   1.961
10327SOL    HW231881   2.725   1.498   1.868
10328SOL     OW31882   6.456   3.465   1.653
10328SOL    HW131883   6.472   3.564   1.651
10328SOL    HW231884   6.380   3.445   1.714
10329SOL     OW31885   3.764   0.202   4.252
10329SOL    HW131886   3.817   0.250   4.183
10329SOL    HW231887   3.670   0.235   4.251
10330SOL     OW31888   3.635   5.082   2.764
10330SOL    HW131889   3.564   5.064   2.832
10330SOL    HW231890   3.666   4.996   2.724
10331SOL     OW31891   6.680   0.418   3.428
10331SOL    HW131892   6.601   0.478   3.419
10331SOL    HW231893   6.752   0.448   3.365
10332SOL     OW31894   6.124   2.001   0.601
10332SOL    HW131895   6.222   2.016   0.590
10332SOL    HW231896   6.077   2.089   0.606
10333SOL     OW31897   6.602   4.422   4.557
10333SOL    HW131898   6.650   4.352   4.505
10333SOL    HW231899   6.506   4.425   4.527
10334SOL     OW31900   2.211   5.562   4.190
10334SOL    HW131901   2.201   5.483   4.130
10334SOL    HW231902   2.124   5.612   4.195
10335SOL     OW31903   2.291   4.848   0.359
10335SOL    HW131904   2.214   4.813   0.413
10335SOL    HW231905   2.256   4.891   0.276
10336SOL     OW31906   5.906   6.391   3.333
10336SOL    HW131907   5.881   6.487   3.320
10336SOL    HW231908   5.904   6.369   3.430
10337SOL     OW31909   6.506   6.715   5.684
10337SOL    HW131910   6.510   6.802   5.734
10337SOL    HW231911   6.509   6.732   5.586
10338SOL     OW31912   3.173   6.592   1.710
10338SOL    HW131913   3.078   6.574   1.736
10338SOL    HW231914   3.183   6.579   1.611
10339SOL     OW31915   3.659   5.248   0.710
10339SOL    HW131916   3.722   5.251   0.787
10339SOL    HW231917   3.706   5.214   0.629
10340SOL     OW31918   1.668   5.495   0.515
10340SOL    HW131919   1.607   5.501   0.436
10340SOL    HW231920   1.757   5.535   0.491
10341SOL     OW31921   2.264   3.350   1.619
10341SOL    HW131922   2.307   3.388   1.701
10341SOL    HW231923   2.173   3.317   1.641
10342SOL     OW31924   2.297   5.752   5.679
10342SOL    HW131925   2.315   5.747   5.581
10342SOL    HW231926   2.202   5.726   5.697
10343SOL     OW31927   2.415   3.912   0.385
10343SOL    HW131928   2.372   3.879   0.469
10343SOL    HW231929   2.345   3.922   0.314
10344SOL     OW31930   3.989   3.928   2.030
10344SOL    HW131931   4.069   3.923   1.970
10344SOL    HW231932   3.906   3.913   1.976
10345SOL     OW31933   1.634   0.698   5.984
10345SOL    HW131934   1.650   0.699   6.083
10345SOL    HW231935   1.597   0.787   5.956
10346SOL     OW31936   6.360   1.528   1.098
10346SOL    HW131937   6.348   1.430   1.116
10346SOL    HW231938   6.341   1.579   1.182
10347SOL     OW31939   5.797   2.435   1.998
10347SOL    HW131940   5.732   2.437   1.923
10347SOL    HW231941   5.830   2.342   2.011
10348SOL     OW31942   6.761   1.069   6.412
10348SOL    HW131943   6.777   1.151   6.358
10348SOL    HW231944   6.837   1.055   6.475
10349SOL     OW31945   0.005   1.566   6.909
10349SOL    HW131946   0.058   1.481   6.914
10349SOL    HW231947   0.041   1.631   6.975
10350SOL     OW31948   2.783   6.252   4.726
10350SOL    HW131949   2.817   6.241   4.819
10350SOL    HW231950   2.855   6.291   4.668
10351SOL     OW31951   5.977   5.325   6.069
10351SOL    HW131952   5.881   5.332   6.043
10351SOL    HW231953   5.997   5.232   6.101
10352SOL     OW31954   5.656   1.834   6.776
10352SOL    HW131955   5.719   1.901   6.738
10352SOL    HW231956   5.593   1.879   6.839
10353SOL     OW31957   7.007   2.716   4.388
10353SOL    HW131958   0.003   2.796   4.330
10353SOL    HW231959   0.049   2.643   4.364
10354SOL     OW31960   0.606   2.495   1.440
10354SOL    HW131961   0.512   2.488   1.406
10354SOL    HW231962   0.618   2.434   1.518
10355SOL     OW31963   1.246   0.787   1.049
10355SOL    HW131964   1.219   0.693   1.026
10355SOL    HW231965   1.341   0.802   1.021
10356SOL     OW31966   6.824   3.662   5.679
10356SOL    HW131967   6.765   3.639   5.602
10356SOL    HW231968   6.790   3.618   5.762
10357SOL     OW31969   4.295   2.649   6.166
10357SOL    HW131970   4.302   2.744   6.196
10357SOL    HW231971   4.291   2.589   6.246
10358SOL     OW31972   0.713   3.196   3.811
10358SOL    HW131973   0.720   3.292   3.784
10358SOL    HW231974   0.786   3.173   3.875
10359SOL     OW31975   5.277   2.109   2.111
10359SOL    HW131976   5.366   2.085   2.075
10359SOL    HW231977   5.220   2.147   2.038
10360SOL     OW31978   5.399   6.015   1.995
10360SOL    HW131979   5.326   6.025   2.063
10360SOL    HW231980   5.454   6.098   1.993
10361SOL     OW31981   2.557   1.073   2.414
10361SOL    HW131982   2.621   1.121   2.354
10361SOL    HW231983   2.502   1.139   2.464
10362SOL     OW31984   0.741   5.305   3.070
10362SOL    HW131985   0.766   5.235   3.137
10362SOL    HW231986   0.684   5.265   2.999
10363SOL     OW31987   5.499   2.407   1.342
10363SOL    HW131988   5.450   2.337   1.290
10363SOL    HW231989   5.525   2.369   1.431
10364SOL     OW31990   4.599   4.068   1.455
10364SOL    HW131991   4.576   4.111   1.542
10364SOL    HW231992   4.515   4.041   1.407
10365SOL     OW31993   5.942   4.668   0.025
10365SOL    HW131994   6.012   4.599   0.040
10365SOL    HW231995   5.983   4.759   0.033
10366SOL     OW31996   3.222   6.690   3.704
10366SOL    HW131997   3.226   6.785   3.735
10366SOL    HW231998   3.256   6.684   3.611
10367SOL     OW31999   0.265   1.700   1.435
10367SOL    HW132000   0.178   1.694   1.386
10367SOL    HW232001   0.313   1.613   1.429
10368SOL     OW32002   2.058   1.367   2.294
10368SOL    HW132003   2.071   1.319   2.381
10368SOL    HW232004   1.976   1.332   2.248
10369SOL     OW32005   2.744   6.530   6.033
10369SOL    HW132006   2.840   6.558   6.035
10369SOL    HW232007   2.695   6.584   5.965
10370SOL     OW32008   6.422   1.616   5.191
10370SOL    HW132009   6.503   1.665   5.222
10370SOL    HW232010   6.430   1.598   5.093
10371SOL     OW32011   2.331   6.517   4.552
10371SOL    HW132012   2.395   6.492   4.624
10371SOL    HW232013   2.365   6.598   4.504
10372SOL     OW32014   2.359   0.820   0.398
10372SOL    HW132015   2.411   0.822   0.313
10372SOL    HW232016   2.344   0.913   0.431
10373SOL     OW32017   0.966   6.892   5.020
10373SOL    HW132018   0.885   6.947   5.000
10373SOL    HW232019   1.009   6.926   5.104
10374SOL     OW32020   3.716   0.411   4.013
10374SOL    HW132021   3.627   0.365   4.024
10374SOL    HW232022   3.728   0.437   3.918
10375SOL     OW32023   2.657   2.175   5.910
10375SOL    HW132024   2.672   2.110   5.836
10375SOL    HW232025   2.697   2.263   5.886
10376SOL     OW32026   1.467   6.154   4.334
10376SOL    HW132027   1.563   6.164   4.361
10376SOL    HW232028   1.409   6.157   4.415
10377SOL     OW32029   0.179   0.740   2.083
10377SOL    HW132030   0.223   0.651   2.090
10377SOL    HW232031   0.244   0.812   2.109
10378SOL     OW32032   5.907   5.951   5.373
10378SOL    HW132033   5.948   6.001   5.450
10378SOL    HW232034   5.975   5.943   5.299
10379SOL     OW32035   3.467   5.750   4.705
10379SOL    HW132036   3.405   5.691   4.652
10379SOL    HW232037   3.433   5.843   4.706
10380SOL     OW32038   1.104   2.747   4.777
10380SOL    HW132039   1.081   2.809   4.702
10380SOL    HW232040   1.021   2.701   4.808
10381SOL     OW32041   4.515   3.673   1.089
10381SOL    HW132042   4.449   3.695   1.162
10381SOL    HW232043   4.539   3.576   1.095
10382SOL     OW32044   3.005   5.418   1.578
10382SOL    HW132045   2.921   5.380   1.540
10382SOL    HW232046   3.061   5.456   1.505
10383SOL     OW32047   0.831   4.414   0.667
10383SOL    HW132048   0.906   4.375   0.614
10383SOL    HW232049   0.841   4.387   0.763
10384SOL     OW32050   6.785   6.833   0.852
10384SOL    HW132051   6.780   6.773   0.772
10384SOL    HW232052   6.881   6.852   0.872
10385SOL     OW32053   4.069   5.850   6.529
10385SOL    HW132054   4.094   5.946   6.522
10385SOL    HW232055   4.035   5.817   6.441
10386SOL     OW32056   0.478   1.480   5.832
10386SOL    HW132057   0.539   1.435   5.897
10386SOL    HW232058   0.455   1.416   5.759
10387SOL     OW32059   4.905   2.932   3.071
10387SOL    HW132060   4.995   2.902   3.101
10387SOL    HW232061   4.867   2.995   3.138
10388SOL     OW32062   1.483   5.658   1.855
10388SOL    HW132063   1.568   5.606   1.861
10388SOL    HW232064   1.446   5.671   1.947
10389SOL     OW32065   6.366   4.236   1.017
10389SOL    HW132066   6.309   4.184   1.081
10389SOL    HW232067   6.444   4.180   0.989
10390SOL     OW32068   2.381   3.421   0.464
10390SOL    HW132069   2.302   3.460   0.417
10390SOL    HW232070   2.396   3.471   0.549
10391SOL     OW32071   0.120   6.182   4.080
10391SOL    HW132072   0.021   6.171   4.067
10391SOL    HW232073   0.164   6.188   3.991
10392SOL     OW32074   6.027   4.584   5.726
10392SOL    HW132075   6.048   4.499   5.774
10392SOL    HW232076   5.932   4.582   5.694
10393SOL     OW32077   2.293   2.867   2.770
10393SOL    HW132078   2.265   2.929   2.697
10393SOL    HW232079   2.305   2.919   2.855
10394SOL     OW32080   2.383   5.046   5.616
10394SOL    HW132081   2.346   4.989   5.543
10394SOL    HW232082   2.413   4.989   5.692
10395SOL     OW32083   0.539   0.806   1.908
10395SOL    HW132084   0.556   0.708   1.905
10395SOL    HW232085   0.549   0.839   2.002
10396SOL     OW32086   3.589   1.095   4.105
10396SOL    HW132087   3.635   1.139   4.028
10396SOL    HW232088   3.633   1.007   4.124
10397SOL     OW32089   3.563   1.087   4.633
10397SOL    HW132090   3.655   1.077   4.596
10397SOL    HW232091   3.526   1.176   4.607
10398SOL     OW32092   5.707   2.372   0.781
10398SOL    HW132093   5.662   2.291   0.820
10398SOL    HW232094   5.675   2.454   0.830
10399SOL     OW32095   4.745   2.018   3.172
10399SOL    HW132096   4.684   1.940   3.169
10399SOL    HW232097   4.772   2.042   3.078
10400SOL     OW32098   4.441   6.022   0.026
10400SOL    HW132099   4.383   6.093   0.066
10400SOL    HW232100   4.524   6.012   0.080
10401SOL     OW32101   0.468   6.140   2.617
10401SOL    HW132102   0.555   6.108   2.580
10401SOL    HW232103   0.441   6.224   2.569
10402SOL     OW32104   0.247   1.626   5.839
10402SOL    HW132105   0.339   1.587   5.840
10402SOL    HW232106   0.182   1.559   5.876
10403SOL     OW32107   4.555   2.592   3.177
10403SOL    HW132108   4.537   2.658   3.250
10403SOL    HW232109   4.619   2.631   3.111
10404SOL     OW32110   5.929   6.166   4.186
10404SOL    HW132111   5.898   6.154   4.280
10404SOL    HW232112   6.029   6.170   4.185
10405SOL     OW32113   1.401   6.295   4.592
10405SOL    HW132114   1.314   6.319   4.634
10405SOL    HW232115   1.445   6.378   4.557
10406SOL     OW32116   2.044   3.072   3.790
10406SOL    HW132117   2.062   2.992   3.846
10406SOL    HW232118   2.068   3.155   3.840
10407SOL     OW32119   2.629   6.724   6.443
10407SOL    HW132120   2.581   6.676   6.369
10407SOL    HW232121   2.672   6.658   6.504
10408SOL     OW32122   4.650   0.511   1.348
10408SOL    HW132123   4.749   0.527   1.354
10408SOL    HW232124   4.632   0.413   1.347
10409SOL     OW32125   6.718   5.013   1.091
10409SOL    HW132126   6.806   4.965   1.088
10409SOL    HW232127   6.643   4.947   1.088
10410SOL     OW32128   5.321   2.049   1.759
10410SOL    HW132129   5.389   2.051   1.833
10410SOL    HW232130   5.229   2.049   1.799
10411SOL     OW32131   2.696   6.431   3.539
10411SOL    HW132132   2.720   6.337   3.512
10411SOL    HW232133   2.773   6.492   3.517
10412SOL     OW32134   0.293   1.459   0.943
10412SOL    HW132135   0.299   1.417   0.852
10412SOL    HW232136   0.225   1.532   0.942
10413SOL     OW32137   6.752   2.949   1.213
10413SOL    HW132138   6.675   2.902   1.170
10413SOL    HW232139   6.800   2.886   1.274
10414SOL     OW32140   3.373   5.070   5.453
10414SOL    HW132141   3.334   4.981   5.428
10414SOL    HW232142   3.384   5.076   5.552
10415SOL     OW32143   1.345   3.897   4.305
10415SOL    HW132144   1.389   3.982   4.278
10415SOL    HW232145   1.345   3.833   4.229
10416SOL     OW32146   5.866   0.110   5.423
10416SOL    HW132147   5.849   0.072   5.514
10416SOL    HW232148   5.910   0.041   5.366
10417SOL     OW32149   3.282   4.879   3.904
10417SOL    HW132150   3.381   4.868   3.917
10417SOL    HW232151   3.241   4.912   3.989
10418SOL     OW32152   6.371   4.319   5.903
10418SOL    HW132153   6.326   4.242   5.949
10418SOL    HW232154   6.466   4.325   5.935
10419SOL     OW32155   3.347   6.586   6.360
10419SOL    HW132156   3.389   6.507   6.406
10419SOL    HW232157   3.330   6.658   6.427
10420SOL     OW32158   0.066   3.314   4.153
10420SOL    HW132159   0.060   3.414   4.159
10420SOL    HW232160   7.012   3.274   4.205
10421SOL     OW32161   1.167   2.700   4.011
10421SOL    HW132162   1.136   2.638   3.940
10421SOL    HW232163   1.248   2.662   4.056
10422SOL     OW32164   6.183   3.085   4.694
10422SOL    HW132165   6.134   3.166   4.661
10422SOL    HW232166   6.120   3.028   4.747
10423SOL     OW32167   5.401   5.188   5.857
10423SOL    HW132168   5.431   5.225   5.945
10423SOL    HW232169   5.338   5.253   5.813
10424SOL     OW32170   4.053   3.181   1.305
10424SOL    HW132171   4.131   3.146   1.254
10424SOL    HW232172   4.076   3.271   1.344
10425SOL     OW32173   1.623   0.030   2.364
10425SOL    HW132174   1.663   0.009   2.454
10425SOL    HW232175   1.524   0.040   2.374
10426SOL     OW32176   5.230   4.579   0.317
10426SOL    HW132177   5.137   4.585   0.279
10426SOL    HW232178   5.279   4.664   0.296
10427SOL     OW32179   4.115   1.098   6.957
10427SOL    HW132180   4.140   1.193   6.941
10427SOL    HW232181   4.064   1.090   0.022
10428SOL     OW32182   3.623   0.869   3.771
10428SOL    HW132183   3.706   0.885   3.825
10428SOL    HW232184   3.649   0.833   3.681
10429SOL     OW32185   0.073   3.886   2.097
10429SOL    HW132186   0.017   3.969   2.095
10429SOL    HW232187   0.019   3.808   2.065
10430SOL     OW32188   5.105   0.054   4.788
10430SOL    HW132189   5.169   0.100   4.725
10430SOL    HW232190   5.104   6.977   4.769
10431SOL     OW32191   2.480   5.897   4.828
10431SOL    HW132192   2.414   5.842   4.776
10431SOL    HW232193   2.529   5.958   4.766
10432SOL     OW32194   6.166   0.169   4.712
10432SOL    HW132195   6.197   0.234   4.781
10432SOL    HW232196   6.160   0.214   4.624
10433SOL     OW32197   1.084   5.961   2.354
10433SOL    HW132198   1.110   5.899   2.428
10433SOL    HW232199   1.158   5.966   2.287
10434SOL     OW32200   3.920   5.811   2.455
10434SOL    HW132201   3.868   5.775   2.378
10434SOL    HW232202   4.011   5.838   2.424
10435SOL     OW32203   0.882   1.217   5.441
10435SOL    HW132204   0.892   1.315   5.424
10435SOL    HW232205   0.824   1.176   5.370
10436SOL     OW32206   6.241   4.689   5.593
10436SOL    HW132207   6.164   4.628   5.609
10436SOL    HW232208   6.324   4.636   5.574
10437SOL     OW32209   4.603   4.105   6.061
10437SOL    HW132210   4.681   4.150   6.019
10437SOL    HW232211   4.633   4.021   6.106
10438SOL     OW32212   6.551   6.706   6.705
10438SOL    HW132213   6.610   6.626   6.716
10438SOL    HW232214   6.519   6.711   6.611
10439SOL     OW32215   4.066   1.711   4.821
10439SOL    HW132216   4.109   1.630   4.781
10439SOL    HW232217   4.004   1.752   4.755
10440SOL     OW32218   0.946   6.489   0.793
10440SOL    HW132219   1.045   6.477   0.785
10440SOL    HW232220   0.899   6.408   0.759
10441SOL     OW32221   4.165   1.495   1.405
10441SOL    HW132222   4.088   1.511   1.466
10441SOL    HW232223   4.213   1.412   1.432
10442SOL     OW32224   4.070   6.704   6.588
10442SOL    HW132225   4.146   6.717   6.651
10442SOL    HW232226   4.102   6.657   6.506
10443SOL     OW32227   4.945   3.699   3.976
10443SOL    HW132228   4.964   3.668   3.883
10443SOL    HW232229   4.906   3.624   4.028
10444SOL     OW32230   4.324   5.533   3.807
10444SOL    HW132231   4.252   5.574   3.864
10444SOL    HW232232   4.403   5.594   3.806
10445SOL     OW32233   0.857   4.554   4.257
10445SOL    HW132234   0.808   4.510   4.181
10445SOL    HW232235   0.809   4.536   4.343
10446SOL     OW32236   1.735   3.155   5.841
10446SOL    HW132237   1.789   3.092   5.897
10446SOL    HW232238   1.640   3.124   5.836
10447SOL     OW32239   0.384   1.218   2.140
10447SOL    HW132240   0.368   1.217   2.238
10447SOL    HW232241   0.320   1.282   2.096
10448SOL     OW32242   4.784   0.797   2.548
10448SOL    HW132243   4.795   0.890   2.511
10448SOL    HW232244   4.709   0.752   2.500
10449SOL     OW32245   1.851   5.708   4.893
10449SOL    HW132246   1.836   5.694   4.991
10449SOL    HW232247   1.766   5.692   4.844
10450SOL     OW32248   0.735   1.364   0.856
10450SOL    HW132249   0.763   1.385   0.950
10450SOL    HW232250   0.785   1.422   0.792
10451SOL     OW32251   2.364   5.860   2.459
10451SOL    HW132252   2.441   5.815   2.503
10451SOL    HW232253   2.319   5.920   2.525
10452SOL     OW32254   6.667   3.326   2.131
10452SOL    HW132255   6.617   3.411   2.147
10452SOL    HW232256   6.644   3.290   2.040
10453SOL     OW32257   4.156   0.065   1.352
10453SOL    HW132258   4.102   7.004   1.370
10453SOL    HW232259   4.231   0.071   1.418
10454SOL     OW32260   4.764   3.352   0.454
10454SOL    HW132261   4.803   3.260   0.443
10454SOL    HW232262   4.783   3.406   0.372
10455SOL     OW32263   6.124   5.783   3.653
10455SOL    HW132264   6.084   5.872   3.675
10455SOL    HW232265   6.166   5.787   3.562
10456SOL     OW32266   2.234   5.655   0.433
10456SOL    HW132267   2.236   5.560   0.462
10456SOL    HW232268   2.273   5.713   0.505
10457SOL     OW32269   3.413   3.193   1.443
10457SOL    HW132270   3.460   3.145   1.518
10457SOL    HW232271   3.481   3.228   1.379
10458SOL     OW32272   6.462   0.539   6.908
10458SOL    HW132273   6.518   0.455   6.908
10458SOL    HW232274   6.478   0.590   6.823
10459SOL     OW32275   4.847   5.800   1.690
10459SOL    HW132276   4.776   5.805   1.761
10459SOL    HW232277   4.923   5.744   1.722
10460SOL     OW32278   0.618   4.230   2.523
10460SOL    HW132279   0.595   4.327   2.524
10460SOL    HW232280   0.666   4.206   2.608
10461SOL     OW32281   6.832   5.377   5.922
10461SOL    HW132282   6.789   5.466   5.903
10461SOL    HW232283   6.906   5.361   5.858
10462SOL     OW32284   6.005   1.528   3.337
10462SOL    HW132285   6.030   1.468   3.413
10462SOL    HW232286   5.946   1.478   3.273
10463SOL     OW32287   4.440   2.971   5.997
10463SOL    HW132288   4.356   3.020   6.017
10463SOL    HW232289   4.497   3.025   5.936
10464SOL     OW32290   6.481   6.714   1.484
10464SOL    HW132291   6.544   6.668   1.547
10464SOL    HW232292   6.523   6.798   1.450
10465SOL     OW32293   6.233   5.486   0.907
10465SOL    HW132294   6.312   5.512   0.962
10465SOL    HW232295   6.246   5.517   0.813
10466SOL     OW32296   4.036   5.089   5.944
10466SOL    HW132297   4.041   5.083   5.844
10466SOL    HW232298   4.005   5.002   5.981
10467SOL     OW32299   2.847   1.281   6.867
10467SOL    HW132300   2.776   1.341   6.829
10467SOL    HW232301   2.917   1.337   6.911
10468SOL     OW32302   4.082   5.329   3.123
10468SOL    HW132303   4.027   5.413   3.119
10468SOL    HW232304   4.043   5.268   3.191
10469SOL     OW32305   4.197   4.279   5.564
10469SOL    HW132306   4.133   4.352   5.586
10469SOL    HW232307   4.147   4.197   5.539
10470SOL     OW32308   2.330   2.642   3.727
10470SOL    HW132309   2.355   2.657   3.631
10470SOL    HW232310   2.295   2.549   3.738
10471SOL     OW32311   2.657   1.929   1.343
10471SOL    HW132312   2.691   1.845   1.302
10471SOL    HW232313   2.723   1.963   1.410
10472SOL     OW32314   3.971   5.523   0.238
10472SOL    HW132315   3.999   5.427   0.249
10472SOL    HW232316   3.871   5.528   0.230
10473SOL     OW32317   6.719   0.477   6.287
10473SOL    HW132318   6.729   0.381   6.262
10473SOL    HW232319   6.761   0.493   6.376
10474SOL     OW32320   3.458   2.078   4.483
10474SOL    HW132321   3.445   2.080   4.582
10474SOL    HW232322   3.370   2.064   4.437
10475SOL     OW32323   4.426   6.746   1.427
10475SOL    HW132324   4.389   6.817   1.487
10475SOL    HW232325   4.453   6.667   1.482
10476SOL     OW32326   6.985   5.934   0.169
10476SOL    HW132327   0.012   5.852   0.201
10476SOL    HW232328   6.904   5.906   0.116
10477SOL     OW32329   6.894   1.847   4.548
10477SOL    HW132330   6.806   1.806   4.525
10477SOL    HW232331   6.964   1.814   4.484
10478SOL     OW32332   0.105   0.524   1.245
10478SOL    HW132333   0.190   0.486   1.281
10478SOL    HW232334   0.107   0.624   1.254
10479SOL     OW32335   0.379   2.426   2.336
10479SOL    HW132336   0.301   2.433   2.274
10479SOL    HW232337   0.386   2.510   2.391
10480SOL     OW32338   6.551   6.897   1.919
10480SOL    HW132339   6.605   6.854   1.847
10480SOL    HW232340   6.511   6.827   1.977
10481SOL     OW32341   2.397   6.798   4.503
10481SOL    HW132342   2.324   6.774   4.439
10481SOL    HW232343   2.404   6.897   4.511
10482SOL     OW32344   6.129   5.000   4.713
10482SOL    HW132345   6.067   5.078   4.702
10482SOL    HW232346   6.218   5.023   4.674
10483SOL     OW32347   6.569   4.583   6.919
10483SOL    HW132348   6.521   4.606   6.834
10483SOL    HW232349   6.665   4.563   6.899
10484SOL     OW32350   5.920   1.122   2.083
10484SOL    HW132351   5.967   1.190   2.139
10484SOL    HW232352   5.824   1.149   2.071
10485SOL     OW32353   3.287   3.957   1.121
10485SOL    HW132354   3.286   4.000   1.031
10485SOL    HW232355   3.376   3.971   1.165
10486SOL     OW32356   6.636   0.685   0.036
10486SOL    HW132357   6.607   0.620   0.107
10486SOL    HW232358   6.601   0.654   6.969
10487SOL     OW32359   4.806   1.663   2.522
10487SOL    HW132360   4.879   1.596   2.510
10487SOL    HW232361   4.723   1.617   2.552
10488SOL     OW32362   2.967   2.018   5.563
10488SOL    HW132363   3.012   2.104   5.540
10488SOL    HW232364   2.886   2.005   5.505
10489SOL     OW32365   0.080   6.938   4.517
10489SOL    HW132366   0.016   6.934   4.595
10489SOL    HW232367   0.050   7.010   4.454
10490SOL     OW32368   5.970   1.800   0.641
10490SOL    HW132369   5.909   1.797   0.562
10490SOL    HW232370   6.037   1.873   0.629
10491SOL     OW32371   2.795   1.960   5.761
10491SOL    HW132372   2.880   1.978   5.712
10491SOL    HW232373   2.816   1.917   5.849
10492SOL     OW32374   5.418   5.568   0.738
10492SOL    HW132375   5.473   5.648   0.761
10492SOL    HW232376   5.413   5.559   0.638
10493SOL     OW32377   3.234   6.761   1.899
10493SOL    HW132378   3.216   6.719   1.810
10493SOL    HW232379   3.171   6.837   1.913
10494SOL     OW32380   5.574   4.542   6.069
10494SOL    HW132381   5.565   4.635   6.035
10494SOL    HW232382   5.574   4.543   6.169
10495SOL     OW32383   1.037   6.534   1.097
10495SOL    HW132384   0.998   6.549   1.006
10495SOL    HW232385   1.074   6.441   1.103
10496SOL     OW32386   6.015   3.869   6.146
10496SOL    HW132387   5.974   3.842   6.059
10496SOL    HW232388   5.991   3.803   6.217
10497SOL     OW32389   2.166   0.035   1.550
10497SOL    HW132390   2.184   0.011   1.645
10497SOL    HW232391   2.096   0.106   1.545
10498SOL     OW32392   5.262   5.077   0.692
10498SOL    HW132393   5.218   4.997   0.734
10498SOL    HW232394   5.195   5.124   0.634
10499SOL     OW32395   4.959   0.418   2.393
10499SOL    HW132396   4.970   0.507   2.349
10499SOL    HW232397   4.987   0.424   2.489
10500SOL     OW32398   6.185   1.356   5.874
10500SOL    HW132399   6.132   1.428   5.919
10500SOL    HW232400   6.123   1.289   5.834
10501SOL     OW32401   2.129   5.717   2.329
10501SOL    HW132402   2.200   5.780   2.363
10501SOL    HW232403   2.121   5.726   2.230
10502SOL     OW32404   2.731   2.218   1.490
10502SOL    HW132405   2.643   2.200   1.534
10502SOL    HW232406   2.779   2.290   1.540
10503SOL     OW32407   5.165   2.981   1.059
10503SOL    HW132408   5.219   3.017   0.982
10503SOL    HW232409   5.208   3.009   1.145
10504SOL     OW32410   1.669   2.894   5.630
10504SOL    HW132411   1.601   2.921   5.562
10504SOL    HW232412   1.627   2.897   5.721
10505SOL     OW32413   5.336   5.142   1.009
10505SOL    HW132414   5.261   5.098   0.959
10505SOL    HW232415   5.348   5.235   0.974
10506SOL     OW32416   0.312   3.760   6.969
10506SOL    HW132417   0.315   3.677   6.912
10506SOL    HW232418   0.379   3.825   6.935
10507SOL     OW32419   1.607   5.996   0.954
10507SOL    HW132420   1.593   5.938   1.034
10507SOL    HW232421   1.694   6.044   0.961
10508SOL     OW32422   6.736   5.886   4.843
10508SOL    HW132423   6.747   5.977   4.884
10508SOL    HW232424   6.822   5.858   4.801
10509SOL     OW32425   6.865   5.452   5.025
10509SOL    HW132426   6.771   5.445   4.991
10509SOL    HW232427   6.881   5.381   5.094
10510SOL     OW32428   4.942   6.417   0.112
10510SOL    HW132429   5.025   6.365   0.094
10510SOL    HW232430   4.920   6.473   0.031
10511SOL     OW32431   2.552   1.332   2.112
10511SOL    HW132432   2.558   1.415   2.167
10511SOL    HW232433   2.623   1.268   2.142
10512SOL     OW32434   4.198   0.343   5.240
10512SOL    HW132435   4.190   0.437   5.273
10512SOL    HW232436   4.295   0.320   5.228
10513SOL     OW32437   6.625   2.985   3.645
10513SOL    HW132438   6.556   3.056   3.659
10513SOL    HW232439   6.657   2.989   3.550
10514SOL     OW32440   0.688   3.384   0.894
10514SOL    HW132441   0.667   3.337   0.980
10514SOL    HW232442   0.757   3.454   0.911
10515SOL     OW32443   1.255   4.243   3.951
10515SOL    HW132444   1.168   4.200   3.928
10515SOL    HW232445   1.330   4.189   3.914
10516SOL     OW32446   3.267   2.064   0.731
10516SOL    HW132447   3.341   2.018   0.682
10516SOL    HW232448   3.199   2.097   0.665
10517SOL     OW32449   0.710   3.080   0.836
10517SOL    HW132450   0.648   3.153   0.866
10517SOL    HW232451   0.802   3.116   0.825
10518SOL     OW32452   0.079   5.907   0.868
10518SOL    HW132453   0.021   5.980   0.903
10518SOL    HW232454   0.095   5.839   0.939
10519SOL     OW32455   3.049   3.655   0.917
10519SOL    HW132456   2.968   3.679   0.864
10519SOL    HW232457   3.063   3.723   0.989
10520SOL     OW32458   0.870   2.344   5.957
10520SOL    HW132459   0.943   2.324   5.891
10520SOL    HW232460   0.907   2.401   6.031
10521SOL     OW32461   6.583   5.069   1.482
10521SOL    HW132462   6.540   4.981   1.499
10521SOL    HW232463   6.529   5.120   1.415
10522SOL     OW32464   0.280   1.254   4.152
10522SOL    HW132465   0.257   1.334   4.098
10522SOL    HW232466   0.355   1.204   4.109
10523SOL     OW32467   0.686   5.005   3.048
10523SOL    HW132468   0.751   4.976   3.119
10523SOL    HW232469   0.595   5.013   3.087
10524SOL     OW32470   0.676   6.508   3.962
10524SOL    HW132471   0.752   6.539   3.905
10524SOL    HW232472   0.617   6.447   3.909
10525SOL     OW32473   3.771   0.627   5.436
10525SOL    HW132474   3.740   0.650   5.529
10525SOL    HW232475   3.804   0.533   5.434
10526SOL     OW32476   1.068   6.818   2.990
10526SOL    HW132477   0.997   6.787   3.053
10526SOL    HW232478   1.046   6.790   2.897
10527SOL     OW32479   1.209   0.826   5.116
10527SOL    HW132480   1.231   0.900   5.179
10527SOL    HW232481   1.270   0.749   5.133
10528SOL     OW32482   1.414   3.878   5.751
10528SOL    HW132483   1.412   3.889   5.851
10528SOL    HW232484   1.443   3.785   5.729
10529SOL     OW32485   2.739   6.341   4.268
10529SOL    HW132486   2.662   6.278   4.282
10529SOL    HW232487   2.820   6.304   4.313
10530SOL     OW32488   1.296   0.276   6.237
10530SOL    HW132489   1.298   0.301   6.140
10530SOL    HW232490   1.223   0.209   6.253
10531SOL     OW32491   1.619   2.518   4.089
10531SOL    HW132492   1.695   2.582   4.093
10531SOL    HW232493   1.601   2.493   3.994
10532SOL     OW32494   0.834   6.815   6.250
10532SOL    HW132495   0.744   6.773   6.262
10532SOL    HW232496   0.847   6.839   6.154
10533SOL     OW32497   2.967   6.895   3.394
10533SOL    HW132498   2.977   6.831   3.317
10533SOL    HW232499   2.975   6.988   3.360
10534SOL     OW32500   6.302   5.341   2.142
10534SOL    HW132501   6.319   5.275   2.069
10534SOL    HW232502   6.237   5.303   2.207
10535SOL     OW32503   1.782   1.936   2.039
10535SOL    HW132504   1.830   1.895   2.116
10535SOL    HW232505   1.706   1.992   2.073
10536SOL     OW32506   4.544   0.551   4.082
10536SOL    HW132507   4.486   0.539   4.002
10536SOL    HW232508   4.493   0.599   4.154
10537SOL     OW32509   4.338   6.220   4.545
10537SOL    HW132510   4.320   6.309   4.588
10537SOL    HW232511   4.413   6.229   4.480
10538SOL     OW32512   6.618   3.747   1.344
10538SOL    HW132513   6.558   3.668   1.337
10538SOL    HW232514   6.688   3.742   1.272
10539SOL     OW32515   0.018   4.905   0.357
10539SOL    HW132516   6.958   4.851   0.379
10539SOL    HW232517   0.032   4.906   0.258
10540SOL     OW32518   1.713   3.176   5.565
10540SOL    HW132519   1.735   3.154   5.660
10540SOL    HW232520   1.769   3.120   5.504
10541SOL     OW32521   3.480   3.876   2.092
10541SOL    HW132522   3.497   3.947   2.160
10541SOL    HW232523   3.477   3.917   2.001
10542SOL     OW32524   6.997   1.436   5.438
10542SOL    HW132525   6.914   1.473   5.479
10542SOL    HW232526   6.973   1.357   5.381
10543SOL     OW32527   0.277   1.811   4.843
10543SOL    HW132528   0.293   1.862   4.759
10543SOL    HW232529   0.178   1.802   4.858
10544SOL     OW32530   2.908   6.572   1.788
10544SOL    HW132531   2.864   6.660   1.808
10544SOL    HW232532   2.841   6.510   1.747
10545SOL     OW32533   0.653   1.993   0.966
10545SOL    HW132534   0.746   2.027   0.953
10545SOL    HW232535   0.655   1.895   0.982
10546SOL     OW32536   1.818   6.929   0.737
10546SOL    HW132537   1.888   6.862   0.760
10546SOL    HW232538   1.744   6.884   0.686
10547SOL     OW32539   5.314   3.072   3.432
10547SOL    HW132540   5.358   3.132   3.366
10547SOL    HW232541   5.261   3.002   3.383
10548SOL     OW32542   6.129   4.151   4.640
10548SOL    HW132543   6.082   4.115   4.721
10548SOL    HW232544   6.157   4.246   4.657
10549SOL     OW32545   0.653   0.818   1.481
10549SOL    HW132546   0.742   0.860   1.463
10549SOL    HW232547   0.581   0.888   1.473
10550SOL     OW32548   5.144   6.859   3.324
10550SOL    HW132549   5.237   6.886   3.351
10550SOL    HW232550   5.084   6.866   3.404
10551SOL     OW32551   2.108   2.391   6.556
10551SOL    HW132552   2.069   2.354   6.472
10551SOL    HW232553   2.144   2.483   6.539
10552SOL     OW32554   2.216   1.123   5.624
10552SOL    HW132555   2.205   1.047   5.560
10552SOL    HW232556   2.227   1.209   5.572
10553SOL     OW32557   0.005   4.364   1.538
10553SOL    HW132558   0.058   4.408   1.466
10553SOL    HW232559   0.018   4.265   1.533
10554SOL     OW32560   5.214   4.819   1.209
10554SOL    HW132561   5.158   4.762   1.269
10554SOL    HW232562   5.301   4.773   1.192
10555SOL     OW32563   2.454   2.640   1.201
10555SOL    HW132564   2.371   2.679   1.161
10555SOL    HW232565   2.468   2.548   1.165
10556SOL     OW32566   1.120   1.434   4.128
10556SOL    HW132567   1.071   1.374   4.191
10556SOL    HW232568   1.127   1.391   4.039
10557SOL     OW32569   2.212   3.155   2.893
10557SOL    HW132570   2.135   3.217   2.905
10557SOL    HW232571   2.297   3.208   2.890
10558SOL     OW32572   3.844   6.634   4.922
10558SOL    HW132573   3.853   6.586   5.009
10558SOL    HW232574   3.862   6.571   4.847
10559SOL     OW32575   4.605   1.221   1.758
10559SOL    HW132576   4.573   1.242   1.666
10559SOL    HW232577   4.529   1.189   1.814
10560SOL     OW32578   4.857   6.794   2.677
10560SOL    HW132579   4.764   6.785   2.642
10560SOL    HW232580   4.869   6.737   2.758
10561SOL     OW32581   3.709   4.416   1.705
10561SOL    HW132582   3.726   4.324   1.741
10561SOL    HW232583   3.650   4.467   1.767
10562SOL     OW32584   4.067   5.474   6.973
10562SOL    HW132585   4.056   5.551   0.014
10562SOL    HW232586   4.114   5.400   7.021
10563SOL     OW32587   0.143   0.981   3.088
10563SOL    HW132588   0.171   1.002   2.994
10563SOL    HW232589   0.043   0.982   3.094
10564SOL     OW32590   5.439   6.094   2.997
10564SOL    HW132591   5.466   6.141   3.081
10564SOL    HW232592   5.372   6.150   2.948
10565SOL     OW32593   0.223   6.888   6.039
10565SOL    HW132594   0.190   6.913   5.948
10565SOL    HW232595   0.241   6.970   6.092
10566SOL     OW32596   3.732   2.123   6.601
10566SOL    HW132597   3.747   2.146   6.505
10566SOL    HW232598   3.789   2.182   6.659
10567SOL     OW32599   2.608   2.376   5.083
10567SOL    HW132600   2.600   2.418   4.993
10567SOL    HW232601   2.704   2.350   5.099
10568SOL     OW32602   6.928   2.885   0.983
10568SOL    HW132603   6.970   2.799   1.013
10568SOL    HW232604   6.852   2.908   1.044
10569SOL     OW32605   5.356   1.434   1.769
10569SOL    HW132606   5.414   1.469   1.695
10569SOL    HW232607   5.304   1.510   1.809
10570SOL     OW32608   1.775   4.329   3.367
10570SOL    HW132609   1.725   4.282   3.293
10570SOL    HW232610   1.722   4.408   3.398
10571SOL     OW32611   0.546   4.563   4.970
10571SOL    HW132612   0.459   4.517   4.954
10571SOL    HW232613   0.616   4.496   4.997
10572SOL     OW32614   0.002   4.577   2.929
10572SOL    HW132615   0.070   4.591   2.857
10572SOL    HW232616   6.936   4.616   2.900
10573SOL     OW32617   5.410   0.747   4.910
10573SOL    HW132618   5.465   0.774   4.831
10573SOL    HW232619   5.402   0.824   4.973
10574SOL     OW32620   0.500   1.618   4.838
10574SOL    HW132621   0.427   1.668   4.793
10574SOL    HW232622   0.584   1.627   4.785
10575SOL     OW32623   6.862   1.100   3.803
10575SOL    HW132624   6.950   1.111   3.758
10575SOL    HW232625   6.839   1.183   3.852
10576SOL     OW32626   0.473   5.532   4.728
10576SOL    HW132627   0.463   5.531   4.629
10576SOL    HW232628   0.520   5.449   4.758
10577SOL     OW32629   1.795   4.780   0.614
10577SOL    HW132630   1.852   4.786   0.532
10577SOL    HW232631   1.715   4.839   0.603
10578SOL     OW32632   4.200   1.467   2.721
10578SOL    HW132633   4.245   1.535   2.664
10578SOL    HW232634   4.234   1.474   2.815
10579SOL     OW32635   4.442   2.965   1.647
10579SOL    HW132636   4.405   2.874   1.628
10579SOL    HW232637   4.461   2.974   1.745
10580SOL     OW32638   6.862   0.486   6.559
10580SOL    HW132639   6.893   0.395   6.585
10580SOL    HW232640   6.941   0.542   6.533
10581SOL     OW32641   5.679   0.207   2.949
10581SOL    HW132642   5.601   0.236   3.003
10581SOL    HW232643   5.744   0.283   2.941
10582SOL     OW32644   4.509   4.076   5.634
10582SOL    HW132645   4.606   4.091   5.650
10582SOL    HW232646   4.494   4.051   5.539
10583SOL     OW32647   3.725   1.200   3.785
10583SOL    HW132648   3.819   1.201   3.819
10583SOL    HW232649   3.725   1.164   3.691
10584SOL     OW32650   6.694   0.489   0.340
10584SOL    HW132651   6.719   0.567   0.396
10584SOL    HW232652   6.635   0.427   0.392
10585SOL     OW32653   2.731   1.993   5.107
10585SOL    HW132654   2.641   2.033   5.122
10585SOL    HW232655   2.729   1.896   5.130
10586SOL     OW32656   5.618   4.751   5.887
10586SOL    HW132657   5.682   4.720   5.816
10586SOL    HW232658   5.608   4.850   5.881
10587SOL     OW32659   6.239   4.784   0.062
10587SOL    HW132660   6.322   4.784   0.118
10587SOL    HW232661   6.195   4.874   0.068
10588SOL     OW32662   1.442   2.460   4.779
10588SOL    HW132663   1.350   2.466   4.819
10588SOL    HW232664   1.510   2.468   4.852
10589SOL     OW32665   6.107   1.042   4.413
10589SOL    HW132666   6.091   1.139   4.433
10589SOL    HW232667   6.074   1.021   4.321
10590SOL     OW32668   0.246   0.136   0.710
10590SOL    HW132669   0.251   0.186   0.796
10590SOL    HW232670   0.237   0.201   0.634
10591SOL     OW32671   1.114   2.268   7.007
10591SOL    HW132672   1.212   2.279   6.995
10591SOL    HW232673   1.093   2.258   0.083
10592SOL     OW32674   5.704   3.660   2.980
10592SOL    HW132675   5.702   3.621   3.072
10592SOL    HW232676   5.610   3.672   2.948
10593SOL     OW32677   2.877   5.785   0.727
10593SOL    HW132678   2.948   5.748   0.787
10593SOL    HW232679   2.788   5.781   0.773
10594SOL     OW32680   5.442   1.459   3.182
10594SOL    HW132681   5.356   1.465   3.233
10594SOL    HW232682   5.447   1.535   3.116
10595SOL     OW32683   5.601   0.185   0.168
10595SOL    HW132684   5.611   0.224   0.259
10595SOL    HW232685   5.689   0.152   0.135
10596SOL     OW32686   4.464   0.707   0.307
10596SOL    HW132687   4.468   0.709   0.207
10596SOL    HW232688   4.532   0.770   0.344
10597SOL     OW32689   3.445   1.449   5.870
10597SOL    HW132690   3.395   1.518   5.817
10597SOL    HW232691   3.509   1.401   5.810
10598SOL     OW32692   2.983   2.933   0.206
10598SOL    HW132693   3.025   3.021   0.186
10598SOL    HW232694   2.904   2.919   0.146
10599SOL     OW32695   5.301   3.493   6.527
10599SOL    HW132696   5.250   3.567   6.482
10599SOL    HW232697   5.392   3.526   6.551
10600SOL     OW32698   3.406   2.641   1.062
10600SOL    HW132699   3.326   2.616   1.117
10600SOL    HW232700   3.452   2.558   1.032
10601SOL     OW32701   1.266   5.030   5.193
10601SOL    HW132702   1.359   5.005   5.166
10601SOL    HW232703   1.238   5.113   5.145
10602SOL     OW32704   1.455   0.455   2.202
10602SOL    HW132705   1.503   0.408   2.128
10602SOL    HW232706   1.419   0.542   2.168
10603SOL     OW32707   4.037   0.335   3.589
10603SOL    HW132708   4.131   0.302   3.581
10603SOL    HW232709   3.980   0.289   3.520
10604SOL     OW32710   6.534   6.030   5.379
10604SOL    HW132711   6.629   6.002   5.389
10604SOL    HW232712   6.529   6.110   5.319
10605SOL     OW32713   2.059   6.392   6.589
10605SOL    HW132714   1.992   6.319   6.606
10605SOL    HW232715   2.143   6.373   6.640
10606SOL     OW32716   0.185   0.139   1.462
10606SOL    HW132717   0.256   0.105   1.523
10606SOL    HW232718   0.221   0.218   1.411
10607SOL     OW32719   4.040   5.635   6.007
10607SOL    HW132720   4.002   5.658   5.917
10607SOL    HW232721   3.971   5.648   6.077
10608SOL     OW32722   6.666   3.369   4.280
10608SOL    HW132723   6.639   3.432   4.207
10608SOL    HW232724   6.585   3.339   4.330
10609SOL     OW32725   2.773   6.683   6.780
10609SOL    HW132726   2.842   6.719   6.842
10609SOL    HW232727   2.809   6.604   6.730
10610SOL     OW32728   0.537   2.497   3.773
10610SOL    HW132729   0.449   2.545   3.770
10610SOL    HW232730   0.530   2.420   3.836
10611SOL     OW32731   2.640   4.240   0.050
10611SOL    HW132732   2.667   4.151   0.086
10611SOL    HW232733   2.721   4.288   0.015
10612SOL     OW32734   3.484   2.045   4.745
10612SOL    HW132735   3.569   2.000   4.773
10612SOL    HW232736   3.444   2.092   4.824
10613SOL     OW32737   5.545   5.995   5.660
10613SOL    HW132738   5.578   5.930   5.591
10613SOL    HW232739   5.560   5.957   5.751
10614SOL     OW32740   4.760   1.671   5.205
10614SOL    HW132741   4.727   1.755   5.249
10614SOL    HW232742   4.700   1.595   5.230
10615SOL     OW32743   3.794   0.476   5.919
10615SOL    HW132744   3.803   0.439   6.012
10615SOL    HW232745   3.884   0.480   5.876
10616SOL     OW32746   2.233   7.002   0.168
10616SOL    HW132747   2.317   6.952   0.145
10616SOL    HW232748   2.154   6.954   0.129
10617SOL     OW32749   3.038   4.088   1.142
10617SOL    HW132750   3.088   4.002   1.152
10617SOL    HW232751   2.957   4.087   1.201
10618SOL     OW32752   1.032   4.047   5.710
10618SOL    HW132753   1.054   4.013   5.802
10618SOL    HW232754   1.100   4.014   5.645
10619SOL     OW32755   0.512   3.201   3.104
10619SOL    HW132756   0.544   3.130   3.167
10619SOL    HW232757   0.470   3.158   3.024
10620SOL     OW32758   1.473   6.638   5.346
10620SOL    HW132759   1.492   6.629   5.444
10620SOL    HW232760   1.531   6.573   5.295
10621SOL     OW32761   0.838   4.810   1.728
10621SOL    HW132762   0.890   4.784   1.810
10621SOL    HW232763   0.893   4.874   1.674
10622SOL     OW32764   5.217   1.623   2.159
10622SOL    HW132765   5.236   1.596   2.253
10622SOL    HW232766   5.123   1.597   2.135
10623SOL     OW32767   0.074   4.852   5.408
10623SOL    HW132768   0.099   4.911   5.331
10623SOL    HW232769   0.152   4.843   5.470
10624SOL     OW32770   0.973   2.298   5.005
10624SOL    HW132771   1.040   2.347   5.062
10624SOL    HW232772   0.986   2.324   4.909
10625SOL     OW32773   0.203   4.768   1.023
10625SOL    HW132774   0.278   4.828   1.049
10625SOL    HW232775   0.213   4.742   0.927
10626SOL     OW32776   2.732   3.042   0.951
10626SOL    HW132777   2.670   3.117   0.975
10626SOL    HW232778   2.690   2.955   0.977
10627SOL     OW32779   5.390   0.631   6.452
10627SOL    HW132780   5.452   0.688   6.398
10627SOL    HW232781   5.365   0.679   6.536
10628SOL     OW32782   5.194   5.983   1.015
10628SOL    HW132783   5.185   5.912   1.084
10628SOL    HW232784   5.105   6.027   1.000
10629SOL     OW32785   2.559   5.176   4.786
10629SOL    HW132786   2.499   5.168   4.865
10629SOL    HW232787   2.632   5.108   4.792
10630SOL     OW32788   6.387   1.273   3.536
10630SOL    HW132789   6.459   1.331   3.574
10630SOL    HW232790   6.400   1.179   3.567
10631SOL     OW32791   3.339   5.121   5.066
10631SOL    HW132792   3.403   5.048   5.090
10631SOL    HW232793   3.309   5.110   4.972
10632SOL     OW32794   5.381   6.867   3.948
10632SOL    HW132795   5.348   6.773   3.957
10632SOL    HW232796   5.374   6.913   4.037
10633SOL     OW32797   2.626   2.597   0.738
10633SOL    HW132798   2.591   2.593   0.645
10633SOL    HW232799   2.715   2.552   0.742
10634SOL     OW32800   2.977   4.174   0.612
10634SOL    HW132801   2.976   4.081   0.647
10634SOL    HW232802   3.013   4.175   0.519
10635SOL     OW32803   1.660   3.768   6.915
10635SOL    HW132804   1.720   3.845   6.896
10635SOL    HW232805   1.566   3.800   6.925
10636SOL     OW32806   0.361   1.832   0.867
10636SOL    HW132807   0.315   1.809   0.953
10636SOL    HW232808   0.460   1.823   0.878
10637SOL     OW32809   1.154   4.850   5.876
10637SOL    HW132810   1.250   4.827   5.865
10637SOL    HW232811   1.129   4.843   5.973
10638SOL     OW32812   5.543   5.897   2.840
10638SOL    HW132813   5.531   5.983   2.889
10638SOL    HW232814   5.456   5.847   2.837
10639SOL     OW32815   0.993   3.819   3.289
10639SOL    HW132816   0.982   3.852   3.382
10639SOL    HW232817   0.924   3.749   3.270
10640SOL     OW32818   4.675   6.840   4.170
10640SOL    HW132819   4.692   6.939   4.176
10640SOL    HW232820   4.580   6.821   4.194
10641SOL     OW32821   1.719   2.267   2.205
10641SOL    HW132822   1.756   2.359   2.210
10641SOL    HW232823   1.620   2.270   2.214
10642SOL     OW32824   6.574   2.527   1.143
10642SOL    HW132825   6.621   2.532   1.231
10642SOL    HW232826   6.640   2.503   1.072
10643SOL     OW32827   1.463   5.800   4.522
10643SOL    HW132828   1.392   5.832   4.460
10643SOL    HW232829   1.469   5.861   4.601
10644SOL     OW32830   6.321   2.800   2.141
10644SOL    HW132831   6.270   2.729   2.093
10644SOL    HW232832   6.327   2.882   2.085
10645SOL     OW32833   1.857   2.807   4.638
10645SOL    HW132834   1.825   2.714   4.623
10645SOL    HW232835   1.827   2.866   4.563
10646SOL     OW32836   0.246   0.261   6.611
10646SOL    HW132837   0.343   0.274   6.631
10646SOL    HW232838   0.216   0.173   6.646
10647SOL     OW32839   3.007   5.723   4.854
10647SOL    HW132840   2.938   5.673   4.801
10647SOL    HW232841   2.964   5.803   4.897
10648SOL     OW32842   5.958   3.982   6.595
10648SOL    HW132843   5.895   4.017   6.527
10648SOL    HW232844   5.942   3.884   6.608
10649SOL     OW32845   0.016   4.426   2.417
10649SOL    HW132846   0.085   4.494   2.438
10649SOL    HW232847   6.948   4.470   2.407
10650SOL     OW32848   0.585   0.416   3.848
10650SOL    HW132849   0.673   0.379   3.821
10650SOL    HW232850   0.590   0.451   3.941
10651SOL     OW32851   5.544   6.398   6.941
10651SOL    HW132852   5.537   6.301   6.918
10651SOL    HW232853   5.452   6.438   6.944
10652SOL     OW32854   3.526   6.751   5.485
10652SOL    HW132855   3.444   6.765   5.541
10652SOL    HW232856   3.554   6.655   5.491
10653SOL     OW32857   4.234   5.371   4.003
10653SOL    HW132858   4.148   5.330   3.972
10653SOL    HW232859   4.274   5.427   3.930
10654SOL     OW32860   5.490   0.817   0.736
10654SOL    HW132861   5.474   0.864   0.823
10654SOL    HW232862   5.501   0.885   0.663
10655SOL     OW32863   2.511   5.464   0.582
10655SOL    HW132864   2.459   5.421   0.508
10655SOL    HW232865   2.598   5.499   0.546
10656SOL     OW32866   0.123   1.961   2.950
10656SOL    HW132867   0.100   2.041   3.006
10656SOL    HW232868   0.175   1.991   2.869
10657SOL     OW32869   5.533   0.328   5.692
10657SOL    HW132870   5.610   0.327   5.755
10657SOL    HW232871   5.515   0.421   5.661
10658SOL     OW32872   6.472   4.956   5.317
10658SOL    HW132873   6.385   4.913   5.340
10658SOL    HW232874   6.521   4.979   5.401
10659SOL     OW32875   0.590   5.234   1.546
10659SOL    HW132876   0.497   5.255   1.516
10659SOL    HW232877   0.586   5.171   1.624
10660SOL     OW32878   5.182   3.459   6.020
10660SOL    HW132879   5.134   3.418   6.097
10660SOL    HW232880   5.127   3.449   5.937
10661SOL     OW32881   1.142   6.896   1.538
10661SOL    HW132882   1.162   6.934   1.628
10661SOL    HW232883   1.168   6.799   1.536
10662SOL     OW32884   5.507   6.737   2.300
10662SOL    HW132885   5.548   6.827   2.312
10662SOL    HW232886   5.489   6.696   2.389
10663SOL     OW32887   0.559   2.036   2.935
10663SOL    HW132888   0.496   2.108   2.966
10663SOL    HW232889   0.652   2.072   2.936
10664SOL     OW32890   6.557   4.429   4.809
10664SOL    HW132891   6.470   4.380   4.812
10664SOL    HW232892   6.588   4.438   4.715
10665SOL     OW32893   0.891   1.699   0.517
10665SOL    HW132894   0.816   1.657   0.466
10665SOL    HW232895   0.943   1.759   0.457
10666SOL     OW32896   3.663   3.823   1.767
10666SOL    HW132897   3.563   3.818   1.769
10666SOL    HW232898   3.699   3.799   1.856
10667SOL     OW32899   4.880   2.695   4.904
10667SOL    HW132900   4.786   2.699   4.936
10667SOL    HW232901   4.888   2.625   4.833
10668SOL     OW32902   2.554   0.490   5.046
10668SOL    HW132903   2.474   0.548   5.032
10668SOL    HW232904   2.543   0.404   4.996
10669SOL     OW32905   5.879   6.860   1.240
10669SOL    HW132906   5.919   6.770   1.254
10669SOL    HW232907   5.779   6.853   1.243
10670SOL     OW32908   5.134   4.445   5.294
10670SOL    HW132909   5.223   4.463   5.335
10670SOL    HW232910   5.110   4.520   5.232
10671SOL     OW32911   2.440   2.328   2.947
10671SOL    HW132912   2.477   2.283   3.029
10671SOL    HW232913   2.350   2.367   2.969
10672SOL     OW32914   6.478   3.406   1.094
10672SOL    HW132915   6.434   3.461   1.023
10672SOL    HW232916   6.481   3.458   1.179
10673SOL     OW32917   1.179   0.721   6.798
10673SOL    HW132918   1.127   0.636   6.805
10673SOL    HW232919   1.142   0.776   6.723
10674SOL     OW32920   3.521   4.117   2.252
10674SOL    HW132921   3.498   4.125   2.349
10674SOL    HW232922   3.610   4.159   2.235
10675SOL     OW32923   1.700   0.162   6.732
10675SOL    HW132924   1.770   0.125   6.672
10675SOL    HW232925   1.743   0.207   6.810
10676SOL     OW32926   6.713   6.139   6.025
10676SOL    HW132927   6.622   6.128   5.986
10676SOL    HW232928   6.725   6.233   6.056
10677SOL     OW32929   1.242   0.360   2.034
10677SOL    HW132930   1.230   0.263   2.010
10677SOL    HW232931   1.287   0.367   2.123
10678SOL     OW32932   4.320   5.104   4.202
10678SOL    HW132933   4.244   5.162   4.232
10678SOL    HW232934   4.355   5.052   4.281
10679SOL     OW32935   4.685   5.674   6.522
10679SOL    HW132936   4.748   5.682   6.599
10679SOL    HW232937   4.721   5.725   6.444
10680SOL     OW32938   3.878   1.548   3.589
10680SOL    HW132939   3.882   1.633   3.537
10680SOL    HW232940   3.881   1.568   3.687
10681SOL     OW32941   0.614   3.816   0.547
10681SOL    HW132942   0.680   3.747   0.575
10681SOL    HW232943   0.526   3.772   0.528
10682SOL     OW32944   1.026   1.097   5.148
10682SOL    HW132945   1.053   1.045   5.229
10682SOL    HW232946   0.927   1.097   5.140
10683SOL     OW32947   3.762   2.062   3.530
10683SOL    HW132948   3.855   2.093   3.552
10683SOL    HW232949   3.724   2.013   3.608
10684SOL     OW32950   5.468   4.586   2.243
10684SOL    HW132951   5.412   4.509   2.214
10684SOL    HW232952   5.411   4.668   2.249
10685SOL     OW32953   0.558   5.502   2.570
10685SOL    HW132954   0.587   5.560   2.494
10685SOL    HW232955   0.625   5.429   2.583
10686SOL     OW32956   0.879   4.720   6.307
10686SOL    HW132957   0.890   4.641   6.368
10686SOL    HW232958   0.809   4.781   6.345
10687SOL     OW32959   6.452   5.402   1.680
10687SOL    HW132960   6.426   5.339   1.753
10687SOL    HW232961   6.550   5.422   1.687
10688SOL     OW32962   6.638   3.853   2.680
10688SOL    HW132963   6.704   3.792   2.723
10688SOL    HW232964   6.546   3.829   2.709
10689SOL     OW32965   0.276   5.875   3.450
10689SOL    HW132966   0.373   5.888   3.432
10689SOL    HW232967   0.257   5.778   3.466
10690SOL     OW32968   6.876   6.112   3.646
10690SOL    HW132969   6.850   6.140   3.553
10690SOL    HW232970   6.975   6.120   3.657
10691SOL     OW32971   0.404   2.213   2.500
10691SOL    HW132972   0.502   2.205   2.519
10691SOL    HW232973   0.388   2.296   2.446
10692SOL     OW32974   3.235   6.323   2.956
10692SOL    HW132975   3.317   6.275   2.988
10692SOL    HW232976   3.158   6.300   3.015
10693SOL     OW32977   2.099   6.678   6.890
10693SOL    HW132978   2.186   6.725   6.877
10693SOL    HW232979   2.034   6.708   6.820
10694SOL     OW32980   5.280   6.344   1.967
10694SOL    HW132981   5.231   6.407   2.027
10694SOL    HW232982   5.352   6.298   2.018
10695SOL     OW32983   5.554   1.953   2.984
10695SOL    HW132984   5.471   2.004   3.006
10695SOL    HW232985   5.612   1.947   3.066
10696SOL     OW32986   0.148   3.548   3.749
10696SOL    HW132987   0.193   3.549   3.660
10696SOL    HW232988   0.052   3.573   3.738
10697SOL     OW32989   0.046   5.958   4.811
10697SOL    HW132990   0.079   5.983   4.720
10697SOL    HW232991   0.085   5.869   4.837
10698SOL     OW32992   4.521   5.427   5.679
10698SOL    HW132993   4.549   5.336   5.709
10698SOL    HW232994   4.498   5.483   5.759
10699SOL     OW32995   4.159   3.416   1.995
10699SOL    HW132996   4.256   3.438   1.980
10699SOL    HW232997   4.135   3.437   2.089
10700SOL     OW32998   6.927   6.639   1.623
10700SOL    HW132999   6.868   6.562   1.646
10700SOL    HW233000   7.019   6.606   1.603
10701SOL     OW33001   3.573   6.273   0.131
10701SOL    HW133002   3.525   6.213   0.195
10701SOL    HW233003   3.508   6.309   0.064
10702SOL     OW33004   6.032   2.796   1.793
10702SOL    HW133005   6.124   2.805   1.753
10702SOL    HW233006   6.016   2.871   1.857
10703SOL     OW33007   3.155   4.116   5.077
10703SOL    HW133008   3.061   4.094   5.050
10703SOL    HW233009   3.153   4.179   5.155
10704SOL     OW33010   6.298   5.091   1.632
10704SOL    HW133011   6.244   5.097   1.548
10704SOL    HW233012   6.331   4.998   1.645
10705SOL     OW33013   6.439   4.582   1.633
10705SOL    HW133014   6.456   4.531   1.548
10705SOL    HW233015   6.509   4.557   1.701
10706SOL     OW33016   5.256   0.044   2.246
10706SOL    HW133017   5.324   0.117   2.235
10706SOL    HW233018   5.196   0.043   2.167
10707SOL     OW33019   0.018   6.471   3.928
10707SOL    HW133020   0.015   6.551   3.988
10707SOL    HW233021   6.975   6.402   3.961
10708SOL     OW33022   4.138   0.778   2.444
10708SOL    HW133023   4.102   0.846   2.380
10708SOL    HW233024   4.106   0.687   2.418
10709SOL     OW33025   6.249   6.340   4.933
10709SOL    HW133026   6.187   6.269   4.967
10709SOL    HW233027   6.258   6.332   4.834
10710SOL     OW33028   0.430   6.589   4.920
10710SOL    HW133029   0.340   6.617   4.888
10710SOL    HW233030   0.431   6.491   4.936
10711SOL     OW33031   1.721   6.673   3.821
10711SOL    HW133032   1.796   6.736   3.802
10711SOL    HW233033   1.737   6.627   3.908
10712SOL     OW33034   2.590   1.498   1.437
10712SOL    HW133035   2.597   1.416   1.381
10712SOL    HW233036   2.554   1.474   1.528
10713SOL     OW33037   1.429   4.131   1.646
10713SOL    HW133038   1.476   4.044   1.658
10713SOL    HW233039   1.338   4.115   1.607
10714SOL     OW33040   5.925   3.849   4.536
10714SOL    HW133041   5.897   3.938   4.501
10714SOL    HW233042   5.930   3.784   4.460
10715SOL     OW33043   5.408   6.657   2.923
10715SOL    HW133044   5.401   6.714   3.005
10715SOL    HW233045   5.330   6.594   2.920
10716SOL     OW33046   5.633   1.922   4.379
10716SOL    HW133047   5.574   2.003   4.378
10716SOL    HW233048   5.728   1.949   4.363
10717SOL     OW33049   0.914   2.857   0.689
10717SOL    HW133050   0.900   2.945   0.643
10717SOL    HW233051   0.989   2.808   0.646
10718SOL     OW33052   1.716   2.553   6.546
10718SOL    HW133053   1.622   2.584   6.559
10718SOL    HW233054   1.716   2.456   6.522
10719SOL     OW33055   5.369   5.747   1.098
10719SOL    HW133056   5.441   5.678   1.088
10719SOL    HW233057   5.410   5.838   1.104
10720SOL     OW33058   6.649   3.555   4.910
10720SOL    HW133059   6.628   3.473   4.857
10720SOL    HW233060   6.746   3.578   4.898
10721SOL     OW33061   6.104   4.293   4.950
10721SOL    HW133062   6.186   4.281   5.006
10721SOL    HW233063   6.043   4.359   4.994
10722SOL     OW33064   0.120   3.778   0.742
10722SOL    HW133065   0.078   3.753   0.654
10722SOL    HW233066   0.217   3.755   0.739
10723SOL     OW33067   0.649   3.865   6.112
10723SOL    HW133068   0.642   3.916   6.197
10723SOL    HW233069   0.705   3.784   6.127
10724SOL     OW33070   4.405   0.865   6.940
10724SOL    HW133071   4.411   0.961   6.968
10724SOL    HW233072   4.482   0.814   6.978
10725SOL     OW33073   0.352   4.535   4.663
10725SOL    HW133074   0.273   4.572   4.614
10725SOL    HW233075   0.430   4.595   4.650
10726SOL     OW33076   5.118   6.919   5.851
10726SOL    HW133077   5.081   7.005   5.886
10726SOL    HW233078   5.213   6.932   5.822
10727SOL     OW33079   0.393   5.308   4.489
10727SOL    HW133080   0.427   5.402   4.482
10727SOL    HW233081   0.294   5.307   4.475
10728SOL     OW33082   6.438   6.365   0.851
10728SOL    HW133083   6.385   6.416   0.919
10728SOL    HW233084   6.496   6.298   0.898
10729SOL     OW33085   5.292   0.949   2.666
10729SOL    HW133086   5.379   0.969   2.622
10729SOL    HW233087   5.217   0.965   2.601
10730SOL     OW33088   2.234   0.191   1.999
10730SOL    HW133089   2.190   0.255   2.063
10730SOL    HW233090   2.257   0.239   1.915
10731SOL     OW33091   3.132   5.697   0.411
10731SOL    HW133092   3.123   5.742   0.323
10731SOL    HW233093   3.043   5.661   0.439
10732SOL     OW33094   4.901   5.124   2.276
10732SOL    HW133095   4.880   5.062   2.201
10732SOL    HW233096   4.818   5.145   2.327
10733SOL     OW33097   5.230   2.150   0.167
10733SOL    HW133098   5.234   2.235   0.114
10733SOL    HW233099   5.172   2.084   0.119
10734SOL     OW33100   1.205   0.242   0.369
10734SOL    HW133101   1.241   0.218   0.279
10734SOL    HW233102   1.281   0.258   0.433
10735SOL     OW33103   1.653   4.531   2.711
10735SOL    HW133104   1.612   4.571   2.629
10735SOL    HW233105   1.630   4.434   2.716
10736SOL     OW33106   6.867   0.553   3.287
10736SOL    HW133107   6.951   0.552   3.341
10736SOL    HW233108   6.888   0.522   3.194
10737SOL     OW33109   1.259   1.767   0.006
10737SOL    HW133110   1.305   1.693   6.979
10737SOL    HW233111   1.231   1.837   6.962
10738SOL     OW33112   2.624   0.548   3.458
10738SOL    HW133113   2.585   0.638   3.479
10738SOL    HW233114   2.550   0.481   3.450
10739SOL     OW33115   6.965   0.987   1.103
10739SOL    HW133116   6.901   1.043   1.155
10739SOL    HW233117   7.019   0.931   1.166
10740SOL     OW33118   0.505   4.656   5.690
10740SOL    HW133119   0.601   4.648   5.719
10740SOL    HW233120   0.463   4.565   5.691
10741SOL     OW33121   0.664   0.780   3.089
10741SOL    HW133122   0.754   0.738   3.102
10741SOL    HW233123   0.675   0.872   3.053
10742SOL     OW33124   5.614   0.177   1.641
10742SOL    HW133125   5.539   0.124   1.681
10742SOL    HW233126   5.632   0.144   1.548
10743SOL     OW33127   2.260   1.868   4.906
10743SOL    HW133128   2.354   1.900   4.895
10743SOL    HW233129   2.261   1.771   4.932
10744SOL     OW33130   2.658   1.553   2.235
10744SOL    HW133131   2.664   1.610   2.317
10744SOL    HW233132   2.719   1.590   2.164
10745SOL     OW33133   0.913   4.709   0.681
10745SOL    HW133134   0.878   4.615   0.684
10745SOL    HW233135   0.891   4.755   0.767
10746SOL     OW33136   1.816   4.080   1.318
10746SOL    HW133137   1.742   4.103   1.382
10746SOL    HW233138   1.876   4.011   1.359
10747SOL     OW33139   4.218   0.339   2.946
10747SOL    HW133140   4.233   0.381   2.857
10747SOL    HW233141   4.306   0.323   2.991
10748SOL     OW33142   3.571   0.734   1.496
10748SOL    HW133143   3.664   0.766   1.477
10748SOL    HW233144   3.505   0.801   1.461
10749SOL     OW33145   6.836   4.975   3.600
10749SOL    HW133146   6.790   4.999   3.685
10749SOL    HW233147   6.935   4.991   3.610
10750SOL     OW33148   3.786   6.325   4.286
10750SOL    HW133149   3.807   6.247   4.345
10750SOL    HW233150   3.690   6.350   4.298
10751SOL     OW33151   1.539   4.505   4.377
10751SOL    HW133152   1.457   4.517   4.322
10751SOL    HW233153   1.518   4.524   4.473
10752SOL     OW33154   6.376   3.878   6.138
10752SOL    HW133155   6.474   3.887   6.152
10752SOL    HW233156   6.344   3.793   6.178
10753SOL     OW33157   4.105   6.990   4.708
10753SOL    HW133158   4.050   6.949   4.780
10753SOL    HW233159   4.084   6.947   4.621
10754SOL     OW33160   1.125   1.619   3.502
10754SOL    HW133161   1.124   1.709   3.545
10754SOL    HW233162   1.202   1.613   3.439
10755SOL     OW33163   0.408   2.037   6.835
10755SOL    HW133164   0.417   2.134   6.860
10755SOL    HW233165   0.496   2.001   6.807
10756SOL     OW33166   6.517   4.456   0.119
10756SOL    HW133167   6.526   4.492   0.026
10756SOL    HW233168   6.473   4.524   0.177
10757SOL     OW33169   0.939   2.891   6.707
10757SOL    HW133170   0.847   2.856   6.726
10757SOL    HW233171   0.990   2.900   6.793
10758SOL     OW33172   0.981   6.726   5.419
10758SOL    HW133173   1.080   6.741   5.420
10758SOL    HW233174   0.958   6.663   5.345
10759SOL     OW33175   1.849   3.024   6.762
10759SOL    HW133176   1.842   3.074   6.849
10759SOL    HW233177   1.931   2.966   6.764
10760SOL     OW33178   6.418   1.146   0.112
10760SOL    HW133179   6.456   1.238   0.124
10760SOL    HW233180   6.323   1.152   0.084
10761SOL     OW33181   1.643   1.932   6.314
10761SOL    HW133182   1.702   1.853   6.300
10761SOL    HW233183   1.693   2.003   6.363
10762SOL     OW33184   3.760   1.694   5.107
10762SOL    HW133185   3.857   1.670   5.099
10762SOL    HW233186   3.743   1.735   5.197
10763SOL     OW33187   4.848   6.446   1.373
10763SOL    HW133188   4.889   6.523   1.324
10763SOL    HW233189   4.802   6.479   1.455
10764SOL     OW33190   5.789   1.871   5.797
10764SOL    HW133191   5.861   1.864   5.728
10764SOL    HW233192   5.703   1.897   5.752
10765SOL     OW33193   5.621   2.915   1.088
10765SOL    HW133194   5.562   2.926   1.168
10765SOL    HW233195   5.699   2.858   1.112
10766SOL     OW33196   3.596   2.728   1.378
10766SOL    HW133197   3.527   2.752   1.309
10766SOL    HW233198   3.619   2.631   1.369
10767SOL     OW33199   1.321   0.538   0.102
10767SOL    HW133200   1.392   0.513   0.168
10767SOL    HW233201   1.359   0.605   0.037
10768SOL     OW33202   4.344   5.197   0.602
10768SOL    HW133203   4.321   5.151   0.687
10768SOL    HW233204   4.281   5.274   0.587
10769SOL     OW33205   2.154   5.209   4.937
10769SOL    HW133206   2.243   5.176   4.970
10769SOL    HW233207   2.166   5.295   4.889
10770SOL     OW33208   5.587   0.202   4.962
10770SOL    HW133209   5.523   0.126   4.952
10770SOL    HW233210   5.619   0.207   5.056
10771SOL     OW33211   5.273   1.012   4.587
10771SOL    HW133212   5.216   0.953   4.644
10771SOL    HW233213   5.341   1.058   4.645
10772SOL     OW33214   0.166   6.304   4.504
10772SOL    HW133215   0.191   6.332   4.411
10772SOL    HW233216   0.103   6.227   4.499
10773SOL     OW33217   0.142   5.346   6.768
10773SOL    HW133218   0.161   5.248   6.766
10773SOL    HW233219   0.045   5.360   6.784
10774SOL     OW33220   1.760   1.825   6.763
10774SOL    HW133221   1.789   1.831   6.667
10774SOL    HW233222   1.778   1.912   6.808
10775SOL     OW33223   0.441   2.842   0.387
10775SOL    HW133224   0.460   2.762   0.445
10775SOL    HW233225   0.476   2.826   0.295
10776SOL     OW33226   1.362   6.528   6.788
10776SOL    HW133227   1.446   6.530   6.734
10776SOL    HW233228   1.309   6.610   6.771
10777SOL     OW33229   3.855   5.764   4.063
10777SOL    HW133230   3.822   5.716   3.982
10777SOL    HW233231   3.777   5.793   4.119
10778SOL     OW33232   5.589   6.548   5.267
10778SOL    HW133233   5.545   6.486   5.203
10778SOL    HW233234   5.522   6.584   5.332
10779SOL     OW33235   6.093   5.000   3.348
10779SOL    HW133236   6.172   5.060   3.335
10779SOL    HW233237   6.069   4.957   3.262
10780SOL     OW33238   1.782   0.191   4.057
10780SOL    HW133239   1.865   0.156   4.100
10780SOL    HW233240   1.702   0.166   4.113
10781SOL     OW33241   4.104   1.194   3.157
10781SOL    HW133242   4.118   1.267   3.224
10781SOL    HW233243   4.036   1.129   3.192
10782SOL     OW33244   0.094   1.866   3.593
10782SOL    HW133245   7.020   1.841   3.610
10782SOL    HW233246   0.121   1.938   3.657
10783SOL     OW33247   0.990   3.484   3.128
10783SOL    HW133248   1.029   3.415   3.189
10783SOL    HW233249   0.968   3.442   3.040
10784SOL     OW33250   3.100   0.599   3.779
10784SOL    HW133251   3.113   0.506   3.815
10784SOL    HW233252   3.134   0.665   3.846
10785SOL     OW33253   0.010   4.916   1.510
10785SOL    HW133254   6.945   4.875   1.538
10785SOL    HW233255   0.086   4.863   1.548
10786SOL     OW33256   4.990   5.013   1.930
10786SOL    HW133257   4.911   5.009   1.990
10786SOL    HW233258   5.016   4.920   1.902
10787SOL     OW33259   2.906   1.489   4.527
10787SOL    HW133260   2.980   1.492   4.460
10787SOL    HW233261   2.878   1.582   4.550
10788SOL     OW33262   2.250   4.671   6.631
10788SOL    HW133263   2.283   4.647   6.722
10788SOL    HW233264   2.313   4.633   6.562
10789SOL     OW33265   5.857   2.830   0.187
10789SOL    HW133266   5.819   2.801   0.275
10789SOL    HW233267   5.819   2.774   0.114
10790SOL     OW33268   0.721   0.567   2.237
10790SOL    HW133269   0.817   0.545   2.223
10790SOL    HW233270   0.709   0.667   2.234
10791SOL     OW33271   6.991   0.077   0.731
10791SOL    HW133272   6.950   0.118   0.650
10791SOL    HW233273   0.070   0.079   0.722
10792SOL     OW33274   3.830   3.990   2.556
10792SOL    HW133275   3.783   3.903   2.543
10792SOL    HW233276   3.853   4.029   2.467
10793SOL     OW33277   5.142   2.750   4.231
10793SOL    HW133278   5.043   2.737   4.229
10793SOL    HW233279   5.168   2.796   4.316
10794SOL     OW33280   3.016   3.714   3.813
10794SOL    HW133281   3.105   3.668   3.815
10794SOL    HW233282   3.011   3.773   3.733
10795SOL     OW33283   0.166   4.126   3.406
10795SOL    HW133284   0.140   4.060   3.476
10795SOL    HW233285   0.099   4.123   3.331
10796SOL     OW33286   5.816   6.822   0.635
10796SOL    HW133287   5.879   6.749   0.663
10796SOL    HW233288   5.774   6.798   0.548
10797SOL     OW33289   3.830   1.911   1.420
10797SOL    HW133290   3.763   1.973   1.461
10797SOL    HW233291   3.825   1.918   1.320
10798SOL     OW33292   2.484   6.214   1.010
10798SOL    HW133293   2.407   6.251   0.959
10798SOL    HW233294   2.563   6.275   1.002
10799SOL     OW33295   3.672   0.591   2.215
10799SOL    HW133296   3.743   0.581   2.145
10799SOL    HW233297   3.583   0.570   2.174
10800SOL     OW33298   0.068   0.279   0.339
10800SOL    HW133299   0.071   0.182   0.317
10800SOL    HW233300   0.154   0.306   0.382
10801SOL     OW33301   1.099   6.898   5.838
10801SOL    HW133302   1.137   6.983   5.873
10801SOL    HW233303   1.154   6.865   5.761
10802SOL     OW33304   1.152   2.672   3.175
10802SOL    HW133305   1.053   2.668   3.165
10802SOL    HW233306   1.195   2.686   3.086
10803SOL     OW33307   3.352   3.578   5.932
10803SOL    HW133308   3.451   3.569   5.923
10803SOL    HW233309   3.308   3.560   5.844
10804SOL     OW33310   5.919   3.668   1.615
10804SOL    HW133311   6.019   3.670   1.614
10804SOL    HW233312   5.887   3.625   1.699
10805SOL     OW33313   3.880   6.797   6.777
10805SOL    HW133314   3.967   6.762   6.740
10805SOL    HW233315   3.837   6.727   6.833
10806SOL     OW33316   4.744   3.795   5.843
10806SOL    HW133317   4.768   3.703   5.811
10806SOL    HW233318   4.681   3.789   5.920
10807SOL     OW33319   1.544   6.545   2.885
10807SOL    HW133320   1.643   6.562   2.892
10807SOL    HW233321   1.496   6.633   2.885
10808SOL     OW33322   6.473   3.295   6.380
10808SOL    HW133323   6.514   3.207   6.401
10808SOL    HW233324   6.504   3.364   6.445
10809SOL     OW33325   3.312   6.195   3.754
10809SOL    HW133326   3.303   6.098   3.732
10809SOL    HW233327   3.259   6.249   3.689
10810SOL     OW33328   2.229   0.557   4.669
10810SOL    HW133329   2.222   0.491   4.745
10810SOL    HW233330   2.193   0.515   4.586
10811SOL     OW33331   4.028   4.473   5.648
10811SOL    HW133332   3.938   4.484   5.690
10811SOL    HW233333   4.085   4.552   5.669
10812SOL     OW33334   0.790   3.568   1.532
10812SOL    HW133335   0.747   3.480   1.551
10812SOL    HW233336   0.889   3.560   1.544
10813SOL     OW33337   2.182   4.975   0.107
10813SOL    HW133338   2.116   5.036   0.151
10813SOL    HW233339   2.138   4.926   0.032
10814SOL     OW33340   1.346   6.618   6.442
10814SOL    HW133341   1.325   6.692   6.378
10814SOL    HW233342   1.313   6.642   6.533
10815SOL     OW33343   4.558   4.370   3.866
10815SOL    HW133344   4.612   4.286   3.856
10815SOL    HW233345   4.565   4.403   3.960
10816SOL     OW33346   1.946   2.263   1.332
10816SOL    HW133347   2.002   2.195   1.379
10816SOL    HW233348   1.859   2.274   1.380
10817SOL     OW33349   5.416   6.843   3.162
10817SOL    HW133350   5.402   6.754   3.205
10817SOL    HW233351   5.471   6.901   3.222
10818SOL     OW33352   4.375   4.474   5.470
10818SOL    HW133353   4.460   4.498   5.518
10818SOL    HW233354   4.337   4.391   5.511
10819SOL     OW33355   6.738   4.415   6.635
10819SOL    HW133356   6.649   4.372   6.650
10819SOL    HW233357   6.738   4.463   6.547
10820SOL     OW33358   5.934   5.893   4.100
10820SOL    HW133359   5.928   5.993   4.104
10820SOL    HW233360   5.889   5.861   4.016
10821SOL     OW33361   5.530   6.714   1.837
10821SOL    HW133362   5.545   6.761   1.749
10821SOL    HW233363   5.468   6.637   1.823
10822SOL     OW33364   0.785   2.833   2.929
10822SOL    HW133365   0.818   2.899   2.997
10822SOL    HW233366   0.717   2.876   2.871
10823SOL     OW33367   1.726   5.450   1.219
10823SOL    HW133368   1.785   5.465   1.299
10823SOL    HW233369   1.631   5.447   1.249
10824SOL     OW33370   6.351   1.157   3.193
10824SOL    HW133371   6.414   1.134   3.267
10824SOL    HW233372   6.389   1.124   3.106
10825SOL     OW33373   2.799   0.380   6.244
10825SOL    HW133374   2.844   0.361   6.156
10825SOL    HW233375   2.733   0.308   6.264
10826SOL     OW33376   0.780   3.155   3.519
10826SOL    HW133377   0.782   3.167   3.618
10826SOL    HW233378   0.727   3.229   3.477
10827SOL     OW33379   5.822   4.273   4.399
10827SOL    HW133380   5.871   4.313   4.477
10827SOL    HW233381   5.803   4.177   4.418
10828SOL     OW33382   0.761   5.253   1.971
10828SOL    HW133383   0.820   5.174   1.950
10828SOL    HW233384   0.811   5.337   1.950
10829SOL     OW33385   3.542   1.980   1.194
10829SOL    HW133386   3.522   1.887   1.225
10829SOL    HW233387   3.586   1.976   1.104
10830SOL     OW33388   5.173   1.745   3.660
10830SOL    HW133389   5.223   1.736   3.746
10830SOL    HW233390   5.223   1.805   3.598
10831SOL     OW33391   3.817   5.899   1.915
10831SOL    HW133392   3.891   5.918   1.980
10831SOL    HW233393   3.853   5.850   1.836
10832SOL     OW33394   1.231   2.507   0.117
10832SOL    HW133395   1.265   2.473   0.205
10832SOL    HW233396   1.147   2.559   0.132
10833SOL     OW33397   1.498   1.212   1.929
10833SOL    HW133398   1.510   1.310   1.913
10833SOL    HW233399   1.576   1.163   1.892
10834SOL     OW33400   0.909   2.264   6.366
10834SOL    HW133401   0.859   2.344   6.400
10834SOL    HW233402   0.939   2.209   6.443
10835SOL     OW33403   6.529   2.083   0.122
10835SOL    HW133404   6.575   2.045   0.042
10835SOL    HW233405   6.522   2.012   0.193
10836SOL     OW33406   0.168   2.177   4.428
10836SOL    HW133407   0.239   2.228   4.476
10836SOL    HW233408   0.084   2.232   4.424
10837SOL     OW33409   0.046   4.841   0.046
10837SOL    HW133410   0.142   4.857   0.023
10837SOL    HW233411   7.009   4.887   7.000
10838SOL     OW33412   5.678   6.340   4.938
10838SOL    HW133413   5.622   6.310   5.015
10838SOL    HW233414   5.639   6.423   4.899
10839SOL     OW33415   3.816   2.798   1.123
10839SOL    HW133416   3.810   2.702   1.150
10839SOL    HW233417   3.724   2.833   1.102
10840SOL     OW33418   3.828   5.426   1.925
10840SOL    HW133419   3.776   5.440   2.009
10840SOL    HW233420   3.794   5.488   1.854
10841SOL     OW33421   5.017   5.445   0.189
10841SOL    HW133422   4.937   5.487   0.146
10841SOL    HW233423   5.015   5.464   0.288
10842SOL     OW33424   5.184   2.494   1.364
10842SOL    HW133425   5.238   2.427   1.415
10842SOL    HW233426   5.097   2.510   1.412
10843SOL     OW33427   1.137   2.446   0.940
10843SOL    HW133428   1.041   2.443   0.913
10843SOL    HW233429   1.178   2.532   0.908
10844SOL     OW33430   0.368   6.690   3.697
10844SOL    HW133431   0.467   6.675   3.692
10844SOL    HW233432   0.320   6.605   3.678
10845SOL     OW33433   3.189   0.215   5.532
10845SOL    HW133434   3.159   0.302   5.491
10845SOL    HW233435   3.280   0.192   5.497
10846SOL     OW33436   4.788   2.501   1.145
10846SOL    HW133437   4.887   2.514   1.134
10846SOL    HW233438   4.772   2.427   1.211
10847SOL     OW33439   3.851   3.662   6.399
10847SOL    HW133440   3.846   3.590   6.330
10847SOL    HW233441   3.947   3.677   6.425
10848SOL     OW33442   3.057   2.769   6.793
10848SOL    HW133443   3.012   2.816   6.717
10848SOL    HW233444   3.128   2.709   6.758
10849SOL     OW33445   2.741   5.687   3.241
10849SOL    HW133446   2.748   5.782   3.271
10849SOL    HW233447   2.653   5.672   3.196
10850SOL     OW33448   3.748   5.423   6.960
10850SOL    HW133449   3.697   5.346   6.922
10850SOL    HW233450   3.846   5.401   6.962
10851SOL     OW33451   2.587   2.787   6.263
10851SOL    HW133452   2.662   2.853   6.255
10851SOL    HW233453   2.549   2.792   6.356
10852SOL     OW33454   1.009   0.061   6.768
10852SOL    HW133455   0.979   0.141   6.715
10852SOL    HW233456   0.940   0.041   6.838
10853SOL     OW33457   3.258   2.151   5.620
10853SOL    HW133458   3.215   2.117   5.703
10853SOL    HW233459   3.354   2.171   5.638
10854SOL     OW33460   4.819   6.629   5.001
10854SOL    HW133461   4.827   6.723   4.968
10854SOL    HW233462   4.854   6.623   5.095
10855SOL     OW33463   2.719   6.418   1.425
10855SOL    HW133464   2.665   6.372   1.355
10855SOL    HW233465   2.767   6.496   1.385
10856SOL     OW33466   5.869   1.855   1.745
10856SOL    HW133467   5.839   1.946   1.716
10856SOL    HW233468   5.819   1.785   1.693
10857SOL     OW33469   5.777   2.498   3.103
10857SOL    HW133470   5.747   2.406   3.126
10857SOL    HW233471   5.856   2.523   3.158
10858SOL     OW33472   0.740   2.074   6.140
10858SOL    HW133473   0.793   2.150   6.102
10858SOL    HW233474   0.706   2.099   6.231
10859SOL     OW33475   2.124   2.933   4.212
10859SOL    HW133476   2.136   3.032   4.213
10859SOL    HW233477   2.027   2.912   4.203
10860SOL     OW33478   6.832   1.524   5.985
10860SOL    HW133479   6.868   1.611   5.952
10860SOL    HW233480   6.770   1.541   6.062
10861SOL     OW33481   3.799   3.327   3.012
10861SOL    HW133482   3.896   3.311   2.997
10861SOL    HW233483   3.763   3.386   2.940
10862SOL     OW33484   2.813   1.751   6.301
10862SOL    HW133485   2.911   1.737   6.284
10862SOL    HW233486   2.793   1.849   6.304
10863SOL     OW33487   3.951   0.293   3.069
10863SOL    HW133488   3.907   0.378   3.098
10863SOL    HW233489   4.043   0.314   3.036
10864SOL     OW33490   3.581   5.506   0.669
10864SOL    HW133491   3.640   5.555   0.733
10864SOL    HW233492   3.583   5.408   0.689
10865SOL     OW33493   6.105   1.471   2.868
10865SOL    HW133494   6.091   1.558   2.821
10865SOL    HW233495   6.063   1.397   2.815
10866SOL     OW33496   4.777   4.504   0.404
10866SOL    HW133497   4.694   4.557   0.385
10866SOL    HW233498   4.753   4.422   0.456
10867SOL     OW33499   3.181   4.072   0.054
10867SOL    HW133500   3.196   4.044   0.149
10867SOL    HW233501   3.259   4.044   7.019
10868SOL     OW33502   2.438   2.357   3.463
10868SOL    HW133503   2.433   2.264   3.427
10868SOL    HW233504   2.373   2.368   3.538
10869NA      NA33505   0.622   2.391   5.938
10870NA      NA33506   4.297   4.587   5.286
10871NA      NA33507   2.028   4.294   2.456
10872NA      NA33508   4.996   4.299   3.755
10873NA      NA33509   4.149   2.302   5.263
10874NA      NA33510   3.180   4.723   1.561
10875NA      NA33511   0.050   4.426   0.276
10876NA      NA33512   3.284   3.490   3.023
10877NA      NA33513   4.868   5.086   1.115
10878NA      NA33514   3.685   6.917   5.431
10879NA      NA33515   6.089   5.446   1.068
10880NA      NA33516   2.141   0.769   4.744
10881NA      NA33517   4.002   4.958   1.895
10882NA      NA33518   4.076   3.278   1.811
   7.02123   7.02123   7.02123
