Generated by trjconv : CNT in water t= 101.00000
33518
    1C        C    1   2.841   2.773   4.748
    1C        C    2   2.900   2.722   4.866
    1C        C    3   2.842   2.772   4.983
    1C        C    4   2.855   2.777   4.262
    1C        C    5   2.904   2.727   4.385
    1C        C    6   2.848   2.772   4.507
    1C        C    7   3.010   2.638   4.626
    1C        C    8   2.897   2.722   4.629
    1C        C    9   3.076   2.606   4.746
    1C        C   10   3.008   2.631   4.867
    1C        C   11   3.180   2.496   4.976
    1C        C   12   3.060   2.569   4.981
    1C        C   13   2.853   2.772   3.771
    1C        C   14   2.898   2.723   3.896
    1C        C   15   2.847   2.771   4.019
    1C        C   16   3.015   2.642   4.138
    1C        C   17   2.898   2.721   4.140
    1C        C   18   3.080   2.608   4.260
    1C        C   19   3.023   2.650   4.382
    1C        C   20   3.208   2.556   4.504
    1C        C   21   3.076   2.606   4.505
    1C        C   22   3.277   2.535   4.626
    1C        C   23   3.203   2.542   4.746
    1C        C   24   3.413   2.487   4.868
    1C        C   25   3.271   2.508   4.866
    1C        C   26   3.488   2.476   4.986
    1C        C   27   2.851   2.770   3.283
    1C        C   28   2.907   2.727   3.405
    1C        C   29   2.855   2.775   3.528
    1C        C   30   3.020   2.641   3.650
    1C        C   31   2.905   2.723   3.649
    1C        C   32   3.075   2.604   3.775
    1C        C   33   3.013   2.640   3.897
    1C        C   34   3.209   2.552   4.016
    1C        C   35   3.079   2.607   4.017
    1C        C   36   3.275   2.529   4.139
    1C        C   37   3.211   2.555   4.262
    1C        C   38   3.419   2.512   4.385
    1C        C   39   3.279   2.535   4.384
    1C        C   40   3.488   2.497   4.507
    1C        C   41   3.417   2.512   4.627
    1C        C   42   3.629   2.484   4.747
    1C        C   43   3.487   2.486   4.747
    1C        C   44   3.704   2.491   4.866
    1C        C   45   3.627   2.486   4.983
    1C        C   46   2.844   2.757   2.793
    1C        C   47   2.895   2.715   2.918
    1C        C   48   2.842   2.759   3.041
    1C        C   49   3.016   2.634   3.160
    1C        C   50   2.899   2.714   3.162
    1C        C   51   3.077   2.598   3.282
    1C        C   52   3.018   2.640   3.403
    1C        C   53   3.207   2.547   3.529
    1C        C   54   3.078   2.604   3.526
    1C        C   55   3.275   2.532   3.652
    1C        C   56   3.206   2.551   3.774
    1C        C   57   3.416   2.506   3.895
    1C        C   58   3.277   2.531   3.894
    1C        C   59   3.486   2.505   4.018
    1C        C   60   3.415   2.509   4.140
    1C        C   61   3.628   2.500   4.262
    1C        C   62   3.487   2.499   4.262
    1C        C   63   3.700   2.508   4.383
    1C        C   64   3.630   2.502   4.505
    1C        C   65   3.837   2.542   4.624
    1C        C   66   3.701   2.505   4.627
    1C        C   67   3.903   2.571   4.746
    1C        C   68   3.838   2.535   4.866
    1C        C   69   4.047   2.593   4.983
    1C        C   70   3.922   2.530   4.979
    1C        C   71   2.829   2.740   2.305
    1C        C   72   2.881   2.691   2.427
    1C        C   73   2.832   2.748   2.547
    1C        C   74   3.009   2.632   2.673
    1C        C   75   2.893   2.712   2.669
    1C        C   76   3.072   2.597   2.795
    1C        C   77   3.011   2.633   2.917
    1C        C   78   3.204   2.538   3.037
    1C        C   79   3.076   2.597   3.037
    1C        C   80   3.271   2.517   3.159
    1C        C   81   3.206   2.541   3.283
    1C        C   82   3.411   2.496   3.404
    1C        C   83   3.273   2.524   3.406
    1C        C   84   3.480   2.486   3.528
    1C        C   85   3.412   2.499   3.651
    1C        C   86   3.626   2.500   3.771
    1C        C   87   3.485   2.496   3.772
    1C        C   88   3.696   2.513   3.893
    1C        C   89   3.627   2.509   4.017
    1C        C   90   3.832   2.552   4.139
    1C        C   91   3.696   2.512   4.140
    1C        C   92   3.901   2.577   4.259
    1C        C   93   3.837   2.542   4.381
    1C        C   94   4.026   2.635   4.502
    1C        C   95   3.907   2.560   4.503
    1C        C   96   4.090   2.674   4.622
    1C        C   97   4.031   2.632   4.743
    1C        C   98   4.190   2.767   4.862
    1C        C   99   4.098   2.658   4.866
    1C        C  100   4.222   2.844   4.975
    1C        C  101   2.832   2.733   2.066
    1C        C  102   2.994   2.594   2.189
    1C        C  103   2.881   2.682   2.186
    1C        C  104   3.065   2.577   2.311
    1C        C  105   3.000   2.615   2.430
    1C        C  106   3.199   2.537   2.551
    1C        C  107   3.067   2.589   2.552
    1C        C  108   3.268   2.520   2.673
    1C        C  109   3.203   2.544   2.796
    1C        C  110   3.413   2.493   2.914
    1C        C  111   3.275   2.523   2.915
    1C        C  112   3.482   2.492   3.037
    1C        C  113   3.411   2.500   3.159
    1C        C  114   3.623   2.501   3.283
    1C        C  115   3.482   2.494   3.282
    1C        C  116   3.691   2.509   3.407
    1C        C  117   3.621   2.498   3.529
    1C        C  118   3.832   2.546   3.647
    1C        C  119   3.695   2.510   3.648
    1C        C  120   3.896   2.570   3.770
    1C        C  121   3.833   2.547   3.895
    1C        C  122   4.025   2.638   4.012
    1C        C  123   3.900   2.572   4.017
    1C        C  124   4.085   2.677   4.134
    1C        C  125   4.026   2.642   4.258
    1C        C  126   4.193   2.771   4.379
    1C        C  127   4.083   2.681   4.381
    1C        C  128   4.248   2.818   4.500
    1C        C  129   4.198   2.765   4.621
    1C        C  130   4.329   2.934   4.737
    1C        C  131   4.249   2.817   4.742
    1C        C  132   4.359   3.003   4.856
    1C        C  133   4.294   2.962   4.974
    1C        C  134   3.174   2.468   2.081
    1C        C  135   3.040   2.510   2.083
    1C        C  136   3.260   2.476   2.191
    1C        C  137   3.195   2.517   2.310
    1C        C  138   3.405   2.480   2.429
    1C        C  139   3.266   2.504   2.431
    1C        C  140   3.479   2.481   2.549
    1C        C  141   3.408   2.496   2.670
    1C        C  142   3.622   2.496   2.792
    1C        C  143   3.481   2.490   2.791
    1C        C  144   3.692   2.510   2.914
    1C        C  145   3.623   2.500   3.037
    1C        C  146   3.830   2.540   3.158
    1C        C  147   3.692   2.506   3.160
    1C        C  148   3.895   2.567   3.280
    1C        C  149   3.828   2.544   3.402
    1C        C  150   4.020   2.637   3.525
    1C        C  151   3.896   2.570   3.524
    1C        C  152   4.079   2.674   3.648
    1C        C  153   4.020   2.638   3.771
    1C        C  154   4.197   2.764   3.888
    1C        C  155   4.085   2.678   3.891
    1C        C  156   4.247   2.815   4.010
    1C        C  157   4.191   2.770   4.132
    1C        C  158   4.335   2.924   4.253
    1C        C  159   4.243   2.817   4.255
    1C        C  160   4.376   2.986   4.373
    1C        C  161   4.338   2.927   4.495
    1C        C  162   4.442   3.115   4.614
    1C        C  163   4.373   2.991   4.616
    1C        C  164   4.469   3.185   4.734
    1C        C  165   4.433   3.123   4.856
    1C        C  166   4.526   3.318   4.971
    1C        C  167   4.482   3.186   4.971
    1C        C  168   3.478   2.445   2.073
    1C        C  169   3.400   2.461   2.189
    1C        C  170   3.617   2.470   2.306
    1C        C  171   3.475   2.463   2.308
    1C        C  172   3.690   2.488   2.425
    1C        C  173   3.620   2.491   2.548
    1C        C  174   3.828   2.542   2.666
    1C        C  175   3.691   2.508   2.669
    1C        C  176   3.897   2.557   2.789
    1C        C  177   3.829   2.543   2.911
    1C        C  178   4.022   2.625   3.033
    1C        C  179   3.895   2.562   3.035
    1C        C  180   4.082   2.665   3.154
    1C        C  181   4.021   2.631   3.277
    1C        C  182   4.195   2.750   3.398
    1C        C  183   4.080   2.667   3.400
    1C        C  184   4.245   2.803   3.519
    1C        C  185   4.191   2.759   3.642
    1C        C  186   4.341   2.912   3.763
    1C        C  187   4.247   2.806   3.763
    1C        C  188   4.381   2.974   3.884
    1C        C  189   4.342   2.920   4.008
    1C        C  190   4.446   3.104   4.129
    1C        C  191   4.380   2.979   4.130
    1C        C  192   4.476   3.172   4.250
    1C        C  193   4.444   3.110   4.373
    1C        C  194   4.508   3.316   4.491
    1C        C  195   4.469   3.181   4.493
    1C        C  196   4.524   3.390   4.611
    1C        C  197   4.512   3.320   4.733
    1C        C  198   4.554   3.535   4.849
    1C        C  199   4.531   3.393   4.853
    1C        C  200   4.583   3.620   4.960
    1C        C  201   3.615   2.417   2.072
    1C        C  202   3.828   2.505   2.184
    1C        C  203   3.692   2.459   2.185
    1C        C  204   3.898   2.539   2.303
    1C        C  205   3.827   2.522   2.424
    1C        C  206   4.021   2.622   2.545
    1C        C  207   3.893   2.561   2.542
    1C        C  208   4.085   2.655   2.666
    1C        C  209   4.024   2.620   2.789
    1C        C  210   4.195   2.746   2.908
    1C        C  211   4.084   2.659   2.911
    1C        C  212   4.247   2.796   3.030
    1C        C  213   4.194   2.751   3.153
    1C        C  214   4.335   2.909   3.272
    1C        C  215   4.243   2.801   3.275
    1C        C  216   4.371   2.970   3.395
    1C        C  217   4.333   2.913   3.519
    1C        C  218   4.433   3.101   3.640
    1C        C  219   4.376   2.972   3.640
    1C        C  220   4.462   3.168   3.761
    1C        C  221   4.441   3.102   3.884
    1C        C  222   4.504   3.305   4.002
    1C        C  223   4.468   3.169   4.006
    1C        C  224   4.513   3.379   4.122
    1C        C  225   4.504   3.310   4.245
    1C        C  226   4.519   3.523   4.365
    1C        C  227   4.516   3.382   4.366
    1C        C  228   4.521   3.598   4.484
    1C        C  229   4.535   3.531   4.608
    1C        C  230   4.507   3.744   4.723
    1C        C  231   4.545   3.607   4.727
    1C        C  232   4.499   3.819   4.842
    1C        C  233   4.546   3.755   4.957
    1C        C  234   4.020   2.606   2.062
    1C        C  235   3.897   2.542   2.068
    1C        C  236   4.083   2.646   2.180
    1C        C  237   4.023   2.608   2.302
    1C        C  238   4.204   2.727   2.422
    1C        C  239   4.085   2.649   2.422
    1C        C  240   4.257   2.778   2.542
    1C        C  241   4.201   2.735   2.665
    1C        C  242   4.335   2.904   2.783
    1C        C  243   4.249   2.792   2.785
    1C        C  244   4.377   2.958   2.907
    1C        C  245   4.339   2.903   3.031
    1C        C  246   4.445   3.091   3.149
    1C        C  247   4.381   2.965   3.151
    1C        C  248   4.464   3.159   3.272
    1C        C  249   4.428   3.099   3.394
    1C        C  250   4.494   3.301   3.514
    1C        C  251   4.455   3.165   3.516
    1C        C  252   4.506   3.373   3.634
    1C        C  253   4.495   3.305   3.758
    1C        C  254   4.521   3.515   3.874
    1C        C  255   4.513   3.374   3.879
    1C        C  256   4.517   3.587   3.995
    1C        C  257   4.521   3.520   4.120
    1C        C  258   4.490   3.731   4.242
    1C        C  259   4.516   3.592   4.242
    1C        C  260   4.472   3.805   4.360
    1C        C  261   4.491   3.736   4.482
    1C        C  262   4.423   3.940   4.604
    1C        C  263   4.477   3.809   4.601
    1C        C  264   4.394   4.007   4.725
    1C        C  265   4.432   3.943   4.845
    1C        C  266   4.315   4.129   4.959
    1C        C  267   4.389   4.011   4.960
    1C        C  268   4.262   2.774   2.065
    1C        C  269   4.197   2.729   2.181
    1C        C  270   4.350   2.882   2.302
    1C        C  271   4.260   2.772   2.300
    1C        C  272   4.388   2.948   2.421
    1C        C  273   4.344   2.889   2.541
    1C        C  274   4.448   3.080   2.664
    1C        C  275   4.381   2.956   2.660
    1C        C  276   4.479   3.147   2.784
    1C        C  277   4.444   3.083   2.905
    1C        C  278   4.514   3.287   3.024
    1C        C  279   4.472   3.152   3.025
    1C        C  280   4.517   3.362   3.144
    1C        C  281   4.499   3.296   3.267
    1C        C  282   4.515   3.507   3.389
    1C        C  283   4.510   3.366   3.389
    1C        C  284   4.514   3.583   3.508
    1C        C  285   4.517   3.514   3.631
    1C        C  286   4.494   3.727   3.754
    1C        C  287   4.516   3.587   3.752
    1C        C  288   4.473   3.794   3.876
    1C        C  289   4.492   3.726   3.998
    1C        C  290   4.430   3.931   4.116
    1C        C  291   4.479   3.799   4.118
    1C        C  292   4.401   4.003   4.235
    1C        C  293   4.428   3.940   4.358
    1C        C  294   4.325   4.125   4.479
    1C        C  295   4.395   4.003   4.480
    1C        C  296   4.283   4.186   4.599
    1C        C  297   4.324   4.131   4.723
    1C        C  298   4.197   4.313   4.835
    1C        C  299   4.279   4.196   4.841
    1C        C  300   4.167   4.399   4.945
    1C        C  301   4.341   2.888   2.066
    1C        C  302   4.469   3.065   2.177
    1C        C  303   4.398   2.941   2.182
    1C        C  304   4.476   3.141   2.297
    1C        C  305   4.444   3.078   2.420
    1C        C  306   4.513   3.279   2.539
    1C        C  307   4.477   3.143   2.540
    1C        C  308   4.522   3.352   2.659
    1C        C  309   4.516   3.283   2.782
    1C        C  310   4.527   3.499   2.900
    1C        C  311   4.526   3.357   2.902
    1C        C  312   4.523   3.572   3.021
    1C        C  313   4.522   3.503   3.144
    1C        C  314   4.484   3.714   3.264
    1C        C  315   4.515   3.576   3.265
    1C        C  316   4.466   3.784   3.385
    1C        C  317   4.487   3.722   3.510
    1C        C  318   4.424   3.926   3.628
    1C        C  319   4.473   3.793   3.631
    1C        C  320   4.393   3.988   3.751
    1C        C  321   4.420   3.925   3.874
    1C        C  322   4.313   4.110   3.991
    1C        C  323   4.390   3.992   3.995
    1C        C  324   4.270   4.168   4.112
    1C        C  325   4.321   4.119   4.235
    1C        C  326   4.182   4.280   4.354
    1C        C  327   4.281   4.179   4.356
    1C        C  328   4.130   4.333   4.475
    1C        C  329   4.191   4.293   4.596
    1C        C  330   4.026   4.440   4.712
    1C        C  331   4.140   4.355   4.712
    1C        C  332   3.970   4.490   4.832
    1C        C  333   4.053   4.480   4.945
    1C        C  334   4.554   3.265   2.061
    1C        C  335   4.536   3.126   2.066
    1C        C  336   4.537   3.347   2.174
    1C        C  337   4.511   3.279   2.294
    1C        C  338   4.517   3.490   2.414
    1C        C  339   4.519   3.349   2.416
    1C        C  340   4.513   3.564   2.534
    1C        C  341   4.521   3.494   2.656
    1C        C  342   4.487   3.705   2.773
    1C        C  343   4.518   3.568   2.777
    1C        C  344   4.473   3.775   2.895
    1C        C  345   4.489   3.709   3.018
    1C        C  346   4.418   3.911   3.137
    1C        C  347   4.467   3.779   3.139
    1C        C  348   4.385   3.976   3.258
    1C        C  349   4.423   3.919   3.382
    1C        C  350   4.321   4.105   3.502
    1C        C  351   4.399   3.988   3.503
    1C        C  352   4.272   4.161   3.622
    1C        C  353   4.313   4.104   3.745
    1C        C  354   4.171   4.263   3.866
    1C        C  355   4.269   4.161   3.867
    1C        C  356   4.117   4.312   3.987
    1C        C  357   4.173   4.271   4.110
    1C        C  358   4.013   4.409   4.233
    1C        C  359   4.124   4.322   4.232
    1C        C  360   3.952   4.450   4.354
    1C        C  361   4.014   4.414   4.475
    1C        C  362   3.825   4.520   4.592
    1C        C  363   3.954   4.461   4.593
    1C        C  364   3.763   4.552   4.714
    1C        C  365   3.839   4.542   4.833
    1C        C  366   3.630   4.589   4.953
    1C        C  367   3.768   4.572   4.950
    1C        C  368   4.516   3.562   2.055
    1C        C  369   4.524   3.488   2.174
    1C        C  370   4.510   3.704   2.288
    1C        C  371   4.519   3.564   2.293
    1C        C  372   4.482   3.774   2.408
    1C        C  373   4.493   3.704   2.530
    1C        C  374   4.418   3.906   2.650
    1C        C  375   4.465   3.773   2.650
    1C        C  376   4.388   3.970   2.772
    1C        C  377   4.420   3.906   2.894
    1C        C  378   4.313   4.093   3.012
    1C        C  379   4.390   3.974   3.014
    1C        C  380   4.267   4.150   3.133
    1C        C  381   4.306   4.093   3.256
    1C        C  382   4.172   4.253   3.378
    1C        C  383   4.274   4.156   3.378
    1C        C  384   4.119   4.304   3.498
    1C        C  385   4.174   4.262   3.622
    1C        C  386   4.005   4.393   3.742
    1C        C  387   4.118   4.309   3.743
    1C        C  388   3.944   4.428   3.865
    1C        C  389   4.003   4.394   3.989
    1C        C  390   3.817   4.492   4.107
    1C        C  391   3.947   4.437   4.111
    1C        C  392   3.751   4.521   4.228
    1C        C  393   3.823   4.508   4.348
    1C        C  394   3.617   4.560   4.475
    1C        C  395   3.756   4.537   4.470
    1C        C  396   3.547   4.567   4.598
    1C        C  397   3.623   4.567   4.717
    1C        C  398   3.412   4.549   4.839
    1C        C  399   3.551   4.574   4.838
    1C        C  400   3.341   4.520   4.956
    1C        C  401   4.497   3.700   2.054
    1C        C  402   4.451   3.914   2.170
    1C        C  403   4.490   3.778   2.169
    1C        C  404   4.408   3.977   2.289
    1C        C  405   4.427   3.904   2.408
    1C        C  406   4.320   4.092   2.525
    1C        C  407   4.395   3.972   2.527
    1C        C  408   4.270   4.142   2.647
    1C        C  409   4.312   4.089   2.770
    1C        C  410   4.168   4.248   2.887
    1C        C  411   4.268   4.149   2.890
    1C        C  412   4.116   4.295   3.009
    1C        C  413   4.169   4.252   3.133
    1C        C  414   3.997   4.373   3.253
    1C        C  415   4.116   4.298   3.256
    1C        C  416   3.939   4.412   3.376
    1C        C  417   4.003   4.385   3.499
    1C        C  418   3.813   4.484   3.619
    1C        C  419   3.943   4.428   3.620
    1C        C  420   3.747   4.510   3.741
    1C        C  421   3.814   4.483   3.863
    1C        C  422   3.608   4.535   3.986
    1C        C  423   3.747   4.507   3.985
    1C        C  424   3.540   4.549   4.109
    1C        C  425   3.613   4.552   4.231
    1C        C  426   3.404   4.553   4.356
    1C        C  427   3.545   4.561   4.354
    1C        C  428   3.333   4.547   4.478
    1C        C  429   3.406   4.559   4.598
    1C        C  430   3.196   4.519   4.723
    1C        C  431   3.336   4.541   4.720
    1C        C  432   3.124   4.500   4.844
    1C        C  433   3.204   4.497   4.959
    1C        C  434   4.379   4.118   2.047
    1C        C  435   4.449   3.997   2.057
    1C        C  436   4.301   4.159   2.160
    1C        C  437   4.330   4.095   2.284
    1C        C  438   4.175   4.248   2.403
    1C        C  439   4.276   4.148   2.403
    1C        C  440   4.126   4.302   2.523
    1C        C  441   4.177   4.248   2.644
    1C        C  442   4.004   4.379   2.765
    1C        C  443   4.120   4.297   2.763
    1C        C  444   3.944   4.417   2.887
    1C        C  445   4.002   4.378   3.009
    1C        C  446   3.813   4.476   3.129
    1C        C  447   3.941   4.417   3.131
    1C        C  448   3.746   4.499   3.252
    1C        C  449   3.812   4.473   3.374
    1C        C  450   3.609   4.532   3.496
    1C        C  451   3.746   4.499   3.496
    1C        C  452   3.541   4.547   3.618
    1C        C  453   3.610   4.546   3.741
    1C        C  454   3.399   4.554   3.867
    1C        C  455   3.541   4.554   3.864
    1C        C  456   3.330   4.542   3.989
    1C        C  457   3.399   4.544   4.112
    1C        C  458   3.194   4.506   4.237
    1C        C  459   3.331   4.539   4.236
    1C        C  460   3.129   4.490   4.362
    1C        C  461   3.195   4.516   4.484
    1C        C  462   2.995   4.435   4.605
    1C        C  463   3.122   4.497   4.604
    1C        C  464   2.931   4.399   4.725
    1C        C  465   2.994   4.441   4.846
    1C        C  466   2.800   4.338   4.959
    1C        C  467   2.906   4.430   4.958
    1C        C  468   4.127   4.290   2.041
    1C        C  469   4.188   4.246   2.160
    1C        C  470   4.007   4.373   2.278
    1C        C  471   4.123   4.290   2.279
    1C        C  472   3.945   4.407   2.400
    1C        C  473   4.009   4.382   2.524
    1C        C  474   3.812   4.471   2.643
    1C        C  475   3.943   4.418   2.644
    1C        C  476   3.745   4.496   2.765
    1C        C  477   3.815   4.476   2.886
    1C        C  478   3.606   4.521   3.008
    1C        C  479   3.745   4.498   3.007
    1C        C  480   3.536   4.537   3.130
    1C        C  481   3.609   4.532   3.251
    1C        C  482   3.397   4.541   3.377
    1C        C  483   3.539   4.540   3.373
    1C        C  484   3.329   4.533   3.500
    1C        C  485   3.399   4.545   3.622
    1C        C  486   3.193   4.506   3.746
    1C        C  487   3.330   4.541   3.744
    1C        C  488   3.129   4.476   3.868
    1C        C  489   3.195   4.502   3.990
    1C        C  490   3.004   4.416   4.115
    1C        C  491   3.131   4.479   4.114
    1C        C  492   2.944   4.386   4.240
    1C        C  493   3.001   4.430   4.361
    1C        C  494   2.836   4.297   4.480
    1C        C  495   2.938   4.395   4.482
    1C        C  496   2.780   4.251   4.602
    1C        C  497   2.818   4.312   4.723
    1C        C  498   2.659   4.170   4.844
    1C        C  499   2.753   4.275   4.843
    1C        C  500   2.588   4.120   4.954
    1C        C  501   4.012   4.367   2.040
    1C        C  502   3.816   4.463   2.155
    1C        C  503   3.947   4.410   2.156
    1C        C  504   3.747   4.483   2.276
    1C        C  505   3.814   4.460   2.397
    1C        C  506   3.608   4.513   2.518
    1C        C  507   3.746   4.483   2.519
    1C        C  508   3.537   4.522   2.640
    1C        C  509   3.607   4.526   2.763
    1C        C  510   3.396   4.531   2.884
    1C        C  511   3.537   4.532   2.885
    1C        C  512   3.326   4.520   3.006
    1C        C  513   3.395   4.532   3.129
    1C        C  514   3.192   4.494   3.255
    1C        C  515   3.329   4.529   3.254
    1C        C  516   3.128   4.467   3.378
    1C        C  517   3.194   4.492   3.500
    1C        C  518   3.002   4.411   3.624
    1C        C  519   3.127   4.477   3.624
    1C        C  520   2.942   4.374   3.746
    1C        C  521   3.004   4.409   3.868
    1C        C  522   2.845   4.277   3.996
    1C        C  523   2.949   4.373   3.993
    1C        C  524   2.797   4.230   4.120
    1C        C  525   2.839   4.291   4.241
    1C        C  526   2.700   4.129   4.361
    1C        C  527   2.782   4.244   4.361
    1C        C  528   2.658   4.075   4.485
    1C        C  529   2.692   4.141   4.605
    1C        C  530   2.587   3.961   4.731
    1C        C  531   2.640   4.093   4.728
    1C        C  532   2.542   3.900   4.852
    1C        C  533   2.528   3.993   4.959
    1C        C  534   3.619   4.555   2.041
    1C        C  535   3.753   4.514   2.040
    1C        C  536   3.536   4.537   2.156
    1C        C  537   3.606   4.507   2.276
    1C        C  538   3.394   4.520   2.401
    1C        C  539   3.535   4.517   2.398
    1C        C  540   3.323   4.511   2.523
    1C        C  541   3.396   4.520   2.644
    1C        C  542   3.185   4.481   2.765
    1C        C  543   3.323   4.515   2.764
    1C        C  544   3.121   4.463   2.889
    1C        C  545   3.188   4.489   3.011
    1C        C  546   3.000   4.399   3.134
    1C        C  547   3.123   4.469   3.134
    1C        C  548   2.943   4.360   3.257
    1C        C  549   3.004   4.399   3.379
    1C        C  550   2.835   4.278   3.505
    1C        C  551   2.942   4.370   3.502
    1C        C  552   2.790   4.225   3.628
    1C        C  553   2.839   4.277   3.750
    1C        C  554   2.705   4.118   3.874
    1C        C  555   2.794   4.228   3.874
    1C        C  556   2.664   4.061   3.997
    1C        C  557   2.706   4.122   4.117
    1C        C  558   2.601   3.940   4.244
    1C        C  559   2.664   4.066   4.240
    1C        C  560   2.569   3.880   4.368
    1C        C  561   2.591   3.951   4.488
    1C        C  562   2.531   3.751   4.614
    1C        C  563   2.570   3.887   4.612
    1C        C  564   2.512   3.682   4.735
    1C        C  565   2.515   3.759   4.855
    1C        C  566   2.522   3.547   4.977
    1C        C  567   2.517   3.686   4.974
    1C        C  568   3.332   4.482   2.036
    1C        C  569   3.397   4.511   2.157
    1C        C  570   3.186   4.475   2.280
    1C        C  571   3.323   4.513   2.279
    1C        C  572   3.119   4.456   2.402
    1C        C  573   3.185   4.480   2.525
    1C        C  574   2.988   4.395   2.645
    1C        C  575   3.114   4.461   2.645
    1C        C  576   2.931   4.362   2.770
    1C        C  577   2.995   4.398   2.890
    1C        C  578   2.828   4.270   3.017
    1C        C  579   2.936   4.361   3.013
    1C        C  580   2.778   4.223   3.140
    1C        C  581   2.831   4.275   3.261
    1C        C  582   2.697   4.114   3.387
    1C        C  583   2.785   4.225   3.384
    1C        C  584   2.658   4.057   3.510
    1C        C  585   2.697   4.119   3.632
    1C        C  586   2.592   3.935   3.753
    1C        C  587   2.660   4.059   3.754
    1C        C  588   2.566   3.871   3.877
    1C        C  589   2.594   3.938   3.998
    1C        C  590   2.531   3.740   4.129
    1C        C  591   2.568   3.876   4.122
    1C        C  592   2.520   3.672   4.252
    1C        C  593   2.531   3.744   4.372
    1C        C  594   2.513   3.535   4.495
    1C        C  595   2.518   3.676   4.495
    1C        C  596   2.515   3.467   4.619
    1C        C  597   2.516   3.540   4.740
    1C        C  598   2.540   3.329   4.863
    1C        C  599   2.531   3.470   4.861
    1C        C  600   2.536   3.249   4.977
    1C        C  601   3.201   4.441   2.044
    1C        C  602   2.983   4.398   2.159
    1C        C  603   3.120   4.441   2.159
    1C        C  604   2.926   4.359   2.283
    1C        C  605   2.992   4.394   2.403
    1C        C  606   2.817   4.269   2.529
    1C        C  607   2.928   4.357   2.523
    1C        C  608   2.771   4.220   2.653
    1C        C  609   2.823   4.271   2.774
    1C        C  610   2.687   4.108   2.897
    1C        C  611   2.774   4.219   2.896
    1C        C  612   2.654   4.049   3.021
    1C        C  613   2.690   4.112   3.142
    1C        C  614   2.591   3.928   3.266
    1C        C  615   2.653   4.055   3.266
    1C        C  616   2.571   3.863   3.389
    1C        C  617   2.600   3.929   3.511
    1C        C  618   2.528   3.729   3.638
    1C        C  619   2.572   3.863   3.633
    1C        C  620   2.512   3.664   3.762
    1C        C  621   2.530   3.735   3.883
    1C        C  622   2.513   3.528   4.008
    1C        C  623   2.516   3.669   4.008
    1C        C  624   2.511   3.456   4.129
    1C        C  625   2.507   3.531   4.249
    1C        C  626   2.542   3.325   4.380
    1C        C  627   2.516   3.464   4.373
    1C        C  628   2.562   3.258   4.503
    1C        C  629   2.533   3.327   4.622
    1C        C  630   2.596   3.120   4.743
    1C        C  631   2.551   3.255   4.743
    1C        C  632   2.612   3.049   4.865
    1C        C  633   2.558   3.110   4.982
    1C        C  634   2.785   4.308   2.053
    1C        C  635   2.891   4.399   2.049
    1C        C  636   2.751   4.230   2.165
    1C        C  637   2.814   4.270   2.284
    1C        C  638   2.680   4.107   2.407
    1C        C  639   2.765   4.220   2.407
    1C        C  640   2.643   4.050   2.530
    1C        C  641   2.684   4.109   2.652
    1C        C  642   2.585   3.923   2.776
    1C        C  643   2.648   4.049   2.775
    1C        C  644   2.561   3.858   2.899
    1C        C  645   2.587   3.924   3.021
    1C        C  646   2.529   3.724   3.147
    1C        C  647   2.562   3.861   3.145
    1C        C  648   2.517   3.655   3.270
    1C        C  649   2.534   3.727   3.390
    1C        C  650   2.509   3.521   3.519
    1C        C  651   2.519   3.661   3.514
    1C        C  652   2.514   3.451   3.642
    1C        C  653   2.509   3.523   3.763
    1C        C  654   2.539   3.315   3.890
    1C        C  655   2.516   3.455   3.887
    1C        C  656   2.553   3.248   4.013
    1C        C  657   2.535   3.317   4.135
    1C        C  658   2.612   3.123   4.259
    1C        C  659   2.559   3.254   4.259
    1C        C  660   2.644   3.060   4.381
    1C        C  661   2.610   3.125   4.502
    1C        C  662   2.708   2.936   4.623
    1C        C  663   2.630   3.054   4.623
    1C        C  664   2.752   2.884   4.747
    1C        C  665   2.697   2.934   4.868
    1C        C  666   2.739   2.865   4.983
    1C        C  667   2.687   4.020   2.053
    1C        C  668   2.692   4.102   2.167
    1C        C  669   2.588   3.914   2.291
    1C        C  670   2.642   4.046   2.286
    1C        C  671   2.562   3.848   2.413
    1C        C  672   2.584   3.921   2.531
    1C        C  673   2.520   3.721   2.656
    1C        C  674   2.559   3.856   2.654
    1C        C  675   2.509   3.651   2.778
    1C        C  676   2.525   3.722   2.900
    1C        C  677   2.505   3.514   3.028
    1C        C  678   2.515   3.655   3.024
    1C        C  679   2.502   3.444   3.151
    1C        C  680   2.504   3.514   3.273
    1C        C  681   2.535   3.308   3.400
    1C        C  682   2.511   3.448   3.398
    1C        C  683   2.548   3.240   3.523
    1C        C  684   2.532   3.311   3.645
    1C        C  685   2.605   3.114   3.770
    1C        C  686   2.553   3.245   3.768
    1C        C  687   2.637   3.053   3.893
    1C        C  688   2.603   3.116   4.015
    1C        C  689   2.715   2.937   4.138
    1C        C  690   2.638   3.055   4.138
    1C        C  691   2.760   2.881   4.260
    1C        C  692   2.716   2.939   4.382
    1C        C  693   2.752   2.876   4.503
    1C        C  694   2.630   3.893   2.054
    1C        C  695   2.530   3.705   2.177
    1C        C  696   2.581   3.836   2.173
    1C        C  697   2.503   3.636   2.297
    1C        C  698   2.526   3.711   2.414
    1C        C  699   2.483   3.506   2.545
    1C        C  700   2.503   3.646   2.537
    1C        C  701   2.499   3.436   2.666
    1C        C  702   2.498   3.510   2.786
    1C        C  703   2.528   3.301   2.909
    1C        C  704   2.502   3.440   2.908
    1C        C  705   2.542   3.235   3.033
    1C        C  706   2.528   3.305   3.155
    1C        C  707   2.595   3.106   3.277
    1C        C  708   2.549   3.239   3.278
    1C        C  709   2.634   3.046   3.399
    1C        C  710   2.603   3.110   3.522
    1C        C  711   2.717   2.937   3.650
    1C        C  712   2.634   3.051   3.646
    1C        C  713   2.762   2.880   3.771
    1C        C  714   2.718   2.937   3.893
    1C        C  715   2.755   2.878   4.016
    1C        C  716   2.453   3.500   2.064
    1C        C  717   2.484   3.636   2.064
    1C        C  718   2.469   3.423   2.183
    1C        C  719   2.476   3.496   2.305
    1C        C  720   2.514   3.290   2.428
    1C        C  721   2.481   3.427   2.428
    1C        C  722   2.537   3.220   2.549
    1C        C  723   2.520   3.296   2.667
    1C        C  724   2.592   3.096   2.792
    1C        C  725   2.541   3.228   2.789
    1C        C  726   2.625   3.034   2.915
    1C        C  727   2.589   3.102   3.034
    1C        C  728   2.707   2.925   3.158
    1C        C  729   2.624   3.039   3.156
    1C        C  730   2.754   2.873   3.281
    1C        C  731   2.717   2.932   3.404
    1C        C  732   2.760   2.880   3.528
    1C        C  733   2.485   3.197   2.072
    1C        C  734   2.489   3.281   2.184
    1C        C  735   2.586   3.090   2.304
    1C        C  736   2.524   3.219   2.306
    1C        C  737   2.617   3.024   2.425
    1C        C  738   2.589   3.089   2.547
    1C        C  739   2.692   2.908   2.672
    1C        C  740   2.620   3.029   2.671
    1C        C  741   2.742   2.856   2.793
    1C        C  742   2.702   2.916   2.914
    1C        C  743   2.753   2.868   3.037
    1C        C  744   2.543   3.070   2.074
    1C        C  745   2.694   2.905   2.184
    1C        C  746   2.612   3.020   2.185
    1C        C  747   2.736   2.847   2.306
    1C        C  748   2.688   2.901   2.427
    1C        C  749   2.733   2.849   2.550
    1C        C  750   2.747   2.843   2.070
    1C        C  751   3.649   2.296   1.994
    1C        O  752   3.632   2.181   2.043
    1C        O  753   3.760   2.297   1.910
    1C        C  754   4.625   3.054   1.972
    1C        O  755   4.591   3.049   1.850
    1C        O  756   4.698   2.945   2.022
    1C        C  757   4.447   4.212   1.956
    1C        O  758   4.564   4.252   1.979
    1C        O  759   4.405   4.252   1.828
    1C        C  760   3.598   4.657   1.935
    1C        O  761   3.627   4.775   1.966
    1C        O  762   3.577   4.627   1.800
    1C        C  763   2.865   4.520   1.968
    1C        O  764   2.900   4.522   1.847
    1C        O  765   2.799   4.631   2.022
    1C        C  766   2.333   3.477   1.981
    1C        O  767   2.348   3.444   1.860
    1C        O  768   2.206   3.449   2.032
    1C        C  769   4.674   3.574   5.068
    1C        O  770   4.626   3.571   5.185
    1C        O  771   4.810   3.607   5.058
    1C        C  772   4.269   4.449   5.041
    1C        O  773   4.260   4.464   5.166
    1C        O  774   4.373   4.530   4.994
    1C        C  775   4.145   2.533   5.076
    1C        O  776   4.225   2.442   5.040
    1C        O  777   4.126   2.547   5.213
    1C        C  778   2.888   4.539   5.056
    1C        O  779   2.827   4.644   5.022
    1C        O  780   2.902   4.516   5.193
    1C        C  781   2.475   3.029   5.074
    1C        O  782   2.369   2.982   5.026
    1C        O  783   2.517   2.989   5.201
    1C        C  784   2.419   3.989   5.060
    1C        O  785   2.301   4.015   5.025
    1C        O  786   2.431   3.985   5.199
    1C        C  787   2.949   2.445   1.986
    1C        O  788   2.920   2.492   1.873
    1C        O  789   2.876   2.332   2.022
    1C        C  790   3.185   2.383   5.072
    1C        O  791   3.113   2.282   5.054
    1C        O  792   3.201   2.414   5.207
    1C        H  793   4.280   3.025   5.059
    1C        H  794   4.169   2.821   5.065
    1C        H  795   4.499   3.126   5.058
    1C        H  796   4.602   3.342   5.043
    1C        H  797   4.538   3.800   5.054
    1C        H  798   4.360   3.945   5.039
    1C        H  799   4.326   4.187   5.048
    1C        H  800   4.057   4.567   5.008
    1C        H  801   3.820   4.569   5.044
    1C        H  802   3.584   4.597   5.050
    1C        H  803   3.396   4.507   5.047
    1C        H  804   3.159   4.501   5.057
    1C        H  805   3.899   2.457   5.054
    1C        H  806   3.675   2.447   5.070
    1C        H  807   3.051   2.622   5.074
    1C        H  808   3.452   2.421   5.071
    1C        H  809   2.882   2.760   5.082
    1C        H  810   2.664   2.844   5.056
    1C        H  811   2.527   3.302   5.069
    1C        H  812   2.583   3.515   5.059
    1C        H  813   2.528   3.731   5.071
    1C        H  814   2.564   4.193   5.029
    1C        H  815   2.791   4.282   5.050
    1C        H  816   2.696   2.861   1.977
    1C        H  817   2.877   2.698   1.976
    1C        H  818   3.218   2.441   1.988
    1C        H  819   3.426   2.439   1.980
    1C        H  820   3.860   2.508   1.973
    1C        H  821   4.040   2.653   1.967
    1C        H  822   4.279   2.706   1.984
    1C        H  823   4.390   2.917   1.975
    1C        H  824   4.595   3.313   1.975
    1C        H  825   4.546   3.521   1.961
    1C        H  826   4.427   3.721   1.976
    1C        H  827   3.812   4.531   1.953
    1C        H  828   3.977   4.405   1.946
    1C        H  829   4.177   4.270   1.949
    1C        H  830   4.527   3.979   1.985
    1C        H  831   2.661   3.831   1.972
    1C        H  832   2.734   4.060   1.965
    1C        H  833   2.753   4.280   1.955
    1C        H  834   3.386   4.487   1.944
    1C        H  835   3.179   4.363   1.975
    1C        H  836   2.509   2.999   2.002
    1C        H  837   2.450   3.240   1.980
    1C        H  838   2.492   3.677   1.965
    2V3OU   H29  839   2.798   3.555   1.539
    2V3OU   C27  840   2.779   3.501   1.636
    2V3OU   H27  841   2.725   3.575   1.700
    2V3OU   H28  842   2.731   3.403   1.612
    2V3OU   O11  843   2.908   3.484   1.696
    2V3OU   C15  844   2.923   3.396   1.800
    2V3OU   C13  845   3.055   3.369   1.842
    2V3OU   C14  846   3.074   3.267   1.936
    2V3OU   C16  847   2.970   3.187   1.981
    2V3OU    H6  848   2.990   3.100   2.046
    2V3OU   C12  849   3.215   3.229   1.961
    2V3OU    O2  850   3.234   3.130   2.035
    2V3OU   C10  851   3.326   3.305   1.902
    2V3OU    C8  852   3.458   3.265   1.920
    2V3OU   O10  853   3.485   3.152   1.990
    2V3OU   H26  854   3.404   3.120   2.032
    2V3OU    C6  855   3.567   3.342   1.868
    2V3OU    C5  856   3.540   3.464   1.807
    2V3OU    C4  857   3.706   3.290   1.865
    2V3OU    H4  858   3.723   3.227   1.958
    2V3OU    H5  859   3.717   3.225   1.773
    2V3OU    C2  860   3.815   3.397   1.867
    2V3OU    O6  861   3.807   3.480   1.984
    2V3OU   H21  862   3.762   3.562   1.959
    2V3OU    C3  863   3.783   3.498   1.757
    2V3OU    H2  864   3.864   3.576   1.756
    2V3OU    H3  865   3.789   3.442   1.660
    2V3OU   C25  866   3.950   3.326   1.860
    2V3OU    O7  867   3.996   3.302   1.748
    2V3OU   C26  868   4.028   3.289   1.985
    2V3OU   H22  869   4.070   3.382   2.031
    2V3OU   H23  870   4.114   3.223   1.957
    2V3OU    O8  871   3.960   3.208   2.079
    2V3OU   H24  872   3.925   3.268   2.146
    2V3OU    C1  873   3.645   3.563   1.767
    2V3OU    H1  874   3.622   3.617   1.671
    2V3OU    O3  875   3.661   3.653   1.878
    2V3OU   C19  876   3.621   3.788   1.853
    2V3OU    H9  877   3.526   3.796   1.792
    2V3OU    O4  878   3.717   3.841   1.764
    2V3OU   C20  879   3.850   3.871   1.808
    2V3OU   H10  880   3.899   3.772   1.830
    2V3OU   C24  881   3.611   3.859   1.988
    2V3OU   H16  882   3.546   3.800   2.057
    2V3OU   H17  883   3.565   3.959   1.972
    2V3OU   C23  884   3.753   3.877   2.044
    2V3OU   H15  885   3.798   3.774   2.065
    2V3OU    N1  886   3.740   3.955   2.165
    2V3OU   H19  887   3.811   3.925   2.229
    2V3OU   H20  888   3.651   3.939   2.206
    2V3OU   C21  889   3.848   3.946   1.942
    2V3OU   H11  890   3.946   3.930   1.994
    2V3OU    O5  891   3.817   4.085   1.940
    2V3OU   H18  892   3.781   4.104   2.028
    2V3OU   C22  893   3.911   3.951   1.694
    2V3OU   H12  894   3.860   4.050   1.685
    2V3OU   H13  895   3.900   3.895   1.598
    2V3OU   H14  896   4.022   3.962   1.709
    2V3OU   C11  897   3.159   3.470   1.816
    2V3OU    O1  898   3.131   3.587   1.779
    2V3OU    C9  899   3.298   3.423   1.829
    2V3OU    C7  900   3.404   3.502   1.784
    2V3OU    O9  901   3.383   3.624   1.722
    2V3OU   H25  902   3.287   3.628   1.710
    2V3OU   C17  903   2.818   3.313   1.845
    2V3OU    H7  904   2.715   3.346   1.837
    2V3OU   C18  905   2.841   3.208   1.934
    2V3OU    H8  906   2.757   3.146   1.970
    3SOL     OW  907   1.402   3.858   1.352
    3SOL    HW1  908   1.365   3.910   1.428
    3SOL    HW2  909   1.501   3.848   1.363
    4SOL     OW  910   5.864   0.861   1.858
    4SOL    HW1  911   5.820   0.793   1.799
    4SOL    HW2  912   5.953   0.827   1.887
    5SOL     OW  913   4.049   1.687   0.831
    5SOL    HW1  914   4.013   1.741   0.754
    5SOL    HW2  915   4.093   1.748   0.896
    6SOL     OW  916   3.057   2.147   1.944
    6SOL    HW1  917   2.981   2.203   1.977
    6SOL    HW2  918   3.036   2.050   1.961
    7SOL     OW  919   5.391   2.100   2.146
    7SOL    HW1  920   5.405   2.144   2.235
    7SOL    HW2  921   5.429   2.159   2.074
    8SOL     OW  922   2.599   0.179   3.988
    8SOL    HW1  923   2.684   0.139   4.023
    8SOL    HW2  924   2.619   0.236   3.908
    9SOL     OW  925   1.788   4.855   5.925
    9SOL    HW1  926   1.705   4.813   5.887
    9SOL    HW2  927   1.850   4.784   5.957
   10SOL     OW  928   0.847   4.703   6.177
   10SOL    HW1  929   0.787   4.761   6.122
   10SOL    HW2  930   0.888   4.757   6.250
   11SOL     OW  931   4.119   6.570   0.360
   11SOL    HW1  932   4.124   6.638   0.433
   11SOL    HW2  933   4.037   6.514   0.372
   12SOL     OW  934   5.201   5.869   3.076
   12SOL    HW1  935   5.135   5.939   3.050
   12SOL    HW2  936   5.160   5.778   3.064
   13SOL     OW  937   2.759   6.409   3.844
   13SOL    HW1  938   2.849   6.415   3.886
   13SOL    HW2  939   2.760   6.341   3.771
   14SOL     OW  940   3.673   6.301   0.260
   14SOL    HW1  941   3.706   6.307   0.166
   14SOL    HW2  942   3.574   6.318   0.261
   15SOL     OW  943   1.093   6.557   0.172
   15SOL    HW1  944   1.175   6.613   0.178
   15SOL    HW2  945   1.119   6.461   0.160
   16SOL     OW  946   6.390   2.376   6.079
   16SOL    HW1  947   6.356   2.433   6.153
   16SOL    HW2  948   6.430   2.434   6.007
   17SOL     OW  949   5.503   6.516   4.121
   17SOL    HW1  950   5.448   6.596   4.146
   17SOL    HW2  951   5.515   6.513   4.022
   18SOL     OW  952   1.933   1.993   5.589
   18SOL    HW1  953   1.834   2.006   5.594
   18SOL    HW2  954   1.979   2.058   5.650
   19SOL     OW  955   0.322   0.110   2.755
   19SOL    HW1  956   0.229   0.143   2.737
   19SOL    HW2  957   0.346   0.129   2.851
   20SOL     OW  958   3.459   1.395   4.001
   20SOL    HW1  959   3.453   1.324   3.931
   20SOL    HW2  960   3.382   1.385   4.065
   21SOL     OW  961   2.896   1.462   1.510
   21SOL    HW1  962   2.831   1.510   1.452
   21SOL    HW2  963   2.922   1.521   1.587
   22SOL     OW  964   2.264   6.240   6.222
   22SOL    HW1  965   2.192   6.175   6.244
   22SOL    HW2  966   2.272   6.248   6.122
   23SOL     OW  967   4.480   6.605   3.886
   23SOL    HW1  968   4.447   6.623   3.793
   23SOL    HW2  969   4.402   6.599   3.948
   24SOL     OW  970   5.426   1.004   5.156
   24SOL    HW1  971   5.394   1.092   5.191
   24SOL    HW2  972   5.505   0.974   5.210
   25SOL     OW  973   3.806   5.608   0.159
   25SOL    HW1  974   3.717   5.602   0.205
   25SOL    HW2  975   3.799   5.569   0.067
   26SOL     OW  976   6.660   1.263   1.831
   26SOL    HW1  977   6.575   1.218   1.807
   26SOL    HW2  978   6.645   1.362   1.836
   27SOL     OW  979   6.147   0.401   2.443
   27SOL    HW1  980   6.236   0.426   2.482
   27SOL    HW2  981   6.158   0.384   2.345
   28SOL     OW  982   4.165   0.823   7.011
   28SOL    HW1  983   4.109   0.778   0.056
   28SOL    HW2  984   4.192   0.757   6.940
   29SOL     OW  985   4.753   2.509   1.464
   29SOL    HW1  986   4.814   2.522   1.385
   29SOL    HW2  987   4.799   2.542   1.546
   30SOL     OW  988   3.448   0.209   5.068
   30SOL    HW1  989   3.526   0.148   5.056
   30SOL    HW2  990   3.401   0.187   5.153
   31SOL     OW  991   0.815   1.118   5.107
   31SOL    HW1  992   0.899   1.132   5.161
   31SOL    HW2  993   0.748   1.187   5.131
   32SOL     OW  994   1.007   1.997   1.746
   32SOL    HW1  995   0.973   1.986   1.652
   32SOL    HW2  996   1.018   2.095   1.766
   33SOL     OW  997   1.757   2.547   6.086
   33SOL    HW1  998   1.688   2.585   6.147
   33SOL    HW2  999   1.746   2.585   5.994
   34SOL     OW 1000   2.334   6.999   4.741
   34SOL    HW1 1001   2.275   0.038   4.690
   34SOL    HW2 1002   2.293   6.980   4.831
   35SOL     OW 1003   5.086   1.434   0.527
   35SOL    HW1 1004   5.113   1.499   0.598
   35SOL    HW2 1005   5.037   1.482   0.454
   36SOL     OW 1006   1.981   1.202   5.800
   36SOL    HW1 1007   1.899   1.258   5.809
   36SOL    HW2 1008   2.028   1.197   5.888
   37SOL     OW 1009   2.896   6.720   1.376
   37SOL    HW1 1010   2.924   6.804   1.421
   37SOL    HW2 1011   2.968   6.690   1.314
   38SOL     OW 1012   6.766   6.538   3.312
   38SOL    HW1 1013   6.723   6.510   3.398
   38SOL    HW2 1014   6.704   6.518   3.236
   39SOL     OW 1015   6.739   3.165   5.408
   39SOL    HW1 1016   6.834   3.161   5.438
   39SOL    HW2 1017   6.681   3.195   5.485
   40SOL     OW 1018   5.806   1.007   2.511
   40SOL    HW1 1019   5.711   1.025   2.484
   40SOL    HW2 1020   5.832   0.915   2.480
   41SOL     OW 1021   1.547   6.642   4.933
   41SOL    HW1 1022   1.453   6.676   4.927
   41SOL    HW2 1023   1.552   6.568   5.000
   42SOL     OW 1024   3.477   0.393   6.552
   42SOL    HW1 1025   3.551   0.362   6.493
   42SOL    HW2 1026   3.389   0.377   6.506
   43SOL     OW 1027   5.547   6.423   5.403
   43SOL    HW1 1028   5.565   6.339   5.351
   43SOL    HW2 1029   5.634   6.465   5.428
   44SOL     OW 1030   0.284   2.821   6.443
   44SOL    HW1 1031   0.296   2.805   6.345
   44SOL    HW2 1032   0.366   2.864   6.481
   45SOL     OW 1033   2.838   1.212   2.036
   45SOL    HW1 1034   2.770   1.200   2.109
   45SOL    HW2 1035   2.811   1.157   1.957
   46SOL     OW 1036   1.759   3.589   4.386
   46SOL    HW1 1037   1.720   3.584   4.478
   46SOL    HW2 1038   1.719   3.518   4.329
   47SOL     OW 1039   6.635   4.639   3.208
   47SOL    HW1 1040   6.595   4.696   3.280
   47SOL    HW2 1041   6.696   4.571   3.249
   48SOL     OW 1042   0.060   2.302   4.995
   48SOL    HW1 1043   0.028   2.390   5.032
   48SOL    HW2 1044   0.003   2.228   5.032
   49SOL     OW 1045   4.518   3.504   0.767
   49SOL    HW1 1046   4.522   3.495   0.866
   49SOL    HW2 1047   4.605   3.476   0.727
   50SOL     OW 1048   6.419   3.786   4.855
   50SOL    HW1 1049   6.414   3.877   4.897
   50SOL    HW2 1050   6.509   3.772   4.815
   51SOL     OW 1051   3.430   4.896   3.111
   51SOL    HW1 1052   3.339   4.880   3.072
   51SOL    HW2 1053   3.454   4.992   3.103
   52SOL     OW 1054   3.056   1.440   2.323
   52SOL    HW1 1055   2.983   1.465   2.387
   52SOL    HW2 1056   3.041   1.486   2.236
   53SOL     OW 1057   4.957   6.908   4.303
   53SOL    HW1 1058   4.858   6.893   4.314
   53SOL    HW2 1059   4.978   7.004   4.322
   54SOL     OW 1060   3.143   5.253   5.732
   54SOL    HW1 1061   3.091   5.268   5.648
   54SOL    HW2 1062   3.081   5.222   5.804
   55SOL     OW 1063   4.085   1.702   6.051
   55SOL    HW1 1064   4.140   1.769   6.000
   55SOL    HW2 1065   4.140   1.621   6.069
   56SOL     OW 1066   1.181   0.715   2.328
   56SOL    HW1 1067   1.208   0.627   2.287
   56SOL    HW2 1068   1.095   0.746   2.287
   57SOL     OW 1069   4.999   1.007   0.513
   57SOL    HW1 1070   4.956   1.071   0.578
   57SOL    HW2 1071   4.927   0.952   0.469
   58SOL     OW 1072   6.977   6.163   6.660
   58SOL    HW1 1073   6.993   6.227   6.735
   58SOL    HW2 1074   0.023   6.091   6.663
   59SOL     OW 1075   1.268   0.595   6.005
   59SOL    HW1 1076   1.366   0.572   6.006
   59SOL    HW2 1077   1.229   0.581   6.096
   60SOL     OW 1078   4.533   6.876   5.328
   60SOL    HW1 1079   4.453   6.935   5.313
   60SOL    HW2 1080   4.531   6.800   5.264
   61SOL     OW 1081   4.806   0.173   3.780
   61SOL    HW1 1082   4.827   0.162   3.877
   61SOL    HW2 1083   4.890   0.185   3.728
   62SOL     OW 1084   1.639   0.274   3.790
   62SOL    HW1 1085   1.619   0.334   3.868
   62SOL    HW2 1086   1.646   0.329   3.707
   63SOL     OW 1087   6.495   2.869   3.332
   63SOL    HW1 1088   6.577   2.829   3.371
   63SOL    HW2 1089   6.498   2.862   3.233
   64SOL     OW 1090   6.177   3.898   6.497
   64SOL    HW1 1091   6.103   3.950   6.540
   64SOL    HW2 1092   6.264   3.924   6.537
   65SOL     OW 1093   6.738   4.816   4.884
   65SOL    HW1 1094   6.740   4.738   4.946
   65SOL    HW2 1095   6.682   4.795   4.804
   66SOL     OW 1096   3.459   0.478   7.003
   66SOL    HW1 1097   3.509   0.521   6.927
   66SOL    HW2 1098   3.471   0.379   6.999
   67SOL     OW 1099   5.543   6.078   5.011
   67SOL    HW1 1100   5.616   6.040   4.955
   67SOL    HW2 1101   5.468   6.109   4.952
   68SOL     OW 1102   6.097   1.764   6.125
   68SOL    HW1 1103   6.038   1.700   6.174
   68SOL    HW2 1104   6.058   1.781   6.034
   69SOL     OW 1105   2.960   4.163   6.183
   69SOL    HW1 1106   2.897   4.241   6.182
   69SOL    HW2 1107   2.990   4.143   6.090
   70SOL     OW 1108   6.978   5.662   2.587
   70SOL    HW1 1109   6.896   5.622   2.546
   70SOL    HW2 1110   7.008   5.740   2.533
   71SOL     OW 1111   2.320   2.841   3.259
   71SOL    HW1 1112   2.333   2.779   3.182
   71SOL    HW2 1113   2.345   2.795   3.344
   72SOL     OW 1114   2.793   5.391   3.750
   72SOL    HW1 1115   2.828   5.301   3.725
   72SOL    HW2 1116   2.825   5.459   3.683
   73SOL     OW 1117   3.692   1.770   7.017
   73SOL    HW1 1118   3.781   1.757   0.038
   73SOL    HW2 1119   3.642   1.843   0.040
   74SOL     OW 1120   5.108   6.462   6.688
   74SOL    HW1 1121   5.133   6.421   6.775
   74SOL    HW2 1122   5.079   6.391   6.624
   75SOL     OW 1123   3.737   6.026   5.384
   75SOL    HW1 1124   3.659   5.966   5.367
   75SOL    HW2 1125   3.763   6.019   5.480
   76SOL     OW 1126   1.850   2.343   1.054
   76SOL    HW1 1127   1.897   2.429   1.033
   76SOL    HW2 1128   1.907   2.289   1.116
   77SOL     OW 1129   5.696   5.049   5.183
   77SOL    HW1 1130   5.600   5.027   5.166
   77SOL    HW2 1131   5.710   5.148   5.175
   78SOL     OW 1132   6.414   6.162   5.995
   78SOL    HW1 1133   6.387   6.207   6.080
   78SOL    HW2 1134   6.336   6.157   5.934
   79SOL     OW 1135   3.610   0.251   0.589
   79SOL    HW1 1136   3.633   0.209   0.501
   79SOL    HW2 1137   3.557   0.187   0.644
   80SOL     OW 1138   6.461   1.589   4.527
   80SOL    HW1 1139   6.434   1.619   4.619
   80SOL    HW2 1140   6.560   1.583   4.521
   81SOL     OW 1141   1.607   1.068   3.110
   81SOL    HW1 1142   1.644   1.116   3.031
   81SOL    HW2 1143   1.510   1.090   3.121
   82SOL     OW 1144   6.751   4.900   6.908
   82SOL    HW1 1145   6.832   4.954   6.887
   82SOL    HW2 1146   6.681   4.917   6.838
   83SOL     OW 1147   0.117   6.228   0.568
   83SOL    HW1 1148   0.156   6.229   0.660
   83SOL    HW2 1149   0.187   6.202   0.502
   84SOL     OW 1150   5.300   3.771   2.336
   84SOL    HW1 1151   5.326   3.828   2.257
   84SOL    HW2 1152   5.213   3.803   2.373
   85SOL     OW 1153   0.734   1.698   5.122
   85SOL    HW1 1154   0.707   1.795   5.121
   85SOL    HW2 1155   0.654   1.641   5.104
   86SOL     OW 1156   0.642   0.645   5.351
   86SOL    HW1 1157   0.700   0.713   5.395
   86SOL    HW2 1158   0.637   0.563   5.408
   87SOL     OW 1159   4.567   2.177   0.311
   87SOL    HW1 1160   4.553   2.268   0.349
   87SOL    HW2 1161   4.615   2.120   0.377
   88SOL     OW 1162   5.262   1.114   0.721
   88SOL    HW1 1163   5.171   1.156   0.716
   88SOL    HW2 1164   5.328   1.172   0.672
   89SOL     OW 1165   1.728   2.947   6.799
   89SOL    HW1 1166   1.725   3.041   6.834
   89SOL    HW2 1167   1.721   2.883   6.876
   90SOL     OW 1168   6.260   6.156   3.935
   90SOL    HW1 1169   6.175   6.191   3.974
   90SOL    HW2 1170   6.304   6.228   3.882
   91SOL     OW 1171   4.970   4.472   4.283
   91SOL    HW1 1172   5.036   4.546   4.270
   91SOL    HW2 1173   4.996   4.394   4.226
   92SOL     OW 1174   3.094   4.778   1.022
   92SOL    HW1 1175   3.158   4.796   1.096
   92SOL    HW2 1176   3.089   4.857   0.961
   93SOL     OW 1177   3.470   4.951   5.781
   93SOL    HW1 1178   3.540   4.881   5.796
   93SOL    HW2 1179   3.467   5.012   5.859
   94SOL     OW 1180   2.947   5.637   0.076
   94SOL    HW1 1181   3.004   5.558   0.054
   94SOL    HW2 1182   2.893   5.617   0.158
   95SOL     OW 1183   0.599   0.332   4.138
   95SOL    HW1 1184   0.523   0.382   4.180
   95SOL    HW2 1185   0.564   0.259   4.080
   96SOL     OW 1186   2.382   0.201   5.137
   96SOL    HW1 1187   2.389   0.111   5.094
   96SOL    HW2 1188   2.290   0.214   5.174
   97SOL     OW 1189   5.919   3.404   4.240
   97SOL    HW1 1190   5.874   3.325   4.283
   97SOL    HW2 1191   5.908   3.484   4.299
   98SOL     OW 1192   5.066   2.481   6.243
   98SOL    HW1 1193   5.067   2.419   6.165
   98SOL    HW2 1194   5.158   2.519   6.256
   99SOL     OW 1195   3.996   2.674   0.916
   99SOL    HW1 1196   4.049   2.705   0.994
   99SOL    HW2 1197   4.035   2.712   0.832
  100SOL     OW 1198   0.683   6.453   6.685
  100SOL    HW1 1199   0.585   6.440   6.697
  100SOL    HW2 1200   0.705   6.551   6.694
  101SOL     OW 1201   0.605   5.787   3.892
  101SOL    HW1 1202   0.510   5.784   3.861
  101SOL    HW2 1203   0.608   5.805   3.990
  102SOL     OW 1204   3.896   0.536   3.307
  102SOL    HW1 1205   3.915   0.627   3.343
  102SOL    HW2 1206   3.862   0.544   3.213
  103SOL     OW 1207   4.173   2.051   1.587
  103SOL    HW1 1208   4.269   2.040   1.609
  103SOL    HW2 1209   4.137   2.132   1.633
  104SOL     OW 1210   6.655   5.580   2.599
  104SOL    HW1 1211   6.622   5.603   2.690
  104SOL    HW2 1212   6.678   5.482   2.596
  105SOL     OW 1213   6.258   0.937   6.706
  105SOL    HW1 1214   6.308   0.857   6.674
  105SOL    HW2 1215   6.307   0.977   6.785
  106SOL     OW 1216   2.646   6.034   6.415
  106SOL    HW1 1217   2.724   6.082   6.456
  106SOL    HW2 1218   2.623   5.954   6.471
  107SOL     OW 1219   1.194   2.734   1.238
  107SOL    HW1 1220   1.214   2.655   1.296
  107SOL    HW2 1221   1.181   2.815   1.295
  108SOL     OW 1222   5.110   4.838   6.759
  108SOL    HW1 1223   5.012   4.838   6.779
  108SOL    HW2 1224   5.128   4.899   6.682
  109SOL     OW 1225   0.514   0.164   0.833
  109SOL    HW1 1226   0.474   0.254   0.851
  109SOL    HW2 1227   0.512   0.110   0.917
  110SOL     OW 1228   3.648   6.036   5.724
  110SOL    HW1 1229   3.653   6.107   5.794
  110SOL    HW2 1230   3.559   5.991   5.728
  111SOL     OW 1231   3.798   0.636   3.600
  111SOL    HW1 1232   3.703   0.668   3.601
  111SOL    HW2 1233   3.809   0.562   3.667
  112SOL     OW 1234   5.965   5.661   5.660
  112SOL    HW1 1235   6.056   5.696   5.637
  112SOL    HW2 1236   5.895   5.719   5.618
  113SOL     OW 1237   6.839   4.412   3.803
  113SOL    HW1 1238   6.831   4.466   3.720
  113SOL    HW2 1239   6.875   4.321   3.780
  114SOL     OW 1240   0.586   6.606   0.524
  114SOL    HW1 1241   0.571   6.702   0.547
  114SOL    HW2 1242   0.504   6.553   0.547
  115SOL     OW 1243   4.984   1.250   3.929
  115SOL    HW1 1244   5.034   1.334   3.911
  115SOL    HW2 1245   4.913   1.267   3.998
  116SOL     OW 1246   6.519   4.667   2.273
  116SOL    HW1 1247   6.499   4.580   2.317
  116SOL    HW2 1248   6.569   4.651   2.188
  117SOL     OW 1249   1.240   0.698   6.438
  117SOL    HW1 1250   1.292   0.759   6.378
  117SOL    HW2 1251   1.161   0.661   6.388
  118SOL     OW 1252   0.213   0.869   2.010
  118SOL    HW1 1253   0.155   0.910   2.081
  118SOL    HW2 1254   0.196   0.915   1.923
  119SOL     OW 1255   6.847   2.645   6.549
  119SOL    HW1 1256   6.831   2.623   6.452
  119SOL    HW2 1257   6.770   2.613   6.604
  120SOL     OW 1258   6.305   6.958   0.970
  120SOL    HW1 1259   6.263   6.994   1.054
  120SOL    HW2 1260   6.349   6.871   0.990
  121SOL     OW 1261   2.518   3.795   6.358
  121SOL    HW1 1262   2.597   3.825   6.305
  121SOL    HW2 1263   2.518   3.696   6.365
  122SOL     OW 1264   1.227   3.673   5.061
  122SOL    HW1 1265   1.311   3.623   5.081
  122SOL    HW2 1266   1.246   3.771   5.056
  123SOL     OW 1267   6.903   1.925   1.355
  123SOL    HW1 1268   6.878   1.874   1.272
  123SOL    HW2 1269   6.974   1.875   1.405
  124SOL     OW 1270   5.275   3.177   0.304
  124SOL    HW1 1271   5.183   3.211   0.282
  124SOL    HW2 1272   5.286   3.084   0.269
  125SOL     OW 1273   1.566   2.302   1.889
  125SOL    HW1 1274   1.468   2.322   1.888
  125SOL    HW2 1275   1.595   2.282   1.983
  126SOL     OW 1276   2.459   4.397   0.865
  126SOL    HW1 1277   2.378   4.454   0.854
  126SOL    HW2 1278   2.479   4.385   0.962
  127SOL     OW 1279   6.967   5.232   5.842
  127SOL    HW1 1280   6.937   5.141   5.871
  127SOL    HW2 1281   6.938   5.248   5.748
  128SOL     OW 1282   4.453   3.046   1.548
  128SOL    HW1 1283   4.402   3.073   1.630
  128SOL    HW2 1284   4.447   2.946   1.537
  129SOL     OW 1285   3.543   3.876   6.232
  129SOL    HW1 1286   3.642   3.880   6.240
  129SOL    HW2 1287   3.514   3.923   6.148
  130SOL     OW 1288   1.029   1.085   4.143
  130SOL    HW1 1289   1.043   0.989   4.119
  130SOL    HW2 1290   1.082   1.107   4.225
  131SOL     OW 1291   4.760   1.381   2.798
  131SOL    HW1 1292   4.767   1.295   2.747
  131SOL    HW2 1293   4.832   1.385   2.867
  132SOL     OW 1294   1.134   2.790   1.549
  132SOL    HW1 1295   1.158   2.847   1.627
  132SOL    HW2 1296   1.043   2.750   1.564
  133SOL     OW 1297   5.930   6.270   2.736
  133SOL    HW1 1298   5.864   6.343   2.756
  133SOL    HW2 1299   6.020   6.309   2.720
  134SOL     OW 1300   6.821   3.169   3.348
  134SOL    HW1 1301   6.745   3.195   3.288
  134SOL    HW2 1302   6.904   3.156   3.294
  135SOL     OW 1303   5.099   1.537   3.629
  135SOL    HW1 1304   5.156   1.613   3.598
  135SOL    HW2 1305   5.080   1.476   3.552
  136SOL     OW 1306   5.247   4.215   5.572
  136SOL    HW1 1307   5.226   4.119   5.553
  136SOL    HW2 1308   5.212   4.240   5.662
  137SOL     OW 1309   4.975   6.972   5.392
  137SOL    HW1 1310   5.033   0.018   5.351
  137SOL    HW2 1311   4.953   6.902   5.324
  138SOL     OW 1312   6.817   5.154   4.643
  138SOL    HW1 1313   6.911   5.153   4.677
  138SOL    HW2 1314   6.816   5.136   4.545
  139SOL     OW 1315   2.765   5.019   5.079
  139SOL    HW1 1316   2.782   5.116   5.101
  139SOL    HW2 1317   2.850   4.978   5.045
  140SOL     OW 1318   5.504   5.372   4.024
  140SOL    HW1 1319   5.415   5.404   3.991
  140SOL    HW2 1320   5.490   5.291   4.082
  141SOL     OW 1321   1.043   1.751   4.852
  141SOL    HW1 1322   1.005   1.689   4.783
  141SOL    HW2 1323   0.968   1.796   4.900
  142SOL     OW 1324   1.441   6.245   1.801
  142SOL    HW1 1325   1.444   6.317   1.732
  142SOL    HW2 1326   1.528   6.196   1.803
  143SOL     OW 1327   5.328   4.980   2.126
  143SOL    HW1 1328   5.302   5.061   2.074
  143SOL    HW2 1329   5.324   5.000   2.224
  144SOL     OW 1330   1.471   6.678   6.401
  144SOL    HW1 1331   1.483   6.765   6.353
  144SOL    HW2 1332   1.521   6.606   6.353
  145SOL     OW 1333   0.491   5.372   0.539
  145SOL    HW1 1334   0.396   5.349   0.561
  145SOL    HW2 1335   0.500   5.382   0.440
  146SOL     OW 1336   5.154   6.779   0.305
  146SOL    HW1 1337   5.165   6.849   0.234
  146SOL    HW2 1338   5.065   6.735   0.294
  147SOL     OW 1339   6.407   2.957   0.634
  147SOL    HW1 1340   6.361   2.874   0.602
  147SOL    HW2 1341   6.488   2.974   0.577
  148SOL     OW 1342   0.970   5.142   5.371
  148SOL    HW1 1343   1.052   5.167   5.424
  148SOL    HW2 1344   0.897   5.206   5.392
  149SOL     OW 1345   2.849   1.013   4.055
  149SOL    HW1 1346   2.910   1.088   4.080
  149SOL    HW2 1347   2.806   1.033   3.967
  150SOL     OW 1348   6.985   5.024   6.884
  150SOL    HW1 1349   0.034   4.968   6.923
  150SOL    HW2 1350   6.997   5.031   6.785
  151SOL     OW 1351   3.986   1.486   1.287
  151SOL    HW1 1352   3.910   1.425   1.309
  151SOL    HW2 1353   3.951   1.578   1.268
  152SOL     OW 1354   2.843   0.766   4.571
  152SOL    HW1 1355   2.776   0.693   4.581
  152SOL    HW2 1356   2.804   0.852   4.602
  153SOL     OW 1357   2.278   0.505   2.654
  153SOL    HW1 1358   2.237   0.574   2.715
  153SOL    HW2 1359   2.209   0.476   2.587
  154SOL     OW 1360   0.080   2.382   1.709
  154SOL    HW1 1361   0.053   2.427   1.794
  154SOL    HW2 1362   0.049   2.438   1.631
  155SOL     OW 1363   0.205   1.036   2.970
  155SOL    HW1 1364   0.192   1.126   2.927
  155SOL    HW2 1365   0.279   0.988   2.923
  156SOL     OW 1366   6.227   1.639   1.240
  156SOL    HW1 1367   6.148   1.604   1.290
  156SOL    HW2 1368   6.279   1.562   1.203
  157SOL     OW 1369   6.019   3.454   2.816
  157SOL    HW1 1370   5.992   3.408   2.732
  157SOL    HW2 1371   6.072   3.391   2.873
  158SOL     OW 1372   3.180   0.875   2.613
  158SOL    HW1 1373   3.151   0.781   2.596
  158SOL    HW2 1374   3.200   0.920   2.526
  159SOL     OW 1375   4.631   4.510   1.865
  159SOL    HW1 1376   4.601   4.597   1.905
  159SOL    HW2 1377   4.580   4.435   1.907
  160SOL     OW 1378   6.554   4.655   5.903
  160SOL    HW1 1379   6.653   4.647   5.894
  160SOL    HW2 1380   6.517   4.706   5.826
  161SOL     OW 1381   2.203   4.728   4.984
  161SOL    HW1 1382   2.287   4.752   5.033
  161SOL    HW2 1383   2.207   4.766   4.891
  162SOL     OW 1384   4.629   5.726   0.613
  162SOL    HW1 1385   4.672   5.784   0.543
  162SOL    HW2 1386   4.565   5.663   0.569
  163SOL     OW 1387   4.289   6.587   1.697
  163SOL    HW1 1388   4.262   6.620   1.787
  163SOL    HW2 1389   4.208   6.560   1.645
  164SOL     OW 1390   6.324   3.220   0.884
  164SOL    HW1 1391   6.279   3.297   0.838
  164SOL    HW2 1392   6.326   3.237   0.982
  165SOL     OW 1393   4.904   3.463   6.680
  165SOL    HW1 1394   4.981   3.434   6.737
  165SOL    HW2 1395   4.820   3.417   6.711
  166SOL     OW 1396   0.408   6.418   3.097
  166SOL    HW1 1397   0.333   6.473   3.060
  166SOL    HW2 1398   0.371   6.351   3.162
  167SOL     OW 1399   6.446   2.730   6.908
  167SOL    HW1 1400   6.522   2.733   6.973
  167SOL    HW2 1401   6.448   2.643   6.859
  168SOL     OW 1402   2.167   4.754   1.179
  168SOL    HW1 1403   2.148   4.687   1.107
  168SOL    HW2 1404   2.088   4.814   1.191
  169SOL     OW 1405   2.376   0.162   2.078
  169SOL    HW1 1406   2.455   0.103   2.097
  169SOL    HW2 1407   2.407   0.257   2.071
  170SOL     OW 1408   0.248   1.882   3.952
  170SOL    HW1 1409   0.168   1.823   3.945
  170SOL    HW2 1410   0.331   1.828   3.939
  171SOL     OW 1411   4.057   3.998   0.643
  171SOL    HW1 1412   4.136   3.955   0.687
  171SOL    HW2 1413   4.089   4.060   0.571
  172SOL     OW 1414   6.820   2.140   4.908
  172SOL    HW1 1415   6.730   2.111   4.941
  172SOL    HW2 1416   6.890   2.106   4.971
  173SOL     OW 1417   6.888   6.819   4.814
  173SOL    HW1 1418   6.833   6.894   4.775
  173SOL    HW2 1419   6.921   6.846   4.904
  174SOL     OW 1420   2.406   5.131   3.817
  174SOL    HW1 1421   2.486   5.190   3.821
  174SOL    HW2 1422   2.369   5.118   3.908
  175SOL     OW 1423   1.771   6.278   2.051
  175SOL    HW1 1424   1.791   6.225   1.970
  175SOL    HW2 1425   1.793   6.374   2.034
  176SOL     OW 1426   2.012   4.147   1.494
  176SOL    HW1 1427   2.102   4.190   1.485
  176SOL    HW2 1428   1.941   4.213   1.469
  177SOL     OW 1429   5.087   2.260   3.165
  177SOL    HW1 1430   5.133   2.228   3.082
  177SOL    HW2 1431   5.041   2.183   3.209
  178SOL     OW 1432   5.014   4.238   6.411
  178SOL    HW1 1433   5.069   4.225   6.329
  178SOL    HW2 1434   5.072   4.275   6.484
  179SOL     OW 1435   3.246   0.647   0.856
  179SOL    HW1 1436   3.210   0.730   0.901
  179SOL    HW2 1437   3.327   0.615   0.905
  180SOL     OW 1438   0.740   0.965   6.832
  180SOL    HW1 1439   0.821   0.909   6.850
  180SOL    HW2 1440   0.705   0.944   6.740
  181SOL     OW 1441   3.764   2.479   6.437
  181SOL    HW1 1442   3.731   2.517   6.351
  181SOL    HW2 1443   3.752   2.546   6.510
  182SOL     OW 1444   4.116   2.278   3.661
  182SOL    HW1 1445   4.071   2.321   3.739
  182SOL    HW2 1446   4.209   2.314   3.652
  183SOL     OW 1447   4.812   1.123   1.597
  183SOL    HW1 1448   4.850   1.115   1.689
  183SOL    HW2 1449   4.773   1.036   1.569
  184SOL     OW 1450   1.263   4.890   3.254
  184SOL    HW1 1451   1.202   4.856   3.182
  184SOL    HW2 1452   1.310   4.813   3.297
  185SOL     OW 1453   1.583   3.765   6.350
  185SOL    HW1 1454   1.524   3.695   6.311
  185SOL    HW2 1455   1.679   3.740   6.332
  186SOL     OW 1456   6.154   0.242   3.060
  186SOL    HW1 1457   6.240   0.286   3.086
  186SOL    HW2 1458   6.088   0.251   3.135
  187SOL     OW 1459   5.281   0.778   3.993
  187SOL    HW1 1460   5.295   0.735   3.903
  187SOL    HW2 1461   5.188   0.814   3.997
  188SOL     OW 1462   6.075   2.170   3.318
  188SOL    HW1 1463   6.097   2.260   3.355
  188SOL    HW2 1464   5.989   2.175   3.267
  189SOL     OW 1465   2.283   5.256   2.925
  189SOL    HW1 1466   2.292   5.267   2.826
  189SOL    HW2 1467   2.221   5.180   2.945
  190SOL     OW 1468   3.896   1.276   5.201
  190SOL    HW1 1469   3.866   1.183   5.220
  190SOL    HW2 1470   3.818   1.338   5.206
  191SOL     OW 1471   6.120   5.664   6.268
  191SOL    HW1 1472   6.065   5.609   6.205
  191SOL    HW2 1473   6.167   5.736   6.216
  192SOL     OW 1474   6.409   0.058   1.708
  192SOL    HW1 1475   6.459   0.105   1.781
  192SOL    HW2 1476   6.322   0.106   1.692
  193SOL     OW 1477   5.122   3.342   6.799
  193SOL    HW1 1478   5.181   3.266   6.825
  193SOL    HW2 1479   5.175   3.409   6.747
  194SOL     OW 1480   2.947   0.948   3.057
  194SOL    HW1 1481   2.951   0.848   3.052
  194SOL    HW2 1482   2.983   0.988   2.973
  195SOL     OW 1483   1.623   5.383   3.821
  195SOL    HW1 1484   1.635   5.467   3.769
  195SOL    HW2 1485   1.528   5.376   3.853
  196SOL     OW 1486   1.564   1.842   6.775
  196SOL    HW1 1487   1.482   1.791   6.750
  196SOL    HW2 1488   1.585   1.909   6.703
  197SOL     OW 1489   1.844   1.285   1.279
  197SOL    HW1 1490   1.943   1.272   1.281
  197SOL    HW2 1491   1.819   1.362   1.337
  198SOL     OW 1492   4.017   1.396   3.158
  198SOL    HW1 1493   4.089   1.459   3.129
  198SOL    HW2 1494   4.059   1.319   3.208
  199SOL     OW 1495   1.213   2.601   4.258
  199SOL    HW1 1496   1.152   2.550   4.318
  199SOL    HW2 1497   1.287   2.642   4.312
  200SOL     OW 1498   0.229   2.686   0.692
  200SOL    HW1 1499   0.141   2.732   0.679
  200SOL    HW2 1500   0.287   2.742   0.751
  201SOL     OW 1501   0.829   0.322   5.784
  201SOL    HW1 1502   0.830   0.366   5.693
  201SOL    HW2 1503   0.915   0.341   5.831
  202SOL     OW 1504   4.671   0.269   6.184
  202SOL    HW1 1505   4.646   0.352   6.233
  202SOL    HW2 1506   4.588   0.223   6.152
  203SOL     OW 1507   5.409   3.086   5.246
  203SOL    HW1 1508   5.464   3.024   5.191
  203SOL    HW2 1509   5.395   3.047   5.337
  204SOL     OW 1510   0.138   0.495   5.958
  204SOL    HW1 1511   0.194   0.559   6.010
  204SOL    HW2 1512   0.168   0.495   5.862
  205SOL     OW 1513   0.894   2.875   2.295
  205SOL    HW1 1514   0.977   2.827   2.267
  205SOL    HW2 1515   0.815   2.838   2.246
  206SOL     OW 1516   0.325   3.289   0.866
  206SOL    HW1 1517   0.231   3.300   0.900
  206SOL    HW2 1518   0.389   3.308   0.940
  207SOL     OW 1519   4.856   1.977   3.638
  207SOL    HW1 1520   4.785   1.917   3.600
  207SOL    HW2 1521   4.928   1.991   3.570
  208SOL     OW 1522   0.968   4.057   4.739
  208SOL    HW1 1523   1.046   4.001   4.765
  208SOL    HW2 1524   0.929   4.023   4.653
  209SOL     OW 1525   6.816   4.654   2.457
  209SOL    HW1 1526   6.824   4.556   2.474
  209SOL    HW2 1527   6.840   4.673   2.362
  210SOL     OW 1528   4.475   2.309   0.057
  210SOL    HW1 1529   4.504   2.400   0.030
  210SOL    HW2 1530   4.526   2.280   0.138
  211SOL     OW 1531   1.549   0.522   3.330
  211SOL    HW1 1532   1.546   0.571   3.417
  211SOL    HW2 1533   1.477   0.558   3.270
  212SOL     OW 1534   1.595   4.070   3.351
  212SOL    HW1 1535   1.509   4.032   3.319
  212SOL    HW2 1536   1.642   4.004   3.409
  213SOL     OW 1537   1.875   5.437   1.061
  213SOL    HW1 1538   1.941   5.450   1.135
  213SOL    HW2 1539   1.782   5.437   1.098
  214SOL     OW 1540   4.482   5.921   2.520
  214SOL    HW1 1541   4.559   5.902   2.460
  214SOL    HW2 1542   4.447   5.835   2.558
  215SOL     OW 1543   2.464   5.026   2.002
  215SOL    HW1 1544   2.547   4.973   2.021
  215SOL    HW2 1545   2.394   5.001   2.069
  216SOL     OW 1546   1.516   0.000   2.474
  216SOL    HW1 1547   1.484   6.947   2.418
  216SOL    HW2 1548   1.530   6.994   2.568
  217SOL     OW 1549   1.250   3.699   6.291
  217SOL    HW1 1550   1.183   3.718   6.363
  217SOL    HW2 1551   1.203   3.667   6.209
  218SOL     OW 1552   0.865   2.224   5.607
  218SOL    HW1 1553   0.853   2.317   5.642
  218SOL    HW2 1554   0.961   2.211   5.581
  219SOL     OW 1555   4.037   0.412   0.570
  219SOL    HW1 1556   4.112   0.440   0.631
  219SOL    HW2 1557   3.965   0.368   0.624
  220SOL     OW 1558   3.315   0.230   0.694
  220SOL    HW1 1559   3.279   0.165   0.628
  220SOL    HW2 1560   3.305   0.194   0.786
  221SOL     OW 1561   5.278   5.203   1.062
  221SOL    HW1 1562   5.281   5.283   1.003
  221SOL    HW2 1563   5.240   5.125   1.012
  222SOL     OW 1564   2.235   4.381   6.443
  222SOL    HW1 1565   2.167   4.311   6.465
  222SOL    HW2 1566   2.327   4.341   6.449
  223SOL     OW 1567   6.387   2.748   5.216
  223SOL    HW1 1568   6.306   2.807   5.215
  223SOL    HW2 1569   6.442   2.767   5.297
  224SOL     OW 1570   2.428   1.655   5.940
  224SOL    HW1 1571   2.356   1.663   5.870
  224SOL    HW2 1572   2.501   1.596   5.905
  225SOL     OW 1573   5.035   3.815   6.021
  225SOL    HW1 1574   5.109   3.819   5.953
  225SOL    HW2 1575   5.024   3.906   6.063
  226SOL     OW 1576   1.028   1.576   6.395
  226SOL    HW1 1577   1.083   1.495   6.412
  226SOL    HW2 1578   1.063   1.624   6.314
  227SOL     OW 1579   2.245   3.977   2.107
  227SOL    HW1 1580   2.218   3.881   2.105
  227SOL    HW2 1581   2.328   3.990   2.052
  228SOL     OW 1582   1.502   0.645   2.800
  228SOL    HW1 1583   1.496   0.620   2.703
  228SOL    HW2 1584   1.511   0.562   2.856
  229SOL     OW 1585   5.302   4.661   6.673
  229SOL    HW1 1586   5.388   4.688   6.716
  229SOL    HW2 1587   5.226   4.709   6.717
  230SOL     OW 1588   4.653   5.991   4.750
  230SOL    HW1 1589   4.562   6.002   4.792
  230SOL    HW2 1590   4.673   5.893   4.741
  231SOL     OW 1591   4.929   1.501   0.278
  231SOL    HW1 1592   4.954   1.549   0.193
  231SOL    HW2 1593   4.903   1.407   0.257
  232SOL     OW 1594   1.339   2.186   6.096
  232SOL    HW1 1595   1.371   2.253   6.029
  232SOL    HW2 1596   1.305   2.105   6.048
  233SOL     OW 1597   2.826   1.618   3.650
  233SOL    HW1 1598   2.896   1.560   3.609
  233SOL    HW2 1599   2.857   1.649   3.740
  234SOL     OW 1600   5.487   1.199   6.449
  234SOL    HW1 1601   5.466   1.257   6.528
  234SOL    HW2 1602   5.465   1.104   6.471
  235SOL     OW 1603   4.942   3.161   2.093
  235SOL    HW1 1604   4.871   3.124   2.153
  235SOL    HW2 1605   5.007   3.089   2.070
  236SOL     OW 1606   4.396   3.693   6.367
  236SOL    HW1 1607   4.444   3.774   6.401
  236SOL    HW2 1608   4.386   3.700   6.268
  237SOL     OW 1609   6.213   4.160   2.541
  237SOL    HW1 1610   6.189   4.255   2.523
  237SOL    HW2 1611   6.283   4.131   2.476
  238SOL     OW 1612   6.025   1.659   0.346
  238SOL    HW1 1613   5.939   1.710   0.351
  238SOL    HW2 1614   6.013   1.569   0.387
  239SOL     OW 1615   1.298   3.871   0.611
  239SOL    HW1 1616   1.281   3.833   0.520
  239SOL    HW2 1617   1.278   3.968   0.611
  240SOL     OW 1618   6.352   3.824   3.190
  240SOL    HW1 1619   6.302   3.907   3.216
  240SOL    HW2 1620   6.371   3.826   3.091
  241SOL     OW 1621   2.983   1.593   4.037
  241SOL    HW1 1622   2.986   1.639   4.126
  241SOL    HW2 1623   2.900   1.539   4.030
  242SOL     OW 1624   3.317   3.828   3.767
  242SOL    HW1 1625   3.238   3.882   3.797
  242SOL    HW2 1626   3.315   3.739   3.812
  243SOL     OW 1627   4.579   3.047   6.397
  243SOL    HW1 1628   4.676   3.039   6.419
  243SOL    HW2 1629   4.524   3.024   6.477
  244SOL     OW 1630   6.349   3.499   6.195
  244SOL    HW1 1631   6.405   3.519   6.114
  244SOL    HW2 1632   6.333   3.400   6.200
  245SOL     OW 1633   3.136   1.780   2.781
  245SOL    HW1 1634   3.174   1.707   2.723
  245SOL    HW2 1635   3.037   1.771   2.785
  246SOL     OW 1636   6.042   1.534   3.479
  246SOL    HW1 1637   6.067   1.625   3.446
  246SOL    HW2 1638   6.115   1.498   3.536
  247SOL     OW 1639   2.233   1.635   0.740
  247SOL    HW1 1640   2.157   1.590   0.694
  247SOL    HW2 1641   2.273   1.703   0.678
  248SOL     OW 1642   2.183   1.388   2.216
  248SOL    HW1 1643   2.143   1.405   2.126
  248SOL    HW2 1644   2.278   1.420   2.217
  249SOL     OW 1645   5.554   6.934   4.652
  249SOL    HW1 1646   5.589   6.842   4.664
  249SOL    HW2 1647   5.516   6.944   4.560
  250SOL     OW 1648   3.690   2.672   0.551
  250SOL    HW1 1649   3.704   2.636   0.643
  250SOL    HW2 1650   3.599   2.647   0.519
  251SOL     OW 1651   4.263   3.900   5.450
  251SOL    HW1 1652   4.181   3.850   5.478
  251SOL    HW2 1653   4.326   3.837   5.404
  252SOL     OW 1654   5.788   6.605   5.759
  252SOL    HW1 1655   5.770   6.524   5.816
  252SOL    HW2 1656   5.792   6.686   5.818
  253SOL     OW 1657   4.217   5.283   5.689
  253SOL    HW1 1658   4.139   5.246   5.639
  253SOL    HW2 1659   4.271   5.208   5.727
  254SOL     OW 1660   6.272   2.958   4.212
  254SOL    HW1 1661   6.201   2.991   4.274
  254SOL    HW2 1662   6.326   3.035   4.178
  255SOL     OW 1663   1.977   4.672   5.985
  255SOL    HW1 1664   1.967   4.604   6.057
  255SOL    HW2 1665   2.012   4.628   5.902
  256SOL     OW 1666   4.634   3.052   5.699
  256SOL    HW1 1667   4.693   3.022   5.774
  256SOL    HW2 1668   4.619   3.151   5.707
  257SOL     OW 1669   4.702   6.200   2.798
  257SOL    HW1 1670   4.735   6.278   2.851
  257SOL    HW2 1671   4.693   6.227   2.702
  258SOL     OW 1672   2.748   3.593   6.187
  258SOL    HW1 1673   2.672   3.614   6.125
  258SOL    HW2 1674   2.797   3.677   6.211
  259SOL     OW 1675   4.355   0.172   2.399
  259SOL    HW1 1676   4.313   0.089   2.434
  259SOL    HW2 1677   4.345   0.175   2.299
  260SOL     OW 1678   4.186   5.202   3.727
  260SOL    HW1 1679   4.217   5.119   3.772
  260SOL    HW2 1680   4.216   5.201   3.631
  261SOL     OW 1681   4.898   5.006   0.705
  261SOL    HW1 1682   4.908   4.925   0.762
  261SOL    HW2 1683   4.927   5.087   0.756
  262SOL     OW 1684   2.051   3.838   0.962
  262SOL    HW1 1685   2.115   3.822   1.037
  262SOL    HW2 1686   2.077   3.780   0.884
  263SOL     OW 1687   1.309   6.921   4.341
  263SOL    HW1 1688   1.403   6.905   4.312
  263SOL    HW2 1689   1.285   6.857   4.414
  264SOL     OW 1690   6.987   2.810   0.135
  264SOL    HW1 1691   6.895   2.810   0.097
  264SOL    HW2 1692   0.009   2.725   0.111
  265SOL     OW 1693   5.937   6.876   4.041
  265SOL    HW1 1694   5.936   6.975   4.032
  265SOL    HW2 1695   5.865   6.847   4.104
  266SOL     OW 1696   5.179   2.202   5.415
  266SOL    HW1 1697   5.130   2.114   5.410
  266SOL    HW2 1698   5.118   2.275   5.385
  267SOL     OW 1699   1.213   0.675   5.300
  267SOL    HW1 1700   1.296   0.618   5.296
  267SOL    HW2 1701   1.219   0.737   5.378
  268SOL     OW 1702   3.933   1.181   0.887
  268SOL    HW1 1703   3.869   1.150   0.957
  268SOL    HW2 1704   3.884   1.192   0.800
  269SOL     OW 1705   3.332   2.093   0.162
  269SOL    HW1 1706   3.246   2.080   0.113
  269SOL    HW2 1707   3.350   2.191   0.171
  270SOL     OW 1708   0.563   6.768   7.010
  270SOL    HW1 1709   0.587   6.697   0.052
  270SOL    HW2 1710   0.477   6.744   6.965
  271SOL     OW 1711   0.290   1.800   6.326
  271SOL    HW1 1712   0.381   1.838   6.314
  271SOL    HW2 1713   0.225   1.874   6.346
  272SOL     OW 1714   3.073   6.023   3.926
  272SOL    HW1 1715   3.126   5.944   3.956
  272SOL    HW2 1716   3.135   6.098   3.902
  273SOL     OW 1717   1.918   4.951   5.545
  273SOL    HW1 1718   1.841   5.004   5.509
  273SOL    HW2 1719   1.956   4.997   5.625
  274SOL     OW 1720   3.674   1.197   4.388
  274SOL    HW1 1721   3.599   1.173   4.450
  274SOL    HW2 1722   3.685   1.124   4.321
  275SOL     OW 1723   0.495   6.817   2.976
  275SOL    HW1 1724   0.457   6.832   2.885
  275SOL    HW2 1725   0.457   6.733   3.015
  276SOL     OW 1726   0.484   0.205   4.533
  276SOL    HW1 1727   0.408   0.164   4.583
  276SOL    HW2 1728   0.567   0.199   4.589
  277SOL     OW 1729   2.489   3.070   0.882
  277SOL    HW1 1730   2.563   3.005   0.898
  277SOL    HW2 1731   2.481   3.131   0.960
  278SOL     OW 1732   7.019   2.625   2.959
  278SOL    HW1 1733   6.952   2.658   3.026
  278SOL    HW2 1734   0.010   2.696   2.890
  279SOL     OW 1735   5.610   2.593   4.291
  279SOL    HW1 1736   5.693   2.551   4.327
  279SOL    HW2 1737   5.559   2.525   4.237
  280SOL     OW 1738   2.131   5.366   1.792
  280SOL    HW1 1739   2.157   5.451   1.747
  280SOL    HW2 1740   2.157   5.370   1.889
  281SOL     OW 1741   2.344   3.880   0.908
  281SOL    HW1 1742   2.396   3.940   0.969
  281SOL    HW2 1743   2.293   3.936   0.843
  282SOL     OW 1744   3.634   1.870   6.027
  282SOL    HW1 1745   3.598   1.866   6.120
  282SOL    HW2 1746   3.572   1.925   5.970
  283SOL     OW 1747   5.412   3.061   6.571
  283SOL    HW1 1748   5.490   3.099   6.619
  283SOL    HW2 1749   5.379   3.127   6.503
  284SOL     OW 1750   0.636   2.819   3.563
  284SOL    HW1 1751   0.702   2.752   3.596
  284SOL    HW2 1752   0.583   2.854   3.641
  285SOL     OW 1753   6.170   4.790   3.807
  285SOL    HW1 1754   6.113   4.741   3.742
  285SOL    HW2 1755   6.197   4.879   3.768
  286SOL     OW 1756   3.408   4.076   6.899
  286SOL    HW1 1757   3.403   4.175   6.914
  286SOL    HW2 1758   3.319   4.035   6.920
  287SOL     OW 1759   1.786   3.677   0.746
  287SOL    HW1 1760   1.785   3.592   0.799
  287SOL    HW2 1761   1.879   3.716   0.747
  288SOL     OW 1762   4.633   1.497   0.223
  288SOL    HW1 1763   4.632   1.528   0.128
  288SOL    HW2 1764   4.712   1.538   0.270
  289SOL     OW 1765   2.497   4.457   5.940
  289SOL    HW1 1766   2.533   4.373   5.980
  289SOL    HW2 1767   2.440   4.434   5.861
  290SOL     OW 1768   0.191   2.454   5.695
  290SOL    HW1 1769   0.131   2.431   5.772
  290SOL    HW2 1770   0.278   2.407   5.706
  291SOL     OW 1771   0.120   1.573   2.720
  291SOL    HW1 1772   0.182   1.640   2.679
  291SOL    HW2 1773   0.122   1.584   2.820
  292SOL     OW 1774   2.098   0.730   3.222
  292SOL    HW1 1775   2.000   0.727   3.202
  292SOL    HW2 1776   2.137   0.638   3.211
  293SOL     OW 1777   4.591   5.298   4.206
  293SOL    HW1 1778   4.551   5.208   4.189
  293SOL    HW2 1779   4.518   5.365   4.220
  294SOL     OW 1780   5.432   6.387   6.417
  294SOL    HW1 1781   5.341   6.384   6.376
  294SOL    HW2 1782   5.487   6.456   6.370
  295SOL     OW 1783   4.895   0.560   3.573
  295SOL    HW1 1784   4.936   0.613   3.500
  295SOL    HW2 1785   4.856   0.621   3.642
  296SOL     OW 1786   3.008   2.046   3.198
  296SOL    HW1 1787   2.953   2.124   3.229
  296SOL    HW2 1788   3.079   2.078   3.136
  297SOL     OW 1789   1.322   3.985   3.632
  297SOL    HW1 1790   1.269   4.060   3.669
  297SOL    HW2 1791   1.407   3.975   3.683
  298SOL     OW 1792   6.312   5.062   1.136
  298SOL    HW1 1793   6.379   5.130   1.108
  298SOL    HW2 1794   6.266   5.093   1.219
  299SOL     OW 1795   6.515   2.401   4.707
  299SOL    HW1 1796   6.483   2.318   4.754
  299SOL    HW2 1797   6.614   2.400   4.702
  300SOL     OW 1798   5.882   0.642   3.019
  300SOL    HW1 1799   5.815   0.570   2.999
  300SOL    HW2 1800   5.935   0.662   2.936
  301SOL     OW 1801   5.758   3.556   6.318
  301SOL    HW1 1802   5.839   3.594   6.271
  301SOL    HW2 1803   5.764   3.575   6.416
  302SOL     OW 1804   0.513   0.079   3.803
  302SOL    HW1 1805   0.514   0.024   3.719
  302SOL    HW2 1806   0.601   0.125   3.814
  303SOL     OW 1807   5.076   0.847   3.143
  303SOL    HW1 1808   5.042   0.906   3.216
  303SOL    HW2 1809   5.169   0.874   3.119
  304SOL     OW 1810   2.390   0.298   3.717
  304SOL    HW1 1811   2.325   0.335   3.651
  304SOL    HW2 1812   2.345   0.232   3.777
  305SOL     OW 1813   1.474   3.441   0.532
  305SOL    HW1 1814   1.401   3.459   0.465
  305SOL    HW2 1815   1.441   3.461   0.624
  306SOL     OW 1816   2.016   0.936   4.269
  306SOL    HW1 1817   2.036   0.895   4.180
  306SOL    HW2 1818   1.966   1.022   4.256
  307SOL     OW 1819   4.181   0.369   1.068
  307SOL    HW1 1820   4.233   0.302   1.121
  307SOL    HW2 1821   4.090   0.333   1.050
  308SOL     OW 1822   1.015   5.954   3.845
  308SOL    HW1 1823   1.053   6.039   3.882
  308SOL    HW2 1824   1.088   5.898   3.808
  309SOL     OW 1825   3.477   5.049   4.934
  309SOL    HW1 1826   3.461   5.145   4.958
  309SOL    HW2 1827   3.444   5.032   4.842
  310SOL     OW 1828   0.443   6.387   5.462
  310SOL    HW1 1829   0.353   6.344   5.471
  310SOL    HW2 1830   0.508   6.342   5.523
  311SOL     OW 1831   0.502   6.641   1.155
  311SOL    HW1 1832   0.529   6.590   1.073
  311SOL    HW2 1833   0.405   6.622   1.175
  312SOL     OW 1834   4.731   2.165   4.962
  312SOL    HW1 1835   4.731   2.258   4.927
  312SOL    HW2 1836   4.645   2.120   4.937
  313SOL     OW 1837   1.686   4.333   1.675
  313SOL    HW1 1838   1.684   4.235   1.692
  313SOL    HW2 1839   1.595   4.366   1.652
  314SOL     OW 1840   3.607   6.299   0.576
  314SOL    HW1 1841   3.558   6.268   0.495
  314SOL    HW2 1842   3.541   6.331   0.644
  315SOL     OW 1843   0.620   2.136   3.284
  315SOL    HW1 1844   0.717   2.157   3.287
  315SOL    HW2 1845   0.570   2.202   3.341
  316SOL     OW 1846   2.494   2.463   3.934
  316SOL    HW1 1847   2.549   2.380   3.949
  316SOL    HW2 1848   2.473   2.506   4.022
  317SOL     OW 1849   6.951   1.671   6.955
  317SOL    HW1 1850   6.962   1.759   7.003
  317SOL    HW2 1851   6.858   1.663   6.921
  318SOL     OW 1852   2.082   4.294   0.600
  318SOL    HW1 1853   2.122   4.246   0.678
  318SOL    HW2 1854   2.102   4.244   0.516
  319SOL     OW 1855   1.834   6.427   0.739
  319SOL    HW1 1856   1.889   6.361   0.790
  319SOL    HW2 1857   1.891   6.505   0.712
  320SOL     OW 1858   6.088   3.704   0.606
  320SOL    HW1 1859   6.103   3.607   0.587
  320SOL    HW2 1860   6.164   3.757   0.569
  321SOL     OW 1861   2.027   2.687   1.216
  321SOL    HW1 1862   1.985   2.645   1.296
  321SOL    HW2 1863   2.104   2.744   1.245
  322SOL     OW 1864   3.717   3.194   5.249
  322SOL    HW1 1865   3.778   3.273   5.241
  322SOL    HW2 1866   3.727   3.136   5.167
  323SOL     OW 1867   0.295   3.780   1.659
  323SOL    HW1 1868   0.332   3.697   1.619
  323SOL    HW2 1869   0.333   3.860   1.612
  324SOL     OW 1870   1.024   2.410   4.676
  324SOL    HW1 1871   0.924   2.418   4.676
  324SOL    HW2 1872   1.057   2.399   4.769
  325SOL     OW 1873   2.179   2.700   1.892
  325SOL    HW1 1874   2.238   2.638   1.841
  325SOL    HW2 1875   2.207   2.795   1.876
  326SOL     OW 1876   1.468   5.036   6.463
  326SOL    HW1 1877   1.527   4.959   6.440
  326SOL    HW2 1878   1.497   5.074   6.551
  327SOL     OW 1879   6.305   5.158   5.168
  327SOL    HW1 1880   6.341   5.221   5.099
  327SOL    HW2 1881   6.356   5.072   5.164
  328SOL     OW 1882   4.024   5.267   2.223
  328SOL    HW1 1883   3.955   5.332   2.191
  328SOL    HW2 1884   4.037   5.278   2.321
  329SOL     OW 1885   3.567   3.581   3.530
  329SOL    HW1 1886   3.665   3.586   3.547
  329SOL    HW2 1887   3.551   3.559   3.434
  330SOL     OW 1888   3.631   0.119   1.793
  330SOL    HW1 1889   3.656   0.207   1.834
  330SOL    HW2 1890   3.535   0.100   1.812
  331SOL     OW 1891   5.080   5.153   5.791
  331SOL    HW1 1892   5.097   5.205   5.707
  331SOL    HW2 1893   5.167   5.128   5.833
  332SOL     OW 1894   3.250   1.943   2.527
  332SOL    HW1 1895   3.264   1.852   2.487
  332SOL    HW2 1896   3.339   1.985   2.546
  333SOL     OW 1897   4.177   5.992   6.403
  333SOL    HW1 1898   4.232   5.971   6.322
  333SOL    HW2 1899   4.096   6.045   6.375
  334SOL     OW 1900   4.179   7.004   2.178
  334SOL    HW1 1901   4.183   6.974   2.273
  334SOL    HW2 1902   4.216   6.933   2.118
  335SOL     OW 1903   2.863   6.842   3.284
  335SOL    HW1 1904   2.871   6.858   3.383
  335SOL    HW2 1905   2.842   6.746   3.267
  336SOL     OW 1906   2.972   0.474   3.790
  336SOL    HW1 1907   2.883   0.433   3.771
  336SOL    HW2 1908   2.967   0.572   3.776
  337SOL     OW 1909   7.016   3.683   1.331
  337SOL    HW1 1910   7.006   3.650   1.425
  337SOL    HW2 1911   6.965   3.624   1.269
  338SOL     OW 1912   3.408   2.767   1.256
  338SOL    HW1 1913   3.417   2.675   1.294
  338SOL    HW2 1914   3.336   2.816   1.304
  339SOL     OW 1915   4.331   6.532   3.224
  339SOL    HW1 1916   4.370   6.548   3.134
  339SOL    HW2 1917   4.270   6.453   3.221
  340SOL     OW 1918   4.918   3.819   4.487
  340SOL    HW1 1919   4.898   3.750   4.557
  340SOL    HW2 1920   4.889   3.909   4.520
  341SOL     OW 1921   5.383   5.071   4.575
  341SOL    HW1 1922   5.443   5.136   4.529
  341SOL    HW2 1923   5.431   4.983   4.585
  342SOL     OW 1924   6.340   4.574   1.027
  342SOL    HW1 1925   6.284   4.657   1.028
  342SOL    HW2 1926   6.392   4.569   0.943
  343SOL     OW 1927   3.103   0.328   2.273
  343SOL    HW1 1928   3.127   0.301   2.366
  343SOL    HW2 1929   3.185   0.362   2.226
  344SOL     OW 1930   2.415   5.033   0.432
  344SOL    HW1 1931   2.434   4.971   0.508
  344SOL    HW2 1932   2.316   5.047   0.424
  345SOL     OW 1933   0.830   0.196   4.969
  345SOL    HW1 1934   0.766   0.126   5.001
  345SOL    HW2 1935   0.906   0.152   4.920
  346SOL     OW 1936   1.250   0.323   2.897
  346SOL    HW1 1937   1.282   0.251   2.836
  346SOL    HW2 1938   1.295   0.314   2.986
  347SOL     OW 1939   4.942   6.745   6.324
  347SOL    HW1 1940   4.880   6.824   6.316
  347SOL    HW2 1941   4.933   6.704   6.414
  348SOL     OW 1942   3.620   5.414   1.539
  348SOL    HW1 1943   3.638   5.497   1.591
  348SOL    HW2 1944   3.524   5.412   1.512
  349SOL     OW 1945   0.953   4.525   2.132
  349SOL    HW1 1946   0.910   4.436   2.150
  349SOL    HW2 1947   0.886   4.597   2.149
  350SOL     OW 1948   4.413   3.588   1.121
  350SOL    HW1 1949   4.423   3.499   1.077
  350SOL    HW2 1950   4.445   3.582   1.216
  351SOL     OW 1951   3.275   1.956   0.376
  351SOL    HW1 1952   3.282   2.005   0.463
  351SOL    HW2 1953   3.315   2.012   0.303
  352SOL     OW 1954   3.089   0.835   6.877
  352SOL    HW1 1955   3.080   0.905   6.805
  352SOL    HW2 1956   3.150   0.763   6.845
  353SOL     OW 1957   2.302   6.296   1.054
  353SOL    HW1 1958   2.265   6.358   0.985
  353SOL    HW2 1959   2.276   6.328   1.145
  354SOL     OW 1960   4.920   1.485   0.912
  354SOL    HW1 1961   4.901   1.542   0.992
  354SOL    HW2 1962   4.834   1.447   0.877
  355SOL     OW 1963   0.175   2.752   2.490
  355SOL    HW1 1964   0.132   2.794   2.410
  355SOL    HW2 1965   0.161   2.653   2.486
  356SOL     OW 1966   4.066   5.437   3.596
  356SOL    HW1 1967   4.064   5.530   3.633
  356SOL    HW2 1968   4.113   5.377   3.660
  357SOL     OW 1969   0.159   5.313   5.540
  357SOL    HW1 1970   0.174   5.383   5.610
  357SOL    HW2 1971   0.116   5.353   5.460
  358SOL     OW 1972   5.399   0.401   1.184
  358SOL    HW1 1973   5.459   0.362   1.114
  358SOL    HW2 1974   5.392   0.500   1.171
  359SOL     OW 1975   1.328   1.456   1.697
  359SOL    HW1 1976   1.267   1.444   1.776
  359SOL    HW2 1977   1.371   1.369   1.675
  360SOL     OW 1978   4.088   6.938   0.147
  360SOL    HW1 1979   4.164   6.872   0.147
  360SOL    HW2 1980   4.106   7.009   0.078
  361SOL     OW 1981   4.772   0.162   2.237
  361SOL    HW1 1982   4.721   0.128   2.316
  361SOL    HW2 1983   4.870   0.159   2.258
  362SOL     OW 1984   3.082   3.376   0.786
  362SOL    HW1 1985   3.101   3.465   0.745
  362SOL    HW2 1986   3.167   3.336   0.821
  363SOL     OW 1987   4.426   4.784   4.291
  363SOL    HW1 1988   4.475   4.771   4.377
  363SOL    HW2 1989   4.327   4.778   4.308
  364SOL     OW 1990   1.198   5.452   5.816
  364SOL    HW1 1991   1.276   5.479   5.873
  364SOL    HW2 1992   1.231   5.415   5.729
  365SOL     OW 1993   4.572   6.313   1.758
  365SOL    HW1 1994   4.615   6.318   1.668
  365SOL    HW2 1995   4.636   6.272   1.823
  366SOL     OW 1996   6.039   0.945   6.901
  366SOL    HW1 1997   6.006   0.920   6.810
  366SOL    HW2 1998   5.979   1.014   6.940
  367SOL     OW 1999   5.355   2.729   0.987
  367SOL    HW1 2000   5.354   2.630   0.974
  367SOL    HW2 2001   5.383   2.750   1.081
  368SOL     OW 2002   1.129   4.903   4.864
  368SOL    HW1 2003   1.092   4.993   4.840
  368SOL    HW2 2004   1.228   4.902   4.849
  369SOL     OW 2005   1.137   3.813   2.095
  369SOL    HW1 2006   1.112   3.716   2.095
  369SOL    HW2 2007   1.235   3.822   2.076
  370SOL     OW 2008   3.896   1.100   5.522
  370SOL    HW1 2009   3.890   1.197   5.500
  370SOL    HW2 2010   3.804   1.062   5.533
  371SOL     OW 2011   4.059   2.782   6.992
  371SOL    HW1 2012   3.997   2.731   6.932
  371SOL    HW2 2013   4.013   2.798   0.056
  372SOL     OW 2014   0.667   6.139   6.345
  372SOL    HW1 2015   0.578   6.182   6.355
  372SOL    HW2 2016   0.673   6.094   6.255
  373SOL     OW 2017   0.129   7.015   0.108
  373SOL    HW1 2018   0.102   6.968   0.024
  373SOL    HW2 2019   0.061   6.998   0.179
  374SOL     OW 2020   3.118   1.057   1.446
  374SOL    HW1 2021   3.073   1.118   1.512
  374SOL    HW2 2022   3.203   1.100   1.414
  375SOL     OW 2023   6.794   4.593   2.981
  375SOL    HW1 2024   6.881   4.639   2.960
  375SOL    HW2 2025   6.740   4.650   3.043
  376SOL     OW 2026   2.254   2.798   3.680
  376SOL    HW1 2027   2.192   2.721   3.667
  376SOL    HW2 2028   2.324   2.796   3.608
  377SOL     OW 2029   4.924   1.536   3.850
  377SOL    HW1 2030   4.965   1.550   3.760
  377SOL    HW2 2031   4.996   1.534   3.919
  378SOL     OW 2032   5.137   2.983   4.739
  378SOL    HW1 2033   5.147   3.041   4.820
  378SOL    HW2 2034   5.224   2.979   4.690
  379SOL     OW 2035   6.406   3.913   1.166
  379SOL    HW1 2036   6.387   3.921   1.068
  379SOL    HW2 2037   6.495   3.869   1.180
  380SOL     OW 2038   1.046   2.414   1.153
  380SOL    HW1 2039   1.018   2.411   1.057
  380SOL    HW2 2040   1.146   2.416   1.159
  381SOL     OW 2041   3.705   3.530   1.032
  381SOL    HW1 2042   3.764   3.527   1.112
  381SOL    HW2 2043   3.625   3.471   1.046
  382SOL     OW 2044   2.793   6.161   0.615
  382SOL    HW1 2045   2.751   6.108   0.541
  382SOL    HW2 2046   2.752   6.136   0.702
  383SOL     OW 2047   6.206   2.727   0.086
  383SOL    HW1 2048   6.276   2.717   0.015
  383SOL    HW2 2049   6.215   2.817   0.129
  384SOL     OW 2050   1.716   5.833   5.224
  384SOL    HW1 2051   1.664   5.748   5.219
  384SOL    HW2 2052   1.744   5.850   5.319
  385SOL     OW 2053   4.461   5.540   0.509
  385SOL    HW1 2054   4.361   5.534   0.505
  385SOL    HW2 2055   4.501   5.459   0.466
  386SOL     OW 2056   3.407   6.416   5.977
  386SOL    HW1 2057   3.447   6.411   5.885
  386SOL    HW2 2058   3.447   6.344   6.034
  387SOL     OW 2059   0.316   0.667   5.448
  387SOL    HW1 2060   0.399   0.716   5.419
  387SOL    HW2 2061   0.265   0.638   5.367
  388SOL     OW 2062   6.770   2.407   4.748
  388SOL    HW1 2063   6.815   2.475   4.807
  388SOL    HW2 2064   6.788   2.315   4.784
  389SOL     OW 2065   4.192   4.440   1.404
  389SOL    HW1 2066   4.189   4.383   1.487
  389SOL    HW2 2067   4.287   4.454   1.378
  390SOL     OW 2068   3.580   1.956   0.155
  390SOL    HW1 2069   3.620   1.987   0.242
  390SOL    HW2 2070   3.481   1.956   0.162
  391SOL     OW 2071   3.237   4.538   5.329
  391SOL    HW1 2072   3.183   4.455   5.334
  391SOL    HW2 2073   3.182   4.611   5.288
  392SOL     OW 2074   1.463   3.486   1.599
  392SOL    HW1 2075   1.522   3.515   1.523
  392SOL    HW2 2076   1.519   3.451   1.674
  393SOL     OW 2077   1.301   4.122   1.795
  393SOL    HW1 2078   1.390   4.145   1.836
  393SOL    HW2 2079   1.238   4.198   1.807
  394SOL     OW 2080   0.151   1.185   6.637
  394SOL    HW1 2081   0.180   1.113   6.700
  394SOL    HW2 2082   0.085   1.148   6.572
  395SOL     OW 2083   5.312   4.657   1.041
  395SOL    HW1 2084   5.218   4.663   1.006
  395SOL    HW2 2085   5.344   4.563   1.035
  396SOL     OW 2086   1.843   1.134   1.571
  396SOL    HW1 2087   1.816   1.156   1.665
  396SOL    HW2 2088   1.775   1.172   1.507
  397SOL     OW 2089   4.411   2.170   5.190
  397SOL    HW1 2090   4.316   2.143   5.205
  397SOL    HW2 2091   4.431   2.171   5.092
  398SOL     OW 2092   1.413   1.553   4.582
  398SOL    HW1 2093   1.510   1.561   4.559
  398SOL    HW2 2094   1.380   1.463   4.557
  399SOL     OW 2095   6.003   6.247   4.028
  399SOL    HW1 2096   5.947   6.187   3.971
  399SOL    HW2 2097   5.955   6.334   4.043
  400SOL     OW 2098   6.074   0.334   4.482
  400SOL    HW1 2099   6.013   0.411   4.500
  400SOL    HW2 2100   6.169   0.363   4.496
  401SOL     OW 2101   0.105   4.828   5.801
  401SOL    HW1 2102   0.023   4.813   5.857
  401SOL    HW2 2103   0.141   4.919   5.820
  402SOL     OW 2104   6.111   0.904   3.107
  402SOL    HW1 2105   6.018   0.907   3.068
  402SOL    HW2 2106   6.147   0.811   3.097
  403SOL     OW 2107   2.969   1.156   5.194
  403SOL    HW1 2108   2.999   1.061   5.186
  403SOL    HW2 2109   2.979   1.187   5.288
  404SOL     OW 2110   3.352   5.506   3.587
  404SOL    HW1 2111   3.352   5.412   3.622
  404SOL    HW2 2112   3.444   5.530   3.558
  405SOL     OW 2113   2.306   4.841   4.498
  405SOL    HW1 2114   2.386   4.861   4.442
  405SOL    HW2 2115   2.225   4.884   4.457
  406SOL     OW 2116   0.023   5.896   5.339
  406SOL    HW1 2117   0.043   5.962   5.267
  406SOL    HW2 2118   0.023   5.942   5.427
  407SOL     OW 2119   1.801   3.166   4.301
  407SOL    HW1 2120   1.899   3.153   4.317
  407SOL    HW2 2121   1.750   3.093   4.345
  408SOL     OW 2122   2.535   1.574   3.707
  408SOL    HW1 2123   2.634   1.590   3.703
  408SOL    HW2 2124   2.501   1.551   3.616
  409SOL     OW 2125   0.511   3.402   2.568
  409SOL    HW1 2126   0.479   3.490   2.602
  409SOL    HW2 2127   0.590   3.372   2.621
  410SOL     OW 2128   1.442   1.029   1.416
  410SOL    HW1 2129   1.395   0.966   1.478
  410SOL    HW2 2130   1.537   0.998   1.404
  411SOL     OW 2131   0.009   2.963   1.565
  411SOL    HW1 2132   0.073   2.899   1.607
  411SOL    HW2 2133   6.995   3.023   1.635
  412SOL     OW 2134   1.391   5.135   2.479
  412SOL    HW1 2135   1.313   5.168   2.426
  412SOL    HW2 2136   1.363   5.121   2.574
  413SOL     OW 2137   5.727   6.113   2.623
  413SOL    HW1 2138   5.721   6.209   2.595
  413SOL    HW2 2139   5.815   6.097   2.669
  414SOL     OW 2140   1.799   6.528   3.458
  414SOL    HW1 2141   1.851   6.603   3.418
  414SOL    HW2 2142   1.718   6.510   3.403
  415SOL     OW 2143   6.031   1.003   0.264
  415SOL    HW1 2144   5.994   0.925   0.313
  415SOL    HW2 2145   6.131   0.995   0.258
  416SOL     OW 2146   5.488   3.373   4.931
  416SOL    HW1 2147   5.541   3.458   4.928
  416SOL    HW2 2148   5.393   3.393   4.954
  417SOL     OW 2149   2.103   2.096   6.301
  417SOL    HW1 2150   2.167   2.090   6.225
  417SOL    HW2 2151   2.029   2.030   6.288
  418SOL     OW 2152   4.007   6.808   4.741
  418SOL    HW1 2153   3.915   6.785   4.708
  418SOL    HW2 2154   4.056   6.724   4.765
  419SOL     OW 2155   0.241   0.158   0.761
  419SOL    HW1 2156   0.177   0.146   0.836
  419SOL    HW2 2157   0.326   0.108   0.781
  420SOL     OW 2158   4.330   0.690   6.828
  420SOL    HW1 2159   4.358   0.776   6.784
  420SOL    HW2 2160   4.411   0.642   6.862
  421SOL     OW 2161   5.129   3.945   2.591
  421SOL    HW1 2162   5.035   3.959   2.623
  421SOL    HW2 2163   5.143   3.849   2.569
  422SOL     OW 2164   5.010   3.126   1.752
  422SOL    HW1 2165   5.083   3.179   1.795
  422SOL    HW2 2166   4.981   3.053   1.814
  423SOL     OW 2167   3.548   1.060   6.537
  423SOL    HW1 2168   3.586   1.110   6.616
  423SOL    HW2 2169   3.561   1.113   6.454
  424SOL     OW 2170   1.065   3.839   3.879
  424SOL    HW1 2171   1.060   3.840   3.979
  424SOL    HW2 2172   1.077   3.744   3.847
  425SOL     OW 2173   2.770   0.967   6.192
  425SOL    HW1 2174   2.690   1.009   6.235
  425SOL    HW2 2175   2.798   1.020   6.112
  426SOL     OW 2176   2.617   2.159   4.147
  426SOL    HW1 2177   2.595   2.167   4.050
  426SOL    HW2 2178   2.647   2.248   4.182
  427SOL     OW 2179   4.041   2.068   2.899
  427SOL    HW1 2180   3.973   2.038   2.965
  427SOL    HW2 2181   4.103   2.134   2.942
  428SOL     OW 2182   2.996   2.127   5.943
  428SOL    HW1 2183   3.049   2.059   5.892
  428SOL    HW2 2184   3.009   2.216   5.901
  429SOL     OW 2185   0.370   5.542   4.314
  429SOL    HW1 2186   0.455   5.576   4.273
  429SOL    HW2 2187   0.311   5.504   4.242
  430SOL     OW 2188   1.524   0.090   3.640
  430SOL    HW1 2189   1.537   7.020   3.673
  430SOL    HW2 2190   1.574   0.152   3.700
  431SOL     OW 2191   2.358   1.683   1.313
  431SOL    HW1 2192   2.441   1.685   1.369
  431SOL    HW2 2193   2.376   1.725   1.225
  432SOL     OW 2194   4.873   1.959   1.425
  432SOL    HW1 2195   4.897   1.886   1.361
  432SOL    HW2 2196   4.864   2.045   1.374
  433SOL     OW 2197   1.390   5.225   0.962
  433SOL    HW1 2198   1.366   5.316   0.928
  433SOL    HW2 2199   1.385   5.224   1.062
  434SOL     OW 2200   4.780   5.645   3.734
  434SOL    HW1 2201   4.774   5.678   3.828
  434SOL    HW2 2202   4.797   5.722   3.673
  435SOL     OW 2203   3.889   1.887   5.901
  435SOL    HW1 2204   3.945   1.822   5.952
  435SOL    HW2 2205   3.797   1.890   5.941
  436SOL     OW 2206   4.882   6.781   2.803
  436SOL    HW1 2207   4.894   6.756   2.707
  436SOL    HW2 2208   4.791   6.819   2.817
  437SOL     OW 2209   6.386   0.729   4.941
  437SOL    HW1 2210   6.307   0.754   4.997
  437SOL    HW2 2211   6.440   0.660   4.988
  438SOL     OW 2212   0.320   4.462   2.395
  438SOL    HW1 2213   0.317   4.405   2.477
  438SOL    HW2 2214   0.237   4.448   2.341
  439SOL     OW 2215   0.151   0.568   4.841
  439SOL    HW1 2216   0.076   0.556   4.907
  439SOL    HW2 2217   0.199   0.481   4.828
  440SOL     OW 2218   4.081   1.389   0.737
  440SOL    HW1 2219   4.087   1.487   0.754
  440SOL    HW2 2220   4.058   1.342   0.822
  441SOL     OW 2221   0.299   4.339   2.636
  441SOL    HW1 2222   0.255   4.407   2.695
  441SOL    HW2 2223   0.311   4.253   2.687
  442SOL     OW 2224   5.527   2.772   5.400
  442SOL    HW1 2225   5.489   2.747   5.311
  442SOL    HW2 2226   5.460   2.825   5.451
  443SOL     OW 2227   5.198   3.274   1.852
  443SOL    HW1 2228   5.200   3.286   1.951
  443SOL    HW2 2229   5.266   3.333   1.809
  444SOL     OW 2230   4.214   1.228   1.743
  444SOL    HW1 2231   4.186   1.296   1.675
  444SOL    HW2 2232   4.189   1.259   1.834
  445SOL     OW 2233   1.520   5.413   2.785
  445SOL    HW1 2234   1.619   5.415   2.801
  445SOL    HW2 2235   1.487   5.319   2.790
  446SOL     OW 2236   5.403   6.870   1.436
  446SOL    HW1 2237   5.419   6.772   1.438
  446SOL    HW2 2238   5.485   6.917   1.402
  447SOL     OW 2239   6.052   4.521   0.969
  447SOL    HW1 2240   6.145   4.487   0.960
  447SOL    HW2 2241   6.031   4.536   1.066
  448SOL     OW 2242   2.732   0.027   3.156
  448SOL    HW1 2243   2.799   6.995   3.205
  448SOL    HW2 2244   2.640   0.001   3.185
  449SOL     OW 2245   1.576   3.875   4.939
  449SOL    HW1 2246   1.659   3.930   4.934
  449SOL    HW2 2247   1.512   3.916   5.004
  450SOL     OW 2248   0.439   5.047   3.839
  450SOL    HW1 2249   0.430   5.094   3.927
  450SOL    HW2 2250   0.531   5.009   3.831
  451SOL     OW 2251   1.182   2.025   1.438
  451SOL    HW1 2252   1.098   2.058   1.394
  451SOL    HW2 2253   1.236   1.974   1.372
  452SOL     OW 2254   4.724   5.906   2.328
  452SOL    HW1 2255   4.674   5.944   2.250
  452SOL    HW2 2256   4.823   5.913   2.311
  453SOL     OW 2257   3.263   0.966   6.198
  453SOL    HW1 2258   3.181   0.973   6.256
  453SOL    HW2 2259   3.242   1.000   6.107
  454SOL     OW 2260   6.740   3.543   6.444
  454SOL    HW1 2261   6.655   3.557   6.494
  454SOL    HW2 2262   6.762   3.445   6.444
  455SOL     OW 2263   5.778   4.932   5.861
  455SOL    HW1 2264   5.727   4.877   5.794
  455SOL    HW2 2265   5.830   4.871   5.921
  456SOL     OW 2266   2.622   1.042   2.722
  456SOL    HW1 2267   2.560   0.970   2.689
  456SOL    HW2 2268   2.611   1.052   2.821
  457SOL     OW 2269   2.175   6.684   7.022
  457SOL    HW1 2270   2.118   6.767   0.000
  457SOL    HW2 2271   2.245   6.690   0.070
  458SOL     OW 2272   2.795   1.759   3.401
  458SOL    HW1 2273   2.804   1.852   3.365
  458SOL    HW2 2274   2.839   1.754   3.490
  459SOL     OW 2275   4.041   0.105   3.249
  459SOL    HW1 2276   3.946   0.113   3.278
  459SOL    HW2 2277   4.101   0.132   3.325
  460SOL     OW 2278   0.838   1.384   6.185
  460SOL    HW1 2279   0.800   1.379   6.277
  460SOL    HW2 2280   0.767   1.358   6.119
  461SOL     OW 2281   1.072   4.851   5.477
  461SOL    HW1 2282   1.029   4.938   5.454
  461SOL    HW2 2283   1.013   4.776   5.449
  462SOL     OW 2284   3.533   4.163   4.459
  462SOL    HW1 2285   3.472   4.240   4.440
  462SOL    HW2 2286   3.599   4.154   4.384
  463SOL     OW 2287   5.178   6.429   3.409
  463SOL    HW1 2288   5.146   6.361   3.344
  463SOL    HW2 2289   5.174   6.391   3.502
  464SOL     OW 2290   3.948   5.280   6.518
  464SOL    HW1 2291   3.919   5.200   6.465
  464SOL    HW2 2292   4.047   5.287   6.518
  465SOL     OW 2293   0.836   3.600   0.954
  465SOL    HW1 2294   0.915   3.550   0.989
  465SOL    HW2 2295   0.865   3.666   0.885
  466SOL     OW 2296   4.213   5.535   4.704
  466SOL    HW1 2297   4.277   5.608   4.729
  466SOL    HW2 2298   4.166   5.502   4.786
  467SOL     OW 2299   5.959   6.636   1.920
  467SOL    HW1 2300   6.018   6.590   1.987
  467SOL    HW2 2301   6.008   6.712   1.878
  468SOL     OW 2302   2.745   6.240   6.554
  468SOL    HW1 2303   2.676   6.264   6.622
  468SOL    HW2 2304   2.821   6.305   6.559
  469SOL     OW 2305   3.423   5.004   4.656
  469SOL    HW1 2306   3.377   5.054   4.583
  469SOL    HW2 2307   3.360   4.938   4.697
  470SOL     OW 2308   2.408   4.390   2.648
  470SOL    HW1 2309   2.367   4.325   2.585
  470SOL    HW2 2310   2.428   4.345   2.735
  471SOL     OW 2311   1.445   2.316   4.212
  471SOL    HW1 2312   1.483   2.380   4.145
  471SOL    HW2 2313   1.466   2.347   4.304
  472SOL     OW 2314   5.744   3.600   6.602
  472SOL    HW1 2315   5.685   3.680   6.594
  472SOL    HW2 2316   5.838   3.629   6.623
  473SOL     OW 2317   6.383   2.874   1.908
  473SOL    HW1 2318   6.292   2.867   1.866
  473SOL    HW2 2319   6.443   2.927   1.849
  474SOL     OW 2320   4.640   6.399   4.026
  474SOL    HW1 2321   4.581   6.457   3.970
  474SOL    HW2 2322   4.705   6.456   4.075
  475SOL     OW 2323   5.521   1.880   0.149
  475SOL    HW1 2324   5.567   1.966   0.126
  475SOL    HW2 2325   5.434   1.901   0.194
  476SOL     OW 2326   0.853   4.233   0.993
  476SOL    HW1 2327   0.753   4.235   1.004
  476SOL    HW2 2328   0.877   4.169   0.921
  477SOL     OW 2329   1.674   4.730   3.847
  477SOL    HW1 2330   1.710   4.715   3.939
  477SOL    HW2 2331   1.587   4.778   3.854
  478SOL     OW 2332   5.059   6.288   2.261
  478SOL    HW1 2333   5.067   6.211   2.324
  478SOL    HW2 2334   5.016   6.258   2.176
  479SOL     OW 2335   3.103   4.001   3.370
  479SOL    HW1 2336   3.117   3.977   3.466
  479SOL    HW2 2337   3.013   4.044   3.360
  480SOL     OW 2338   1.017   0.902   2.801
  480SOL    HW1 2339   0.987   0.808   2.789
  480SOL    HW2 2340   1.026   0.946   2.711
  481SOL     OW 2341   0.298   6.895   0.452
  481SOL    HW1 2342   0.287   6.844   0.366
  481SOL    HW2 2343   0.381   6.865   0.498
  482SOL     OW 2344   4.020   4.998   1.772
  482SOL    HW1 2345   4.024   4.955   1.863
  482SOL    HW2 2346   3.924   5.008   1.744
  483SOL     OW 2347   5.864   2.479   3.836
  483SOL    HW1 2348   5.780   2.497   3.888
  483SOL    HW2 2349   5.852   2.512   3.742
  484SOL     OW 2350   2.429   4.796   3.789
  484SOL    HW1 2351   2.494   4.757   3.723
  484SOL    HW2 2352   2.347   4.826   3.741
  485SOL     OW 2353   5.472   3.114   1.568
  485SOL    HW1 2354   5.430   3.205   1.570
  485SOL    HW2 2355   5.560   3.117   1.615
  486SOL     OW 2356   5.966   5.951   6.174
  486SOL    HW1 2357   6.057   5.917   6.147
  486SOL    HW2 2358   5.911   5.874   6.207
  487SOL     OW 2359   0.091   6.720   5.762
  487SOL    HW1 2360   0.114   6.815   5.783
  487SOL    HW2 2361   0.151   6.659   5.814
  488SOL     OW 2362   2.107   5.726   3.670
  488SOL    HW1 2363   2.187   5.678   3.633
  488SOL    HW2 2364   2.047   5.661   3.716
  489SOL     OW 2365   1.925   5.759   6.343
  489SOL    HW1 2366   2.017   5.797   6.337
  489SOL    HW2 2367   1.905   5.735   6.438
  490SOL     OW 2368   0.569   3.901   4.723
  490SOL    HW1 2369   0.508   3.839   4.673
  490SOL    HW2 2370   0.642   3.849   4.766
  491SOL     OW 2371   0.267   2.905   0.456
  491SOL    HW1 2372   0.318   2.959   0.522
  491SOL    HW2 2373   0.169   2.907   0.478
  492SOL     OW 2374   1.017   2.536   5.833
  492SOL    HW1 2375   1.002   2.628   5.869
  492SOL    HW2 2376   1.115   2.515   5.835
  493SOL     OW 2377   2.007   5.979   4.998
  493SOL    HW1 2378   2.025   5.916   5.074
  493SOL    HW2 2379   1.941   6.049   5.028
  494SOL     OW 2380   2.641   6.658   4.632
  494SOL    HW1 2381   2.736   6.663   4.601
  494SOL    HW2 2382   2.587   6.728   4.585
  495SOL     OW 2383   3.803   4.355   6.395
  495SOL    HW1 2384   3.805   4.425   6.323
  495SOL    HW2 2385   3.848   4.272   6.363
  496SOL     OW 2386   4.838   1.562   3.062
  496SOL    HW1 2387   4.901   1.547   2.986
  496SOL    HW2 2388   4.765   1.624   3.033
  497SOL     OW 2389   4.724   1.770   0.435
  497SOL    HW1 2390   4.641   1.785   0.382
  497SOL    HW2 2391   4.712   1.690   0.494
  498SOL     OW 2392   0.019   6.849   1.528
  498SOL    HW1 2393   0.065   6.776   1.479
  498SOL    HW2 2394   6.944   6.839   1.517
  499SOL     OW 2395   2.835   5.891   0.511
  499SOL    HW1 2396   2.857   5.947   0.591
  499SOL    HW2 2397   2.920   5.851   0.475
  500SOL     OW 2398   5.286   2.189   7.017
  500SOL    HW1 2399   5.324   2.278   6.992
  500SOL    HW2 2400   5.241   2.196   0.083
  501SOL     OW 2401   0.939   1.363   4.529
  501SOL    HW1 2402   0.983   1.450   4.552
  501SOL    HW2 2403   0.883   1.333   4.606
  502SOL     OW 2404   2.744   4.373   0.047
  502SOL    HW1 2405   2.653   4.335   0.061
  502SOL    HW2 2406   2.784   4.399   0.135
  503SOL     OW 2407   4.367   4.892   0.633
  503SOL    HW1 2408   4.464   4.907   0.651
  503SOL    HW2 2409   4.338   4.805   0.672
  504SOL     OW 2410   6.591   6.102   1.595
  504SOL    HW1 2411   6.667   6.041   1.618
  504SOL    HW2 2412   6.523   6.100   1.668
  505SOL     OW 2413   5.265   5.787   5.364
  505SOL    HW1 2414   5.185   5.814   5.310
  505SOL    HW2 2415   5.293   5.695   5.339
  506SOL     OW 2416   4.261   5.011   2.434
  506SOL    HW1 2417   4.218   4.944   2.374
  506SOL    HW2 2418   4.193   5.080   2.461
  507SOL     OW 2419   3.066   0.547   1.339
  507SOL    HW1 2420   2.971   0.560   1.310
  507SOL    HW2 2421   3.100   0.631   1.382
  508SOL     OW 2422   0.087   3.977   2.929
  508SOL    HW1 2423   0.073   3.891   2.881
  508SOL    HW2 2424   0.027   3.981   3.009
  509SOL     OW 2425   4.623   0.365   5.893
  509SOL    HW1 2426   4.659   0.458   5.903
  509SOL    HW2 2427   4.620   0.321   5.983
  510SOL     OW 2428   6.572   3.893   0.152
  510SOL    HW1 2429   6.663   3.877   0.113
  510SOL    HW2 2430   6.513   3.815   0.129
  511SOL     OW 2431   0.370   2.222   0.371
  511SOL    HW1 2432   0.359   2.123   0.384
  511SOL    HW2 2433   0.287   2.259   0.329
  512SOL     OW 2434   0.285   2.049   4.177
  512SOL    HW1 2435   0.263   1.986   4.102
  512SOL    HW2 2436   0.384   2.049   4.192
  513SOL     OW 2437   4.900   1.043   3.051
  513SOL    HW1 2438   4.819   0.993   3.019
  513SOL    HW2 2439   4.969   0.977   3.081
  514SOL     OW 2440   5.763   0.805   4.524
  514SOL    HW1 2441   5.769   0.706   4.536
  514SOL    HW2 2442   5.762   0.827   4.427
  515SOL     OW 2443   4.013   0.260   5.743
  515SOL    HW1 2444   3.937   0.262   5.678
  515SOL    HW2 2445   4.091   0.212   5.701
  516SOL     OW 2446   2.244   6.084   2.407
  516SOL    HW1 2447   2.303   6.040   2.339
  516SOL    HW2 2448   2.295   6.096   2.493
  517SOL     OW 2449   3.101   5.805   1.368
  517SOL    HW1 2450   3.038   5.816   1.291
  517SOL    HW2 2451   3.125   5.895   1.404
  518SOL     OW 2452   2.201   3.843   3.949
  518SOL    HW1 2453   2.112   3.797   3.941
  518SOL    HW2 2454   2.274   3.775   3.939
  519SOL     OW 2455   6.808   0.215   1.960
  519SOL    HW1 2456   6.830   0.244   2.053
  519SOL    HW2 2457   6.881   0.245   1.898
  520SOL     OW 2458   2.035   4.097   0.907
  520SOL    HW1 2459   2.029   4.000   0.930
  520SOL    HW2 2460   1.964   4.148   0.957
  521SOL     OW 2461   6.561   6.442   4.832
  521SOL    HW1 2462   6.556   6.344   4.812
  521SOL    HW2 2463   6.560   6.494   4.747
  522SOL     OW 2464   3.601   4.307   1.498
  522SOL    HW1 2465   3.689   4.339   1.462
  522SOL    HW2 2466   3.613   4.270   1.590
  523SOL     OW 2467   0.785   0.384   0.982
  523SOL    HW1 2468   0.750   0.342   1.066
  523SOL    HW2 2469   0.745   0.475   0.972
  524SOL     OW 2470   6.449   1.936   1.511
  524SOL    HW1 2471   6.537   1.982   1.521
  524SOL    HW2 2472   6.391   1.956   1.590
  525SOL     OW 2473   0.566   3.666   5.085
  525SOL    HW1 2474   0.499   3.607   5.041
  525SOL    HW2 2475   0.640   3.611   5.124
  526SOL     OW 2476   3.523   0.714   3.609
  526SOL    HW1 2477   3.539   0.753   3.699
  526SOL    HW2 2478   3.442   0.756   3.568
  527SOL     OW 2479   0.424   1.006   0.850
  527SOL    HW1 2480   0.522   1.007   0.831
  527SOL    HW2 2481   0.410   1.005   0.949
  528SOL     OW 2482   6.790   3.037   4.537
  528SOL    HW1 2483   6.811   2.966   4.470
  528SOL    HW2 2484   6.692   3.055   4.536
  529SOL     OW 2485   2.037   0.133   0.305
  529SOL    HW1 2486   2.014   0.228   0.283
  529SOL    HW2 2487   1.954   0.083   0.331
  530SOL     OW 2488   3.507   4.139   0.958
  530SOL    HW1 2489   3.580   4.088   0.913
  530SOL    HW2 2490   3.437   4.164   0.891
  531SOL     OW 2491   1.707   0.399   0.549
  531SOL    HW1 2492   1.724   0.349   0.464
  531SOL    HW2 2493   1.615   0.376   0.583
  532SOL     OW 2494   1.385   1.959   6.529
  532SOL    HW1 2495   1.355   1.911   6.447
  532SOL    HW2 2496   1.308   1.971   6.591
  533SOL     OW 2497   4.078   0.280   4.415
  533SOL    HW1 2498   3.982   0.261   4.398
  533SOL    HW2 2499   4.129   0.275   4.328
  534SOL     OW 2500   2.220   4.650   1.713
  534SOL    HW1 2501   2.210   4.555   1.743
  534SOL    HW2 2502   2.305   4.688   1.749
  535SOL     OW 2503   4.848   3.291   3.797
  535SOL    HW1 2504   4.825   3.388   3.793
  535SOL    HW2 2505   4.937   3.280   3.841
  536SOL     OW 2506   6.490   6.963   2.139
  536SOL    HW1 2507   6.409   6.923   2.095
  536SOL    HW2 2508   6.528   0.009   2.079
  537SOL     OW 2509   3.527   2.138   3.808
  537SOL    HW1 2510   3.504   2.142   3.905
  537SOL    HW2 2511   3.626   2.149   3.797
  538SOL     OW 2512   3.335   4.876   5.124
  538SOL    HW1 2513   3.381   4.932   5.054
  538SOL    HW2 2514   3.248   4.844   5.088
  539SOL     OW 2515   0.907   6.753   0.116
  539SOL    HW1 2516   0.942   6.664   0.147
  539SOL    HW2 2517   0.864   6.801   0.192
  540SOL     OW 2518   1.117   0.154   3.987
  540SOL    HW1 2519   1.176   0.131   3.909
  540SOL    HW2 2520   1.059   0.232   3.963
  541SOL     OW 2521   4.487   5.848   3.962
  541SOL    HW1 2522   4.558   5.834   4.031
  541SOL    HW2 2523   4.416   5.778   3.972
  542SOL     OW 2524   3.608   0.583   5.354
  542SOL    HW1 2525   3.553   0.525   5.294
  542SOL    HW2 2526   3.674   0.634   5.300
  543SOL     OW 2527   6.165   2.266   3.984
  543SOL    HW1 2528   6.222   2.311   4.053
  543SOL    HW2 2529   6.077   2.241   4.025
  544SOL     OW 2530   1.699   3.249   1.206
  544SOL    HW1 2531   1.647   3.331   1.183
  544SOL    HW2 2532   1.683   3.179   1.136
  545SOL     OW 2533   5.745   0.367   1.424
  545SOL    HW1 2534   5.731   0.459   1.386
  545SOL    HW2 2535   5.774   0.305   1.351
  546SOL     OW 2536   0.160   4.462   2.832
  546SOL    HW1 2537   0.194   4.507   2.915
  546SOL    HW2 2538   0.094   4.391   2.858
  547SOL     OW 2539   5.366   0.936   6.540
  547SOL    HW1 2540   5.271   0.944   6.570
  547SOL    HW2 2541   5.420   0.896   6.614
  548SOL     OW 2542   3.972   2.011   0.088
  548SOL    HW1 2543   4.065   2.042   0.106
  548SOL    HW2 2544   3.967   1.972   7.019
  549SOL     OW 2545   6.010   1.707   1.414
  549SOL    HW1 2546   6.038   1.679   1.506
  549SOL    HW2 2547   5.983   1.626   1.361
  550SOL     OW 2548   0.432   6.049   3.264
  550SOL    HW1 2549   0.348   6.076   3.216
  550SOL    HW2 2550   0.431   5.951   3.282
  551SOL     OW 2551   5.843   0.882   0.620
  551SOL    HW1 2552   5.893   0.812   0.672
  551SOL    HW2 2553   5.830   0.851   0.526
  552SOL     OW 2554   0.224   5.873   5.696
  552SOL    HW1 2555   0.186   5.791   5.739
  552SOL    HW2 2556   0.312   5.851   5.655
  553SOL     OW 2557   2.848   1.156   0.030
  553SOL    HW1 2558   2.868   1.059   0.044
  553SOL    HW2 2559   2.892   1.211   0.101
  554SOL     OW 2560   5.211   6.673   1.179
  554SOL    HW1 2561   5.115   6.690   1.157
  554SOL    HW2 2562   5.228   6.696   1.275
  555SOL     OW 2563   1.105   3.891   5.872
  555SOL    HW1 2564   1.151   3.808   5.902
  555SOL    HW2 2565   1.019   3.867   5.826
  556SOL     OW 2566   5.702   0.356   4.342
  556SOL    HW1 2567   5.786   0.386   4.298
  556SOL    HW2 2568   5.663   0.279   4.292
  557SOL     OW 2569   6.794   4.310   6.882
  557SOL    HW1 2570   6.801   4.408   6.902
  557SOL    HW2 2571   6.704   4.290   6.843
  558SOL     OW 2572   3.041   3.835   2.296
  558SOL    HW1 2573   3.018   3.794   2.208
  558SOL    HW2 2574   3.003   3.779   2.370
  559SOL     OW 2575   6.607   6.361   6.079
  559SOL    HW1 2576   6.540   6.287   6.072
  559SOL    HW2 2577   6.565   6.447   6.053
  560SOL     OW 2578   6.633   3.284   4.073
  560SOL    HW1 2579   6.724   3.324   4.070
  560SOL    HW2 2580   6.566   3.351   4.041
  561SOL     OW 2581   0.824   3.144   0.101
  561SOL    HW1 2582   0.881   3.105   0.174
  561SOL    HW2 2583   0.861   3.234   0.075
  562SOL     OW 2584   4.353   0.113   4.833
  562SOL    HW1 2585   4.400   0.070   4.756
  562SOL    HW2 2586   4.257   0.084   4.834
  563SOL     OW 2587   1.556   1.038   4.229
  563SOL    HW1 2588   1.516   1.086   4.307
  563SOL    HW2 2589   1.578   1.103   4.157
  564SOL     OW 2590   6.813   1.571   6.078
  564SOL    HW1 2591   6.843   1.612   6.164
  564SOL    HW2 2592   6.893   1.543   6.025
  565SOL     OW 2593   3.499   3.551   4.036
  565SOL    HW1 2594   3.408   3.534   3.999
  565SOL    HW2 2595   3.568   3.520   3.970
  566SOL     OW 2596   2.865   0.707   3.501
  566SOL    HW1 2597   2.844   0.804   3.495
  566SOL    HW2 2598   2.788   0.659   3.544
  567SOL     OW 2599   2.420   2.728   5.532
  567SOL    HW1 2600   2.480   2.773   5.598
  567SOL    HW2 2601   2.464   2.724   5.443
  568SOL     OW 2602   0.460   6.125   0.016
  568SOL    HW1 2603   0.421   6.110   6.950
  568SOL    HW2 2604   0.392   6.166   0.076
  569SOL     OW 2605   6.451   2.601   0.454
  569SOL    HW1 2606   6.376   2.598   0.520
  569SOL    HW2 2607   6.514   2.526   0.473
  570SOL     OW 2608   2.660   0.357   6.406
  570SOL    HW1 2609   2.737   0.335   6.466
  570SOL    HW2 2610   2.676   0.447   6.364
  571SOL     OW 2611   2.126   5.103   1.927
  571SOL    HW1 2612   2.137   5.191   1.881
  571SOL    HW2 2613   2.122   5.117   2.026
  572SOL     OW 2614   2.913   0.457   4.310
  572SOL    HW1 2615   2.930   0.421   4.219
  572SOL    HW2 2616   2.954   0.548   4.318
  573SOL     OW 2617   6.993   1.059   5.013
  573SOL    HW1 2618   7.009   0.976   5.067
  573SOL    HW2 2619   7.004   1.038   4.916
  574SOL     OW 2620   2.345   2.219   5.583
  574SOL    HW1 2621   2.414   2.151   5.560
  574SOL    HW2 2622   2.341   2.230   5.682
  575SOL     OW 2623   3.861   2.751   0.152
  575SOL    HW1 2624   3.905   2.740   0.241
  575SOL    HW2 2625   3.796   2.676   0.138
  576SOL     OW 2626   2.191   3.006   2.782
  576SOL    HW1 2627   2.270   2.947   2.800
  576SOL    HW2 2628   2.138   3.018   2.866
  577SOL     OW 2629   0.400   1.020   1.611
  577SOL    HW1 2630   0.400   1.009   1.710
  577SOL    HW2 2631   0.373   0.934   1.568
  578SOL     OW 2632   2.325   6.676   6.733
  578SOL    HW1 2633   2.319   6.597   6.673
  578SOL    HW2 2634   2.238   6.688   6.782
  579SOL     OW 2635   2.168   4.226   2.219
  579SOL    HW1 2636   2.196   4.133   2.195
  579SOL    HW2 2637   2.242   4.289   2.197
  580SOL     OW 2638   4.606   5.723   4.726
  580SOL    HW1 2639   4.662   5.642   4.741
  580SOL    HW2 2640   4.556   5.714   4.640
  581SOL     OW 2641   1.626   2.623   4.590
  581SOL    HW1 2642   1.725   2.639   4.590
  581SOL    HW2 2643   1.581   2.694   4.642
  582SOL     OW 2644   5.252   5.447   3.981
  582SOL    HW1 2645   5.240   5.382   4.055
  582SOL    HW2 2646   5.238   5.540   4.016
  583SOL     OW 2647   4.251   5.957   5.789
  583SOL    HW1 2648   4.224   5.927   5.881
  583SOL    HW2 2649   4.220   5.889   5.722
  584SOL     OW 2650   4.808   0.716   5.225
  584SOL    HW1 2651   4.720   0.764   5.226
  584SOL    HW2 2652   4.860   0.744   5.143
  585SOL     OW 2653   2.822   0.834   1.937
  585SOL    HW1 2654   2.740   0.827   1.880
  585SOL    HW2 2655   2.896   0.874   1.884
  586SOL     OW 2656   4.336   0.211   0.730
  586SOL    HW1 2657   4.250   0.170   0.758
  586SOL    HW2 2658   4.339   0.307   0.757
  587SOL     OW 2659   4.707   2.064   1.618
  587SOL    HW1 2660   4.762   2.011   1.553
  587SOL    HW2 2661   4.610   2.055   1.594
  588SOL     OW 2662   1.976   5.137   3.294
  588SOL    HW1 2663   1.964   5.073   3.369
  588SOL    HW2 2664   2.045   5.205   3.319
  589SOL     OW 2665   3.133   5.919   0.982
  589SOL    HW1 2666   3.115   5.897   0.886
  589SOL    HW2 2667   3.046   5.940   1.028
  590SOL     OW 2668   4.397   2.145   0.638
  590SOL    HW1 2669   4.461   2.081   0.595
  590SOL    HW2 2670   4.432   2.238   0.628
  591SOL     OW 2671   3.237   6.176   4.274
  591SOL    HW1 2672   3.147   6.141   4.249
  591SOL    HW2 2673   3.238   6.276   4.262
  592SOL     OW 2674   3.846   2.156   4.285
  592SOL    HW1 2675   3.910   2.178   4.359
  592SOL    HW2 2676   3.752   2.160   4.319
  593SOL     OW 2677   2.917   2.054   6.670
  593SOL    HW1 2678   2.823   2.057   6.702
  593SOL    HW2 2679   2.927   2.113   6.590
  594SOL     OW 2680   4.943   1.160   1.835
  594SOL    HW1 2681   4.903   1.236   1.886
  594SOL    HW2 2682   5.025   1.128   1.882
  595SOL     OW 2683   5.668   5.896   2.737
  595SOL    HW1 2684   5.749   5.843   2.764
  595SOL    HW2 2685   5.697   5.978   2.688
  596SOL     OW 2686   6.498   5.041   4.088
  596SOL    HW1 2687   6.433   5.075   4.019
  596SOL    HW2 2688   6.588   5.028   4.045
  597SOL     OW 2689   2.624   0.791   6.595
  597SOL    HW1 2690   2.587   0.882   6.612
  597SOL    HW2 2691   2.566   0.723   6.638
  598SOL     OW 2692   2.926   3.361   4.571
  598SOL    HW1 2693   2.978   3.279   4.546
  598SOL    HW2 2694   2.897   3.408   4.488
  599SOL     OW 2695   1.132   4.736   1.827
  599SOL    HW1 2696   1.098   4.653   1.783
  599SOL    HW2 2697   1.222   4.758   1.791
  600SOL     OW 2698   6.667   3.764   5.194
  600SOL    HW1 2699   6.655   3.665   5.202
  600SOL    HW2 2700   6.762   3.785   5.171
  601SOL     OW 2701   1.633   6.508   5.181
  601SOL    HW1 2702   1.679   6.557   5.256
  601SOL    HW2 2703   1.545   6.475   5.213
  602SOL     OW 2704   2.259   0.104   3.869
  602SOL    HW1 2705   2.214   0.040   3.806
  602SOL    HW2 2706   2.317   0.054   3.932
  603SOL     OW 2707   1.477   1.558   5.318
  603SOL    HW1 2708   1.431   1.469   5.309
  603SOL    HW2 2709   1.410   1.631   5.307
  604SOL     OW 2710   6.637   2.134   2.062
  604SOL    HW1 2711   6.691   2.085   1.993
  604SOL    HW2 2712   6.545   2.094   2.066
  605SOL     OW 2713   6.787   6.520   1.811
  605SOL    HW1 2714   6.861   6.491   1.751
  605SOL    HW2 2715   6.790   6.620   1.821
  606SOL     OW 2716   3.787   6.697   4.607
  606SOL    HW1 2717   3.809   6.604   4.634
  606SOL    HW2 2718   3.692   6.701   4.574
  607SOL     OW 2719   1.750   4.417   6.118
  607SOL    HW1 2720   1.741   4.318   6.133
  607SOL    HW2 2721   1.692   4.445   6.041
  608SOL     OW 2722   2.929   0.980   5.566
  608SOL    HW1 2723   2.973   0.956   5.479
  608SOL    HW2 2724   2.834   0.948   5.566
  609SOL     OW 2725   3.432   2.823   2.112
  609SOL    HW1 2726   3.385   2.821   2.023
  609SOL    HW2 2727   3.470   2.733   2.131
  610SOL     OW 2728   5.041   3.753   1.298
  610SOL    HW1 2729   5.019   3.659   1.323
  610SOL    HW2 2730   5.079   3.755   1.205
  611SOL     OW 2731   3.643   0.236   2.696
  611SOL    HW1 2732   3.650   0.170   2.771
  611SOL    HW2 2733   3.653   0.329   2.731
  612SOL     OW 2734   4.099   4.939   5.341
  612SOL    HW1 2735   4.033   4.923   5.267
  612SOL    HW2 2736   4.062   5.008   5.403
  613SOL     OW 2737   4.453   5.041   5.421
  613SOL    HW1 2738   4.474   5.033   5.323
  613SOL    HW2 2739   4.538   5.033   5.474
  614SOL     OW 2740   3.591   5.591   5.624
  614SOL    HW1 2741   3.609   5.683   5.660
  614SOL    HW2 2742   3.496   5.565   5.645
  615SOL     OW 2743   0.887   4.802   2.414
  615SOL    HW1 2744   0.833   4.796   2.330
  615SOL    HW2 2745   0.984   4.810   2.390
  616SOL     OW 2746   6.300   3.755   3.625
  616SOL    HW1 2747   6.281   3.822   3.696
  616SOL    HW2 2748   6.342   3.673   3.666
  617SOL     OW 2749   3.461   5.889   6.378
  617SOL    HW1 2750   3.518   5.849   6.450
  617SOL    HW2 2751   3.365   5.881   6.404
  618SOL     OW 2752   1.501   1.086   2.532
  618SOL    HW1 2753   1.576   1.145   2.502
  618SOL    HW2 2754   1.516   1.058   2.626
  619SOL     OW 2755   0.707   1.140   0.020
  619SOL    HW1 2756   0.703   1.238   0.002
  619SOL    HW2 2757   0.740   1.093   6.962
  620SOL     OW 2758   4.731   3.793   1.189
  620SOL    HW1 2759   4.791   3.803   1.109
  620SOL    HW2 2760   4.776   3.832   1.269
  621SOL     OW 2761   0.630   4.874   1.565
  621SOL    HW1 2762   0.701   4.805   1.556
  621SOL    HW2 2763   0.672   4.965   1.565
  622SOL     OW 2764   1.047   0.258   0.211
  622SOL    HW1 2765   1.135   0.210   0.205
  622SOL    HW2 2766   0.973   0.191   0.210
  623SOL     OW 2767   0.629   4.536   6.404
  623SOL    HW1 2768   0.554   4.555   6.340
  623SOL    HW2 2769   0.591   4.498   6.488
  624SOL     OW 2770   0.353   2.376   1.993
  624SOL    HW1 2771   0.431   2.315   2.010
  624SOL    HW2 2772   0.374   2.467   2.027
  625SOL     OW 2773   2.451   1.154   1.763
  625SOL    HW1 2774   2.403   1.215   1.826
  625SOL    HW2 2775   2.400   1.068   1.756
  626SOL     OW 2776   2.962   6.423   4.401
  626SOL    HW1 2777   2.897   6.497   4.385
  626SOL    HW2 2778   3.045   6.439   4.346
  627SOL     OW 2779   4.791   0.987   0.127
  627SOL    HW1 2780   4.865   1.033   0.077
  627SOL    HW2 2781   4.730   0.942   0.062
  628SOL     OW 2782   5.204   4.104   3.826
  628SOL    HW1 2783   5.291   4.141   3.793
  628SOL    HW2 2784   5.222   4.029   3.890
  629SOL     OW 2785   1.375   6.212   0.650
  629SOL    HW1 2786   1.459   6.266   0.660
  629SOL    HW2 2787   1.344   6.217   0.555
  630SOL     OW 2788   3.802   2.040   1.243
  630SOL    HW1 2789   3.767   2.043   1.337
  630SOL    HW2 2790   3.890   2.087   1.239
  631SOL     OW 2791   1.930   6.678   5.156
  631SOL    HW1 2792   1.942   6.587   5.116
  631SOL    HW2 2793   1.898   6.669   5.250
  632SOL     OW 2794   1.833   1.327   1.002
  632SOL    HW1 2795   1.819   1.291   1.094
  632SOL    HW2 2796   1.830   1.427   1.005
  633SOL     OW 2797   2.438   0.179   6.067
  633SOL    HW1 2798   2.407   0.145   5.978
  633SOL    HW2 2799   2.428   0.278   6.070
  634SOL     OW 2800   3.673   6.011   0.323
  634SOL    HW1 2801   3.681   6.106   0.296
  634SOL    HW2 2802   3.759   5.963   0.305
  635SOL     OW 2803   2.633   0.697   2.779
  635SOL    HW1 2804   2.689   0.617   2.801
  635SOL    HW2 2805   2.685   0.758   2.720
  636SOL     OW 2806   5.270   5.071   0.307
  636SOL    HW1 2807   5.181   5.026   0.308
  636SOL    HW2 2808   5.332   5.025   0.371
  637SOL     OW 2809   5.006   4.380   0.969
  637SOL    HW1 2810   4.952   4.307   0.927
  637SOL    HW2 2811   5.101   4.374   0.939
  638SOL     OW 2812   5.418   1.464   2.417
  638SOL    HW1 2813   5.353   1.402   2.461
  638SOL    HW2 2814   5.511   1.440   2.445
  639SOL     OW 2815   4.215   4.723   2.171
  639SOL    HW1 2816   4.244   4.637   2.127
  639SOL    HW2 2817   4.224   4.798   2.105
  640SOL     OW 2818   2.927   4.195   5.887
  640SOL    HW1 2819   3.026   4.184   5.889
  640SOL    HW2 2820   2.903   4.274   5.831
  641SOL     OW 2821   6.600   5.845   4.782
  641SOL    HW1 2822   6.583   5.795   4.697
  641SOL    HW2 2823   6.577   5.786   4.860
  642SOL     OW 2824   1.523   5.236   5.805
  642SOL    HW1 2825   1.621   5.240   5.784
  642SOL    HW2 2826   1.509   5.252   5.902
  643SOL     OW 2827   5.477   6.493   5.014
  643SOL    HW1 2828   5.397   6.436   4.995
  643SOL    HW2 2829   5.524   6.460   5.095
  644SOL     OW 2830   1.586   6.234   2.226
  644SOL    HW1 2831   1.542   6.145   2.220
  644SOL    HW2 2832   1.665   6.237   2.165
  645SOL     OW 2833   6.094   3.390   3.374
  645SOL    HW1 2834   6.188   3.357   3.382
  645SOL    HW2 2835   6.056   3.403   3.465
  646SOL     OW 2836   1.566   1.819   4.638
  646SOL    HW1 2837   1.469   1.796   4.652
  646SOL    HW2 2838   1.598   1.874   4.715
  647SOL     OW 2839   5.649   3.294   0.508
  647SOL    HW1 2840   5.668   3.290   0.605
  647SOL    HW2 2841   5.697   3.221   0.460
  648SOL     OW 2842   5.905   2.364   2.494
  648SOL    HW1 2843   5.834   2.427   2.524
  648SOL    HW2 2844   5.930   2.304   2.569
  649SOL     OW 2845   4.080   4.829   1.509
  649SOL    HW1 2846   3.993   4.864   1.475
  649SOL    HW2 2847   4.075   4.816   1.608
  650SOL     OW 2848   4.666   4.043   0.993
  650SOL    HW1 2849   4.684   4.084   1.083
  650SOL    HW2 2850   4.577   3.997   0.995
  651SOL     OW 2851   0.870   5.206   6.405
  651SOL    HW1 2852   0.891   5.144   6.481
  651SOL    HW2 2853   0.789   5.261   6.428
  652SOL     OW 2854   3.733   0.983   2.621
  652SOL    HW1 2855   3.705   1.073   2.587
  652SOL    HW2 2856   3.653   0.934   2.656
  653SOL     OW 2857   3.914   5.076   3.494
  653SOL    HW1 2858   3.998   5.127   3.480
  653SOL    HW2 2859   3.936   4.981   3.517
  654SOL     OW 2860   6.203   4.660   0.393
  654SOL    HW1 2861   6.103   4.666   0.397
  654SOL    HW2 2862   6.235   4.695   0.306
  655SOL     OW 2863   0.966   0.962   0.456
  655SOL    HW1 2864   0.870   0.970   0.483
  655SOL    HW2 2865   0.976   0.887   0.392
  656SOL     OW 2866   2.953   6.587   2.324
  656SOL    HW1 2867   3.012   6.609   2.246
  656SOL    HW2 2868   2.864   6.556   2.290
  657SOL     OW 2869   3.271   1.608   6.624
  657SOL    HW1 2870   3.350   1.659   6.593
  657SOL    HW2 2871   3.191   1.668   6.629
  658SOL     OW 2872   3.702   5.137   6.098
  658SOL    HW1 2873   3.604   5.120   6.097
  658SOL    HW2 2874   3.738   5.128   6.005
  659SOL     OW 2875   2.662   0.080   6.907
  659SOL    HW1 2876   2.680   0.139   6.986
  659SOL    HW2 2877   2.569   0.046   6.911
  660SOL     OW 2878   3.841   5.639   3.422
  660SOL    HW1 2879   3.926   5.592   3.399
  660SOL    HW2 2880   3.814   5.698   3.346
  661SOL     OW 2881   5.526   5.540   2.942
  661SOL    HW1 2882   5.623   5.556   2.957
  661SOL    HW2 2883   5.476   5.627   2.944
  662SOL     OW 2884   3.673   1.333   0.363
  662SOL    HW1 2885   3.670   1.419   0.414
  662SOL    HW2 2886   3.766   1.319   0.329
  663SOL     OW 2887   2.272   4.441   4.970
  663SOL    HW1 2888   2.227   4.526   4.997
  663SOL    HW2 2889   2.330   4.409   5.045
  664SOL     OW 2890   6.391   1.308   6.914
  664SOL    HW1 2891   6.461   1.310   6.986
  664SOL    HW2 2892   6.344   1.220   6.916
  665SOL     OW 2893   2.395   5.484   2.673
  665SOL    HW1 2894   2.493   5.470   2.667
  665SOL    HW2 2895   2.348   5.396   2.667
  666SOL     OW 2896   4.020   0.970   1.968
  666SOL    HW1 2897   3.941   1.027   1.946
  666SOL    HW2 2898   4.041   0.912   1.890
  667SOL     OW 2899   1.217   6.764   2.670
  667SOL    HW1 2900   1.179   6.691   2.727
  667SOL    HW2 2901   1.242   6.727   2.580
  668SOL     OW 2902   5.365   3.567   0.657
  668SOL    HW1 2903   5.300   3.502   0.617
  668SOL    HW2 2904   5.416   3.522   0.730
  669SOL     OW 2905   5.154   1.739   2.602
  669SOL    HW1 2906   5.234   1.719   2.659
  669SOL    HW2 2907   5.095   1.659   2.599
  670SOL     OW 2908   2.663   2.074   3.053
  670SOL    HW1 2909   2.701   1.995   3.101
  670SOL    HW2 2910   2.734   2.115   2.996
  671SOL     OW 2911   3.422   6.748   1.268
  671SOL    HW1 2912   3.355   6.759   1.342
  671SOL    HW2 2913   3.512   6.776   1.300
  672SOL     OW 2914   1.292   6.680   2.442
  672SOL    HW1 2915   1.350   6.704   2.365
  672SOL    HW2 2916   1.203   6.648   2.408
  673SOL     OW 2917   5.812   6.603   0.105
  673SOL    HW1 2918   5.782   6.529   0.044
  673SOL    HW2 2919   5.738   6.670   0.114
  674SOL     OW 2920   7.015   0.911   4.323
  674SOL    HW1 2921   0.069   0.864   4.283
  674SOL    HW2 2922   0.020   0.959   4.406
  675SOL     OW 2923   6.456   2.818   2.707
  675SOL    HW1 2924   6.425   2.781   2.795
  675SOL    HW2 2925   6.402   2.776   2.633
  676SOL     OW 2926   2.111   5.754   6.030
  676SOL    HW1 2927   2.184   5.811   6.069
  676SOL    HW2 2928   2.115   5.663   6.072
  677SOL     OW 2929   5.100   1.352   1.068
  677SOL    HW1 2930   5.035   1.321   1.138
  677SOL    HW2 2931   5.049   1.387   0.989
  678SOL     OW 2932   1.957   4.571   4.784
  678SOL    HW1 2933   1.884   4.601   4.722
  678SOL    HW2 2934   1.928   4.583   4.879
  679SOL     OW 2935   5.447   1.502   5.114
  679SOL    HW1 2936   5.481   1.553   5.193
  679SOL    HW2 2937   5.442   1.405   5.138
  680SOL     OW 2938   4.953   0.103   4.050
  680SOL    HW1 2939   4.959   0.118   4.149
  680SOL    HW2 2940   5.037   0.059   4.018
  681SOL     OW 2941   4.350   5.012   2.790
  681SOL    HW1 2942   4.418   5.038   2.721
  681SOL    HW2 2943   4.336   4.913   2.787
  682SOL     OW 2944   0.824   0.839   3.278
  682SOL    HW1 2945   0.811   0.755   3.226
  682SOL    HW2 2946   0.737   0.865   3.321
  683SOL     OW 2947   4.212   3.551   0.872
  683SOL    HW1 2948   4.182   3.461   0.904
  683SOL    HW2 2949   4.305   3.544   0.838
  684SOL     OW 2950   6.597   1.017   6.511
  684SOL    HW1 2951   6.672   0.952   6.499
  684SOL    HW2 2952   6.605   1.060   6.601
  685SOL     OW 2953   3.394   0.546   2.824
  685SOL    HW1 2954   3.483   0.547   2.780
  685SOL    HW2 2955   3.339   0.471   2.787
  686SOL     OW 2956   4.797   0.400   4.749
  686SOL    HW1 2957   4.774   0.347   4.830
  686SOL    HW2 2958   4.732   0.476   4.739
  687SOL     OW 2959   1.058   2.100   3.891
  687SOL    HW1 2960   1.125   2.130   3.960
  687SOL    HW2 2961   1.106   2.055   3.816
  688SOL     OW 2962   6.614   1.180   6.724
  688SOL    HW1 2963   6.639   1.123   6.802
  688SOL    HW2 2964   6.521   1.214   6.737
  689SOL     OW 2965   1.409   5.510   6.000
  689SOL    HW1 2966   1.456   5.442   6.056
  689SOL    HW2 2967   1.392   5.592   6.054
  690SOL     OW 2968   5.990   3.297   2.586
  690SOL    HW1 2969   5.915   3.231   2.578
  690SOL    HW2 2970   5.967   3.380   2.535
  691SOL     OW 2971   5.608   1.370   0.790
  691SOL    HW1 2972   5.627   1.272   0.781
  691SOL    HW2 2973   5.529   1.394   0.734
  692SOL     OW 2974   2.298   0.545   5.002
  692SOL    HW1 2975   2.204   0.516   4.986
  692SOL    HW2 2976   2.358   0.503   4.933
  693SOL     OW 2977   5.075   5.755   3.841
  693SOL    HW1 2978   5.049   5.682   3.777
  693SOL    HW2 2979   5.139   5.817   3.796
  694SOL     OW 2980   4.515   6.431   5.280
  694SOL    HW1 2981   4.557   6.389   5.361
  694SOL    HW2 2982   4.505   6.363   5.208
  695SOL     OW 2983   3.177   0.449   3.984
  695SOL    HW1 2984   3.160   0.497   4.070
  695SOL    HW2 2985   3.147   0.506   3.908
  696SOL     OW 2986   5.141   4.328   3.131
  696SOL    HW1 2987   5.054   4.378   3.131
  696SOL    HW2 2988   5.213   4.386   3.170
  697SOL     OW 2989   0.916   5.915   2.270
  697SOL    HW1 2990   0.817   5.922   2.283
  697SOL    HW2 2991   0.948   5.992   2.215
  698SOL     OW 2992   5.882   6.500   0.364
  698SOL    HW1 2993   5.925   6.410   0.359
  698SOL    HW2 2994   5.857   6.530   0.272
  699SOL     OW 2995   2.952   2.679   0.841
  699SOL    HW1 2996   2.918   2.584   0.844
  699SOL    HW2 2997   3.050   2.679   0.860
  700SOL     OW 2998   3.191   0.635   3.264
  700SOL    HW1 2999   3.252   0.659   3.340
  700SOL    HW2 3000   3.112   0.585   3.300
  701SOL     OW 3001   5.888   5.193   1.505
  701SOL    HW1 3002   5.806   5.149   1.470
  701SOL    HW2 3003   5.940   5.231   1.428
  702SOL     OW 3004   3.159   0.946   4.389
  702SOL    HW1 3005   3.095   0.969   4.314
  702SOL    HW2 3006   3.186   1.030   4.436
  703SOL     OW 3007   2.980   2.099   6.234
  703SOL    HW1 3008   2.977   2.122   6.136
  703SOL    HW2 3009   2.925   2.017   6.251
  704SOL     OW 3010   1.343   2.505   5.670
  704SOL    HW1 3011   1.295   2.469   5.590
  704SOL    HW2 3012   1.442   2.500   5.654
  705SOL     OW 3013   0.111   6.716   5.361
  705SOL    HW1 3014   0.023   6.760   5.345
  705SOL    HW2 3015   0.099   6.617   5.362
  706SOL     OW 3016   4.609   1.087   5.311
  706SOL    HW1 3017   4.547   1.107   5.235
  706SOL    HW2 3018   4.591   1.150   5.387
  707SOL     OW 3019   3.674   5.070   4.057
  707SOL    HW1 3020   3.696   5.118   4.142
  707SOL    HW2 3021   3.593   5.111   4.015
  708SOL     OW 3022   3.957   7.003   3.769
  708SOL    HW1 3023   3.991   6.966   3.683
  708SOL    HW2 3024   4.012   0.059   3.795
  709SOL     OW 3025   3.026   6.939   1.711
  709SOL    HW1 3026   2.985   6.991   1.786
  709SOL    HW2 3027   3.081   6.999   1.654
  710SOL     OW 3028   4.604   2.780   1.820
  710SOL    HW1 3029   4.525   2.799   1.762
  710SOL    HW2 3030   4.622   2.859   1.879
  711SOL     OW 3031   0.234   2.226   6.345
  711SOL    HW1 3032   0.328   2.249   6.320
  711SOL    HW2 3033   0.207   2.277   6.426
  712SOL     OW 3034   5.309   4.276   0.692
  712SOL    HW1 3035   5.344   4.369   0.690
  712SOL    HW2 3036   5.386   4.211   0.691
  713SOL     OW 3037   4.039   2.820   5.284
  713SOL    HW1 3038   4.105   2.817   5.359
  713SOL    HW2 3039   4.042   2.734   5.233
  714SOL     OW 3040   5.162   5.326   3.106
  714SOL    HW1 3041   5.116   5.285   3.185
  714SOL    HW2 3042   5.171   5.258   3.034
  715SOL     OW 3043   6.516   5.336   5.376
  715SOL    HW1 3044   6.423   5.371   5.367
  715SOL    HW2 3045   6.525   5.287   5.463
  716SOL     OW 3046   2.246   2.005   2.716
  716SOL    HW1 3047   2.327   1.989   2.661
  716SOL    HW2 3048   2.177   1.935   2.695
  717SOL     OW 3049   5.301   3.975   4.272
  717SOL    HW1 3050   5.347   3.925   4.198
  717SOL    HW2 3051   5.307   4.073   4.254
  718SOL     OW 3052   6.000   1.586   5.305
  718SOL    HW1 3053   5.974   1.636   5.387
  718SOL    HW2 3054   6.088   1.619   5.272
  719SOL     OW 3055   5.292   0.232   3.349
  719SOL    HW1 3056   5.227   0.163   3.381
  719SOL    HW2 3057   5.281   0.244   3.251
  720SOL     OW 3058   2.652   1.635   0.381
  720SOL    HW1 3059   2.716   1.641   0.457
  720SOL    HW2 3060   2.559   1.622   0.417
  721SOL     OW 3061   0.304   1.545   3.293
  721SOL    HW1 3062   0.396   1.544   3.332
  721SOL    HW2 3063   0.282   1.638   3.264
  722SOL     OW 3064   4.385   6.509   0.395
  722SOL    HW1 3065   4.430   6.456   0.323
  722SOL    HW2 3066   4.300   6.548   0.359
  723SOL     OW 3067   2.409   5.537   3.747
  723SOL    HW1 3068   2.459   5.565   3.829
  723SOL    HW2 3069   2.456   5.571   3.666
  724SOL     OW 3070   1.021   1.434   4.276
  724SOL    HW1 3071   0.994   1.362   4.340
  724SOL    HW2 3072   1.120   1.435   4.267
  725SOL     OW 3073   1.391   3.722   2.598
  725SOL    HW1 3074   1.304   3.711   2.549
  725SOL    HW2 3075   1.384   3.801   2.660
  726SOL     OW 3076   1.831   4.383   0.542
  726SOL    HW1 3077   1.920   4.354   0.578
  726SOL    HW2 3078   1.758   4.351   0.603
  727SOL     OW 3079   4.579   5.856   5.211
  727SOL    HW1 3080   4.671   5.841   5.246
  727SOL    HW2 3081   4.519   5.883   5.287
  728SOL     OW 3082   6.635   3.725   4.122
  728SOL    HW1 3083   6.670   3.765   4.206
  728SOL    HW2 3084   6.711   3.688   4.069
  729SOL     OW 3085   0.513   4.022   1.673
  729SOL    HW1 3086   0.455   4.100   1.649
  729SOL    HW2 3087   0.535   3.971   1.590
  730SOL     OW 3088   4.736   0.667   3.249
  730SOL    HW1 3089   4.832   0.677   3.273
  730SOL    HW2 3090   4.724   0.680   3.151
  731SOL     OW 3091   4.411   5.131   6.322
  731SOL    HW1 3092   4.410   5.230   6.312
  731SOL    HW2 3093   4.323   5.093   6.293
  732SOL     OW 3094   4.638   1.667   4.461
  732SOL    HW1 3095   4.594   1.614   4.388
  732SOL    HW2 3096   4.735   1.644   4.464
  733SOL     OW 3097   6.346   6.350   3.152
  733SOL    HW1 3098   6.273   6.327   3.087
  733SOL    HW2 3099   6.321   6.316   3.243
  734SOL     OW 3100   6.194   6.175   2.406
  734SOL    HW1 3101   6.130   6.230   2.353
  734SOL    HW2 3102   6.165   6.080   2.406
  735SOL     OW 3103   4.694   0.655   2.673
  735SOL    HW1 3104   4.625   0.615   2.612
  735SOL    HW2 3105   4.662   0.650   2.768
  736SOL     OW 3106   1.540   1.684   4.190
  736SOL    HW1 3107   1.569   1.727   4.275
  736SOL    HW2 3108   1.490   1.751   4.134
  737SOL     OW 3109   4.762   1.205   6.867
  737SOL    HW1 3110   4.734   1.126   6.812
  737SOL    HW2 3111   4.851   1.187   6.909
  738SOL     OW 3112   1.866   4.547   1.114
  738SOL    HW1 3113   1.951   4.596   1.095
  738SOL    HW2 3114   1.887   4.451   1.133
  739SOL     OW 3115   2.888   6.787   4.517
  739SOL    HW1 3116   2.834   6.840   4.451
  739SOL    HW2 3117   2.916   6.847   4.592
  740SOL     OW 3118   5.462   3.470   2.625
  740SOL    HW1 3119   5.499   3.550   2.673
  740SOL    HW2 3120   5.387   3.431   2.679
  741SOL     OW 3121   2.481   1.002   2.974
  741SOL    HW1 3122   2.382   1.015   2.972
  741SOL    HW2 3123   2.502   0.916   3.021
  742SOL     OW 3124   1.877   6.866   1.857
  742SOL    HW1 3125   1.832   6.843   1.944
  742SOL    HW2 3126   1.922   6.955   1.864
  743SOL     OW 3127   0.801   6.167   3.375
  743SOL    HW1 3128   0.710   6.207   3.380
  743SOL    HW2 3129   0.855   6.195   3.454
  744SOL     OW 3130   4.508   1.828   0.264
  744SOL    HW1 3131   4.462   1.911   0.232
  744SOL    HW2 3132   4.548   1.780   0.186
  745SOL     OW 3133   2.558   6.562   5.099
  745SOL    HW1 3134   2.604   6.650   5.093
  745SOL    HW2 3135   2.615   6.491   5.057
  746SOL     OW 3136   6.796   4.876   5.687
  746SOL    HW1 3137   6.879   4.820   5.691
  746SOL    HW2 3138   6.719   4.819   5.658
  747SOL     OW 3139   4.971   6.046   3.056
  747SOL    HW1 3140   5.018   6.107   3.121
  747SOL    HW2 3141   4.876   6.034   3.084
  748SOL     OW 3142   5.496   5.500   2.115
  748SOL    HW1 3143   5.501   5.530   2.210
  748SOL    HW2 3144   5.400   5.491   2.089
  749SOL     OW 3145   4.875   3.642   3.534
  749SOL    HW1 3146   4.865   3.580   3.456
  749SOL    HW2 3147   4.890   3.735   3.501
  750SOL     OW 3148   2.185   2.093   1.714
  750SOL    HW1 3149   2.222   2.008   1.751
  750SOL    HW2 3150   2.254   2.137   1.656
  751SOL     OW 3151   4.344   0.242   0.352
  751SOL    HW1 3152   4.371   0.318   0.411
  751SOL    HW2 3153   4.267   0.272   0.294
  752SOL     OW 3154   3.606   2.436   5.414
  752SOL    HW1 3155   3.607   2.535   5.400
  752SOL    HW2 3156   3.520   2.399   5.380
  753SOL     OW 3157   3.574   3.664   5.082
  753SOL    HW1 3158   3.638   3.655   5.158
  753SOL    HW2 3159   3.539   3.574   5.057
  754SOL     OW 3160   5.777   0.205   0.271
  754SOL    HW1 3161   5.792   0.226   0.175
  754SOL    HW2 3162   5.680   0.216   0.293
  755SOL     OW 3163   4.036   4.616   5.276
  755SOL    HW1 3164   4.125   4.571   5.271
  755SOL    HW2 3165   4.035   4.694   5.214
  756SOL     OW 3166   2.044   5.101   6.182
  756SOL    HW1 3167   2.142   5.083   6.187
  756SOL    HW2 3168   2.009   5.068   6.094
  757SOL     OW 3169   2.536   6.213   3.035
  757SOL    HW1 3170   2.553   6.211   3.133
  757SOL    HW2 3171   2.549   6.121   2.997
  758SOL     OW 3172   3.127   1.129   3.825
  758SOL    HW1 3173   3.121   1.041   3.779
  758SOL    HW2 3174   3.046   1.184   3.803
  759SOL     OW 3175   0.218   2.677   4.228
  759SOL    HW1 3176   0.288   2.644   4.166
  759SOL    HW2 3177   0.207   2.613   4.303
  760SOL     OW 3178   6.027   5.307   3.284
  760SOL    HW1 3179   6.081   5.391   3.276
  760SOL    HW2 3180   6.088   5.230   3.302
  761SOL     OW 3181   3.822   3.270   6.014
  761SOL    HW1 3182   3.861   3.220   6.092
  761SOL    HW2 3183   3.834   3.217   5.931
  762SOL     OW 3184   3.256   5.845   4.039
  762SOL    HW1 3185   3.240   5.835   4.137
  762SOL    HW2 3186   3.294   5.759   4.003
  763SOL     OW 3187   6.003   0.594   0.341
  763SOL    HW1 3188   6.091   0.632   0.313
  763SOL    HW2 3189   6.010   0.494   0.345
  764SOL     OW 3190   5.605   0.436   5.525
  764SOL    HW1 3191   5.698   0.438   5.489
  764SOL    HW2 3192   5.569   0.343   5.518
  765SOL     OW 3193   6.565   6.468   0.526
  765SOL    HW1 3194   6.620   6.421   0.457
  765SOL    HW2 3195   6.488   6.409   0.553
  766SOL     OW 3196   2.296   2.257   5.116
  766SOL    HW1 3197   2.251   2.234   5.030
  766SOL    HW2 3198   2.243   2.329   5.162
  767SOL     OW 3199   6.853   6.167   4.585
  767SOL    HW1 3200   6.935   6.151   4.640
  767SOL    HW2 3201   6.803   6.081   4.575
  768SOL     OW 3202   2.214   5.209   2.212
  768SOL    HW1 3203   2.195   5.111   2.213
  768SOL    HW2 3204   2.198   5.247   2.303
  769SOL     OW 3205   2.719   2.254   4.738
  769SOL    HW1 3206   2.684   2.202   4.816
  769SOL    HW2 3207   2.818   2.264   4.746
  770SOL     OW 3208   1.257   4.426   5.383
  770SOL    HW1 3209   1.258   4.517   5.424
  770SOL    HW2 3210   1.221   4.360   5.448
  771SOL     OW 3211   1.209   5.692   3.251
  771SOL    HW1 3212   1.289   5.656   3.203
  771SOL    HW2 3213   1.230   5.703   3.348
  772SOL     OW 3214   5.552   4.141   0.666
  772SOL    HW1 3215   5.575   4.060   0.720
  772SOL    HW2 3216   5.620   4.153   0.594
  773SOL     OW 3217   0.696   3.888   3.408
  773SOL    HW1 3218   0.729   3.801   3.371
  773SOL    HW2 3219   0.725   3.897   3.503
  774SOL     OW 3220   2.115   0.154   3.123
  774SOL    HW1 3221   2.132   0.063   3.084
  774SOL    HW2 3222   2.123   0.150   3.222
  775SOL     OW 3223   1.989   4.826   2.639
  775SOL    HW1 3224   1.911   4.796   2.583
  775SOL    HW2 3225   1.956   4.879   2.717
  776SOL     OW 3226   3.075   5.187   6.701
  776SOL    HW1 3227   3.098   5.158   6.608
  776SOL    HW2 3228   3.027   5.275   6.697
  777SOL     OW 3229   2.330   4.216   0.299
  777SOL    HW1 3230   2.305   4.141   0.237
  777SOL    HW2 3231   2.339   4.180   0.392
  778SOL     OW 3232   3.139   6.815   0.846
  778SOL    HW1 3233   3.079   6.868   0.907
  778SOL    HW2 3234   3.101   6.724   0.833
  779SOL     OW 3235   6.964   2.068   3.532
  779SOL    HW1 3236   6.997   2.060   3.438
  779SOL    HW2 3237   6.878   2.120   3.533
  780SOL     OW 3238   0.705   1.823   4.090
  780SOL    HW1 3239   0.772   1.750   4.102
  780SOL    HW2 3240   0.749   1.901   4.046
  781SOL     OW 3241   0.762   4.412   0.282
  781SOL    HW1 3242   0.789   4.387   0.189
  781SOL    HW2 3243   0.745   4.329   0.335
  782SOL     OW 3244   1.734   3.328   5.242
  782SOL    HW1 3245   1.827   3.298   5.264
  782SOL    HW2 3246   1.729   3.428   5.246
  783SOL     OW 3247   6.526   4.780   6.307
  783SOL    HW1 3248   6.551   4.742   6.397
  783SOL    HW2 3249   6.485   4.708   6.251
  784SOL     OW 3250   2.684   6.410   0.564
  784SOL    HW1 3251   2.653   6.423   0.470
  784SOL    HW2 3252   2.710   6.315   0.578
  785SOL     OW 3253   1.254   6.737   4.565
  785SOL    HW1 3254   1.268   6.805   4.637
  785SOL    HW2 3255   1.283   6.648   4.597
  786SOL     OW 3256   6.675   1.090   3.778
  786SOL    HW1 3257   6.702   1.070   3.873
  786SOL    HW2 3258   6.672   1.190   3.765
  787SOL     OW 3259   2.403   0.335   0.727
  787SOL    HW1 3260   2.482   0.388   0.696
  787SOL    HW2 3261   2.429   0.239   0.739
  788SOL     OW 3262   2.342   2.219   1.494
  788SOL    HW1 3263   2.431   2.207   1.539
  788SOL    HW2 3264   2.332   2.314   1.467
  789SOL     OW 3265   4.351   4.919   1.796
  789SOL    HW1 3266   4.299   4.953   1.874
  789SOL    HW2 3267   4.365   4.821   1.805
  790SOL     OW 3268   0.398   2.098   2.768
  790SOL    HW1 3269   0.410   2.082   2.866
  790SOL    HW2 3270   0.481   2.070   2.720
  791SOL     OW 3271   2.873   5.459   4.353
  791SOL    HW1 3272   2.926   5.535   4.392
  791SOL    HW2 3273   2.783   5.456   4.397
  792SOL     OW 3274   1.436   0.664   0.372
  792SOL    HW1 3275   1.398   0.680   0.462
  792SOL    HW2 3276   1.451   0.752   0.326
  793SOL     OW 3277   2.822   6.053   3.843
  793SOL    HW1 3278   2.911   6.012   3.863
  793SOL    HW2 3279   2.821   6.085   3.748
  794SOL     OW 3280   3.548   3.270   2.877
  794SOL    HW1 3281   3.582   3.181   2.909
  794SOL    HW2 3282   3.503   3.258   2.789
  795SOL     OW 3283   3.483   0.304   6.096
  795SOL    HW1 3284   3.546   0.301   6.174
  795SOL    HW2 3285   3.471   0.398   6.066
  796SOL     OW 3286   1.241   3.255   6.882
  796SOL    HW1 3287   1.271   3.166   6.917
  796SOL    HW2 3288   1.302   3.284   6.808
  797SOL     OW 3289   4.798   0.060   0.797
  797SOL    HW1 3290   4.812   0.020   0.888
  797SOL    HW2 3291   4.727   0.009   0.749
  798SOL     OW 3292   4.394   6.586   0.672
  798SOL    HW1 3293   4.389   6.567   0.574
  798SOL    HW2 3294   4.319   6.540   0.719
  799SOL     OW 3295   2.086   2.354   5.621
  799SOL    HW1 3296   2.076   2.446   5.658
  799SOL    HW2 3297   2.180   2.340   5.588
  800SOL     OW 3298   6.251   3.165   2.622
  800SOL    HW1 3299   6.166   3.211   2.596
  800SOL    HW2 3300   6.272   3.094   2.556
  801SOL     OW 3301   2.263   5.514   5.784
  801SOL    HW1 3302   2.189   5.581   5.778
  801SOL    HW2 3303   2.228   5.429   5.822
  802SOL     OW 3304   5.310   2.604   6.282
  802SOL    HW1 3305   5.308   2.669   6.206
  802SOL    HW2 3306   5.397   2.554   6.280
  803SOL     OW 3307   2.466   1.162   5.112
  803SOL    HW1 3308   2.478   1.086   5.049
  803SOL    HW2 3309   2.453   1.127   5.204
  804SOL     OW 3310   5.505   0.373   2.520
  804SOL    HW1 3311   5.505   0.455   2.577
  804SOL    HW2 3312   5.594   0.365   2.474
  805SOL     OW 3313   3.718   0.849   3.210
  805SOL    HW1 3314   3.776   0.811   3.281
  805SOL    HW2 3315   3.629   0.874   3.249
  806SOL     OW 3316   2.266   5.979   6.065
  806SOL    HW1 3317   2.289   6.056   6.006
  806SOL    HW2 3318   2.348   5.947   6.112
  807SOL     OW 3319   1.150   6.085   6.157
  807SOL    HW1 3320   1.146   6.152   6.083
  807SOL    HW2 3321   1.084   6.110   6.228
  808SOL     OW 3322   5.941   3.144   6.784
  808SOL    HW1 3323   5.956   3.058   6.832
  808SOL    HW2 3324   5.856   3.138   6.731
  809SOL     OW 3325   2.159   4.650   7.015
  809SOL    HW1 3326   2.256   4.645   0.013
  809SOL    HW2 3327   2.140   4.597   6.932
  810SOL     OW 3328   3.604   3.447   6.995
  810SOL    HW1 3329   3.606   3.355   0.010
  810SOL    HW2 3330   3.623   3.442   6.897
  811SOL     OW 3331   5.781   4.828   4.614
  811SOL    HW1 3332   5.768   4.904   4.550
  811SOL    HW2 3333   5.752   4.856   4.705
  812SOL     OW 3334   0.625   3.298   2.090
  812SOL    HW1 3335   0.716   3.309   2.130
  812SOL    HW2 3336   0.556   3.326   2.157
  813SOL     OW 3337   1.113   2.110   4.270
  813SOL    HW1 3338   1.180   2.118   4.196
  813SOL    HW2 3339   1.077   2.017   4.272
  814SOL     OW 3340   0.389   5.020   3.002
  814SOL    HW1 3341   0.433   5.051   3.086
  814SOL    HW2 3342   0.454   5.026   2.926
  815SOL     OW 3343   4.741   1.954   4.423
  815SOL    HW1 3344   4.684   1.888   4.374
  815SOL    HW2 3345   4.837   1.927   4.416
  816SOL     OW 3346   5.433   4.689   6.316
  816SOL    HW1 3347   5.414   4.775   6.362
  816SOL    HW2 3348   5.475   4.625   6.380
  817SOL     OW 3349   1.357   4.129   6.825
  817SOL    HW1 3350   1.314   4.050   6.781
  817SOL    HW2 3351   1.295   4.167   6.894
  818SOL     OW 3352   6.397   2.183   4.823
  818SOL    HW1 3353   6.373   2.217   4.914
  818SOL    HW2 3354   6.371   2.087   4.815
  819SOL     OW 3355   4.810   2.554   1.774
  819SOL    HW1 3356   4.742   2.481   1.785
  819SOL    HW2 3357   4.764   2.643   1.774
  820SOL     OW 3358   2.220   2.126   4.754
  820SOL    HW1 3359   2.208   2.217   4.793
  820SOL    HW2 3360   2.259   2.065   4.823
  821SOL     OW 3361   5.368   3.596   5.565
  821SOL    HW1 3362   5.282   3.562   5.603
  821SOL    HW2 3363   5.435   3.522   5.563
  822SOL     OW 3364   0.664   4.191   3.067
  822SOL    HW1 3365   0.680   4.244   2.983
  822SOL    HW2 3366   0.729   4.220   3.137
  823SOL     OW 3367   0.837   3.332   5.542
  823SOL    HW1 3368   0.830   3.423   5.502
  823SOL    HW2 3369   0.930   3.316   5.573
  824SOL     OW 3370   5.801   1.091   5.901
  824SOL    HW1 3371   5.706   1.096   5.933
  824SOL    HW2 3372   5.836   1.183   5.886
  825SOL     OW 3373   5.826   5.313   1.099
  825SOL    HW1 3374   5.787   5.366   1.023
  825SOL    HW2 3375   5.895   5.250   1.064
  826SOL     OW 3376   3.992   1.921   6.847
  826SOL    HW1 3377   3.984   1.967   6.759
  826SOL    HW2 3378   3.947   1.832   6.842
  827SOL     OW 3379   3.888   4.124   4.945
  827SOL    HW1 3380   3.987   4.118   4.955
  827SOL    HW2 3381   3.858   4.059   4.875
  828SOL     OW 3382   6.411   6.005   5.679
  828SOL    HW1 3383   6.489   6.029   5.736
  828SOL    HW2 3384   6.328   6.045   5.718
  829SOL     OW 3385   3.204   3.511   2.610
  829SOL    HW1 3386   3.234   3.597   2.650
  829SOL    HW2 3387   3.208   3.439   2.679
  830SOL     OW 3388   6.173   4.373   0.415
  830SOL    HW1 3389   6.184   4.472   0.409
  830SOL    HW2 3390   6.261   4.331   0.438
  831SOL     OW 3391   4.431   0.021   1.328
  831SOL    HW1 3392   4.404   6.994   1.410
  831SOL    HW2 3393   4.503   0.086   1.351
  832SOL     OW 3394   2.806   1.880   4.814
  832SOL    HW1 3395   2.783   1.922   4.902
  832SOL    HW2 3396   2.798   1.949   4.741
  833SOL     OW 3397   2.660   2.070   6.812
  833SOL    HW1 3398   2.579   2.127   6.824
  833SOL    HW2 3399   2.632   1.980   6.776
  834SOL     OW 3400   5.486   3.277   0.169
  834SOL    HW1 3401   5.468   3.263   0.072
  834SOL    HW2 3402   5.406   3.250   0.223
  835SOL     OW 3403   0.419   0.088   4.084
  835SOL    HW1 3404   0.457   0.012   4.135
  835SOL    HW2 3405   0.437   0.075   3.987
  836SOL     OW 3406   3.735   1.388   4.576
  836SOL    HW1 3407   3.669   1.405   4.649
  836SOL    HW2 3408   3.709   1.306   4.526
  837SOL     OW 3409   1.712   0.645   0.444
  837SOL    HW1 3410   1.713   0.551   0.477
  837SOL    HW2 3411   1.618   0.672   0.422
  838SOL     OW 3412   1.782   5.197   3.728
  838SOL    HW1 3413   1.808   5.125   3.792
  838SOL    HW2 3414   1.725   5.265   3.775
  839SOL     OW 3415   1.134   2.114   0.432
  839SOL    HW1 3416   1.164   2.082   0.342
  839SOL    HW2 3417   1.035   2.110   0.438
  840SOL     OW 3418   5.352   5.106   6.761
  840SOL    HW1 3419   5.419   5.066   6.700
  840SOL    HW2 3420   5.391   5.116   6.853
  841SOL     OW 3421   3.343   4.616   6.768
  841SOL    HW1 3422   3.261   4.631   6.713
  841SOL    HW2 3423   3.408   4.689   6.750
  842SOL     OW 3424   3.749   6.364   7.001
  842SOL    HW1 3425   3.657   6.347   6.966
  842SOL    HW2 3426   3.812   6.297   6.963
  843SOL     OW 3427   1.291   1.504   2.175
  843SOL    HW1 3428   1.225   1.446   2.223
  843SOL    HW2 3429   1.244   1.558   2.106
  844SOL     OW 3430   6.389   0.854   1.659
  844SOL    HW1 3431   6.367   0.934   1.604
  844SOL    HW2 3432   6.361   0.771   1.610
  845SOL     OW 3433   3.426   0.888   2.241
  845SOL    HW1 3434   3.341   0.940   2.236
  845SOL    HW2 3435   3.488   0.918   2.169
  846SOL     OW 3436   2.809   1.638   0.597
  846SOL    HW1 3437   2.890   1.596   0.636
  846SOL    HW2 3438   2.745   1.662   0.670
  847SOL     OW 3439   2.757   4.266   1.238
  847SOL    HW1 3440   2.791   4.191   1.295
  847SOL    HW2 3441   2.826   4.290   1.170
  848SOL     OW 3442   6.919   5.769   0.416
  848SOL    HW1 3443   6.849   5.720   0.364
  848SOL    HW2 3444   6.897   5.766   0.513
  849SOL     OW 3445   5.966   3.751   6.698
  849SOL    HW1 3446   5.975   3.850   6.691
  849SOL    HW2 3447   6.055   3.708   6.680
  850SOL     OW 3448   1.007   0.755   5.121
  850SOL    HW1 3449   0.971   0.683   5.062
  850SOL    HW2 3450   1.091   0.723   5.166
  851SOL     OW 3451   6.356   3.209   6.200
  851SOL    HW1 3452   6.336   3.148   6.277
  851SOL    HW2 3453   6.345   3.160   6.114
  852SOL     OW 3454   0.613   3.954   2.266
  852SOL    HW1 3455   0.588   3.868   2.221
  852SOL    HW2 3456   0.530   3.998   2.301
  853SOL     OW 3457   2.812   2.573   6.754
  853SOL    HW1 3458   2.803   2.627   6.838
  853SOL    HW2 3459   2.857   2.486   6.775
  854SOL     OW 3460   5.573   6.784   6.583
  854SOL    HW1 3461   5.642   6.712   6.575
  854SOL    HW2 3462   5.486   6.742   6.612
  855SOL     OW 3463   5.757   1.472   0.137
  855SOL    HW1 3464   5.801   1.382   0.138
  855SOL    HW2 3465   5.827   1.543   0.133
  856SOL     OW 3466   1.880   6.017   1.017
  856SOL    HW1 3467   1.963   6.018   0.961
  856SOL    HW2 3468   1.875   6.100   1.072
  857SOL     OW 3469   6.266   5.420   5.557
  857SOL    HW1 3470   6.258   5.502   5.614
  857SOL    HW2 3471   6.269   5.446   5.461
  858SOL     OW 3472   4.714   3.300   0.209
  858SOL    HW1 3473   4.755   3.351   0.133
  858SOL    HW2 3474   4.661   3.363   0.266
  859SOL     OW 3475   4.542   6.310   5.613
  859SOL    HW1 3476   4.443   6.299   5.620
  859SOL    HW2 3477   4.569   6.395   5.658
  860SOL     OW 3478   5.496   3.428   5.935
  860SOL    HW1 3479   5.502   3.396   5.841
  860SOL    HW2 3480   5.430   3.503   5.941
  861SOL     OW 3481   2.460   5.962   2.201
  861SOL    HW1 3482   2.526   6.034   2.180
  861SOL    HW2 3483   2.397   5.950   2.124
  862SOL     OW 3484   0.452   4.024   3.411
  862SOL    HW1 3485   0.541   3.986   3.384
  862SOL    HW2 3486   0.456   4.124   3.406
  863SOL     OW 3487   7.012   0.588   0.192
  863SOL    HW1 3488   6.967   0.531   0.123
  863SOL    HW2 3489   6.963   0.675   0.200
  864SOL     OW 3490   5.788   0.104   4.746
  864SOL    HW1 3491   5.707   0.132   4.694
  864SOL    HW2 3492   5.762   0.038   4.817
  865SOL     OW 3493   1.760   6.342   4.996
  865SOL    HW1 3494   1.755   6.399   4.914
  865SOL    HW2 3495   1.726   6.392   5.075
  866SOL     OW 3496   3.549   6.317   2.049
  866SOL    HW1 3497   3.497   6.331   2.134
  866SOL    HW2 3498   3.578   6.405   2.013
  867SOL     OW 3499   5.765   2.473   6.737
  867SOL    HW1 3500   5.768   2.518   6.826
  867SOL    HW2 3501   5.670   2.453   6.713
  868SOL     OW 3502   0.035   1.801   2.453
  868SOL    HW1 3503   6.964   1.833   2.448
  868SOL    HW2 3504   0.052   1.763   2.543
  869SOL     OW 3505   6.805   3.961   3.499
  869SOL    HW1 3506   6.788   3.998   3.408
  869SOL    HW2 3507   6.732   3.988   3.560
  870SOL     OW 3508   3.700   5.138   2.007
  870SOL    HW1 3509   3.655   5.108   1.922
  870SOL    HW2 3510   3.799   5.128   1.997
  871SOL     OW 3511   4.134   1.780   3.165
  871SOL    HW1 3512   4.070   1.771   3.241
  871SOL    HW2 3513   4.159   1.689   3.131
  872SOL     OW 3514   6.925   2.917   5.307
  872SOL    HW1 3515   6.916   2.969   5.222
  872SOL    HW2 3516   6.873   2.832   5.299
  873SOL     OW 3517   4.845   6.658   6.033
  873SOL    HW1 3518   4.856   6.752   6.000
  873SOL    HW2 3519   4.934   6.615   6.043
  874SOL     OW 3520   4.526   4.229   0.454
  874SOL    HW1 3521   4.452   4.181   0.500
  874SOL    HW2 3522   4.528   4.324   0.485
  875SOL     OW 3523   5.512   5.442   0.511
  875SOL    HW1 3524   5.590   5.427   0.450
  875SOL    HW2 3525   5.486   5.356   0.555
  876SOL     OW 3526   6.868   6.595   1.147
  876SOL    HW1 3527   6.905   6.600   1.240
  876SOL    HW2 3528   6.769   6.606   1.150
  877SOL     OW 3529   2.769   3.544   6.581
  877SOL    HW1 3530   2.686   3.568   6.532
  877SOL    HW2 3531   2.752   3.464   6.639
  878SOL     OW 3532   4.064   6.672   4.093
  878SOL    HW1 3533   4.001   6.728   4.147
  878SOL    HW2 3534   4.024   6.653   4.004
  879SOL     OW 3535   5.937   0.473   0.722
  879SOL    HW1 3536   5.977   0.556   0.682
  879SOL    HW2 3537   5.839   0.470   0.702
  880SOL     OW 3538   3.072   3.138   2.862
  880SOL    HW1 3539   3.116   3.228   2.851
  880SOL    HW2 3540   3.141   3.071   2.891
  881SOL     OW 3541   4.196   1.614   6.879
  881SOL    HW1 3542   4.178   1.529   6.928
  881SOL    HW2 3543   4.253   1.674   6.935
  882SOL     OW 3544   1.211   3.628   4.276
  882SOL    HW1 3545   1.216   3.562   4.201
  882SOL    HW2 3546   1.287   3.612   4.339
  883SOL     OW 3547   2.907   0.251   2.844
  883SOL    HW1 3548   2.897   0.204   2.757
  883SOL    HW2 3549   2.915   0.350   2.829
  884SOL     OW 3550   4.694   3.331   5.702
  884SOL    HW1 3551   4.673   3.359   5.608
  884SOL    HW2 3552   4.687   3.410   5.763
  885SOL     OW 3553   3.914   2.442   6.166
  885SOL    HW1 3554   3.947   2.347   6.166
  885SOL    HW2 3555   3.816   2.443   6.150
  886SOL     OW 3556   3.448   0.220   6.805
  886SOL    HW1 3557   3.375   0.273   6.762
  886SOL    HW2 3558   3.409   0.153   6.868
  887SOL     OW 3559   4.350   1.670   3.936
  887SOL    HW1 3560   4.317   1.727   3.860
  887SOL    HW2 3561   4.445   1.696   3.957
  888SOL     OW 3562   6.862   6.982   3.429
  888SOL    HW1 3563   6.867   0.058   3.434
  888SOL    HW2 3564   6.881   6.952   3.335
  889SOL     OW 3565   0.892   3.584   6.972
  889SOL    HW1 3566   0.840   3.669   6.983
  889SOL    HW2 3567   0.985   3.606   6.943
  890SOL     OW 3568   2.501   5.448   4.052
  890SOL    HW1 3569   2.530   5.541   4.028
  890SOL    HW2 3570   2.571   5.383   4.024
  891SOL     OW 3571   5.773   5.489   0.882
  891SOL    HW1 3572   5.780   5.578   0.928
  891SOL    HW2 3573   5.819   5.494   0.794
  892SOL     OW 3574   3.003   4.878   6.146
  892SOL    HW1 3575   3.078   4.811   6.141
  892SOL    HW2 3576   2.933   4.845   6.210
  893SOL     OW 3577   2.677   6.646   3.103
  893SOL    HW1 3578   2.633   6.654   3.192
  893SOL    HW2 3579   2.717   6.735   3.078
  894SOL     OW 3580   1.594   3.792   1.606
  894SOL    HW1 3581   1.657   3.757   1.537
  894SOL    HW2 3582   1.531   3.719   1.635
  895SOL     OW 3583   0.550   6.265   3.374
  895SOL    HW1 3584   0.503   6.350   3.395
  895SOL    HW2 3585   0.485   6.200   3.335
  896SOL     OW 3586   6.263   6.330   5.262
  896SOL    HW1 3587   6.250   6.318   5.164
  896SOL    HW2 3588   6.335   6.268   5.294
  897SOL     OW 3589   5.574   0.561   6.620
  897SOL    HW1 3590   5.542   0.653   6.641
  897SOL    HW2 3591   5.507   0.494   6.653
  898SOL     OW 3592   4.174   5.979   3.174
  898SOL    HW1 3593   4.160   5.913   3.248
  898SOL    HW2 3594   4.093   6.038   3.166
  899SOL     OW 3595   6.898   4.997   6.613
  899SOL    HW1 3596   6.845   4.925   6.570
  899SOL    HW2 3597   6.911   5.072   6.548
  900SOL     OW 3598   5.595   6.036   0.593
  900SOL    HW1 3599   5.620   6.110   0.530
  900SOL    HW2 3600   5.677   5.996   0.633
  901SOL     OW 3601   1.265   1.108   2.156
  901SOL    HW1 3602   1.333   1.069   2.216
  901SOL    HW2 3603   1.252   1.205   2.177
  902SOL     OW 3604   6.385   4.289   1.497
  902SOL    HW1 3605   6.366   4.235   1.415
  902SOL    HW2 3606   6.477   4.326   1.493
  903SOL     OW 3607   6.587   2.742   0.279
  903SOL    HW1 3608   6.531   2.673   0.324
  903SOL    HW2 3609   6.602   2.818   0.342
  904SOL     OW 3610   3.028   1.714   2.490
  904SOL    HW1 3611   3.044   1.810   2.512
  904SOL    HW2 3612   3.116   1.668   2.477
  905SOL     OW 3613   5.892   2.647   6.971
  905SOL    HW1 3614   5.904   2.637   0.046
  905SOL    HW2 3615   5.951   2.720   6.937
  906SOL     OW 3616   6.560   3.169   6.558
  906SOL    HW1 3617   6.510   3.253   6.536
  906SOL    HW2 3618   6.601   3.177   6.649
  907SOL     OW 3619   4.753   3.681   6.619
  907SOL    HW1 3620   4.795   3.595   6.589
  907SOL    HW2 3621   4.790   3.706   6.709
  908SOL     OW 3622   2.786   4.767   2.532
  908SOL    HW1 3623   2.786   4.736   2.437
  908SOL    HW2 3624   2.715   4.720   2.583
  909SOL     OW 3625   5.366   4.930   6.402
  909SOL    HW1 3626   5.407   4.975   6.481
  909SOL    HW2 3627   5.377   4.988   6.321
  910SOL     OW 3628   2.658   3.328   1.295
  910SOL    HW1 3629   2.685   3.270   1.372
  910SOL    HW2 3630   2.565   3.304   1.267
  911SOL     OW 3631   1.219   5.572   6.756
  911SOL    HW1 3632   1.174   5.490   6.791
  911SOL    HW2 3633   1.153   5.646   6.750
  912SOL     OW 3634   4.911   2.119   2.789
  912SOL    HW1 3635   4.824   2.128   2.838
  912SOL    HW2 3636   4.930   2.022   2.774
  913SOL     OW 3637   5.114   0.040   3.414
  913SOL    HW1 3638   5.066   0.013   3.330
  913SOL    HW2 3639   5.140   6.983   3.465
  914SOL     OW 3640   2.381   6.826   0.166
  914SOL    HW1 3641   2.455   6.823   0.233
  914SOL    HW2 3642   2.333   6.914   0.172
  915SOL     OW 3643   6.272   6.031   0.550
  915SOL    HW1 3644   6.270   5.969   0.629
  915SOL    HW2 3645   6.253   5.980   0.467
  916SOL     OW 3646   0.610   2.353   2.298
  916SOL    HW1 3647   0.600   2.257   2.324
  916SOL    HW2 3648   0.703   2.367   2.262
  917SOL     OW 3649   6.936   0.129   0.647
  917SOL    HW1 3650   6.966   0.220   0.674
  917SOL    HW2 3651   7.016   0.070   0.635
  918SOL     OW 3652   1.604   5.530   0.721
  918SOL    HW1 3653   1.590   5.555   0.817
  918SOL    HW2 3654   1.698   5.497   0.709
  919SOL     OW 3655   5.451   1.546   4.560
  919SOL    HW1 3656   5.520   1.613   4.589
  919SOL    HW2 3657   5.421   1.492   4.638
  920SOL     OW 3658   2.836   4.718   2.284
  920SOL    HW1 3659   2.804   4.697   2.192
  920SOL    HW2 3660   2.928   4.680   2.297
  921SOL     OW 3661   5.116   5.691   4.689
  921SOL    HW1 3662   5.077   5.691   4.781
  921SOL    HW2 3663   5.104   5.781   4.647
  922SOL     OW 3664   4.068   3.612   3.674
  922SOL    HW1 3665   4.062   3.691   3.613
  922SOL    HW2 3666   4.070   3.644   3.769
  923SOL     OW 3667   2.207   3.278   5.840
  923SOL    HW1 3668   2.155   3.357   5.805
  923SOL    HW2 3669   2.246   3.228   5.763
  924SOL     OW 3670   0.071   3.702   2.857
  924SOL    HW1 3671   6.997   3.680   2.861
  924SOL    HW2 3672   0.101   3.703   2.761
  925SOL     OW 3673   5.791   1.833   0.309
  925SOL    HW1 3674   5.746   1.826   0.398
  925SOL    HW2 3675   5.722   1.842   0.237
  926SOL     OW 3676   0.486   1.447   2.049
  926SOL    HW1 3677   0.464   1.537   2.013
  926SOL    HW2 3678   0.559   1.406   1.995
  927SOL     OW 3679   5.801   4.155   3.485
  927SOL    HW1 3680   5.753   4.202   3.559
  927SOL    HW2 3681   5.872   4.097   3.523
  928SOL     OW 3682   2.841   5.149   0.049
  928SOL    HW1 3683   2.847   5.146   0.148
  928SOL    HW2 3684   2.933   5.145   0.009
  929SOL     OW 3685   6.767   1.483   5.348
  929SOL    HW1 3686   6.705   1.405   5.350
  929SOL    HW2 3687   6.860   1.452   5.369
  930SOL     OW 3688   5.528   5.339   5.771
  930SOL    HW1 3689   5.480   5.255   5.793
  930SOL    HW2 3690   5.463   5.413   5.757
  931SOL     OW 3691   6.439   2.702   2.960
  931SOL    HW1 3692   6.412   2.791   2.998
  931SOL    HW2 3693   6.450   2.636   3.034
  932SOL     OW 3694   3.596   0.430   3.627
  932SOL    HW1 3695   3.584   0.526   3.604
  932SOL    HW2 3696   3.509   0.392   3.658
  933SOL     OW 3697   1.505   5.016   2.092
  933SOL    HW1 3698   1.476   5.041   2.000
  933SOL    HW2 3699   1.582   4.953   2.087
  934SOL     OW 3700   1.810   4.674   6.685
  934SOL    HW1 3701   1.734   4.610   6.672
  934SOL    HW2 3702   1.846   4.701   6.595
  935SOL     OW 3703   5.641   3.408   3.856
  935SOL    HW1 3704   5.568   3.370   3.799
  935SOL    HW2 3705   5.698   3.333   3.891
  936SOL     OW 3706   1.737   0.351   6.251
  936SOL    HW1 3707   1.649   0.370   6.295
  936SOL    HW2 3708   1.797   0.430   6.261
  937SOL     OW 3709   4.802   1.583   5.727
  937SOL    HW1 3710   4.811   1.577   5.628
  937SOL    HW2 3711   4.887   1.550   5.770
  938SOL     OW 3712   5.443   5.844   4.124
  938SOL    HW1 3713   5.498   5.806   4.049
  938SOL    HW2 3714   5.353   5.801   4.124
  939SOL     OW 3715   0.358   6.816   5.541
  939SOL    HW1 3716   0.433   6.783   5.484
  939SOL    HW2 3717   0.291   6.743   5.554
  940SOL     OW 3718   1.898   5.169   0.236
  940SOL    HW1 3719   1.900   5.259   0.193
  940SOL    HW2 3720   1.849   5.175   0.324
  941SOL     OW 3721   3.228   0.352   6.721
  941SOL    HW1 3722   3.218   0.378   6.624
  941SOL    HW2 3723   3.144   0.376   6.770
  942SOL     OW 3724   0.430   4.944   0.581
  942SOL    HW1 3725   0.511   5.002   0.590
  942SOL    HW2 3726   0.397   4.920   0.672
  943SOL     OW 3727   2.845   5.707   3.096
  943SOL    HW1 3728   2.880   5.624   3.140
  943SOL    HW2 3729   2.758   5.687   3.051
  944SOL     OW 3730   0.117   6.678   4.385
  944SOL    HW1 3731   0.155   6.598   4.431
  944SOL    HW2 3732   0.081   6.741   4.454
  945SOL     OW 3733   0.754   5.506   6.962
  945SOL    HW1 3734   0.681   5.437   6.955
  945SOL    HW2 3735   0.780   5.536   6.870
  946SOL     OW 3736   4.913   3.191   3.385
  946SOL    HW1 3737   4.874   3.138   3.460
  946SOL    HW2 3738   4.893   3.288   3.398
  947SOL     OW 3739   3.727   4.122   4.255
  947SOL    HW1 3740   3.814   4.073   4.245
  947SOL    HW2 3741   3.693   4.149   4.165
  948SOL     OW 3742   3.983   0.425   2.684
  948SOL    HW1 3743   4.013   0.465   2.597
  948SOL    HW2 3744   3.942   0.496   2.740
  949SOL     OW 3745   2.586   6.718   6.312
  949SOL    HW1 3746   2.607   6.811   6.282
  949SOL    HW2 3747   2.620   6.705   6.405
  950SOL     OW 3748   0.032   6.917   1.914
  950SOL    HW1 3749   0.088   6.959   1.843
  950SOL    HW2 3750   0.043   6.968   1.999
  951SOL     OW 3751   2.264   6.945   3.502
  951SOL    HW1 3752   2.232   7.019   3.444
  951SOL    HW2 3753   2.199   6.930   3.577
  952SOL     OW 3754   3.371   1.155   1.834
  952SOL    HW1 3755   3.313   1.224   1.790
  952SOL    HW2 3756   3.464   1.192   1.844
  953SOL     OW 3757   6.071   4.526   5.569
  953SOL    HW1 3758   6.025   4.602   5.523
  953SOL    HW2 3759   6.093   4.455   5.502
  954SOL     OW 3760   4.660   6.304   2.344
  954SOL    HW1 3761   4.655   6.402   2.360
  954SOL    HW2 3762   4.723   6.262   2.410
  955SOL     OW 3763   1.427   4.608   6.857
  955SOL    HW1 3764   1.507   4.647   6.900
  955SOL    HW2 3765   1.357   4.678   6.846
  956SOL     OW 3766   5.735   0.590   1.181
  956SOL    HW1 3767   5.756   0.684   1.208
  956SOL    HW2 3768   5.707   0.589   1.085
  957SOL     OW 3769   5.837   1.630   3.257
  957SOL    HW1 3770   5.756   1.642   3.314
  957SOL    HW2 3771   5.900   1.567   3.302
  958SOL     OW 3772   5.434   0.166   1.895
  958SOL    HW1 3773   5.355   0.220   1.866
  958SOL    HW2 3774   5.403   0.082   1.939
  959SOL     OW 3775   4.284   6.244   4.318
  959SOL    HW1 3776   4.208   6.308   4.328
  959SOL    HW2 3777   4.334   6.265   4.234
  960SOL     OW 3778   0.931   6.928   6.934
  960SOL    HW1 3779   0.914   0.001   6.950
  960SOL    HW2 3780   0.906   6.876   7.016
  961SOL     OW 3781   3.728   6.933   3.151
  961SOL    HW1 3782   3.646   6.897   3.106
  961SOL    HW2 3783   3.720   0.008   3.162
  962SOL     OW 3784   6.436   0.400   5.275
  962SOL    HW1 3785   6.373   0.403   5.352
  962SOL    HW2 3786   6.385   0.388   5.190
  963SOL     OW 3787   5.855   3.279   0.999
  963SOL    HW1 3788   5.911   3.196   0.994
  963SOL    HW2 3789   5.907   3.352   1.044
  964SOL     OW 3790   4.770   4.214   5.313
  964SOL    HW1 3791   4.772   4.120   5.278
  964SOL    HW2 3792   4.863   4.249   5.318
  965SOL     OW 3793   6.087   2.910   3.542
  965SOL    HW1 3794   6.110   2.840   3.610
  965SOL    HW2 3795   5.989   2.908   3.524
  966SOL     OW 3796   4.700   2.197   4.524
  966SOL    HW1 3797   4.725   2.105   4.494
  966SOL    HW2 3798   4.602   2.201   4.543
  967SOL     OW 3799   5.184   4.206   6.161
  967SOL    HW1 3800   5.104   4.175   6.109
  967SOL    HW2 3801   5.264   4.152   6.134
  968SOL     OW 3802   3.298   0.847   1.777
  968SOL    HW1 3803   3.351   0.924   1.814
  968SOL    HW2 3804   3.355   0.795   1.713
  969SOL     OW 3805   3.860   4.466   6.145
  969SOL    HW1 3806   3.794   4.460   6.071
  969SOL    HW2 3807   3.942   4.513   6.113
  970SOL     OW 3808   6.323   0.094   6.251
  970SOL    HW1 3809   6.394   0.164   6.263
  970SOL    HW2 3810   6.272   0.084   6.336
  971SOL     OW 3811   5.826   4.708   2.429
  971SOL    HW1 3812   5.770   4.709   2.511
  971SOL    HW2 3813   5.789   4.642   2.363
  972SOL     OW 3814   0.085   3.045   0.691
  972SOL    HW1 3815   0.173   3.093   0.690
  972SOL    HW2 3816   0.075   2.998   0.779
  973SOL     OW 3817   6.716   3.540   6.161
  973SOL    HW1 3818   6.725   3.638   6.141
  973SOL    HW2 3819   6.706   3.528   6.260
  974SOL     OW 3820   0.111   5.048   3.761
  974SOL    HW1 3821   0.112   4.998   3.675
  974SOL    HW2 3822   0.205   5.063   3.793
  975SOL     OW 3823   2.558   6.996   2.124
  975SOL    HW1 3824   2.481   7.003   2.187
  975SOL    HW2 3825   2.602   6.907   2.134
  976SOL     OW 3826   6.348   3.271   3.128
  976SOL    HW1 3827   6.272   3.230   3.077
  976SOL    HW2 3828   6.320   3.360   3.164
  977SOL     OW 3829   0.275   0.820   2.500
  977SOL    HW1 3830   0.374   0.833   2.499
  977SOL    HW2 3831   0.252   0.732   2.459
  978SOL     OW 3832   5.535   3.189   1.904
  978SOL    HW1 3833   5.597   3.164   1.979
  978SOL    HW2 3834   5.553   3.283   1.876
  979SOL     OW 3835   0.702   4.054   6.631
  979SOL    HW1 3836   0.615   4.026   6.591
  979SOL    HW2 3837   0.776   4.041   6.565
  980SOL     OW 3838   2.990   1.610   4.609
  980SOL    HW1 3839   3.069   1.662   4.643
  980SOL    HW2 3840   2.920   1.604   4.681
  981SOL     OW 3841   6.670   6.583   5.045
  981SOL    HW1 3842   6.616   6.604   5.127
  981SOL    HW2 3843   6.609   6.552   4.972
  982SOL     OW 3844   6.324   0.632   5.613
  982SOL    HW1 3845   6.368   0.673   5.693
  982SOL    HW2 3846   6.226   0.653   5.614
  983SOL     OW 3847   0.160   4.822   4.794
  983SOL    HW1 3848   0.254   4.832   4.764
  983SOL    HW2 3849   0.099   4.873   4.733
  984SOL     OW 3850   0.823   2.499   3.221
  984SOL    HW1 3851   0.764   2.531   3.146
  984SOL    HW2 3852   0.822   2.399   3.223
  985SOL     OW 3853   6.413   4.862   5.157
  985SOL    HW1 3854   6.390   4.858   5.059
  985SOL    HW2 3855   6.498   4.912   5.169
  986SOL     OW 3856   5.421   4.755   1.264
  986SOL    HW1 3857   5.379   4.736   1.175
  986SOL    HW2 3858   5.424   4.671   1.318
  987SOL     OW 3859   5.112   4.612   4.094
  987SOL    HW1 3860   5.163   4.697   4.087
  987SOL    HW2 3861   5.094   4.575   4.003
  988SOL     OW 3862   2.724   4.494   1.389
  988SOL    HW1 3863   2.820   4.512   1.411
  988SOL    HW2 3864   2.718   4.413   1.330
  989SOL     OW 3865   0.463   1.714   0.973
  989SOL    HW1 3866   0.452   1.811   0.955
  989SOL    HW2 3867   0.508   1.670   0.895
  990SOL     OW 3868   3.601   0.198   3.803
  990SOL    HW1 3869   3.609   0.227   3.899
  990SOL    HW2 3870   3.633   0.273   3.744
  991SOL     OW 3871   0.088   4.945   3.502
  991SOL    HW1 3872   0.094   4.845   3.491
  991SOL    HW2 3873   0.024   4.983   3.436
  992SOL     OW 3874   0.542   2.817   1.028
  992SOL    HW1 3875   0.463   2.878   1.038
  992SOL    HW2 3876   0.529   2.759   0.947
  993SOL     OW 3877   1.117   5.094   0.439
  993SOL    HW1 3878   1.059   5.047   0.506
  993SOL    HW2 3879   1.167   5.168   0.485
  994SOL     OW 3880   3.290   6.377   6.906
  994SOL    HW1 3881   3.381   6.335   6.912
  994SOL    HW2 3882   3.289   6.444   6.832
  995SOL     OW 3883   5.941   3.602   5.547
  995SOL    HW1 3884   5.987   3.690   5.531
  995SOL    HW2 3885   5.845   3.609   5.518
  996SOL     OW 3886   3.795   6.277   5.856
  996SOL    HW1 3887   3.862   6.342   5.891
  996SOL    HW2 3888   3.745   6.319   5.780
  997SOL     OW 3889   1.753   6.256   3.923
  997SOL    HW1 3890   1.744   6.269   3.824
  997SOL    HW2 3891   1.764   6.159   3.943
  998SOL     OW 3892   6.538   0.623   6.562
  998SOL    HW1 3893   6.465   0.642   6.496
  998SOL    HW2 3894   6.504   0.558   6.631
  999SOL     OW 3895   4.655   4.474   2.397
  999SOL    HW1 3896   4.598   4.473   2.479
  999SOL    HW2 3897   4.751   4.460   2.422
 1000SOL     OW 3898   4.346   2.145   1.196
 1000SOL    HW1 3899   4.414   2.175   1.263
 1000SOL    HW2 3900   4.393   2.108   1.116
 1001SOL     OW 3901   3.566   6.480   2.360
 1001SOL    HW1 3902   3.484   6.475   2.304
 1001SOL    HW2 3903   3.555   6.550   2.430
 1002SOL     OW 3904   5.208   2.336   1.126
 1002SOL    HW1 3905   5.260   2.417   1.155
 1002SOL    HW2 3906   5.198   2.273   1.203
 1003SOL     OW 3907   0.421   0.291   3.400
 1003SOL    HW1 3908   0.349   0.223   3.408
 1003SOL    HW2 3909   0.474   0.275   3.317
 1004SOL     OW 3910   5.590   1.832   3.645
 1004SOL    HW1 3911   5.534   1.801   3.722
 1004SOL    HW2 3912   5.658   1.897   3.678
 1005SOL     OW 3913   1.148   4.380   2.743
 1005SOL    HW1 3914   1.095   4.341   2.818
 1005SOL    HW2 3915   1.086   4.417   2.674
 1006SOL     OW 3916   2.891   3.620   0.843
 1006SOL    HW1 3917   2.926   3.595   0.933
 1006SOL    HW2 3918   2.798   3.584   0.831
 1007SOL     OW 3919   5.006   1.044   6.963
 1007SOL    HW1 3920   5.032   0.950   6.987
 1007SOL    HW2 3921   5.071   1.108   7.002
 1008SOL     OW 3922   0.050   4.815   5.252
 1008SOL    HW1 3923   0.033   4.775   5.162
 1008SOL    HW2 3924   0.105   4.751   5.306
 1009SOL     OW 3925   6.661   5.424   6.355
 1009SOL    HW1 3926   6.600   5.504   6.357
 1009SOL    HW2 3927   6.635   5.366   6.278
 1010SOL     OW 3928   2.839   3.281   0.891
 1010SOL    HW1 3929   2.839   3.296   0.990
 1010SOL    HW2 3930   2.912   3.335   0.850
 1011SOL     OW 3931   6.408   5.403   2.270
 1011SOL    HW1 3932   6.402   5.307   2.299
 1011SOL    HW2 3933   6.386   5.462   2.348
 1012SOL     OW 3934   4.632   0.426   3.473
 1012SOL    HW1 3935   4.691   0.389   3.402
 1012SOL    HW2 3936   4.651   0.524   3.485
 1013SOL     OW 3937   0.183   0.144   6.802
 1013SOL    HW1 3938   0.174   0.216   6.871
 1013SOL    HW2 3939   0.095   0.127   6.760
 1014SOL     OW 3940   0.939   4.730   4.945
 1014SOL    HW1 3941   0.969   4.703   5.037
 1014SOL    HW2 3942   1.013   4.779   4.899
 1015SOL     OW 3943   3.030   6.277   0.013
 1015SOL    HW1 3944   2.984   6.334   0.081
 1015SOL    HW2 3945   3.123   6.311   7.021
 1016SOL     OW 3946   6.172   4.246   1.752
 1016SOL    HW1 3947   6.138   4.340   1.743
 1016SOL    HW2 3948   6.116   4.185   1.695
 1017SOL     OW 3949   2.230   1.957   2.323
 1017SOL    HW1 3950   2.301   2.022   2.351
 1017SOL    HW2 3951   2.223   1.884   2.391
 1018SOL     OW 3952   6.747   6.061   3.718
 1018SOL    HW1 3953   6.699   6.131   3.771
 1018SOL    HW2 3954   6.844   6.085   3.711
 1019SOL     OW 3955   6.669   4.688   0.860
 1019SOL    HW1 3956   6.700   4.715   0.769
 1019SOL    HW2 3957   6.727   4.730   0.930
 1020SOL     OW 3958   6.294   0.950   0.818
 1020SOL    HW1 3959   6.289   1.049   0.810
 1020SOL    HW2 3960   6.342   0.912   0.739
 1021SOL     OW 3961   6.900   6.213   1.271
 1021SOL    HW1 3962   6.930   6.221   1.176
 1021SOL    HW2 3963   6.979   6.200   1.330
 1022SOL     OW 3964   2.326   5.725   6.818
 1022SOL    HW1 3965   2.291   5.807   6.772
 1022SOL    HW2 3966   2.372   5.666   6.752
 1023SOL     OW 3967   0.712   1.624   3.173
 1023SOL    HW1 3968   0.650   1.596   3.246
 1023SOL    HW2 3969   0.770   1.699   3.206
 1024SOL     OW 3970   1.944   2.082   4.623
 1024SOL    HW1 3971   1.943   2.007   4.556
 1024SOL    HW2 3972   2.017   2.066   4.689
 1025SOL     OW 3973   4.734   3.462   0.580
 1025SOL    HW1 3974   4.785   3.377   0.565
 1025SOL    HW2 3975   4.699   3.495   0.493
 1026SOL     OW 3976   3.252   2.804   0.765
 1026SOL    HW1 3977   3.350   2.790   0.768
 1026SOL    HW2 3978   3.222   2.851   0.848
 1027SOL     OW 3979   0.598   6.569   0.906
 1027SOL    HW1 3980   0.572   6.527   0.819
 1027SOL    HW2 3981   0.637   6.660   0.888
 1028SOL     OW 3982   1.387   6.192   2.693
 1028SOL    HW1 3983   1.476   6.189   2.648
 1028SOL    HW2 3984   1.329   6.118   2.657
 1029SOL     OW 3985   0.832   0.800   6.143
 1029SOL    HW1 3986   0.792   0.887   6.173
 1029SOL    HW2 3987   0.931   0.803   6.156
 1030SOL     OW 3988   3.650   3.137   1.143
 1030SOL    HW1 3989   3.683   3.069   1.208
 1030SOL    HW2 3990   3.639   3.225   1.190
 1031SOL     OW 3991   3.217   3.383   1.216
 1031SOL    HW1 3992   3.275   3.370   1.296
 1031SOL    HW2 3993   3.153   3.459   1.233
 1032SOL     OW 3994   2.394   2.124   6.020
 1032SOL    HW1 3995   2.372   2.193   6.089
 1032SOL    HW2 3996   2.480   2.079   6.043
 1033SOL     OW 3997   1.065   6.277   2.082
 1033SOL    HW1 3998   1.159   6.243   2.087
 1033SOL    HW2 3999   1.007   6.206   2.043
 1034SOL     OW 4000   3.175   0.067   4.084
 1034SOL    HW1 4001   3.191   6.992   4.088
 1034SOL    HW2 4002   3.150   0.100   4.175
 1035SOL     OW 4003   1.263   1.929   5.934
 1035SOL    HW1 4004   1.166   1.913   5.951
 1035SOL    HW2 4005   1.277   1.948   5.837
 1036SOL     OW 4006   5.397   1.825   1.018
 1036SOL    HW1 4007   5.474   1.807   1.079
 1036SOL    HW2 4008   5.376   1.742   0.966
 1037SOL     OW 4009   1.304   2.906   2.312
 1037SOL    HW1 4010   1.305   2.978   2.382
 1037SOL    HW2 4011   1.393   2.903   2.266
 1038SOL     OW 4012   2.787   6.191   0.324
 1038SOL    HW1 4013   2.810   6.274   0.273
 1038SOL    HW2 4014   2.704   6.151   0.287
 1039SOL     OW 4015   3.791   2.942   3.691
 1039SOL    HW1 4016   3.694   2.919   3.699
 1039SOL    HW2 4017   3.813   2.961   3.595
 1040SOL     OW 4018   3.706   0.968   2.970
 1040SOL    HW1 4019   3.706   0.919   3.057
 1040SOL    HW2 4020   3.772   1.044   2.975
 1041SOL     OW 4021   6.945   5.847   6.405
 1041SOL    HW1 4022   0.016   5.846   6.437
 1041SOL    HW2 4023   6.894   5.916   6.456
 1042SOL     OW 4024   5.358   4.870   2.802
 1042SOL    HW1 4025   5.394   4.906   2.888
 1042SOL    HW2 4026   5.423   4.887   2.729
 1043SOL     OW 4027   3.112   2.143   3.691
 1043SOL    HW1 4028   3.198   2.123   3.644
 1043SOL    HW2 4029   3.130   2.169   3.785
 1044SOL     OW 4030   5.338   4.729   1.994
 1044SOL    HW1 4031   5.319   4.824   2.019
 1044SOL    HW2 4032   5.387   4.728   1.907
 1045SOL     OW 4033   2.209   0.950   3.070
 1045SOL    HW1 4034   2.157   0.869   3.096
 1045SOL    HW2 4035   2.149   1.030   3.070
 1046SOL     OW 4036   3.186   1.138   1.006
 1046SOL    HW1 4037   3.182   1.107   0.911
 1046SOL    HW2 4038   3.191   1.238   1.008
 1047SOL     OW 4039   3.574   6.453   3.643
 1047SOL    HW1 4040   3.576   6.542   3.598
 1047SOL    HW2 4041   3.638   6.392   3.597
 1048SOL     OW 4042   1.478   6.479   2.303
 1048SOL    HW1 4043   1.380   6.460   2.311
 1048SOL    HW2 4044   1.527   6.394   2.282
 1049SOL     OW 4045   4.460   6.135   5.252
 1049SOL    HW1 4046   4.476   6.059   5.189
 1049SOL    HW2 4047   4.369   6.126   5.292
 1050SOL     OW 4048   3.354   5.184   3.020
 1050SOL    HW1 4049   3.388   5.196   2.927
 1050SOL    HW2 4050   3.395   5.253   3.080
 1051SOL     OW 4051   1.069   6.872   6.330
 1051SOL    HW1 4052   0.987   6.926   6.347
 1051SOL    HW2 4053   1.141   6.930   6.293
 1052SOL     OW 4054   3.537   0.830   0.041
 1052SOL    HW1 4055   3.466   0.806   0.107
 1052SOL    HW2 4056   3.495   0.850   6.976
 1053SOL     OW 4057   5.613   2.673   3.144
 1053SOL    HW1 4058   5.589   2.585   3.102
 1053SOL    HW2 4059   5.542   2.740   3.123
 1054SOL     OW 4060   3.081   5.069   5.971
 1054SOL    HW1 4061   3.018   5.146   5.980
 1054SOL    HW2 4062   3.063   5.002   6.043
 1055SOL     OW 4063   5.064   6.255   6.488
 1055SOL    HW1 4064   5.147   6.201   6.495
 1055SOL    HW2 4065   4.984   6.194   6.492
 1056SOL     OW 4066   3.039   3.664   6.318
 1056SOL    HW1 4067   3.099   3.618   6.383
 1056SOL    HW2 4068   2.956   3.609   6.304
 1057SOL     OW 4069   2.746   2.226   0.918
 1057SOL    HW1 4070   2.807   2.172   0.860
 1057SOL    HW2 4071   2.651   2.198   0.901
 1058SOL     OW 4072   2.307   2.787   2.405
 1058SOL    HW1 4073   2.241   2.856   2.376
 1058SOL    HW2 4074   2.331   2.729   2.327
 1059SOL     OW 4075   2.747   6.451   1.902
 1059SOL    HW1 4076   2.688   6.429   1.980
 1059SOL    HW2 4077   2.691   6.476   1.823
 1060SOL     OW 4078   5.796   6.505   5.494
 1060SOL    HW1 4079   5.812   6.526   5.591
 1060SOL    HW2 4080   5.852   6.427   5.467
 1061SOL     OW 4081   6.954   3.982   0.370
 1061SOL    HW1 4082   7.000   3.897   0.349
 1061SOL    HW2 4083   6.956   4.043   0.291
 1062SOL     OW 4084   3.726   6.398   5.004
 1062SOL    HW1 4085   3.802   6.464   5.001
 1062SOL    HW2 4086   3.738   6.330   4.932
 1063SOL     OW 4087   3.065   6.517   6.091
 1063SOL    HW1 4088   3.098   6.423   6.080
 1063SOL    HW2 4089   3.085   6.548   6.184
 1064SOL     OW 4090   1.654   3.670   0.522
 1064SOL    HW1 4091   1.685   3.670   0.617
 1064SOL    HW2 4092   1.599   3.588   0.505
 1065SOL     OW 4093   4.144   0.976   4.146
 1065SOL    HW1 4094   4.169   1.051   4.206
 1065SOL    HW2 4095   4.099   0.904   4.199
 1066SOL     OW 4096   5.109   6.813   1.957
 1066SOL    HW1 4097   5.101   6.846   1.863
 1066SOL    HW2 4098   5.020   6.824   2.003
 1067SOL     OW 4099   2.566   1.197   0.148
 1067SOL    HW1 4100   2.625   1.275   0.167
 1067SOL    HW2 4101   2.606   1.114   0.188
 1068SOL     OW 4102   6.401   3.551   1.426
 1068SOL    HW1 4103   6.472   3.545   1.497
 1068SOL    HW2 4104   6.317   3.510   1.461
 1069SOL     OW 4105   6.678   3.942   1.765
 1069SOL    HW1 4106   6.653   3.911   1.673
 1069SOL    HW2 4107   6.614   4.012   1.795
 1070SOL     OW 4108   1.008   6.996   2.085
 1070SOL    HW1 4109   0.974   0.061   2.055
 1070SOL    HW2 4110   1.091   6.972   2.035
 1071SOL     OW 4111   6.882   3.057   5.743
 1071SOL    HW1 4112   6.931   3.116   5.679
 1071SOL    HW2 4113   6.851   2.975   5.696
 1072SOL     OW 4114   2.275   1.329   1.911
 1072SOL    HW1 4115   2.329   1.350   1.992
 1072SOL    HW2 4116   2.208   1.402   1.896
 1073SOL     OW 4117   5.095   1.909   3.111
 1073SOL    HW1 4118   5.123   1.835   3.171
 1073SOL    HW2 4119   5.038   1.973   3.161
 1074SOL     OW 4120   2.705   4.707   1.719
 1074SOL    HW1 4121   2.782   4.668   1.769
 1074SOL    HW2 4122   2.719   4.806   1.709
 1075SOL     OW 4123   5.725   3.599   5.378
 1075SOL    HW1 4124   5.668   3.675   5.348
 1075SOL    HW2 4125   5.771   3.558   5.299
 1076SOL     OW 4126   2.180   3.860   4.835
 1076SOL    HW1 4127   2.255   3.857   4.900
 1076SOL    HW2 4128   2.107   3.919   4.870
 1077SOL     OW 4129   0.604   6.964   0.188
 1077SOL    HW1 4130   0.594   6.887   0.125
 1077SOL    HW2 4131   0.609   0.026   0.135
 1078SOL     OW 4132   6.722   6.716   4.209
 1078SOL    HW1 4133   6.667   6.647   4.161
 1078SOL    HW2 4134   6.667   6.798   4.222
 1079SOL     OW 4135   0.738   6.787   2.480
 1079SOL    HW1 4136   0.726   6.883   2.456
 1079SOL    HW2 4137   0.700   6.770   2.571
 1080SOL     OW 4138   2.650   5.228   6.416
 1080SOL    HW1 4139   2.662   5.244   6.514
 1080SOL    HW2 4140   2.552   5.227   6.394
 1081SOL     OW 4141   0.050   5.592   4.248
 1081SOL    HW1 4142   0.026   5.653   4.323
 1081SOL    HW2 4143   0.023   5.499   4.271
 1082SOL     OW 4144   5.168   6.635   6.232
 1082SOL    HW1 4145   5.230   6.712   6.218
 1082SOL    HW2 4146   5.077   6.669   6.256
 1083SOL     OW 4147   4.975   4.282   1.231
 1083SOL    HW1 4148   5.002   4.363   1.283
 1083SOL    HW2 4149   4.975   4.303   1.133
 1084SOL     OW 4150   6.801   0.610   5.628
 1084SOL    HW1 4151   6.761   0.522   5.603
 1084SOL    HW2 4152   6.875   0.632   5.565
 1085SOL     OW 4153   1.478   3.869   4.447
 1085SOL    HW1 4154   1.555   3.924   4.478
 1085SOL    HW2 4155   1.397   3.926   4.439
 1086SOL     OW 4156   5.859   5.156   0.793
 1086SOL    HW1 4157   5.782   5.119   0.845
 1086SOL    HW2 4158   5.940   5.158   0.852
 1087SOL     OW 4159   3.010   0.144   5.394
 1087SOL    HW1 4160   2.998   0.243   5.408
 1087SOL    HW2 4161   2.935   0.109   5.338
 1088SOL     OW 4162   6.945   4.637   3.674
 1088SOL    HW1 4163   6.972   4.679   3.587
 1088SOL    HW2 4164   7.017   4.575   3.705
 1089SOL     OW 4165   6.355   4.057   4.180
 1089SOL    HW1 4166   6.434   4.084   4.234
 1089SOL    HW2 4167   6.376   3.973   4.130
 1090SOL     OW 4168   5.267   1.703   4.831
 1090SOL    HW1 4169   5.292   1.732   4.923
 1090SOL    HW2 4170   5.298   1.773   4.765
 1091SOL     OW 4171   2.427   2.718   3.482
 1091SOL    HW1 4172   2.499   2.782   3.509
 1091SOL    HW2 4173   2.464   2.625   3.482
 1092SOL     OW 4174   0.719   5.774   1.376
 1092SOL    HW1 4175   0.749   5.685   1.409
 1092SOL    HW2 4176   0.712   5.838   1.452
 1093SOL     OW 4177   1.791   6.626   2.550
 1093SOL    HW1 4178   1.760   6.649   2.458
 1093SOL    HW2 4179   1.886   6.595   2.546
 1094SOL     OW 4180   0.978   0.220   2.937
 1094SOL    HW1 4181   0.973   0.130   2.980
 1094SOL    HW2 4182   1.072   0.237   2.908
 1095SOL     OW 4183   5.974   3.439   0.226
 1095SOL    HW1 4184   6.002   3.376   0.298
 1095SOL    HW2 4185   5.874   3.451   0.230
 1096SOL     OW 4186   2.695   5.383   1.661
 1096SOL    HW1 4187   2.699   5.480   1.686
 1096SOL    HW2 4188   2.773   5.335   1.701
 1097SOL     OW 4189   3.439   5.472   4.536
 1097SOL    HW1 4190   3.494   5.526   4.472
 1097SOL    HW2 4191   3.498   5.437   4.609
 1098SOL     OW 4192   6.218   4.816   1.033
 1098SOL    HW1 4193   6.128   4.837   0.993
 1098SOL    HW2 4194   6.253   4.898   1.078
 1099SOL     OW 4195   4.758   0.575   5.539
 1099SOL    HW1 4196   4.822   0.520   5.486
 1099SOL    HW2 4197   4.667   0.534   5.535
 1100SOL     OW 4198   3.285   1.701   3.901
 1100SOL    HW1 4199   3.250   1.610   3.877
 1100SOL    HW2 4200   3.313   1.748   3.817
 1101SOL     OW 4201   6.354   3.039   5.998
 1101SOL    HW1 4202   6.346   2.949   6.040
 1101SOL    HW2 4203   6.275   3.056   5.939
 1102SOL     OW 4204   2.927   1.268   4.171
 1102SOL    HW1 4205   2.891   1.316   4.251
 1102SOL    HW2 4206   2.875   1.293   4.090
 1103SOL     OW 4207   2.477   0.198   6.706
 1103SOL    HW1 4208   2.576   0.211   6.708
 1103SOL    HW2 4209   2.450   0.137   6.780
 1104SOL     OW 4210   0.519   3.342   3.923
 1104SOL    HW1 4211   0.429   3.340   3.968
 1104SOL    HW2 4212   0.585   3.293   3.979
 1105SOL     OW 4213   5.409   0.750   5.900
 1105SOL    HW1 4214   5.502   0.763   5.935
 1105SOL    HW2 4215   5.347   0.732   5.977
 1106SOL     OW 4216   0.560   2.021   0.671
 1106SOL    HW1 4217   0.507   1.938   0.687
 1106SOL    HW2 4218   0.498   2.100   0.670
 1107SOL     OW 4219   1.191   1.215   0.266
 1107SOL    HW1 4220   1.205   1.162   0.350
 1107SOL    HW2 4221   1.094   1.228   0.250
 1108SOL     OW 4222   2.540   6.185   4.289
 1108SOL    HW1 4223   2.519   6.221   4.198
 1108SOL    HW2 4224   2.639   6.186   4.302
 1109SOL     OW 4225   4.851   1.699   4.176
 1109SOL    HW1 4226   4.915   1.756   4.226
 1109SOL    HW2 4227   4.866   1.603   4.199
 1110SOL     OW 4228   3.082   0.643   2.556
 1110SOL    HW1 4229   3.152   0.579   2.525
 1110SOL    HW2 4230   3.007   0.646   2.490
 1111SOL     OW 4231   5.339   3.940   6.551
 1111SOL    HW1 4232   5.383   4.029   6.546
 1111SOL    HW2 4233   5.253   3.948   6.602
 1112SOL     OW 4234   5.043   0.073   2.349
 1112SOL    HW1 4235   5.025   0.164   2.385
 1112SOL    HW2 4236   5.127   0.075   2.295
 1113SOL     OW 4237   5.206   4.926   2.567
 1113SOL    HW1 4238   5.182   4.844   2.515
 1113SOL    HW2 4239   5.226   4.901   2.662
 1114SOL     OW 4240   3.803   3.496   5.487
 1114SOL    HW1 4241   3.836   3.529   5.398
 1114SOL    HW2 4242   3.713   3.453   5.475
 1115SOL     OW 4243   2.968   4.493   5.732
 1115SOL    HW1 4244   3.063   4.526   5.728
 1115SOL    HW2 4245   2.908   4.568   5.756
 1116SOL     OW 4246   4.767   6.965   6.297
 1116SOL    HW1 4247   4.699   6.997   6.231
 1116SOL    HW2 4248   4.810   0.020   6.341
 1117SOL     OW 4249   1.420   2.711   1.765
 1117SOL    HW1 4250   1.500   2.652   1.775
 1117SOL    HW2 4251   1.443   2.790   1.709
 1118SOL     OW 4252   3.287   4.614   0.030
 1118SOL    HW1 4253   3.367   4.592   0.086
 1118SOL    HW2 4254   3.308   4.595   6.957
 1119SOL     OW 4255   3.685   4.940   4.329
 1119SOL    HW1 4256   3.671   5.039   4.327
 1119SOL    HW2 4257   3.677   4.903   4.236
 1120SOL     OW 4258   0.025   4.272   1.011
 1120SOL    HW1 4259   0.064   4.260   1.102
 1120SOL    HW2 4260   0.096   4.300   0.947
 1121SOL     OW 4261   6.292   4.759   4.346
 1121SOL    HW1 4262   6.241   4.674   4.356
 1121SOL    HW2 4263   6.306   4.779   4.249
 1122SOL     OW 4264   5.519   2.918   2.137
 1122SOL    HW1 4265   5.614   2.921   2.170
 1122SOL    HW2 4266   5.464   2.983   2.189
 1123SOL     OW 4267   3.881   1.522   2.744
 1123SOL    HW1 4268   3.878   1.608   2.795
 1123SOL    HW2 4269   3.856   1.447   2.804
 1124SOL     OW 4270   2.262   2.906   4.764
 1124SOL    HW1 4271   2.321   2.920   4.843
 1124SOL    HW2 4272   2.305   2.841   4.701
 1125SOL     OW 4273   0.897   3.859   3.664
 1125SOL    HW1 4274   0.954   3.870   3.745
 1125SOL    HW2 4275   0.868   3.764   3.656
 1126SOL     OW 4276   3.189   5.468   4.619
 1126SOL    HW1 4277   3.176   5.513   4.707
 1126SOL    HW2 4278   3.286   5.470   4.594
 1127SOL     OW 4279   5.813   6.655   3.090
 1127SOL    HW1 4280   5.714   6.644   3.097
 1127SOL    HW2 4281   5.849   6.584   3.029
 1128SOL     OW 4282   5.661   1.233   3.428
 1128SOL    HW1 4283   5.699   1.162   3.488
 1128SOL    HW2 4284   5.685   1.323   3.463
 1129SOL     OW 4285   1.773   0.525   0.796
 1129SOL    HW1 4286   1.739   0.472   0.718
 1129SOL    HW2 4287   1.821   0.464   0.859
 1130SOL     OW 4288   2.247   4.908   2.181
 1130SOL    HW1 4289   2.153   4.942   2.184
 1130SOL    HW2 4290   2.259   4.837   2.250
 1131SOL     OW 4291   1.325   5.816   4.370
 1131SOL    HW1 4292   1.316   5.717   4.361
 1131SOL    HW2 4293   1.422   5.841   4.374
 1132SOL     OW 4294   2.950   1.011   2.247
 1132SOL    HW1 4295   2.916   1.094   2.203
 1132SOL    HW2 4296   2.873   0.951   2.270
 1133SOL     OW 4297   1.241   6.893   4.794
 1133SOL    HW1 4298   1.231   6.817   4.858
 1133SOL    HW2 4299   1.301   6.962   4.834
 1134SOL     OW 4300   4.095   6.467   1.391
 1134SOL    HW1 4301   4.107   6.547   1.332
 1134SOL    HW2 4302   4.055   6.496   1.478
 1135SOL     OW 4303   1.838   5.766   4.051
 1135SOL    HW1 4304   1.885   5.854   4.042
 1135SOL    HW2 4305   1.853   5.729   4.143
 1136SOL     OW 4306   2.353   5.827   2.006
 1136SOL    HW1 4307   2.394   5.824   1.915
 1136SOL    HW2 4308   2.380   5.746   2.058
 1137SOL     OW 4309   0.688   5.271   5.450
 1137SOL    HW1 4310   0.591   5.273   5.473
 1137SOL    HW2 4311   0.729   5.360   5.472
 1138SOL     OW 4312   2.045   2.858   4.613
 1138SOL    HW1 4313   1.981   2.934   4.605
 1138SOL    HW2 4314   2.112   2.878   4.685
 1139SOL     OW 4315   2.630   5.492   4.492
 1139SOL    HW1 4316   2.581   5.446   4.566
 1139SOL    HW2 4317   2.581   5.478   4.406
 1140SOL     OW 4318   1.092   1.800   1.069
 1140SOL    HW1 4319   1.165   1.733   1.056
 1140SOL    HW2 4320   1.131   1.887   1.098
 1141SOL     OW 4321   6.069   4.841   6.343
 1141SOL    HW1 4322   6.025   4.899   6.411
 1141SOL    HW2 4323   6.129   4.896   6.286
 1142SOL     OW 4324   2.505   6.372   2.741
 1142SOL    HW1 4325   2.579   6.361   2.675
 1142SOL    HW2 4326   2.536   6.341   2.831
 1143SOL     OW 4327   1.412   3.807   1.981
 1143SOL    HW1 4328   1.505   3.840   1.968
 1143SOL    HW2 4329   1.391   3.735   1.914
 1144SOL     OW 4330   5.624   4.486   1.914
 1144SOL    HW1 4331   5.666   4.573   1.939
 1144SOL    HW2 4332   5.588   4.492   1.822
 1145SOL     OW 4333   6.845   1.344   1.033
 1145SOL    HW1 4334   6.867   1.376   1.125
 1145SOL    HW2 4335   6.929   1.328   0.981
 1146SOL     OW 4336   0.782   1.022   1.781
 1146SOL    HW1 4337   0.715   1.084   1.740
 1146SOL    HW2 4338   0.874   1.048   1.753
 1147SOL     OW 4339   3.322   6.415   1.252
 1147SOL    HW1 4340   3.276   6.412   1.164
 1147SOL    HW2 4341   3.352   6.323   1.277
 1148SOL     OW 4342   4.572   5.287   3.928
 1148SOL    HW1 4343   4.474   5.280   3.910
 1148SOL    HW2 4344   4.587   5.314   4.023
 1149SOL     OW 4345   4.756   2.940   1.058
 1149SOL    HW1 4346   4.759   3.032   1.098
 1149SOL    HW2 4347   4.700   2.881   1.116
 1150SOL     OW 4348   2.063   4.299   6.956
 1150SOL    HW1 4349   2.059   4.387   6.908
 1150SOL    HW2 4350   1.973   4.256   6.956
 1151SOL     OW 4351   6.679   5.875   3.924
 1151SOL    HW1 4352   6.671   5.871   4.024
 1151SOL    HW2 4353   6.593   5.910   3.885
 1152SOL     OW 4354   3.806   0.060   6.487
 1152SOL    HW1 4355   3.726   0.036   6.432
 1152SOL    HW2 4356   3.776   0.096   6.575
 1153SOL     OW 4357   6.307   0.899   1.092
 1153SOL    HW1 4358   6.313   0.908   0.993
 1153SOL    HW2 4359   6.363   0.822   1.122
 1154SOL     OW 4360   2.038   2.208   1.505
 1154SOL    HW1 4361   2.136   2.229   1.507
 1154SOL    HW2 4362   2.014   2.152   1.584
 1155SOL     OW 4363   2.753   6.048   5.098
 1155SOL    HW1 4364   2.793   6.125   5.047
 1155SOL    HW2 4365   2.799   5.964   5.072
 1156SOL     OW 4366   3.099   2.186   3.960
 1156SOL    HW1 4367   3.151   2.224   4.037
 1156SOL    HW2 4368   3.017   2.140   3.995
 1157SOL     OW 4369   3.782   1.149   5.937
 1157SOL    HW1 4370   3.794   1.065   5.883
 1157SOL    HW2 4371   3.713   1.207   5.894
 1158SOL     OW 4372   5.891   6.129   3.114
 1158SOL    HW1 4373   5.908   6.074   3.196
 1158SOL    HW2 4374   5.799   6.110   3.080
 1159SOL     OW 4375   6.342   6.355   2.092
 1159SOL    HW1 4376   6.346   6.409   2.008
 1159SOL    HW2 4377   6.366   6.260   2.070
 1160SOL     OW 4378   5.538   1.031   0.901
 1160SOL    HW1 4379   5.616   1.077   0.944
 1160SOL    HW2 4380   5.454   1.054   0.951
 1161SOL     OW 4381   0.645   5.503   0.342
 1161SOL    HW1 4382   0.557   5.510   0.294
 1161SOL    HW2 4383   0.670   5.593   0.379
 1162SOL     OW 4384   2.356   2.586   4.837
 1162SOL    HW1 4385   2.350   2.643   4.755
 1162SOL    HW2 4386   2.451   2.555   4.849
 1163SOL     OW 4387   5.795   3.408   1.783
 1163SOL    HW1 4388   5.753   3.471   1.717
 1163SOL    HW2 4389   5.809   3.456   1.870
 1164SOL     OW 4390   4.951   2.129   4.702
 1164SOL    HW1 4391   4.867   2.137   4.648
 1164SOL    HW2 4392   4.979   2.219   4.735
 1165SOL     OW 4393   4.133   6.348   3.191
 1165SOL    HW1 4394   4.124   6.250   3.212
 1165SOL    HW2 4395   4.093   6.367   3.101
 1166SOL     OW 4396   2.376   5.192   6.685
 1166SOL    HW1 4397   2.281   5.170   6.707
 1166SOL    HW2 4398   2.433   5.111   6.699
 1167SOL     OW 4399   5.685   4.489   2.269
 1167SOL    HW1 4400   5.648   4.430   2.341
 1167SOL    HW2 4401   5.616   4.556   2.242
 1168SOL     OW 4402   6.349   1.636   3.303
 1168SOL    HW1 4403   6.311   1.544   3.301
 1168SOL    HW2 4404   6.312   1.686   3.381
 1169SOL     OW 4405   5.744   0.682   5.290
 1169SOL    HW1 4406   5.657   0.673   5.242
 1169SOL    HW2 4407   5.754   0.776   5.324
 1170SOL     OW 4408   4.938   6.602   3.715
 1170SOL    HW1 4409   4.863   6.541   3.690
 1170SOL    HW2 4410   4.973   6.576   3.806
 1171SOL     OW 4411   0.959   0.123   1.182
 1171SOL    HW1 4412   0.870   0.169   1.184
 1171SOL    HW2 4413   1.009   0.152   1.101
 1172SOL     OW 4414   6.878   3.767   6.339
 1172SOL    HW1 4415   6.830   3.686   6.374
 1172SOL    HW2 4416   6.843   3.789   6.248
 1173SOL     OW 4417   3.385   1.707   0.316
 1173SOL    HW1 4418   3.430   1.687   0.403
 1173SOL    HW2 4419   3.347   1.800   0.319
 1174SOL     OW 4420   3.672   3.229   0.875
 1174SOL    HW1 4421   3.660   3.216   0.974
 1174SOL    HW2 4422   3.686   3.140   0.832
 1175SOL     OW 4423   3.293   3.301   3.986
 1175SOL    HW1 4424   3.392   3.294   3.978
 1175SOL    HW2 4425   3.261   3.245   4.062
 1176SOL     OW 4426   5.420   3.948   6.183
 1176SOL    HW1 4427   5.374   3.970   6.269
 1176SOL    HW2 4428   5.480   3.869   6.197
 1177SOL     OW 4429   6.473   2.409   5.165
 1177SOL    HW1 4430   6.509   2.456   5.246
 1177SOL    HW2 4431   6.546   2.395   5.099
 1178SOL     OW 4432   3.430   4.890   0.364
 1178SOL    HW1 4433   3.341   4.849   0.342
 1178SOL    HW2 4434   3.417   4.970   0.422
 1179SOL     OW 4435   2.328   5.701   0.492
 1179SOL    HW1 4436   2.384   5.775   0.529
 1179SOL    HW2 4437   2.234   5.711   0.524
 1180SOL     OW 4438   3.749   5.941   1.033
 1180SOL    HW1 4439   3.787   6.018   0.981
 1180SOL    HW2 4440   3.679   5.896   0.978
 1181SOL     OW 4441   0.495   5.795   0.497
 1181SOL    HW1 4442   0.397   5.790   0.519
 1181SOL    HW2 4443   0.507   5.781   0.399
 1182SOL     OW 4444   4.167   5.249   2.827
 1182SOL    HW1 4445   4.108   5.169   2.839
 1182SOL    HW2 4446   4.258   5.219   2.800
 1183SOL     OW 4447   1.940   3.668   6.050
 1183SOL    HW1 4448   1.950   3.572   6.079
 1183SOL    HW2 4449   2.028   3.702   6.019
 1184SOL     OW 4450   1.557   6.813   5.206
 1184SOL    HW1 4451   1.565   6.794   5.108
 1184SOL    HW2 4452   1.645   6.800   5.250
 1185SOL     OW 4453   7.010   1.322   6.383
 1185SOL    HW1 4454   6.974   1.325   6.476
 1185SOL    HW2 4455   6.952   1.265   6.326
 1186SOL     OW 4456   5.277   6.292   5.023
 1186SOL    HW1 4457   5.178   6.287   5.027
 1186SOL    HW2 4458   5.316   6.245   5.103
 1187SOL     OW 4459   6.168   0.181   5.718
 1187SOL    HW1 4460   6.086   0.125   5.722
 1187SOL    HW2 4461   6.215   0.178   5.806
 1188SOL     OW 4462   2.419   6.548   5.339
 1188SOL    HW1 4463   2.471   6.540   5.254
 1188SOL    HW2 4464   2.455   6.623   5.394
 1189SOL     OW 4465   6.163   3.720   3.394
 1189SOL    HW1 4466   6.207   3.720   3.484
 1189SOL    HW2 4467   6.111   3.635   3.382
 1190SOL     OW 4468   1.884   6.259   2.448
 1190SOL    HW1 4469   1.896   6.187   2.517
 1190SOL    HW2 4470   1.926   6.231   2.363
 1191SOL     OW 4471   4.776   5.456   2.906
 1191SOL    HW1 4472   4.794   5.376   2.848
 1191SOL    HW2 4473   4.723   5.523   2.854
 1192SOL     OW 4474   4.472   6.176   3.319
 1192SOL    HW1 4475   4.494   6.107   3.387
 1192SOL    HW2 4476   4.437   6.132   3.236
 1193SOL     OW 4477   6.750   5.061   3.501
 1193SOL    HW1 4478   6.680   5.123   3.467
 1193SOL    HW2 4479   6.728   5.035   3.596
 1194SOL     OW 4480   4.553   0.779   1.258
 1194SOL    HW1 4481   4.569   0.864   1.207
 1194SOL    HW2 4482   4.469   0.788   1.311
 1195SOL     OW 4483   6.194   2.511   2.665
 1195SOL    HW1 4484   6.120   2.454   2.630
 1195SOL    HW2 4485   6.260   2.453   2.713
 1196SOL     OW 4486   6.294   6.575   4.521
 1196SOL    HW1 4487   6.222   6.532   4.575
 1196SOL    HW2 4488   6.254   6.642   4.459
 1197SOL     OW 4489   2.969   6.553   0.902
 1197SOL    HW1 4490   2.943   6.473   0.849
 1197SOL    HW2 4491   2.887   6.592   0.945
 1198SOL     OW 4492   0.771   1.841   0.343
 1198SOL    HW1 4493   0.792   1.838   0.245
 1198SOL    HW2 4494   0.846   1.883   0.392
 1199SOL     OW 4495   4.929   4.774   2.008
 1199SOL    HW1 4496   4.907   4.723   2.091
 1199SOL    HW2 4497   5.003   4.729   1.959
 1200SOL     OW 4498   2.989   3.648   2.487
 1200SOL    HW1 4499   3.054   3.587   2.533
 1200SOL    HW2 4500   2.913   3.595   2.450
 1201SOL     OW 4501   1.870   1.919   4.401
 1201SOL    HW1 4502   1.771   1.911   4.409
 1201SOL    HW2 4503   1.893   1.999   4.346
 1202SOL     OW 4504   0.064   5.492   6.466
 1202SOL    HW1 4505   0.139   5.552   6.494
 1202SOL    HW2 4506   7.001   5.540   6.476
 1203SOL     OW 4507   4.817   5.742   5.955
 1203SOL    HW1 4508   4.835   5.822   6.013
 1203SOL    HW2 4509   4.723   5.747   5.919
 1204SOL     OW 4510   1.765   0.570   2.251
 1204SOL    HW1 4511   1.730   0.531   2.336
 1204SOL    HW2 4512   1.851   0.526   2.227
 1205SOL     OW 4513   5.475   3.938   1.913
 1205SOL    HW1 4514   5.436   3.847   1.900
 1205SOL    HW2 4515   5.407   3.997   1.957
 1206SOL     OW 4516   3.216   2.890   5.163
 1206SOL    HW1 4517   3.186   2.820   5.228
 1206SOL    HW2 4518   3.147   2.962   5.157
 1207SOL     OW 4519   1.911   6.758   2.136
 1207SOL    HW1 4520   1.923   6.691   2.209
 1207SOL    HW2 4521   1.939   6.848   2.168
 1208SOL     OW 4522   3.377   3.397   6.332
 1208SOL    HW1 4523   3.461   3.425   6.285
 1208SOL    HW2 4524   3.401   3.338   6.409
 1209SOL     OW 4525   3.693   6.817   5.447
 1209SOL    HW1 4526   3.602   6.825   5.406
 1209SOL    HW2 4527   3.762   6.845   5.380
 1210SOL     OW 4528   3.252   1.452   3.098
 1210SOL    HW1 4529   3.299   1.370   3.131
 1210SOL    HW2 4530   3.219   1.505   3.176
 1211SOL     OW 4531   0.903   3.877   0.690
 1211SOL    HW1 4532   0.982   3.915   0.739
 1211SOL    HW2 4533   0.928   3.861   0.594
 1212SOL     OW 4534   0.932   6.973   6.657
 1212SOL    HW1 4535   0.889   6.955   6.746
 1212SOL    HW2 4536   0.983   0.036   6.662
 1213SOL     OW 4537   5.425   2.676   0.485
 1213SOL    HW1 4538   5.371   2.654   0.565
 1213SOL    HW2 4539   5.445   2.774   0.484
 1214SOL     OW 4540   0.103   2.354   1.355
 1214SOL    HW1 4541   0.060   2.415   1.422
 1214SOL    HW2 4542   0.126   2.406   1.272
 1215SOL     OW 4543   1.012   4.543   4.280
 1215SOL    HW1 4544   1.025   4.604   4.201
 1215SOL    HW2 4545   1.036   4.450   4.254
 1216SOL     OW 4546   4.529   0.165   6.541
 1216SOL    HW1 4547   4.557   0.246   6.593
 1216SOL    HW2 4548   4.559   0.174   6.446
 1217SOL     OW 4549   2.376   4.600   0.466
 1217SOL    HW1 4550   2.431   4.519   0.486
 1217SOL    HW2 4551   2.373   4.659   0.546
 1218SOL     OW 4552   1.579   4.393   3.901
 1218SOL    HW1 4553   1.530   4.384   3.988
 1218SOL    HW2 4554   1.515   4.424   3.831
 1219SOL     OW 4555   4.232   5.867   2.386
 1219SOL    HW1 4556   4.293   5.942   2.410
 1219SOL    HW2 4557   4.140   5.902   2.372
 1220SOL     OW 4558   0.955   4.462   2.572
 1220SOL    HW1 4559   0.995   4.542   2.527
 1220SOL    HW2 4560   0.872   4.435   2.524
 1221SOL     OW 4561   6.106   3.295   6.140
 1221SOL    HW1 4562   6.032   3.275   6.203
 1221SOL    HW2 4563   6.184   3.235   6.159
 1222SOL     OW 4564   7.002   5.911   6.810
 1222SOL    HW1 4565   6.972   5.822   6.774
 1222SOL    HW2 4566   6.946   5.936   6.889
 1223SOL     OW 4567   3.317   6.323   0.507
 1223SOL    HW1 4568   3.312   6.354   0.412
 1223SOL    HW2 4569   3.313   6.223   0.510
 1224SOL     OW 4570   2.768   6.946   1.621
 1224SOL    HW1 4571   2.704   6.899   1.682
 1224SOL    HW2 4572   2.861   6.940   1.659
 1225SOL     OW 4573   3.284   4.529   6.457
 1225SOL    HW1 4574   3.338   4.450   6.485
 1225SOL    HW2 4575   3.315   4.562   6.368
 1226SOL     OW 4576   1.731   4.811   1.330
 1226SOL    HW1 4577   1.700   4.899   1.365
 1226SOL    HW2 4578   1.789   4.767   1.398
 1227SOL     OW 4579   6.947   4.115   6.429
 1227SOL    HW1 4580   0.006   4.114   6.372
 1227SOL    HW2 4581   6.968   4.154   6.519
 1228SOL     OW 4582   4.631   2.077   6.213
 1228SOL    HW1 4583   4.561   2.102   6.279
 1228SOL    HW2 4584   4.673   1.990   6.241
 1229SOL     OW 4585   3.595   4.765   6.656
 1229SOL    HW1 4586   3.581   4.835   6.586
 1229SOL    HW2 4587   3.644   4.805   6.733
 1230SOL     OW 4588   4.595   6.762   3.451
 1230SOL    HW1 4589   4.646   6.690   3.499
 1230SOL    HW2 4590   4.646   6.848   3.458
 1231SOL     OW 4591   2.020   3.325   4.878
 1231SOL    HW1 4592   2.048   3.418   4.902
 1231SOL    HW2 4593   1.922   3.314   4.898
 1232SOL     OW 4594   1.304   2.940   5.142
 1232SOL    HW1 4595   1.333   2.845   5.131
 1232SOL    HW2 4596   1.364   2.999   5.087
 1233SOL     OW 4597   0.767   3.848   5.062
 1233SOL    HW1 4598   0.682   3.798   5.081
 1233SOL    HW2 4599   0.799   3.826   4.970
 1234SOL     OW 4600   5.808   4.080   4.573
 1234SOL    HW1 4601   5.862   4.162   4.552
 1234SOL    HW2 4602   5.711   4.103   4.573
 1235SOL     OW 4603   6.512   5.478   3.501
 1235SOL    HW1 4604   6.508   5.492   3.600
 1235SOL    HW2 4605   6.565   5.553   3.460
 1236SOL     OW 4606   5.732   0.164   7.002
 1236SOL    HW1 4607   5.721   0.239   6.937
 1236SOL    HW2 4608   5.753   0.080   6.953
 1237SOL     OW 4609   3.134   5.021   6.478
 1237SOL    HW1 4610   3.188   4.949   6.435
 1237SOL    HW2 4611   3.041   4.988   6.495
 1238SOL     OW 4612   1.832   1.586   1.064
 1238SOL    HW1 4613   1.826   1.625   0.972
 1238SOL    HW2 4614   1.916   1.617   1.108
 1239SOL     OW 4615   6.703   5.973   6.481
 1239SOL    HW1 4616   6.616   5.969   6.432
 1239SOL    HW2 4617   6.687   5.963   6.579
 1240SOL     OW 4618   4.893   6.202   1.815
 1240SOL    HW1 4619   4.833   6.142   1.761
 1240SOL    HW2 4620   4.908   6.287   1.765
 1241SOL     OW 4621   6.382   3.820   4.052
 1241SOL    HW1 4622   6.478   3.793   4.055
 1241SOL    HW2 4623   6.324   3.740   4.070
 1242SOL     OW 4624   2.381   4.106   0.548
 1242SOL    HW1 4625   2.334   4.116   0.636
 1242SOL    HW2 4626   2.425   4.016   0.545
 1243SOL     OW 4627   2.298   4.995   5.275
 1243SOL    HW1 4628   2.204   4.993   5.240
 1243SOL    HW2 4629   2.357   4.943   5.213
 1244SOL     OW 4630   0.883   1.101   3.851
 1244SOL    HW1 4631   0.847   1.018   3.810
 1244SOL    HW2 4632   0.982   1.090   3.867
 1245SOL     OW 4633   3.339   3.546   0.020
 1245SOL    HW1 4634   3.438   3.532   0.018
 1245SOL    HW2 4635   3.320   3.643   0.037
 1246SOL     OW 4636   2.035   6.118   2.243
 1246SOL    HW1 4637   2.107   6.096   2.309
 1246SOL    HW2 4638   2.074   6.174   2.170
 1247SOL     OW 4639   1.827   6.553   6.368
 1247SOL    HW1 4640   1.877   6.483   6.317
 1247SOL    HW2 4641   1.729   6.540   6.356
 1248SOL     OW 4642   1.938   5.335   3.996
 1248SOL    HW1 4643   1.918   5.273   3.921
 1248SOL    HW2 4644   1.858   5.342   4.056
 1249SOL     OW 4645   5.934   3.191   3.264
 1249SOL    HW1 4646   5.994   3.111   3.269
 1249SOL    HW2 4647   5.974   3.265   3.320
 1250SOL     OW 4648   1.232   4.463   4.440
 1250SOL    HW1 4649   1.159   4.495   4.379
 1250SOL    HW2 4650   1.213   4.368   4.467
 1251SOL     OW 4651   3.856   0.145   4.871
 1251SOL    HW1 4652   3.840   0.244   4.868
 1251SOL    HW2 4653   3.774   0.099   4.904
 1252SOL     OW 4654   3.798   4.213   5.745
 1252SOL    HW1 4655   3.817   4.115   5.736
 1252SOL    HW2 4656   3.701   4.229   5.728
 1253SOL     OW 4657   3.750   5.380   3.293
 1253SOL    HW1 4658   3.806   5.457   3.324
 1253SOL    HW2 4659   3.808   5.311   3.250
 1254SOL     OW 4660   6.483   1.779   2.989
 1254SOL    HW1 4661   6.546   1.777   2.911
 1254SOL    HW2 4662   6.394   1.743   2.962
 1255SOL     OW 4663   0.015   6.895   6.915
 1255SOL    HW1 4664   0.029   6.950   6.832
 1255SOL    HW2 4665   6.944   6.865   6.920
 1256SOL     OW 4666   4.563   0.693   3.446
 1256SOL    HW1 4667   4.473   0.726   3.419
 1256SOL    HW2 4668   4.622   0.686   3.366
 1257SOL     OW 4669   6.646   1.001   4.076
 1257SOL    HW1 4670   6.598   1.058   4.143
 1257SOL    HW2 4671   6.579   0.945   4.027
 1258SOL     OW 4672   0.236   6.830   3.525
 1258SOL    HW1 4673   0.244   6.830   3.624
 1258SOL    HW2 4674   0.158   6.775   3.497
 1259SOL     OW 4675   3.996   1.902   4.369
 1259SOL    HW1 4676   3.933   1.906   4.292
 1259SOL    HW2 4677   4.081   1.858   4.341
 1260SOL     OW 4678   1.249   0.561   0.031
 1260SOL    HW1 4679   1.278   0.538   0.124
 1260SOL    HW2 4680   1.313   0.626   7.015
 1261SOL     OW 4681   6.842   4.827   1.069
 1261SOL    HW1 4682   6.752   4.863   1.094
 1261SOL    HW2 4683   6.876   4.768   1.143
 1262SOL     OW 4684   5.507   5.783   0.960
 1262SOL    HW1 4685   5.505   5.712   0.890
 1262SOL    HW2 4686   5.462   5.750   1.043
 1263SOL     OW 4687   1.209   2.170   3.454
 1263SOL    HW1 4688   1.165   2.233   3.518
 1263SOL    HW2 4689   1.282   2.120   3.501
 1264SOL     OW 4690   0.725   2.628   5.462
 1264SOL    HW1 4691   0.791   2.637   5.387
 1264SOL    HW2 4692   0.773   2.601   5.546
 1265SOL     OW 4693   6.058   6.818   4.633
 1265SOL    HW1 4694   6.080   6.829   4.730
 1265SOL    HW2 4695   5.976   6.871   4.611
 1266SOL     OW 4696   1.815   1.031   5.069
 1266SOL    HW1 4697   1.907   0.991   5.062
 1266SOL    HW2 4698   1.785   1.026   5.165
 1267SOL     OW 4699   4.170   6.998   2.469
 1267SOL    HW1 4700   4.229   6.939   2.525
 1267SOL    HW2 4701   4.128   0.044   2.527
 1268SOL     OW 4702   4.363   2.648   5.312
 1268SOL    HW1 4703   4.334   2.715   5.381
 1268SOL    HW2 4704   4.282   2.606   5.272
 1269SOL     OW 4705   6.014   1.768   4.257
 1269SOL    HW1 4706   6.001   1.863   4.285
 1269SOL    HW2 4707   6.112   1.749   4.248
 1270SOL     OW 4708   6.821   5.563   3.021
 1270SOL    HW1 4709   6.894   5.591   2.958
 1270SOL    HW2 4710   6.821   5.623   3.101
 1271SOL     OW 4711   1.190   1.453   1.271
 1271SOL    HW1 4712   1.099   1.413   1.277
 1271SOL    HW2 4713   1.227   1.438   1.179
 1272SOL     OW 4714   6.536   4.171   0.171
 1272SOL    HW1 4715   6.540   4.071   0.176
 1272SOL    HW2 4716   6.628   4.208   0.167
 1273SOL     OW 4717   1.431   4.819   4.986
 1273SOL    HW1 4718   1.349   4.824   5.044
 1273SOL    HW2 4719   1.493   4.894   5.008
 1274SOL     OW 4720   0.475   5.320   2.831
 1274SOL    HW1 4721   0.515   5.229   2.820
 1274SOL    HW2 4722   0.378   5.311   2.853
 1275SOL     OW 4723   2.402   0.874   2.673
 1275SOL    HW1 4724   2.409   0.861   2.574
 1275SOL    HW2 4725   2.326   0.819   2.708
 1276SOL     OW 4726   5.336   4.932   3.940
 1276SOL    HW1 4727   5.424   4.920   3.987
 1276SOL    HW2 4728   5.353   4.959   3.845
 1277SOL     OW 4729   0.288   6.165   0.361
 1277SOL    HW1 4730   0.385   6.143   0.369
 1277SOL    HW2 4731   0.270   6.206   0.272
 1278SOL     OW 4732   0.998   5.430   2.700
 1278SOL    HW1 4733   0.995   5.348   2.756
 1278SOL    HW2 4734   1.091   5.467   2.700
 1279SOL     OW 4735   1.778   2.540   0.325
 1279SOL    HW1 4736   1.711   2.467   0.337
 1279SOL    HW2 4737   1.854   2.526   0.389
 1280SOL     OW 4738   2.065   2.273   3.732
 1280SOL    HW1 4739   1.974   2.309   3.712
 1280SOL    HW2 4740   2.057   2.201   3.802
 1281SOL     OW 4741   4.504   6.181   4.496
 1281SOL    HW1 4742   4.561   6.109   4.456
 1281SOL    HW2 4743   4.428   6.200   4.434
 1282SOL     OW 4744   6.567   2.396   1.554
 1282SOL    HW1 4745   6.600   2.354   1.638
 1282SOL    HW2 4746   6.469   2.413   1.561
 1283SOL     OW 4747   6.582   3.464   4.891
 1283SOL    HW1 4748   6.583   3.483   4.989
 1283SOL    HW2 4749   6.670   3.490   4.851
 1284SOL     OW 4750   4.185   1.645   2.051
 1284SOL    HW1 4751   4.166   1.743   2.059
 1284SOL    HW2 4752   4.253   1.619   2.120
 1285SOL     OW 4753   4.144   1.315   5.320
 1285SOL    HW1 4754   4.055   1.305   5.275
 1285SOL    HW2 4755   4.213   1.263   5.270
 1286SOL     OW 4756   4.835   2.020   1.939
 1286SOL    HW1 4757   4.833   1.954   2.014
 1286SOL    HW2 4758   4.930   2.032   1.909
 1287SOL     OW 4759   6.405   4.435   4.965
 1287SOL    HW1 4760   6.434   4.446   5.060
 1287SOL    HW2 4761   6.421   4.340   4.936
 1288SOL     OW 4762   4.585   3.960   6.877
 1288SOL    HW1 4763   4.525   3.918   6.809
 1288SOL    HW2 4764   4.543   4.042   6.914
 1289SOL     OW 4765   6.848   7.008   1.772
 1289SOL    HW1 4766   6.819   0.058   1.833
 1289SOL    HW2 4767   6.932   6.966   1.808
 1290SOL     OW 4768   1.529   6.889   6.219
 1290SOL    HW1 4769   1.620   6.925   6.198
 1290SOL    HW2 4770   1.494   6.839   6.139
 1291SOL     OW 4771   6.757   5.327   3.169
 1291SOL    HW1 4772   6.813   5.261   3.118
 1291SOL    HW2 4773   6.760   5.416   3.123
 1292SOL     OW 4774   0.945   6.668   2.340
 1292SOL    HW1 4775   0.971   6.578   2.377
 1292SOL    HW2 4776   0.866   6.703   2.391
 1293SOL     OW 4777   3.350   1.516   0.120
 1293SOL    HW1 4778   3.342   1.587   0.189
 1293SOL    HW2 4779   3.259   1.488   0.090
 1294SOL     OW 4780   2.357   3.398   5.402
 1294SOL    HW1 4781   2.448   3.406   5.361
 1294SOL    HW2 4782   2.293   3.364   5.334
 1295SOL     OW 4783   6.444   4.567   0.754
 1295SOL    HW1 4784   6.452   4.471   0.727
 1295SOL    HW2 4785   6.534   4.603   0.778
 1296SOL     OW 4786   5.321   0.062   5.526
 1296SOL    HW1 4787   5.268   0.093   5.447
 1296SOL    HW2 4788   5.408   0.111   5.529
 1297SOL     OW 4789   0.664   0.111   2.165
 1297SOL    HW1 4790   0.586   0.165   2.133
 1297SOL    HW2 4791   0.721   0.086   2.087
 1298SOL     OW 4792   5.300   6.414   2.462
 1298SOL    HW1 4793   5.282   6.316   2.455
 1298SOL    HW2 4794   5.217   6.465   2.441
 1299SOL     OW 4795   1.049   3.486   5.300
 1299SOL    HW1 4796   1.121   3.426   5.335
 1299SOL    HW2 4797   1.090   3.552   5.237
 1300SOL     OW 4798   1.213   4.603   2.063
 1300SOL    HW1 4799   1.131   4.573   2.112
 1300SOL    HW2 4800   1.186   4.654   1.981
 1301SOL     OW 4801   0.724   0.644   1.034
 1301SOL    HW1 4802   0.648   0.687   1.082
 1301SOL    HW2 4803   0.807   0.653   1.089
 1302SOL     OW 4804   5.460   6.926   4.378
 1302SOL    HW1 4805   5.432   6.832   4.357
 1302SOL    HW2 4806   5.382   6.987   4.366
 1303SOL     OW 4807   3.922   6.112   1.553
 1303SOL    HW1 4808   3.896   6.162   1.471
 1303SOL    HW2 4809   3.922   6.175   1.631
 1304SOL     OW 4810   0.748   1.418   0.488
 1304SOL    HW1 4811   0.834   1.388   0.528
 1304SOL    HW2 4812   0.717   1.502   0.533
 1305SOL     OW 4813   5.500   3.710   6.316
 1305SOL    HW1 4814   5.583   3.655   6.305
 1305SOL    HW2 4815   5.513   3.773   6.393
 1306SOL     OW 4816   2.486   5.346   4.298
 1306SOL    HW1 4817   2.522   5.253   4.304
 1306SOL    HW2 4818   2.512   5.385   4.209
 1307SOL     OW 4819   2.816   2.253   3.321
 1307SOL    HW1 4820   2.780   2.333   3.272
 1307SOL    HW2 4821   2.784   2.255   3.416
 1308SOL     OW 4822   0.430   5.223   5.544
 1308SOL    HW1 4823   0.403   5.136   5.503
 1308SOL    HW2 4824   0.348   5.274   5.571
 1309SOL     OW 4825   5.551   4.268   6.782
 1309SOL    HW1 4826   5.522   4.179   6.816
 1309SOL    HW2 4827   5.485   4.338   6.812
 1310SOL     OW 4828   1.266   3.829   3.407
 1310SOL    HW1 4829   1.334   3.847   3.336
 1310SOL    HW2 4830   1.297   3.869   3.493
 1311SOL     OW 4831   6.850   5.746   0.680
 1311SOL    HW1 4832   6.806   5.785   0.761
 1311SOL    HW2 4833   6.848   5.647   0.684
 1312SOL     OW 4834   2.418   0.716   6.322
 1312SOL    HW1 4835   2.413   0.620   6.352
 1312SOL    HW2 4836   2.490   0.763   6.372
 1313SOL     OW 4837   6.595   6.135   2.630
 1313SOL    HW1 4838   6.659   6.059   2.640
 1313SOL    HW2 4839   6.632   6.215   2.676
 1314SOL     OW 4840   2.441   1.880   5.177
 1314SOL    HW1 4841   2.512   1.814   5.204
 1314SOL    HW2 4842   2.369   1.881   5.246
 1315SOL     OW 4843   6.282   1.251   3.653
 1315SOL    HW1 4844   6.319   1.260   3.746
 1315SOL    HW2 4845   6.188   1.218   3.657
 1316SOL     OW 4846   4.216   0.764   4.909
 1316SOL    HW1 4847   4.155   0.796   4.981
 1316SOL    HW2 4848   4.211   0.825   4.830
 1317SOL     OW 4849   2.932   3.442   5.863
 1317SOL    HW1 4850   2.972   3.392   5.787
 1317SOL    HW2 4851   2.893   3.528   5.830
 1318SOL     OW 4852   2.032   2.483   6.088
 1318SOL    HW1 4853   1.956   2.547   6.076
 1318SOL    HW2 4854   2.103   2.503   6.021
 1319SOL     OW 4855   6.936   6.729   0.621
 1319SOL    HW1 4856   6.840   6.744   0.645
 1319SOL    HW2 4857   6.991   6.808   0.648
 1320SOL     OW 4858   3.387   2.853   5.688
 1320SOL    HW1 4859   3.322   2.791   5.643
 1320SOL    HW2 4860   3.390   2.833   5.786
 1321SOL     OW 4861   5.092   2.810   6.736
 1321SOL    HW1 4862   5.146   2.793   6.654
 1321SOL    HW2 4863   5.073   2.908   6.744
 1322SOL     OW 4864   3.250   1.725   0.639
 1322SOL    HW1 4865   3.227   1.770   0.553
 1322SOL    HW2 4866   3.349   1.706   0.641
 1323SOL     OW 4867   3.821   6.876   0.599
 1323SOL    HW1 4868   3.839   6.801   0.536
 1323SOL    HW2 4869   3.898   6.940   0.599
 1324SOL     OW 4870   1.391   3.560   6.960
 1324SOL    HW1 4871   1.428   3.505   6.885
 1324SOL    HW2 4872   1.459   3.626   6.990
 1325SOL     OW 4873   2.523   5.153   5.928
 1325SOL    HW1 4874   2.607   5.139   5.980
 1325SOL    HW2 4875   2.498   5.250   5.930
 1326SOL     OW 4876   5.140   3.023   3.401
 1326SOL    HW1 4877   5.045   3.050   3.384
 1326SOL    HW2 4878   5.152   2.927   3.376
 1327SOL     OW 4879   6.066   5.622   1.372
 1327SOL    HW1 4880   6.052   5.673   1.458
 1327SOL    HW2 4881   6.163   5.600   1.362
 1328SOL     OW 4882   1.494   3.234   5.749
 1328SOL    HW1 4883   1.586   3.250   5.785
 1328SOL    HW2 4884   1.430   3.225   5.825
 1329SOL     OW 4885   0.513   2.858   3.034
 1329SOL    HW1 4886   0.510   2.932   2.966
 1329SOL    HW2 4887   0.427   2.808   3.033
 1330SOL     OW 4888   6.448   3.230   1.448
 1330SOL    HW1 4889   6.547   3.215   1.451
 1330SOL    HW2 4890   6.410   3.220   1.540
 1331SOL     OW 4891   4.499   1.992   2.999
 1331SOL    HW1 4892   4.542   2.035   3.079
 1331SOL    HW2 4893   4.548   1.908   2.977
 1332SOL     OW 4894   1.648   6.163   0.261
 1332SOL    HW1 4895   1.548   6.167   0.264
 1332SOL    HW2 4896   1.679   6.076   0.299
 1333SOL     OW 4897   3.642   4.104   3.279
 1333SOL    HW1 4898   3.729   4.151   3.298
 1333SOL    HW2 4899   3.644   4.066   3.187
 1334SOL     OW 4900   0.148   3.362   2.359
 1334SOL    HW1 4901   0.070   3.378   2.297
 1334SOL    HW2 4902   0.232   3.359   2.306
 1335SOL     OW 4903   1.295   3.430   1.978
 1335SOL    HW1 4904   1.240   3.353   1.946
 1335SOL    HW2 4905   1.242   3.484   2.044
 1336SOL     OW 4906   3.220   0.632   5.098
 1336SOL    HW1 4907   3.218   0.655   5.001
 1336SOL    HW2 4908   3.144   0.678   5.145
 1337SOL     OW 4909   0.025   1.121   3.820
 1337SOL    HW1 4910   6.972   1.163   3.867
 1337SOL    HW2 4911   0.074   1.190   3.767
 1338SOL     OW 4912   6.519   4.458   5.238
 1338SOL    HW1 4913   6.558   4.384   5.292
 1338SOL    HW2 4914   6.590   4.525   5.216
 1339SOL     OW 4915   0.409   0.687   6.949
 1339SOL    HW1 4916   0.386   0.672   6.853
 1339SOL    HW2 4917   0.437   0.782   6.962
 1340SOL     OW 4918   4.484   2.519   1.468
 1340SOL    HW1 4919   4.581   2.495   1.463
 1340SOL    HW2 4920   4.444   2.483   1.552
 1341SOL     OW 4921   4.939   6.940   0.037
 1341SOL    HW1 4922   4.870   6.877   0.001
 1341SOL    HW2 4923   4.909   6.975   0.126
 1342SOL     OW 4924   2.530   6.390   1.283
 1342SOL    HW1 4925   2.573   6.431   1.364
 1342SOL    HW2 4926   2.440   6.430   1.270
 1343SOL     OW 4927   5.859   6.251   3.496
 1343SOL    HW1 4928   5.814   6.310   3.429
 1343SOL    HW2 4929   5.880   6.162   3.454
 1344SOL     OW 4930   0.129   0.247   5.124
 1344SOL    HW1 4931   0.108   0.149   5.133
 1344SOL    HW2 4932   0.218   0.257   5.079
 1345SOL     OW 4933   0.096   6.056   0.870
 1345SOL    HW1 4934   0.159   6.024   0.941
 1345SOL    HW2 4935   0.031   6.120   0.911
 1346SOL     OW 4936   2.900   5.278   5.867
 1346SOL    HW1 4937   2.928   5.370   5.841
 1346SOL    HW2 4938   2.867   5.229   5.787
 1347SOL     OW 4939   1.266   6.889   6.566
 1347SOL    HW1 4940   1.243   6.870   6.471
 1347SOL    HW2 4941   1.335   6.961   6.569
 1348SOL     OW 4942   0.775   6.390   5.327
 1348SOL    HW1 4943   0.738   6.452   5.396
 1348SOL    HW2 4944   0.700   6.345   5.279
 1349SOL     OW 4945   4.823   3.070   3.649
 1349SOL    HW1 4946   4.898   3.010   3.677
 1349SOL    HW2 4947   4.824   3.153   3.704
 1350SOL     OW 4948   4.003   3.835   0.366
 1350SOL    HW1 4949   4.030   3.739   0.354
 1350SOL    HW2 4950   3.903   3.841   0.372
 1351SOL     OW 4951   6.665   2.539   5.693
 1351SOL    HW1 4952   6.587   2.588   5.730
 1351SOL    HW2 4953   6.748   2.567   5.740
 1352SOL     OW 4954   0.156   0.537   2.374
 1352SOL    HW1 4955   0.057   0.531   2.392
 1352SOL    HW2 4956   0.171   0.539   2.275
 1353SOL     OW 4957   0.703   0.999   0.814
 1353SOL    HW1 4958   0.717   1.053   0.731
 1353SOL    HW2 4959   0.752   0.913   0.807
 1354SOL     OW 4960   5.324   5.110   2.378
 1354SOL    HW1 4961   5.321   5.209   2.392
 1354SOL    HW2 4962   5.273   5.064   2.451
 1355SOL     OW 4963   6.402   3.521   5.316
 1355SOL    HW1 4964   6.365   3.568   5.237
 1355SOL    HW2 4965   6.350   3.546   5.398
 1356SOL     OW 4966   3.401   3.013   1.069
 1356SOL    HW1 4967   3.412   2.941   1.137
 1356SOL    HW2 4968   3.473   3.082   1.082
 1357SOL     OW 4969   7.012   3.497   5.660
 1357SOL    HW1 4970   6.950   3.564   5.619
 1357SOL    HW2 4971   7.002   3.498   5.760
 1358SOL     OW 4972   1.619   6.574   6.663
 1358SOL    HW1 4973   1.568   6.628   6.596
 1358SOL    HW2 4974   1.558   6.507   6.705
 1359SOL     OW 4975   6.776   4.562   1.689
 1359SOL    HW1 4976   6.740   4.637   1.634
 1359SOL    HW2 4977   6.711   4.539   1.761
 1360SOL     OW 4978   2.128   2.317   6.812
 1360SOL    HW1 4979   2.089   2.363   6.732
 1360SOL    HW2 4980   2.192   2.379   6.858
 1361SOL     OW 4981   6.580   5.126   4.804
 1361SOL    HW1 4982   6.650   5.123   4.732
 1361SOL    HW2 4983   6.619   5.167   4.886
 1362SOL     OW 4984   3.213   2.934   3.000
 1362SOL    HW1 4985   3.309   2.933   2.973
 1362SOL    HW2 4986   3.168   2.851   2.966
 1363SOL     OW 4987   1.037   5.833   5.228
 1363SOL    HW1 4988   1.003   5.742   5.253
 1363SOL    HW2 4989   1.113   5.823   5.164
 1364SOL     OW 4990   3.355   4.036   1.169
 1364SOL    HW1 4991   3.395   4.046   1.078
 1364SOL    HW2 4992   3.427   4.019   1.236
 1365SOL     OW 4993   0.213   3.921   6.599
 1365SOL    HW1 4994   0.152   3.842   6.594
 1365SOL    HW2 4995   0.174   3.990   6.659
 1366SOL     OW 4996   2.637   7.021   5.396
 1366SOL    HW1 4997   2.639   0.064   5.321
 1366SOL    HW2 4998   2.715   6.959   5.387
 1367SOL     OW 4999   2.153   0.705   2.779
 1367SOL    HW1 5000   2.090   0.652   2.836
 1367SOL    HW2 5001   2.102   0.754   2.709
 1368SOL     OW 5002   5.734   6.890   4.247
 1368SOL    HW1 5003   5.744   6.936   4.336
 1368SOL    HW2 5004   5.753   6.793   4.258
 1369SOL     OW 5005   0.752   0.677   3.007
 1369SOL    HW1 5006   0.674   0.616   3.018
 1369SOL    HW2 5007   0.720   0.770   2.989
 1370SOL     OW 5008   2.614   0.834   1.783
 1370SOL    HW1 5009   2.525   0.880   1.777
 1370SOL    HW2 5010   2.601   0.736   1.773
 1371SOL     OW 5011   4.169   0.673   6.588
 1371SOL    HW1 5012   4.217   0.684   6.675
 1371SOL    HW2 5013   4.080   0.717   6.592
 1372SOL     OW 5014   3.267   2.220   1.821
 1372SOL    HW1 5015   3.239   2.299   1.767
 1372SOL    HW2 5016   3.187   2.182   1.868
 1373SOL     OW 5017   1.299   5.842   0.994
 1373SOL    HW1 5018   1.283   5.940   0.989
 1373SOL    HW2 5019   1.333   5.809   0.906
 1374SOL     OW 5020   4.781   2.642   0.590
 1374SOL    HW1 5021   4.821   2.652   0.499
 1374SOL    HW2 5022   4.712   2.712   0.605
 1375SOL     OW 5023   0.483   4.223   5.889
 1375SOL    HW1 5024   0.502   4.321   5.900
 1375SOL    HW2 5025   0.487   4.200   5.791
 1376SOL     OW 5026   4.794   1.592   2.113
 1376SOL    HW1 5027   4.749   1.606   2.201
 1376SOL    HW2 5028   4.893   1.601   2.125
 1377SOL     OW 5029   0.719   5.283   4.942
 1377SOL    HW1 5030   0.762   5.194   4.958
 1377SOL    HW2 5031   0.727   5.340   5.023
 1378SOL     OW 5032   1.408   2.487   0.132
 1378SOL    HW1 5033   1.345   2.564   0.146
 1378SOL    HW2 5034   1.463   2.473   0.214
 1379SOL     OW 5035   3.780   5.886   1.662
 1379SOL    HW1 5036   3.833   5.964   1.629
 1379SOL    HW2 5037   3.683   5.900   1.639
 1380SOL     OW 5038   6.281   6.703   2.909
 1380SOL    HW1 5039   6.305   6.792   2.870
 1380SOL    HW2 5040   6.325   6.693   2.998
 1381SOL     OW 5041   6.010   1.461   1.268
 1381SOL    HW1 5042   5.922   1.426   1.237
 1381SOL    HW2 5043   6.081   1.394   1.250
 1382SOL     OW 5044   6.293   4.762   6.702
 1382SOL    HW1 5045   6.230   4.808   6.765
 1382SOL    HW2 5046   6.242   4.722   6.627
 1383SOL     OW 5047   2.515   0.012   0.668
 1383SOL    HW1 5048   2.540   0.048   0.578
 1383SOL    HW2 5049   2.576   0.052   0.737
 1384SOL     OW 5050   2.769   1.924   2.231
 1384SOL    HW1 5051   2.825   2.006   2.246
 1384SOL    HW2 5052   2.744   1.884   2.319
 1385SOL     OW 5053   5.771   3.102   2.577
 1385SOL    HW1 5054   5.737   3.143   2.662
 1385SOL    HW2 5055   5.715   3.133   2.500
 1386SOL     OW 5056   2.189   2.465   3.918
 1386SOL    HW1 5057   2.172   2.395   3.850
 1386SOL    HW2 5058   2.287   2.485   3.922
 1387SOL     OW 5059   2.546   0.763   5.246
 1387SOL    HW1 5060   2.619   0.759   5.177
 1387SOL    HW2 5061   2.459   0.783   5.200
 1388SOL     OW 5062   6.491   0.740   5.366
 1388SOL    HW1 5063   6.428   0.703   5.434
 1388SOL    HW2 5064   6.552   0.668   5.333
 1389SOL     OW 5065   6.704   0.769   5.080
 1389SOL    HW1 5066   6.647   0.690   5.057
 1389SOL    HW2 5067   6.798   0.753   5.049
 1390SOL     OW 5068   4.683   2.690   2.371
 1390SOL    HW1 5069   4.705   2.725   2.280
 1390SOL    HW2 5070   4.725   2.600   2.383
 1391SOL     OW 5071   6.109   1.355   4.660
 1391SOL    HW1 5072   6.076   1.440   4.620
 1391SOL    HW2 5073   6.051   1.279   4.630
 1392SOL     OW 5074   4.425   5.404   6.288
 1392SOL    HW1 5075   4.446   5.371   6.196
 1392SOL    HW2 5076   4.346   5.465   6.285
 1393SOL     OW 5077   6.063   0.543   6.310
 1393SOL    HW1 5078   6.027   0.488   6.386
 1393SOL    HW2 5079   6.041   0.498   6.223
 1394SOL     OW 5080   4.170   0.120   3.905
 1394SOL    HW1 5081   4.161   0.198   3.843
 1394SOL    HW2 5082   4.179   0.152   3.999
 1395SOL     OW 5083   1.169   5.233   2.317
 1395SOL    HW1 5084   1.081   5.197   2.287
 1395SOL    HW2 5085   1.231   5.240   2.239
 1396SOL     OW 5086   2.186   1.458   3.783
 1396SOL    HW1 5087   2.087   1.475   3.779
 1396SOL    HW2 5088   2.228   1.525   3.845
 1397SOL     OW 5089   0.741   5.552   4.570
 1397SOL    HW1 5090   0.772   5.626   4.510
 1397SOL    HW2 5091   0.712   5.590   4.658
 1398SOL     OW 5092   1.178   6.405   0.698
 1398SOL    HW1 5093   1.180   6.455   0.612
 1398SOL    HW2 5094   1.254   6.339   0.699
 1399SOL     OW 5095   4.068   0.495   0.292
 1399SOL    HW1 5096   4.063   0.432   0.214
 1399SOL    HW2 5097   4.084   0.442   0.375
 1400SOL     OW 5098   6.920   0.586   4.971
 1400SOL    HW1 5099   6.930   0.514   5.040
 1400SOL    HW2 5100   6.858   0.554   4.899
 1401SOL     OW 5101   5.387   0.125   2.456
 1401SOL    HW1 5102   5.427   0.215   2.475
 1401SOL    HW2 5103   5.341   0.091   2.538
 1402SOL     OW 5104   0.084   4.678   2.647
 1402SOL    HW1 5105   0.114   4.592   2.688
 1402SOL    HW2 5106   0.007   4.714   2.699
 1403SOL     OW 5107   3.242   3.652   6.069
 1403SOL    HW1 5108   3.208   3.559   6.086
 1403SOL    HW2 5109   3.342   3.650   6.065
 1404SOL     OW 5110   3.603   6.712   0.814
 1404SOL    HW1 5111   3.695   6.705   0.854
 1404SOL    HW2 5112   3.535   6.686   0.882
 1405SOL     OW 5113   0.927   3.966   1.341
 1405SOL    HW1 5114   0.938   3.929   1.434
 1405SOL    HW2 5115   0.859   3.913   1.292
 1406SOL     OW 5116   2.087   3.247   0.310
 1406SOL    HW1 5117   2.082   3.347   0.311
 1406SOL    HW2 5118   2.138   3.216   0.390
 1407SOL     OW 5119   0.260   2.904   1.167
 1407SOL    HW1 5120   0.177   2.864   1.207
 1407SOL    HW2 5121   0.286   2.985   1.220
 1408SOL     OW 5122   5.664   6.518   1.051
 1408SOL    HW1 5123   5.567   6.543   1.047
 1408SOL    HW2 5124   5.691   6.476   0.964
 1409SOL     OW 5125   6.597   1.174   5.846
 1409SOL    HW1 5126   6.545   1.126   5.774
 1409SOL    HW2 5127   6.534   1.230   5.900
 1410SOL     OW 5128   3.487   0.588   6.042
 1410SOL    HW1 5129   3.447   0.649   5.974
 1410SOL    HW2 5130   3.543   0.640   6.106
 1411SOL     OW 5131   3.594   5.178   6.698
 1411SOL    HW1 5132   3.647   5.258   6.671
 1411SOL    HW2 5133   3.641   5.130   6.773
 1412SOL     OW 5134   2.583   2.709   6.540
 1412SOL    HW1 5135   2.649   2.784   6.531
 1412SOL    HW2 5136   2.608   2.652   6.617
 1413SOL     OW 5137   1.428   2.249   4.701
 1413SOL    HW1 5138   1.384   2.164   4.730
 1413SOL    HW2 5139   1.526   2.232   4.686
 1414SOL     OW 5140   0.650   4.405   2.764
 1414SOL    HW1 5141   0.579   4.434   2.700
 1414SOL    HW2 5142   0.698   4.325   2.727
 1415SOL     OW 5143   2.616   1.476   4.823
 1415SOL    HW1 5144   2.522   1.494   4.850
 1415SOL    HW2 5145   2.657   1.409   4.885
 1416SOL     OW 5146   4.612   0.618   4.766
 1416SOL    HW1 5147   4.560   0.645   4.847
 1416SOL    HW2 5148   4.550   0.577   4.699
 1417SOL     OW 5149   3.489   3.700   5.933
 1417SOL    HW1 5150   3.426   3.671   5.861
 1417SOL    HW2 5151   3.581   3.705   5.896
 1418SOL     OW 5152   4.015   4.296   5.579
 1418SOL    HW1 5153   3.960   4.256   5.652
 1418SOL    HW2 5154   4.023   4.395   5.593
 1419SOL     OW 5155   1.462   5.911   1.883
 1419SOL    HW1 5156   1.453   5.814   1.860
 1419SOL    HW2 5157   1.391   5.963   1.837
 1420SOL     OW 5158   2.777   6.396   3.030
 1420SOL    HW1 5159   2.737   6.487   3.029
 1420SOL    HW2 5160   2.712   6.331   3.072
 1421SOL     OW 5161   1.200   4.876   6.178
 1421SOL    HW1 5162   1.277   4.814   6.167
 1421SOL    HW2 5163   1.162   4.898   6.089
 1422SOL     OW 5164   2.158   3.322   6.509
 1422SOL    HW1 5165   2.120   3.230   6.517
 1422SOL    HW2 5166   2.244   3.327   6.559
 1423SOL     OW 5167   4.116   1.062   4.790
 1423SOL    HW1 5168   4.051   1.024   4.856
 1423SOL    HW2 5169   4.084   1.151   4.760
 1424SOL     OW 5170   6.093   2.823   0.717
 1424SOL    HW1 5171   6.136   2.860   0.800
 1424SOL    HW2 5172   6.140   2.739   0.691
 1425SOL     OW 5173   5.555   0.140   3.427
 1425SOL    HW1 5174   5.532   0.061   3.483
 1425SOL    HW2 5175   5.472   0.194   3.410
 1426SOL     OW 5176   3.854   1.132   0.140
 1426SOL    HW1 5177   3.904   1.096   0.061
 1426SOL    HW2 5178   3.901   1.213   0.175
 1427SOL     OW 5179   1.728   0.465   3.591
 1427SOL    HW1 5180   1.674   0.540   3.552
 1427SOL    HW2 5181   1.790   0.501   3.661
 1428SOL     OW 5182   0.806   2.770   4.132
 1428SOL    HW1 5183   0.758   2.841   4.080
 1428SOL    HW2 5184   0.899   2.800   4.150
 1429SOL     OW 5185   6.583   0.967   2.079
 1429SOL    HW1 5186   6.593   0.973   2.178
 1429SOL    HW2 5187   6.564   1.058   2.041
 1430SOL     OW 5188   2.163   3.417   4.215
 1430SOL    HW1 5189   2.219   3.337   4.194
 1430SOL    HW2 5190   2.154   3.426   4.314
 1431SOL     OW 5191   3.082   1.304   0.315
 1431SOL    HW1 5192   3.171   1.273   0.347
 1431SOL    HW2 5193   3.093   1.367   0.238
 1432SOL     OW 5194   3.091   0.192   2.533
 1432SOL    HW1 5195   2.994   0.191   2.555
 1432SOL    HW2 5196   3.113   0.115   2.474
 1433SOL     OW 5197   2.758   0.517   3.999
 1433SOL    HW1 5198   2.721   0.498   3.908
 1433SOL    HW2 5199   2.854   0.490   4.002
 1434SOL     OW 5200   6.234   4.010   0.450
 1434SOL    HW1 5201   6.293   3.930   0.457
 1434SOL    HW2 5202   6.290   4.093   0.449
 1435SOL     OW 5203   1.152   0.010   3.751
 1435SOL    HW1 5204   1.071   7.014   3.805
 1435SOL    HW2 5205   1.168   6.960   3.685
 1436SOL     OW 5206   5.204   0.858   0.606
 1436SOL    HW1 5207   5.135   0.921   0.571
 1436SOL    HW2 5208   5.266   0.906   0.668
 1437SOL     OW 5209   3.792   0.750   6.975
 1437SOL    HW1 5210   3.696   0.720   6.979
 1437SOL    HW2 5211   3.799   0.845   7.005
 1438SOL     OW 5212   2.064   0.364   2.535
 1438SOL    HW1 5213   2.003   0.285   2.533
 1438SOL    HW2 5214   2.036   0.429   2.463
 1439SOL     OW 5215   0.117   4.607   7.009
 1439SOL    HW1 5216   0.077   4.610   6.918
 1439SOL    HW2 5217   0.056   4.651   0.051
 1440SOL     OW 5218   3.468   3.004   2.943
 1440SOL    HW1 5219   3.535   2.944   2.986
 1440SOL    HW2 5220   3.441   2.965   2.854
 1441SOL     OW 5221   6.564   2.824   4.128
 1441SOL    HW1 5222   6.477   2.775   4.126
 1441SOL    HW2 5223   6.595   2.833   4.222
 1442SOL     OW 5224   5.384   6.686   6.895
 1442SOL    HW1 5225   5.285   6.679   6.909
 1442SOL    HW2 5226   5.406   6.665   6.800
 1443SOL     OW 5227   1.098   2.535   2.926
 1443SOL    HW1 5228   1.016   2.582   2.892
 1443SOL    HW2 5229   1.175   2.600   2.929
 1444SOL     OW 5230   5.469   0.679   5.160
 1444SOL    HW1 5231   5.392   0.690   5.097
 1444SOL    HW2 5232   5.477   0.761   5.217
 1445SOL     OW 5233   6.280   2.117   0.413
 1445SOL    HW1 5234   6.238   2.165   0.490
 1445SOL    HW2 5235   6.352   2.056   0.447
 1446SOL     OW 5236   3.917   0.308   1.021
 1446SOL    HW1 5237   3.891   0.399   1.055
 1446SOL    HW2 5238   3.871   0.238   1.075
 1447SOL     OW 5239   5.375   1.407   4.802
 1447SOL    HW1 5240   5.436   1.340   4.845
 1447SOL    HW2 5241   5.365   1.486   4.862
 1448SOL     OW 5242   5.632   0.008   6.676
 1448SOL    HW1 5243   5.605   6.946   6.633
 1448SOL    HW2 5244   5.674   7.013   6.765
 1449SOL     OW 5245   4.767   5.533   0.759
 1449SOL    HW1 5246   4.720   5.513   0.845
 1449SOL    HW2 5247   4.716   5.601   0.708
 1450SOL     OW 5248   5.592   2.317   3.822
 1450SOL    HW1 5249   5.495   2.295   3.828
 1450SOL    HW2 5250   5.610   2.367   3.737
 1451SOL     OW 5251   1.616   0.035   1.911
 1451SOL    HW1 5252   1.630   0.037   1.812
 1451SOL    HW2 5253   1.567   0.117   1.939
 1452SOL     OW 5254   4.300   0.481   4.863
 1452SOL    HW1 5255   4.300   0.410   4.793
 1452SOL    HW2 5256   4.238   0.555   4.836
 1453SOL     OW 5257   4.618   4.353   4.139
 1453SOL    HW1 5258   4.560   4.418   4.187
 1453SOL    HW2 5259   4.664   4.294   4.205
 1454SOL     OW 5260   4.751   4.144   1.254
 1454SOL    HW1 5261   4.786   4.088   1.329
 1454SOL    HW2 5262   4.816   4.217   1.234
 1455SOL     OW 5263   2.395   2.071   1.263
 1455SOL    HW1 5264   2.448   2.154   1.244
 1455SOL    HW2 5265   2.355   2.077   1.354
 1456SOL     OW 5266   6.591   5.623   4.041
 1456SOL    HW1 5267   6.652   5.612   4.119
 1456SOL    HW2 5268   6.529   5.700   4.057
 1457SOL     OW 5269   1.853   0.108   3.471
 1457SOL    HW1 5270   1.808   0.038   3.415
 1457SOL    HW2 5271   1.831   0.092   3.568
 1458SOL     OW 5272   6.844   5.381   0.441
 1458SOL    HW1 5273   6.790   5.299   0.457
 1458SOL    HW2 5274   6.815   5.426   0.357
 1459SOL     OW 5275   2.756   0.345   1.515
 1459SOL    HW1 5276   2.837   0.300   1.478
 1459SOL    HW2 5277   2.751   0.438   1.480
 1460SOL     OW 5278   0.825   6.270   0.539
 1460SOL    HW1 5279   0.836   6.265   0.638
 1460SOL    HW2 5280   0.730   6.247   0.515
 1461SOL     OW 5281   4.543   4.654   1.442
 1461SOL    HW1 5282   4.536   4.592   1.363
 1461SOL    HW2 5283   4.595   4.610   1.515
 1462SOL     OW 5284   5.164   0.604   5.185
 1462SOL    HW1 5285   5.158   0.671   5.258
 1462SOL    HW2 5286   5.198   0.648   5.102
 1463SOL     OW 5287   0.343   1.324   5.114
 1463SOL    HW1 5288   0.308   1.233   5.139
 1463SOL    HW2 5289   0.360   1.377   5.197
 1464SOL     OW 5290   0.184   6.984   1.706
 1464SOL    HW1 5291   0.279   6.979   1.673
 1464SOL    HW2 5292   0.122   6.953   1.634
 1465SOL     OW 5293   0.419   6.875   4.903
 1465SOL    HW1 5294   0.341   6.924   4.865
 1465SOL    HW2 5295   0.393   6.781   4.925
 1466SOL     OW 5296   5.356   4.545   4.233
 1466SOL    HW1 5297   5.355   4.491   4.317
 1466SOL    HW2 5298   5.275   4.521   4.178
 1467SOL     OW 5299   6.043   3.969   2.626
 1467SOL    HW1 5300   6.106   4.046   2.614
 1467SOL    HW2 5301   6.033   3.922   2.538
 1468SOL     OW 5302   5.172   6.254   3.202
 1468SOL    HW1 5303   5.156   6.276   3.106
 1468SOL    HW2 5304   5.264   6.217   3.213
 1469SOL     OW 5305   7.018   0.913   2.541
 1469SOL    HW1 5306   7.004   1.008   2.571
 1469SOL    HW2 5307   0.090   0.901   2.514
 1470SOL     OW 5308   0.298   0.925   3.443
 1470SOL    HW1 5309   0.254   0.960   3.360
 1470SOL    HW2 5310   0.245   0.848   3.479
 1471SOL     OW 5311   6.443   0.801   0.393
 1471SOL    HW1 5312   6.473   0.832   0.483
 1471SOL    HW2 5313   6.520   0.762   0.343
 1472SOL     OW 5314   4.664   5.583   5.209
 1472SOL    HW1 5315   4.724   5.639   5.266
 1472SOL    HW2 5316   4.623   5.641   5.138
 1473SOL     OW 5317   5.821   4.522   3.119
 1473SOL    HW1 5318   5.897   4.497   3.179
 1473SOL    HW2 5319   5.838   4.487   3.027
 1474SOL     OW 5320   4.588   5.038   3.745
 1474SOL    HW1 5321   4.559   5.111   3.806
 1474SOL    HW2 5322   4.536   4.955   3.765
 1475SOL     OW 5323   6.925   1.016   3.334
 1475SOL    HW1 5324   6.911   1.041   3.430
 1475SOL    HW2 5325   6.891   0.923   3.319
 1476SOL     OW 5326   6.109   2.314   1.400
 1476SOL    HW1 5327   6.067   2.229   1.432
 1476SOL    HW2 5328   6.048   2.358   1.333
 1477SOL     OW 5329   3.012   6.224   3.532
 1477SOL    HW1 5330   3.044   6.297   3.593
 1477SOL    HW2 5331   3.081   6.151   3.528
 1478SOL     OW 5332   6.893   4.934   1.729
 1478SOL    HW1 5333   6.808   4.887   1.707
 1478SOL    HW2 5334   6.875   5.031   1.745
 1479SOL     OW 5335   0.840   5.174   0.797
 1479SOL    HW1 5336   0.819   5.208   0.889
 1479SOL    HW2 5337   0.762   5.189   0.737
 1480SOL     OW 5338   2.961   1.000   0.380
 1480SOL    HW1 5339   3.047   0.969   0.420
 1480SOL    HW2 5340   2.961   0.980   0.282
 1481SOL     OW 5341   6.962   2.081   5.944
 1481SOL    HW1 5342   0.007   2.126   6.002
 1481SOL    HW2 5343   6.906   2.021   6.000
 1482SOL     OW 5344   5.694   1.293   6.327
 1482SOL    HW1 5345   5.752   1.211   6.327
 1482SOL    HW2 5346   5.605   1.271   6.367
 1483SOL     OW 5347   5.995   2.365   6.821
 1483SOL    HW1 5348   6.006   2.457   6.858
 1483SOL    HW2 5349   5.903   2.356   6.782
 1484SOL     OW 5350   6.961   6.836   3.211
 1484SOL    HW1 5351   6.896   6.856   3.137
 1484SOL    HW2 5352   0.017   6.894   3.201
 1485SOL     OW 5353   5.942   2.752   3.735
 1485SOL    HW1 5354   5.859   2.720   3.688
 1485SOL    HW2 5355   5.978   2.680   3.793
 1486SOL     OW 5356   4.979   2.777   1.689
 1486SOL    HW1 5357   4.895   2.796   1.638
 1486SOL    HW2 5358   4.977   2.827   1.776
 1487SOL     OW 5359   6.442   1.031   5.573
 1487SOL    HW1 5360   6.508   1.099   5.541
 1487SOL    HW2 5361   6.383   1.003   5.497
 1488SOL     OW 5362   4.591   2.018   2.547
 1488SOL    HW1 5363   4.567   1.975   2.460
 1488SOL    HW2 5364   4.624   2.111   2.530
 1489SOL     OW 5365   4.001   4.885   5.082
 1489SOL    HW1 5366   3.904   4.887   5.058
 1489SOL    HW2 5367   4.057   4.912   5.004
 1490SOL     OW 5368   2.261   2.343   1.116
 1490SOL    HW1 5369   2.307   2.425   1.149
 1490SOL    HW2 5370   2.318   2.297   1.048
 1491SOL     OW 5371   6.939   2.150   5.619
 1491SOL    HW1 5372   6.871   2.172   5.688
 1491SOL    HW2 5373   6.930   2.213   5.541
 1492SOL     OW 5374   5.475   2.775   1.888
 1492SOL    HW1 5375   5.452   2.859   1.840
 1492SOL    HW2 5376   5.473   2.791   1.987
 1493SOL     OW 5377   5.538   0.908   5.433
 1493SOL    HW1 5378   5.527   0.811   5.455
 1493SOL    HW2 5379   5.491   0.964   5.502
 1494SOL     OW 5380   5.287   2.330   3.823
 1494SOL    HW1 5381   5.208   2.389   3.838
 1494SOL    HW2 5382   5.299   2.313   3.725
 1495SOL     OW 5383   1.796   2.172   2.350
 1495SOL    HW1 5384   1.827   2.081   2.378
 1495SOL    HW2 5385   1.834   2.240   2.412
 1496SOL     OW 5386   1.071   1.144   3.267
 1496SOL    HW1 5387   1.041   1.238   3.252
 1496SOL    HW2 5388   1.040   1.086   3.191
 1497SOL     OW 5389   5.260   4.373   5.839
 1497SOL    HW1 5390   5.293   4.438   5.771
 1497SOL    HW2 5391   5.336   4.316   5.870
 1498SOL     OW 5392   1.774   5.611   0.219
 1498SOL    HW1 5393   1.812   5.657   0.138
 1498SOL    HW2 5394   1.674   5.614   0.215
 1499SOL     OW 5395   0.413   4.608   5.006
 1499SOL    HW1 5396   0.355   4.573   4.932
 1499SOL    HW2 5397   0.509   4.606   4.976
 1500SOL     OW 5398   4.011   6.664   5.255
 1500SOL    HW1 5399   4.111   6.673   5.256
 1500SOL    HW2 5400   3.982   6.606   5.332
 1501SOL     OW 5401   4.344   0.531   6.413
 1501SOL    HW1 5402   4.292   0.594   6.470
 1501SOL    HW2 5403   4.315   0.437   6.431
 1502SOL     OW 5404   6.990   6.414   0.392
 1502SOL    HW1 5405   0.042   6.387   0.451
 1502SOL    HW2 5406   6.909   6.362   0.416
 1503SOL     OW 5407   3.349   4.164   5.307
 1503SOL    HW1 5408   3.383   4.072   5.326
 1503SOL    HW2 5409   3.412   4.231   5.345
 1504SOL     OW 5410   2.826   6.203   4.360
 1504SOL    HW1 5411   2.870   6.283   4.400
 1504SOL    HW2 5412   2.877   6.172   4.280
 1505SOL     OW 5413   4.734   5.411   1.914
 1505SOL    HW1 5414   4.664   5.482   1.921
 1505SOL    HW2 5415   4.690   5.324   1.893
 1506SOL     OW 5416   0.734   6.268   2.912
 1506SOL    HW1 5417   0.678   6.348   2.933
 1506SOL    HW2 5418   0.831   6.292   2.914
 1507SOL     OW 5419   2.142   1.058   6.488
 1507SOL    HW1 5420   2.208   1.126   6.457
 1507SOL    HW2 5421   2.149   0.976   6.431
 1508SOL     OW 5422   4.658   0.232   0.363
 1508SOL    HW1 5423   4.563   0.202   0.371
 1508SOL    HW2 5424   4.690   0.268   0.451
 1509SOL     OW 5425   5.405   1.349   0.594
 1509SOL    HW1 5426   5.313   1.378   0.565
 1509SOL    HW2 5427   5.466   1.345   0.515
 1510SOL     OW 5428   0.029   2.144   3.777
 1510SOL    HW1 5429   7.021   2.089   3.700
 1510SOL    HW2 5430   0.128   2.152   3.775
 1511SOL     OW 5431   1.447   2.722   0.343
 1511SOL    HW1 5432   1.432   2.781   0.423
 1511SOL    HW2 5433   1.449   2.627   0.373
 1512SOL     OW 5434   5.649   7.009   2.342
 1512SOL    HW1 5435   5.566   0.039   2.358
 1512SOL    HW2 5436   5.729   0.036   2.374
 1513SOL     OW 5437   3.507   1.120   2.502
 1513SOL    HW1 5438   3.420   1.129   2.454
 1513SOL    HW2 5439   3.552   1.209   2.507
 1514SOL     OW 5440   5.555   1.078   6.000
 1514SOL    HW1 5441   5.478   1.121   6.047
 1514SOL    HW2 5442   5.620   1.042   6.067
 1515SOL     OW 5443   6.686   5.368   4.980
 1515SOL    HW1 5444   6.777   5.334   4.957
 1515SOL    HW2 5445   6.681   5.390   5.077
 1516SOL     OW 5446   0.490   1.420   0.746
 1516SOL    HW1 5447   0.440   1.449   0.665
 1516SOL    HW2 5448   0.577   1.468   0.751
 1517SOL     OW 5449   3.509   4.944   3.656
 1517SOL    HW1 5450   3.447   4.912   3.728
 1517SOL    HW2 5451   3.593   4.980   3.696
 1518SOL     OW 5452   1.352   4.241   1.461
 1518SOL    HW1 5453   1.324   4.335   1.482
 1518SOL    HW2 5454   1.275   4.192   1.421
 1519SOL     OW 5455   0.108   4.613   1.085
 1519SOL    HW1 5456   0.195   4.663   1.087
 1519SOL    HW2 5457   0.096   4.570   0.996
 1520SOL     OW 5458   1.569   2.756   2.552
 1520SOL    HW1 5459   1.545   2.712   2.639
 1520SOL    HW2 5460   1.657   2.803   2.562
 1521SOL     OW 5461   2.733   4.018   5.970
 1521SOL    HW1 5462   2.801   4.082   5.934
 1521SOL    HW2 5463   2.736   3.933   5.916
 1522SOL     OW 5464   0.700   2.401   6.492
 1522SOL    HW1 5465   0.639   2.434   6.564
 1522SOL    HW2 5466   0.735   2.479   6.440
 1523SOL     OW 5467   6.640   1.528   0.447
 1523SOL    HW1 5468   6.547   1.509   0.480
 1523SOL    HW2 5469   6.705   1.471   0.498
 1524SOL     OW 5470   6.217   1.139   3.046
 1524SOL    HW1 5471   6.173   1.060   3.088
 1524SOL    HW2 5472   6.206   1.135   2.947
 1525SOL     OW 5473   4.836   1.814   6.074
 1525SOL    HW1 5474   4.740   1.796   6.049
 1525SOL    HW2 5475   4.889   1.831   5.990
 1526SOL     OW 5476   6.841   1.711   0.330
 1526SOL    HW1 5477   6.796   1.622   0.319
 1526SOL    HW2 5478   6.932   1.698   0.370
 1527SOL     OW 5479   3.088   1.930   5.564
 1527SOL    HW1 5480   3.001   1.962   5.601
 1527SOL    HW2 5481   3.071   1.865   5.489
 1528SOL     OW 5482   4.979   5.777   3.387
 1528SOL    HW1 5483   5.032   5.739   3.463
 1528SOL    HW2 5484   4.976   5.711   3.312
 1529SOL     OW 5485   3.296   0.902   4.969
 1529SOL    HW1 5486   3.197   0.898   4.983
 1529SOL    HW2 5487   3.319   0.868   4.878
 1530SOL     OW 5488   3.140   7.009   2.368
 1530SOL    HW1 5489   3.165   6.913   2.377
 1530SOL    HW2 5490   3.182   0.022   2.285
 1531SOL     OW 5491   6.641   0.129   6.008
 1531SOL    HW1 5492   6.718   0.072   6.038
 1531SOL    HW2 5493   6.581   0.074   5.950
 1532SOL     OW 5494   3.526   2.060   5.223
 1532SOL    HW1 5495   3.473   2.138   5.258
 1532SOL    HW2 5496   3.467   2.005   5.164
 1533SOL     OW 5497   5.625   2.655   6.901
 1533SOL    HW1 5498   5.721   2.653   6.931
 1533SOL    HW2 5499   5.615   2.726   6.831
 1534SOL     OW 5500   6.782   6.839   1.458
 1534SOL    HW1 5501   6.682   6.846   1.453
 1534SOL    HW2 5502   6.811   6.745   1.440
 1535SOL     OW 5503   4.819   5.392   3.861
 1535SOL    HW1 5504   4.807   5.487   3.833
 1535SOL    HW2 5505   4.729   5.351   3.880
 1536SOL     OW 5506   2.898   5.537   3.513
 1536SOL    HW1 5507   2.989   5.559   3.479
 1536SOL    HW2 5508   2.846   5.488   3.443
 1537SOL     OW 5509   2.228   5.347   4.428
 1537SOL    HW1 5510   2.232   5.289   4.510
 1537SOL    HW2 5511   2.314   5.339   4.377
 1538SOL     OW 5512   3.163   4.902   6.769
 1538SOL    HW1 5513   3.111   4.960   6.707
 1538SOL    HW2 5514   3.131   4.807   6.761
 1539SOL     OW 5515   3.346   5.025   1.612
 1539SOL    HW1 5516   3.379   5.113   1.647
 1539SOL    HW2 5517   3.420   4.958   1.614
 1540SOL     OW 5518   6.698   6.939   5.457
 1540SOL    HW1 5519   6.603   6.970   5.464
 1540SOL    HW2 5520   6.701   6.840   5.464
 1541SOL     OW 5521   4.851   2.102   0.756
 1541SOL    HW1 5522   4.909   2.116   0.836
 1541SOL    HW2 5523   4.881   2.162   0.682
 1542SOL     OW 5524   0.862   6.356   1.239
 1542SOL    HW1 5525   0.878   6.265   1.201
 1542SOL    HW2 5526   0.861   6.352   1.339
 1543SOL     OW 5527   2.999   3.933   4.185
 1543SOL    HW1 5528   2.977   3.836   4.175
 1543SOL    HW2 5529   2.921   3.980   4.227
 1544SOL     OW 5530   3.587   3.920   2.757
 1544SOL    HW1 5531   3.655   3.863   2.803
 1544SOL    HW2 5532   3.589   4.012   2.796
 1545SOL     OW 5533   6.936   0.285   4.586
 1545SOL    HW1 5534   7.003   0.318   4.519
 1545SOL    HW2 5535   6.863   0.235   4.538
 1546SOL     OW 5536   0.127   6.474   6.025
 1546SOL    HW1 5537   0.088   6.387   6.055
 1546SOL    HW2 5538   0.136   6.536   6.103
 1547SOL     OW 5539   3.859   6.150   6.844
 1547SOL    HW1 5540   3.896   6.195   6.762
 1547SOL    HW2 5541   3.934   6.113   6.898
 1548SOL     OW 5542   6.406   4.625   3.847
 1548SOL    HW1 5543   6.431   4.589   3.757
 1548SOL    HW2 5544   6.379   4.721   3.838
 1549SOL     OW 5545   6.453   1.728   1.348
 1549SOL    HW1 5546   6.372   1.727   1.288
 1549SOL    HW2 5547   6.446   1.805   1.411
 1550SOL     OW 5548   2.300   6.074   3.277
 1550SOL    HW1 5549   2.295   5.999   3.211
 1550SOL    HW2 5550   2.257   6.156   3.238
 1551SOL     OW 5551   0.537   3.232   1.061
 1551SOL    HW1 5552   0.595   3.174   1.004
 1551SOL    HW2 5553   0.563   3.328   1.046
 1552SOL     OW 5554   0.980   6.937   0.830
 1552SOL    HW1 5555   1.020   6.850   0.800
 1552SOL    HW2 5556   1.027   6.969   0.912
 1553SOL     OW 5557   5.610   1.825   5.712
 1553SOL    HW1 5558   5.624   1.922   5.694
 1553SOL    HW2 5559   5.669   1.771   5.652
 1554SOL     OW 5560   2.879   1.725   1.322
 1554SOL    HW1 5561   2.790   1.752   1.358
 1554SOL    HW2 5562   2.947   1.730   1.396
 1555SOL     OW 5563   4.199   0.872   6.145
 1555SOL    HW1 5564   4.099   0.867   6.142
 1555SOL    HW2 5565   4.238   0.786   6.113
 1556SOL     OW 5566   3.458   1.878   6.837
 1556SOL    HW1 5567   3.543   1.920   6.805
 1556SOL    HW2 5568   3.478   1.786   6.871
 1557SOL     OW 5569   1.657   2.995   0.359
 1557SOL    HW1 5570   1.613   3.055   0.426
 1557SOL    HW2 5571   1.682   2.909   0.403
 1558SOL     OW 5572   5.459   3.146   5.984
 1558SOL    HW1 5573   5.446   3.118   6.079
 1558SOL    HW2 5574   5.479   3.244   5.980
 1559SOL     OW 5575   2.654   5.029   3.675
 1559SOL    HW1 5576   2.669   5.036   3.576
 1559SOL    HW2 5577   2.556   5.017   3.693
 1560SOL     OW 5578   3.876   1.923   0.898
 1560SOL    HW1 5579   3.888   1.896   0.802
 1560SOL    HW2 5580   3.903   2.019   0.909
 1561SOL     OW 5581   6.171   5.984   1.075
 1561SOL    HW1 5582   6.149   5.998   1.172
 1561SOL    HW2 5583   6.213   6.067   1.038
 1562SOL     OW 5584   3.297   0.053   2.769
 1562SOL    HW1 5585   3.293   0.021   2.674
 1562SOL    HW2 5586   3.244   7.015   2.827
 1563SOL     OW 5587   2.638   2.244   3.899
 1563SOL    HW1 5588   2.730   2.226   3.864
 1563SOL    HW2 5589   2.571   2.200   3.839
 1564SOL     OW 5590   0.823   1.413   3.069
 1564SOL    HW1 5591   0.762   1.350   3.021
 1564SOL    HW2 5592   0.772   1.494   3.097
 1565SOL     OW 5593   4.220   1.481   4.814
 1565SOL    HW1 5594   4.277   1.553   4.774
 1565SOL    HW2 5595   4.137   1.470   4.760
 1566SOL     OW 5596   5.587   4.650   3.276
 1566SOL    HW1 5597   5.628   4.649   3.367
 1566SOL    HW2 5598   5.659   4.636   3.207
 1567SOL     OW 5599   5.315   0.905   4.698
 1567SOL    HW1 5600   5.228   0.954   4.703
 1567SOL    HW2 5601   5.300   0.815   4.656
 1568SOL     OW 5602   3.117   5.081   1.140
 1568SOL    HW1 5603   3.165   5.004   1.181
 1568SOL    HW2 5604   3.108   5.066   1.041
 1569SOL     OW 5605   3.053   1.296   2.933
 1569SOL    HW1 5606   3.131   1.355   2.952
 1569SOL    HW2 5607   3.031   1.243   3.016
 1570SOL     OW 5608   3.153   5.865   6.262
 1570SOL    HW1 5609   3.059   5.867   6.226
 1570SOL    HW2 5610   3.190   5.958   6.264
 1571SOL     OW 5611   0.318   3.108   3.604
 1571SOL    HW1 5612   0.356   3.182   3.660
 1571SOL    HW2 5613   0.346   3.020   3.642
 1572SOL     OW 5614   2.940   5.400   2.497
 1572SOL    HW1 5615   2.952   5.499   2.504
 1572SOL    HW2 5616   2.880   5.369   2.571
 1573SOL     OW 5617   5.591   5.917   6.975
 1573SOL    HW1 5618   5.512   5.955   7.024
 1573SOL    HW2 5619   5.596   5.818   6.991
 1574SOL     OW 5620   0.254   3.913   3.199
 1574SOL    HW1 5621   0.335   3.953   3.242
 1574SOL    HW2 5622   0.253   3.937   3.102
 1575SOL     OW 5623   6.742   2.355   0.279
 1575SOL    HW1 5624   6.669   2.289   0.295
 1575SOL    HW2 5625   6.757   2.409   0.361
 1576SOL     OW 5626   1.081   6.924   1.651
 1576SOL    HW1 5627   1.135   6.867   1.589
 1576SOL    HW2 5628   0.995   6.949   1.606
 1577SOL     OW 5629   3.475   5.910   5.364
 1577SOL    HW1 5630   3.404   5.867   5.421
 1577SOL    HW2 5631   3.504   5.845   5.293
 1578SOL     OW 5632   5.009   1.149   1.325
 1578SOL    HW1 5633   4.958   1.106   1.400
 1578SOL    HW2 5634   5.107   1.142   1.344
 1579SOL     OW 5635   1.927   2.534   1.439
 1579SOL    HW1 5636   1.965   2.443   1.451
 1579SOL    HW2 5637   1.966   2.596   1.508
 1580SOL     OW 5638   2.957   3.336   2.732
 1580SOL    HW1 5639   2.962   3.428   2.771
 1580SOL    HW2 5640   2.946   3.269   2.806
 1581SOL     OW 5641   6.348   4.837   5.455
 1581SOL    HW1 5642   6.400   4.884   5.383
 1581SOL    HW2 5643   6.264   4.799   5.416
 1582SOL     OW 5644   4.362   6.278   4.958
 1582SOL    HW1 5645   4.362   6.179   4.966
 1582SOL    HW2 5646   4.302   6.318   5.028
 1583SOL     OW 5647   1.340   4.813   4.684
 1583SOL    HW1 5648   1.254   4.824   4.634
 1583SOL    HW2 5649   1.354   4.716   4.705
 1584SOL     OW 5650   0.132   4.628   0.361
 1584SOL    HW1 5651   0.134   4.551   0.297
 1584SOL    HW2 5652   0.225   4.656   0.384
 1585SOL     OW 5653   4.358   6.479   3.560
 1585SOL    HW1 5654   4.404   6.394   3.582
 1585SOL    HW2 5655   4.411   6.529   3.490
 1586SOL     OW 5656   3.575   6.027   3.713
 1586SOL    HW1 5657   3.625   5.941   3.700
 1586SOL    HW2 5658   3.578   6.081   3.629
 1587SOL     OW 5659   2.925   6.273   6.778
 1587SOL    HW1 5660   2.948   6.283   6.875
 1587SOL    HW2 5661   2.841   6.220   6.769
 1588SOL     OW 5662   6.692   1.365   3.763
 1588SOL    HW1 5663   6.647   1.454   3.756
 1588SOL    HW2 5664   6.783   1.376   3.801
 1589SOL     OW 5665   6.492   4.256   3.818
 1589SOL    HW1 5666   6.543   4.324   3.871
 1589SOL    HW2 5667   6.492   4.169   3.866
 1590SOL     OW 5668   6.539   2.451   4.090
 1590SOL    HW1 5669   6.631   2.468   4.055
 1590SOL    HW2 5670   6.485   2.535   4.085
 1591SOL     OW 5671   1.258   6.194   1.392
 1591SOL    HW1 5672   1.279   6.290   1.372
 1591SOL    HW2 5673   1.197   6.189   1.471
 1592SOL     OW 5674   0.097   4.461   6.055
 1592SOL    HW1 5675   0.129   4.367   6.042
 1592SOL    HW2 5676   0.101   4.485   6.153
 1593SOL     OW 5677   3.322   0.020   6.967
 1593SOL    HW1 5678   3.350   6.948   6.970
 1593SOL    HW2 5679   3.222   0.025   6.974
 1594SOL     OW 5680   5.850   0.153   2.392
 1594SOL    HW1 5681   5.914   0.143   2.316
 1594SOL    HW2 5682   5.835   0.250   2.410
 1595SOL     OW 5683   0.292   3.815   0.342
 1595SOL    HW1 5684   0.362   3.834   0.411
 1595SOL    HW2 5685   0.276   3.896   0.287
 1596SOL     OW 5686   4.510   4.631   3.585
 1596SOL    HW1 5687   4.592   4.588   3.625
 1596SOL    HW2 5688   4.480   4.705   3.644
 1597SOL     OW 5689   3.965   6.247   6.614
 1597SOL    HW1 5690   3.937   6.291   6.528
 1597SOL    HW2 5691   4.057   6.277   6.638
 1598SOL     OW 5692   1.426   4.384   6.987
 1598SOL    HW1 5693   1.409   4.465   6.931
 1598SOL    HW2 5694   1.339   4.341   7.011
 1599SOL     OW 5695   4.381   5.486   3.099
 1599SOL    HW1 5696   4.317   5.563   3.103
 1599SOL    HW2 5697   4.455   5.502   3.164
 1600SOL     OW 5698   3.748   0.371   2.226
 1600SOL    HW1 5699   3.654   0.387   2.256
 1600SOL    HW2 5700   3.787   0.295   2.279
 1601SOL     OW 5701   6.330   0.349   5.558
 1601SOL    HW1 5702   6.257   0.309   5.614
 1601SOL    HW2 5703   6.327   0.448   5.567
 1602SOL     OW 5704   3.860   6.012   3.722
 1602SOL    HW1 5705   3.915   5.974   3.797
 1602SOL    HW2 5706   3.769   6.037   3.758
 1603SOL     OW 5707   3.503   5.637   3.269
 1603SOL    HW1 5708   3.597   5.667   3.257
 1603SOL    HW2 5709   3.448   5.710   3.310
 1604SOL     OW 5710   4.213   5.262   1.788
 1604SOL    HW1 5711   4.175   5.347   1.752
 1604SOL    HW2 5712   4.212   5.265   1.888
 1605SOL     OW 5713   4.813   5.328   0.539
 1605SOL    HW1 5714   4.718   5.296   0.539
 1605SOL    HW2 5715   4.822   5.403   0.605
 1606SOL     OW 5716   3.452   5.877   4.721
 1606SOL    HW1 5717   3.364   5.906   4.684
 1606SOL    HW2 5718   3.502   5.825   4.652
 1607SOL     OW 5719   4.477   5.281   2.912
 1607SOL    HW1 5720   4.430   5.203   2.953
 1607SOL    HW2 5721   4.448   5.365   2.958
 1608SOL     OW 5722   5.389   1.584   3.341
 1608SOL    HW1 5723   5.409   1.549   3.249
 1608SOL    HW2 5724   5.381   1.507   3.405
 1609SOL     OW 5725   2.723   7.013   1.322
 1609SOL    HW1 5726   2.742   6.990   1.418
 1609SOL    HW2 5727   2.719   6.929   1.268
 1610SOL     OW 5728   5.359   6.861   1.003
 1610SOL    HW1 5729   5.279   6.920   1.004
 1610SOL    HW2 5730   5.339   6.775   1.050
 1611SOL     OW 5731   1.502   4.450   0.926
 1611SOL    HW1 5732   1.456   4.536   0.904
 1611SOL    HW2 5733   1.538   4.455   1.019
 1612SOL     OW 5734   4.186   0.205   1.737
 1612SOL    HW1 5735   4.193   0.242   1.644
 1612SOL    HW2 5736   4.091   0.209   1.767
 1613SOL     OW 5737   6.800   5.977   2.171
 1613SOL    HW1 5738   6.753   6.036   2.236
 1613SOL    HW2 5739   6.898   6.000   2.170
 1614SOL     OW 5740   6.437   1.587   6.340
 1614SOL    HW1 5741   6.365   1.542   6.393
 1614SOL    HW2 5742   6.514   1.524   6.328
 1615SOL     OW 5743   0.912   4.077   6.361
 1615SOL    HW1 5744   0.904   4.172   6.393
 1615SOL    HW2 5745   0.988   4.070   6.297
 1616SOL     OW 5746   1.698   1.280   4.633
 1616SOL    HW1 5747   1.703   1.367   4.583
 1616SOL    HW2 5748   1.626   1.223   4.594
 1617SOL     OW 5749   6.387   6.632   3.145
 1617SOL    HW1 5750   6.370   6.535   3.160
 1617SOL    HW2 5751   6.386   6.680   3.233
 1618SOL     OW 5752   3.201   5.821   3.294
 1618SOL    HW1 5753   3.201   5.730   3.336
 1618SOL    HW2 5754   3.109   5.860   3.299
 1619SOL     OW 5755   1.500   4.077   0.171
 1619SOL    HW1 5756   1.545   4.164   0.191
 1619SOL    HW2 5757   1.483   4.070   0.072
 1620SOL     OW 5758   3.417   5.367   4.865
 1620SOL    HW1 5759   3.432   5.415   4.951
 1620SOL    HW2 5760   3.500   5.371   4.809
 1621SOL     OW 5761   5.153   6.306   0.391
 1621SOL    HW1 5762   5.138   6.397   0.431
 1621SOL    HW2 5763   5.065   6.267   0.364
 1622SOL     OW 5764   6.662   4.504   4.464
 1622SOL    HW1 5765   6.583   4.462   4.509
 1622SOL    HW2 5766   6.633   4.545   4.377
 1623SOL     OW 5767   0.014   2.235   3.307
 1623SOL    HW1 5768   6.976   2.182   3.250
 1623SOL    HW2 5769   6.989   2.313   3.346
 1624SOL     OW 5770   4.070   2.403   1.031
 1624SOL    HW1 5771   4.035   2.492   1.005
 1624SOL    HW2 5772   4.170   2.404   1.027
 1625SOL     OW 5773   0.257   6.095   1.124
 1625SOL    HW1 5774   0.353   6.072   1.142
 1625SOL    HW2 5775   0.224   6.155   1.197
 1626SOL     OW 5776   2.620   2.200   1.563
 1626SOL    HW1 5777   2.676   2.201   1.646
 1626SOL    HW2 5778   2.645   2.278   1.505
 1627SOL     OW 5779   3.987   1.949   5.381
 1627SOL    HW1 5780   4.085   1.943   5.403
 1627SOL    HW2 5781   3.946   2.023   5.435
 1628SOL     OW 5782   5.404   6.375   0.835
 1628SOL    HW1 5783   5.480   6.310   0.832
 1628SOL    HW2 5784   5.438   6.466   0.814
 1629SOL     OW 5785   1.892   0.588   3.783
 1629SOL    HW1 5786   1.848   0.665   3.831
 1629SOL    HW2 5787   1.934   0.527   3.850
 1630SOL     OW 5788   0.442   4.036   6.875
 1630SOL    HW1 5789   0.519   4.046   6.937
 1630SOL    HW2 5790   0.446   3.947   6.830
 1631SOL     OW 5791   6.726   3.797   0.364
 1631SOL    HW1 5792   6.656   3.835   0.303
 1631SOL    HW2 5793   6.806   3.857   0.363
 1632SOL     OW 5794   6.742   5.867   2.699
 1632SOL    HW1 5795   6.766   5.774   2.671
 1632SOL    HW2 5796   6.801   5.932   2.652
 1633SOL     OW 5797   5.882   3.683   4.352
 1633SOL    HW1 5798   5.948   3.659   4.424
 1633SOL    HW2 5799   5.798   3.716   4.393
 1634SOL     OW 5800   6.716   1.655   4.895
 1634SOL    HW1 5801   6.723   1.689   4.989
 1634SOL    HW2 5802   6.793   1.690   4.841
 1635SOL     OW 5803   4.066   6.302   2.885
 1635SOL    HW1 5804   4.117   6.370   2.831
 1635SOL    HW2 5805   3.995   6.349   2.938
 1636SOL     OW 5806   6.100   6.015   1.358
 1636SOL    HW1 5807   6.195   6.002   1.383
 1636SOL    HW2 5808   6.057   6.078   1.423
 1637SOL     OW 5809   0.865   0.337   2.312
 1637SOL    HW1 5810   0.807   0.262   2.281
 1637SOL    HW2 5811   0.899   0.318   2.404
 1638SOL     OW 5812   6.312   2.329   1.774
 1638SOL    HW1 5813   6.259   2.384   1.710
 1638SOL    HW2 5814   6.353   2.389   1.843
 1639SOL     OW 5815   5.279   2.586   2.598
 1639SOL    HW1 5816   5.214   2.657   2.572
 1639SOL    HW2 5817   5.252   2.545   2.685
 1640SOL     OW 5818   6.993   0.362   6.988
 1640SOL    HW1 5819   0.064   0.374   6.960
 1640SOL    HW2 5820   6.987   0.285   0.028
 1641SOL     OW 5821   6.468   2.561   3.193
 1641SOL    HW1 5822   6.387   2.596   3.240
 1641SOL    HW2 5823   6.492   2.472   3.230
 1642SOL     OW 5824   6.804   2.616   6.278
 1642SOL    HW1 5825   6.786   2.648   6.186
 1642SOL    HW2 5826   6.900   2.586   6.285
 1643SOL     OW 5827   2.162   5.839   3.903
 1643SOL    HW1 5828   2.151   5.760   3.963
 1643SOL    HW2 5829   2.158   5.810   3.807
 1644SOL     OW 5830   5.932   2.977   1.731
 1644SOL    HW1 5831   5.989   2.988   1.650
 1644SOL    HW2 5832   5.870   2.899   1.718
 1645SOL     OW 5833   2.333   0.630   5.361
 1645SOL    HW1 5834   2.402   0.594   5.298
 1645SOL    HW2 5835   2.341   0.730   5.366
 1646SOL     OW 5836   1.320   4.652   0.875
 1646SOL    HW1 5837   1.255   4.599   0.821
 1646SOL    HW2 5838   1.292   4.748   0.876
 1647SOL     OW 5839   5.492   2.923   3.832
 1647SOL    HW1 5840   5.438   2.855   3.881
 1647SOL    HW2 5841   5.559   2.965   3.894
 1648SOL     OW 5842   5.531   6.042   1.089
 1648SOL    HW1 5843   5.452   6.017   1.034
 1648SOL    HW2 5844   5.597   5.966   1.089
 1649SOL     OW 5845   3.735   0.615   3.052
 1649SOL    HW1 5846   3.673   0.545   3.087
 1649SOL    HW2 5847   3.708   0.704   3.089
 1650SOL     OW 5848   2.711   3.852   6.815
 1650SOL    HW1 5849   2.748   3.925   6.873
 1650SOL    HW2 5850   2.781   3.823   6.750
 1651SOL     OW 5851   0.915   2.615   3.454
 1651SOL    HW1 5852   0.885   2.565   3.373
 1651SOL    HW2 5853   0.932   2.711   3.430
 1652SOL     OW 5854   6.903   3.275   1.549
 1652SOL    HW1 5855   6.983   3.267   1.491
 1652SOL    HW2 5856   6.929   3.311   1.638
 1653SOL     OW 5857   0.378   4.662   3.318
 1653SOL    HW1 5858   0.405   4.754   3.346
 1653SOL    HW2 5859   0.281   4.660   3.297
 1654SOL     OW 5860   6.903   3.246   2.640
 1654SOL    HW1 5861   6.903   3.154   2.678
 1654SOL    HW2 5862   6.966   3.304   2.692
 1655SOL     OW 5863   6.703   0.266   5.248
 1655SOL    HW1 5864   6.638   0.341   5.255
 1655SOL    HW2 5865   6.700   0.211   5.331
 1656SOL     OW 5866   1.915   4.360   3.311
 1656SOL    HW1 5867   1.974   4.429   3.270
 1656SOL    HW2 5868   1.906   4.282   3.248
 1657SOL     OW 5869   0.906   6.805   5.281
 1657SOL    HW1 5870   0.838   6.878   5.286
 1657SOL    HW2 5871   0.888   6.738   5.354
 1658SOL     OW 5872   5.866   6.957   6.220
 1658SOL    HW1 5873   5.940   6.951   6.154
 1658SOL    HW2 5874   5.811   0.014   6.202
 1659SOL     OW 5875   4.200   6.864   6.089
 1659SOL    HW1 5876   4.172   6.957   6.115
 1659SOL    HW2 5877   4.143   6.832   6.013
 1660SOL     OW 5878   2.424   0.650   2.456
 1660SOL    HW1 5879   2.512   0.657   2.502
 1660SOL    HW2 5880   2.356   0.614   2.520
 1661SOL     OW 5881   4.506   4.563   2.632
 1661SOL    HW1 5882   4.449   4.619   2.571
 1661SOL    HW2 5883   4.546   4.622   2.702
 1662SOL     OW 5884   0.270   1.583   4.385
 1662SOL    HW1 5885   0.319   1.555   4.468
 1662SOL    HW2 5886   0.329   1.643   4.331
 1663SOL     OW 5887   4.873   4.802   0.106
 1663SOL    HW1 5888   4.811   4.874   0.076
 1663SOL    HW2 5889   4.961   4.843   0.131
 1664SOL     OW 5890   1.365   6.813   5.613
 1664SOL    HW1 5891   1.320   6.902   5.622
 1664SOL    HW2 5892   1.348   6.777   5.521
 1665SOL     OW 5893   2.842   4.463   0.316
 1665SOL    HW1 5894   2.757   4.515   0.312
 1665SOL    HW2 5895   2.917   4.522   0.347
 1666SOL     OW 5896   5.497   6.659   5.961
 1666SOL    HW1 5897   5.579   6.713   5.944
 1666SOL    HW2 5898   5.506   6.570   5.917
 1667SOL     OW 5899   0.416   6.055   1.428
 1667SOL    HW1 5900   0.351   5.981   1.410
 1667SOL    HW2 5901   0.473   6.069   1.347
 1668SOL     OW 5902   5.491   4.718   2.560
 1668SOL    HW1 5903   5.392   4.724   2.566
 1668SOL    HW2 5904   5.523   4.637   2.609
 1669SOL     OW 5905   6.149   3.843   5.607
 1669SOL    HW1 5906   6.200   3.882   5.531
 1669SOL    HW2 5907   6.111   3.917   5.663
 1670SOL     OW 5908   2.226   4.609   6.612
 1670SOL    HW1 5909   2.218   4.549   6.532
 1670SOL    HW2 5910   2.294   4.571   6.675
 1671SOL     OW 5911   6.127   2.399   1.008
 1671SOL    HW1 5912   6.220   2.362   1.015
 1671SOL    HW2 5913   6.077   2.349   0.937
 1672SOL     OW 5914   0.412   3.342   0.065
 1672SOL    HW1 5915   0.440   3.428   0.108
 1672SOL    HW2 5916   0.445   3.265   0.120
 1673SOL     OW 5917   1.742   0.671   4.564
 1673SOL    HW1 5918   1.707   0.764   4.552
 1673SOL    HW2 5919   1.727   0.641   4.658
 1674SOL     OW 5920   4.642   1.608   2.334
 1674SOL    HW1 5921   4.576   1.535   2.345
 1674SOL    HW2 5922   4.668   1.643   2.424
 1675SOL     OW 5923   5.631   0.686   0.871
 1675SOL    HW1 5924   5.680   0.773   0.873
 1675SOL    HW2 5925   5.539   0.699   0.910
 1676SOL     OW 5926   1.002   2.152   2.583
 1676SOL    HW1 5927   1.007   2.181   2.488
 1676SOL    HW2 5928   0.957   2.063   2.589
 1677SOL     OW 5929   3.984   3.088   3.477
 1677SOL    HW1 5930   3.935   3.173   3.491
 1677SOL    HW2 5931   4.083   3.104   3.487
 1678SOL     OW 5932   0.951   6.942   1.378
 1678SOL    HW1 5933   0.866   6.963   1.425
 1678SOL    HW2 5934   0.955   6.992   1.291
 1679SOL     OW 5935   0.777   1.915   6.554
 1679SOL    HW1 5936   0.746   1.989   6.494
 1679SOL    HW2 5937   0.775   1.828   6.505
 1680SOL     OW 5938   5.225   2.734   3.650
 1680SOL    HW1 5939   5.174   2.660   3.606
 1680SOL    HW2 5940   5.267   2.699   3.734
 1681SOL     OW 5941   2.501   6.039   4.590
 1681SOL    HW1 5942   2.599   6.059   4.601
 1681SOL    HW2 5943   2.447   6.113   4.629
 1682SOL     OW 5944   3.161   0.605   4.222
 1682SOL    HW1 5945   3.123   0.674   4.161
 1682SOL    HW2 5946   3.207   0.650   4.299
 1683SOL     OW 5947   6.230   4.932   2.763
 1683SOL    HW1 5948   6.200   4.840   2.739
 1683SOL    HW2 5949   6.152   4.985   2.798
 1684SOL     OW 5950   2.526   4.534   2.026
 1684SOL    HW1 5951   2.622   4.557   2.042
 1684SOL    HW2 5952   2.481   4.610   1.981
 1685SOL     OW 5953   0.043   1.565   5.283
 1685SOL    HW1 5954   0.027   1.469   5.304
 1685SOL    HW2 5955   6.980   1.608   5.258
 1686SOL     OW 5956   4.681   5.680   2.797
 1686SOL    HW1 5957   4.619   5.745   2.841
 1686SOL    HW2 5958   4.631   5.629   2.727
 1687SOL     OW 5959   5.454   4.380   1.648
 1687SOL    HW1 5960   5.536   4.372   1.592
 1687SOL    HW2 5961   5.410   4.290   1.656
 1688SOL     OW 5962   1.241   1.189   2.476
 1688SOL    HW1 5963   1.334   1.153   2.477
 1688SOL    HW2 5964   1.224   1.241   2.561
 1689SOL     OW 5965   4.808   0.612   1.018
 1689SOL    HW1 5966   4.793   0.571   1.108
 1689SOL    HW2 5967   4.724   0.656   0.987
 1690SOL     OW 5968   0.477   4.461   3.650
 1690SOL    HW1 5969   0.513   4.514   3.727
 1690SOL    HW2 5970   0.377   4.467   3.650
 1691SOL     OW 5971   4.606   2.761   5.163
 1691SOL    HW1 5972   4.533   2.705   5.122
 1691SOL    HW2 5973   4.625   2.728   5.255
 1692SOL     OW 5974   4.890   5.130   1.787
 1692SOL    HW1 5975   4.935   5.218   1.775
 1692SOL    HW2 5976   4.808   5.126   1.729
 1693SOL     OW 5977   5.408   0.231   5.244
 1693SOL    HW1 5978   5.475   0.164   5.275
 1693SOL    HW2 5979   5.446   0.281   5.166
 1694SOL     OW 5980   4.737   1.844   5.650
 1694SOL    HW1 5981   4.719   1.751   5.683
 1694SOL    HW2 5982   4.803   1.888   5.711
 1695SOL     OW 5983   4.319   0.965   6.761
 1695SOL    HW1 5984   4.239   0.951   6.820
 1695SOL    HW2 5985   4.320   1.060   6.729
 1696SOL     OW 5986   5.100   6.549   0.516
 1696SOL    HW1 5987   5.131   6.642   0.536
 1696SOL    HW2 5988   5.125   6.489   0.592
 1697SOL     OW 5989   4.859   2.174   2.243
 1697SOL    HW1 5990   4.836   2.258   2.194
 1697SOL    HW2 5991   4.952   2.182   2.281
 1698SOL     OW 5992   4.132   0.678   1.785
 1698SOL    HW1 5993   4.158   0.773   1.768
 1698SOL    HW2 5994   4.194   0.638   1.853
 1699SOL     OW 5995   2.776   6.687   0.100
 1699SOL    HW1 5996   2.700   6.666   0.039
 1699SOL    HW2 5997   2.752   6.763   0.160
 1700SOL     OW 5998   5.965   2.386   2.907
 1700SOL    HW1 5999   6.004   2.478   2.916
 1700SOL    HW2 6000   5.894   2.374   2.977
 1701SOL     OW 6001   6.941   5.716   4.678
 1701SOL    HW1 6002   6.907   5.630   4.642
 1701SOL    HW2 6003   6.890   5.740   4.761
 1702SOL     OW 6004   1.980   2.341   6.318
 1702SOL    HW1 6005   2.014   2.399   6.244
 1702SOL    HW2 6006   2.041   2.263   6.329
 1703SOL     OW 6007   2.072   1.846   1.607
 1703SOL    HW1 6008   2.094   1.936   1.646
 1703SOL    HW2 6009   2.034   1.859   1.516
 1704SOL     OW 6010   3.092   2.419   1.080
 1704SOL    HW1 6011   3.103   2.388   1.174
 1704SOL    HW2 6012   3.096   2.341   1.018
 1705SOL     OW 6013   3.954   2.241   0.612
 1705SOL    HW1 6014   3.976   2.203   0.701
 1705SOL    HW2 6015   4.038   2.259   0.561
 1706SOL     OW 6016   5.085   2.164   6.827
 1706SOL    HW1 6017   5.113   2.203   6.740
 1706SOL    HW2 6018   5.155   2.184   6.896
 1707SOL     OW 6019   4.603   1.311   2.267
 1707SOL    HW1 6020   4.700   1.292   2.253
 1707SOL    HW2 6021   4.565   1.353   2.185
 1708SOL     OW 6022   3.304   4.803   1.849
 1708SOL    HW1 6023   3.298   4.899   1.820
 1708SOL    HW2 6024   3.396   4.768   1.830
 1709SOL     OW 6025   4.948   5.257   0.897
 1709SOL    HW1 6026   4.984   5.350   0.885
 1709SOL    HW2 6027   4.863   5.260   0.950
 1710SOL     OW 6028   4.879   4.949   3.111
 1710SOL    HW1 6029   4.790   4.926   3.070
 1710SOL    HW2 6030   4.886   5.048   3.121
 1711SOL     OW 6031   4.375   4.793   6.793
 1711SOL    HW1 6032   4.287   4.749   6.772
 1711SOL    HW2 6033   4.368   4.841   6.880
 1712SOL     OW 6034   0.618   1.276   2.272
 1712SOL    HW1 6035   0.576   1.324   2.195
 1712SOL    HW2 6036   0.548   1.245   2.336
 1713SOL     OW 6037   4.026   0.868   2.990
 1713SOL    HW1 6038   4.003   0.944   3.050
 1713SOL    HW2 6039   4.088   0.805   3.037
 1714SOL     OW 6040   3.565   3.549   0.387
 1714SOL    HW1 6041   3.494   3.611   0.420
 1714SOL    HW2 6042   3.581   3.565   0.290
 1715SOL     OW 6043   2.386   6.795   2.743
 1715SOL    HW1 6044   2.334   6.878   2.724
 1715SOL    HW2 6045   2.363   6.725   2.674
 1716SOL     OW 6046   4.879   1.314   3.632
 1716SOL    HW1 6047   4.952   1.320   3.564
 1716SOL    HW2 6048   4.919   1.299   3.722
 1717SOL     OW 6049   3.235   6.583   5.245
 1717SOL    HW1 6050   3.224   6.488   5.217
 1717SOL    HW2 6051   3.159   6.610   5.304
 1718SOL     OW 6052   1.345   3.015   1.179
 1718SOL    HW1 6053   1.260   3.060   1.206
 1718SOL    HW2 6054   1.374   2.953   1.252
 1719SOL     OW 6055   1.032   5.219   2.910
 1719SOL    HW1 6056   1.014   5.259   3.000
 1719SOL    HW2 6057   1.040   5.119   2.919
 1720SOL     OW 6058   0.770   2.864   6.021
 1720SOL    HW1 6059   0.867   2.843   6.017
 1720SOL    HW2 6060   0.756   2.960   5.994
 1721SOL     OW 6061   1.076   2.164   0.898
 1721SOL    HW1 6062   1.099   2.257   0.869
 1721SOL    HW2 6063   1.159   2.118   0.931
 1722SOL     OW 6064   2.524   2.488   3.671
 1722SOL    HW1 6065   2.532   2.505   3.769
 1722SOL    HW2 6066   2.450   2.423   3.654
 1723SOL     OW 6067   5.709   3.939   0.804
 1723SOL    HW1 6068   5.744   3.865   0.861
 1723SOL    HW2 6069   5.772   3.954   0.727
 1724SOL     OW 6070   5.882   2.721   1.109
 1724SOL    HW1 6071   5.977   2.728   1.081
 1724SOL    HW2 6072   5.867   2.777   1.191
 1725SOL     OW 6073   1.904   5.671   6.625
 1725SOL    HW1 6074   1.910   5.756   6.677
 1725SOL    HW2 6075   1.810   5.637   6.625
 1726SOL     OW 6076   5.664   4.549   2.681
 1726SOL    HW1 6077   5.698   4.459   2.710
 1726SOL    HW2 6078   5.681   4.616   2.753
 1727SOL     OW 6079   3.136   3.810   3.138
 1727SOL    HW1 6080   3.082   3.865   3.203
 1727SOL    HW2 6081   3.114   3.838   3.045
 1728SOL     OW 6082   5.297   2.658   3.901
 1728SOL    HW1 6083   5.322   2.692   3.992
 1728SOL    HW2 6084   5.246   2.572   3.910
 1729SOL     OW 6085   1.273   2.864   2.643
 1729SOL    HW1 6086   1.345   2.812   2.596
 1729SOL    HW2 6087   1.294   2.962   2.638
 1730SOL     OW 6088   1.992   5.254   4.295
 1730SOL    HW1 6089   2.071   5.290   4.345
 1730SOL    HW2 6090   2.002   5.276   4.197
 1731SOL     OW 6091   6.408   5.182   3.603
 1731SOL    HW1 6092   6.478   5.123   3.643
 1731SOL    HW2 6093   6.445   5.227   3.522
 1732SOL     OW 6094   2.520   3.426   5.622
 1732SOL    HW1 6095   2.441   3.403   5.565
 1732SOL    HW2 6096   2.603   3.395   5.576
 1733SOL     OW 6097   1.936   3.421   6.171
 1733SOL    HW1 6098   1.988   3.341   6.142
 1733SOL    HW2 6099   1.920   3.416   6.270
 1734SOL     OW 6100   6.523   3.014   1.233
 1734SOL    HW1 6101   6.488   3.103   1.261
 1734SOL    HW2 6102   6.613   3.026   1.189
 1735SOL     OW 6103   4.099   5.131   6.075
 1735SOL    HW1 6104   4.098   5.106   6.171
 1735SOL    HW2 6105   4.020   5.188   6.054
 1736SOL     OW 6106   5.207   2.656   0.686
 1736SOL    HW1 6107   5.180   2.750   0.705
 1736SOL    HW2 6108   5.203   2.603   0.770
 1737SOL     OW 6109   4.616   1.781   5.067
 1737SOL    HW1 6110   4.573   1.859   5.021
 1737SOL    HW2 6111   4.700   1.812   5.113
 1738SOL     OW 6112   1.414   3.136   4.309
 1738SOL    HW1 6113   1.403   3.116   4.211
 1738SOL    HW2 6114   1.398   3.053   4.362
 1739SOL     OW 6115   5.695   0.856   3.457
 1739SOL    HW1 6116   5.678   0.784   3.525
 1739SOL    HW2 6117   5.683   0.818   3.365
 1740SOL     OW 6118   6.237   3.091   4.854
 1740SOL    HW1 6119   6.225   3.077   4.952
 1740SOL    HW2 6120   6.280   3.011   4.814
 1741SOL     OW 6121   0.159   1.906   4.470
 1741SOL    HW1 6122   0.091   1.870   4.406
 1741SOL    HW2 6123   0.246   1.918   4.423
 1742SOL     OW 6124   6.549   6.002   6.186
 1742SOL    HW1 6125   6.504   6.046   6.108
 1742SOL    HW2 6126   6.518   6.047   6.271
 1743SOL     OW 6127   1.933   1.362   2.321
 1743SOL    HW1 6128   2.032   1.374   2.310
 1743SOL    HW2 6129   1.885   1.410   2.248
 1744SOL     OW 6130   3.522   2.138   4.879
 1744SOL    HW1 6131   3.515   2.234   4.851
 1744SOL    HW2 6132   3.434   2.107   4.913
 1745SOL     OW 6133   6.018   6.630   1.227
 1745SOL    HW1 6134   5.978   6.664   1.142
 1745SOL    HW2 6135   5.973   6.674   1.305
 1746SOL     OW 6136   2.545   4.504   3.362
 1746SOL    HW1 6137   2.510   4.451   3.285
 1746SOL    HW2 6138   2.502   4.472   3.447
 1747SOL     OW 6139   4.632   0.160   2.493
 1747SOL    HW1 6140   4.549   0.144   2.440
 1747SOL    HW2 6141   4.649   0.259   2.499
 1748SOL     OW 6142   6.693   2.927   5.055
 1748SOL    HW1 6143   6.722   2.973   4.971
 1748SOL    HW2 6144   6.641   2.991   5.112
 1749SOL     OW 6145   0.819   4.973   1.017
 1749SOL    HW1 6146   0.817   4.963   1.117
 1749SOL    HW2 6147   0.913   4.972   0.985
 1750SOL     OW 6148   3.771   0.197   6.101
 1750SOL    HW1 6149   3.847   0.184   6.164
 1750SOL    HW2 6150   3.710   0.118   6.106
 1751SOL     OW 6151   6.058   3.093   5.265
 1751SOL    HW1 6152   6.140   3.055   5.222
 1751SOL    HW2 6153   6.054   3.191   5.247
 1752SOL     OW 6154   6.703   0.390   2.308
 1752SOL    HW1 6155   6.614   0.345   2.298
 1752SOL    HW2 6156   6.689   0.487   2.330
 1753SOL     OW 6157   6.221   1.338   1.884
 1753SOL    HW1 6158   6.253   1.290   1.803
 1753SOL    HW2 6159   6.128   1.309   1.905
 1754SOL     OW 6160   2.857   5.542   4.060
 1754SOL    HW1 6161   2.891   5.476   4.127
 1754SOL    HW2 6162   2.795   5.496   3.997
 1755SOL     OW 6163   6.144   6.762   4.371
 1755SOL    HW1 6164   6.078   6.776   4.445
 1755SOL    HW2 6165   6.105   6.699   4.304
 1756SOL     OW 6166   4.739   6.440   0.388
 1756SOL    HW1 6167   4.741   6.481   0.479
 1756SOL    HW2 6168   4.784   6.351   0.390
 1757SOL     OW 6169   2.370   5.271   4.937
 1757SOL    HW1 6170   2.326   5.357   4.964
 1757SOL    HW2 6171   2.469   5.281   4.946
 1758SOL     OW 6172   1.788   6.217   4.764
 1758SOL    HW1 6173   1.802   6.119   4.750
 1758SOL    HW2 6174   1.775   6.235   4.862
 1759SOL     OW 6175   1.241   6.542   0.445
 1759SOL    HW1 6176   1.178   6.601   0.395
 1759SOL    HW2 6177   1.301   6.598   0.503
 1760SOL     OW 6178   6.962   1.043   4.717
 1760SOL    HW1 6179   6.981   0.963   4.661
 1760SOL    HW2 6180   6.963   1.125   4.660
 1761SOL     OW 6181   5.665   1.349   2.451
 1761SOL    HW1 6182   5.678   1.309   2.360
 1761SOL    HW2 6183   5.754   1.375   2.489
 1762SOL     OW 6184   0.917   1.450   5.710
 1762SOL    HW1 6185   0.950   1.517   5.643
 1762SOL    HW2 6186   0.920   1.491   5.802
 1763SOL     OW 6187   0.568   3.941   3.773
 1763SOL    HW1 6188   0.622   4.024   3.788
 1763SOL    HW2 6189   0.476   3.966   3.743
 1764SOL     OW 6190   1.429   5.390   3.212
 1764SOL    HW1 6191   1.348   5.333   3.199
 1764SOL    HW2 6192   1.511   5.333   3.211
 1765SOL     OW 6193   5.671   3.345   2.480
 1765SOL    HW1 6194   5.594   3.379   2.535
 1765SOL    HW2 6195   5.718   3.422   2.437
 1766SOL     OW 6196   4.283   4.653   3.878
 1766SOL    HW1 6197   4.278   4.584   3.805
 1766SOL    HW2 6198   4.294   4.606   3.966
 1767SOL     OW 6199   0.343   4.863   2.370
 1767SOL    HW1 6200   0.245   4.846   2.364
 1767SOL    HW2 6201   0.360   4.962   2.363
 1768SOL     OW 6202   5.024   5.471   2.268
 1768SOL    HW1 6203   4.979   5.391   2.229
 1768SOL    HW2 6204   5.009   5.473   2.367
 1769SOL     OW 6205   6.061   0.306   0.329
 1769SOL    HW1 6206   5.990   0.241   0.355
 1769SOL    HW2 6207   6.134   0.306   0.399
 1770SOL     OW 6208   1.788   5.005   0.994
 1770SOL    HW1 6209   1.746   4.918   0.971
 1770SOL    HW2 6210   1.800   5.059   0.911
 1771SOL     OW 6211   1.911   2.834   5.935
 1771SOL    HW1 6212   1.941   2.912   5.881
 1771SOL    HW2 6213   1.811   2.832   5.939
 1772SOL     OW 6214   2.243   4.072   2.651
 1772SOL    HW1 6215   2.227   4.079   2.749
 1772SOL    HW2 6216   2.207   3.985   2.618
 1773SOL     OW 6217   2.034   6.136   6.512
 1773SOL    HW1 6218   1.945   6.157   6.552
 1773SOL    HW2 6219   2.020   6.089   6.425
 1774SOL     OW 6220   5.852   5.571   0.631
 1774SOL    HW1 6221   5.754   5.594   0.629
 1774SOL    HW2 6222   5.904   5.649   0.596
 1775SOL     OW 6223   2.168   5.376   0.296
 1775SOL    HW1 6224   2.106   5.406   0.223
 1775SOL    HW2 6225   2.259   5.413   0.280
 1776SOL     OW 6226   4.725   2.424   4.955
 1776SOL    HW1 6227   4.792   2.498   4.955
 1776SOL    HW2 6228   4.638   2.458   4.992
 1777SOL     OW 6229   4.937   6.392   0.077
 1777SOL    HW1 6230   4.941   6.325   0.151
 1777SOL    HW2 6231   5.015   6.454   0.083
 1778SOL     OW 6232   5.960   0.134   4.050
 1778SOL    HW1 6233   6.020   0.208   4.019
 1778SOL    HW2 6234   5.963   0.129   4.149
 1779SOL     OW 6235   5.283   0.296   3.930
 1779SOL    HW1 6236   5.188   0.319   3.909
 1779SOL    HW2 6237   5.305   0.326   4.022
 1780SOL     OW 6238   2.025   4.994   5.194
 1780SOL    HW1 6239   2.067   4.993   5.103
 1780SOL    HW2 6240   1.965   4.914   5.203
 1781SOL     OW 6241   3.943   0.957   4.979
 1781SOL    HW1 6242   3.857   0.905   4.980
 1781SOL    HW2 6243   3.948   1.013   5.062
 1782SOL     OW 6244   6.610   1.408   2.482
 1782SOL    HW1 6245   6.697   1.421   2.530
 1782SOL    HW2 6246   6.623   1.342   2.407
 1783SOL     OW 6247   1.979   3.842   6.546
 1783SOL    HW1 6248   2.030   3.894   6.477
 1783SOL    HW2 6249   1.945   3.758   6.505
 1784SOL     OW 6250   3.092   6.654   1.706
 1784SOL    HW1 6251   3.052   6.744   1.719
 1784SOL    HW2 6252   3.019   6.587   1.692
 1785SOL     OW 6253   1.284   6.680   4.974
 1785SOL    HW1 6254   1.272   6.611   4.903
 1785SOL    HW2 6255   1.205   6.678   5.035
 1786SOL     OW 6256   1.110   6.561   1.068
 1786SOL    HW1 6257   1.139   6.569   1.164
 1786SOL    HW2 6258   1.014   6.589   1.060
 1787SOL     OW 6259   2.328   3.284   6.304
 1787SOL    HW1 6260   2.265   3.319   6.372
 1787SOL    HW2 6261   2.348   3.188   6.323
 1788SOL     OW 6262   4.349   3.936   1.281
 1788SOL    HW1 6263   4.399   3.892   1.206
 1788SOL    HW2 6264   4.414   3.969   1.350
 1789SOL     OW 6265   6.310   3.843   2.350
 1789SOL    HW1 6266   6.319   3.746   2.374
 1789SOL    HW2 6267   6.214   3.870   2.362
 1790SOL     OW 6268   1.791   2.332   4.347
 1790SOL    HW1 6269   1.716   2.300   4.406
 1790SOL    HW2 6270   1.765   2.419   4.305
 1791SOL     OW 6271   5.005   0.222   3.594
 1791SOL    HW1 6272   4.963   0.310   3.571
 1791SOL    HW2 6273   5.039   0.178   3.510
 1792SOL     OW 6274   0.332   2.058   5.899
 1792SOL    HW1 6275   0.427   2.085   5.912
 1792SOL    HW2 6276   0.326   1.958   5.902
 1793SOL     OW 6277   0.306   0.506   5.702
 1793SOL    HW1 6278   0.395   0.484   5.740
 1793SOL    HW2 6279   0.315   0.581   5.636
 1794SOL     OW 6280   1.040   0.439   5.930
 1794SOL    HW1 6281   1.129   0.482   5.947
 1794SOL    HW2 6282   0.973   0.510   5.907
 1795SOL     OW 6283   5.402   4.409   1.033
 1795SOL    HW1 6284   5.363   4.330   0.985
 1795SOL    HW2 6285   5.502   4.405   1.026
 1796SOL     OW 6286   0.494   0.303   6.829
 1796SOL    HW1 6287   0.526   0.339   6.741
 1796SOL    HW2 6288   0.457   0.211   6.816
 1797SOL     OW 6289   2.301   4.884   5.542
 1797SOL    HW1 6290   2.305   4.790   5.508
 1797SOL    HW2 6291   2.277   4.945   5.467
 1798SOL     OW 6292   2.594   3.831   5.332
 1798SOL    HW1 6293   2.521   3.876   5.280
 1798SOL    HW2 6294   2.608   3.879   5.418
 1799SOL     OW 6295   2.803   1.585   0.942
 1799SOL    HW1 6296   2.717   1.554   0.901
 1799SOL    HW2 6297   2.879   1.562   0.881
 1800SOL     OW 6298   5.794   3.441   5.181
 1800SOL    HW1 6299   5.704   3.405   5.205
 1800SOL    HW2 6300   5.793   3.472   5.086
 1801SOL     OW 6301   0.758   0.195   3.312
 1801SOL    HW1 6302   0.811   0.147   3.242
 1801SOL    HW2 6303   0.778   0.293   3.307
 1802SOL     OW 6304   6.990   5.118   4.048
 1802SOL    HW1 6305   6.917   5.186   4.059
 1802SOL    HW2 6306   7.013   5.108   3.951
 1803SOL     OW 6307   0.222   0.080   3.463
 1803SOL    HW1 6308   0.281   0.113   3.537
 1803SOL    HW2 6309   0.211   7.005   3.471
 1804SOL     OW 6310   2.398   3.218   6.019
 1804SOL    HW1 6311   2.329   3.244   5.951
 1804SOL    HW2 6312   2.367   3.244   6.110
 1805SOL     OW 6313   6.763   5.269   0.811
 1805SOL    HW1 6314   6.770   5.171   0.789
 1805SOL    HW2 6315   6.667   5.295   0.818
 1806SOL     OW 6316   0.233   1.343   1.211
 1806SOL    HW1 6317   0.246   1.423   1.270
 1806SOL    HW2 6318   0.304   1.342   1.141
 1807SOL     OW 6319   0.266   2.349   2.446
 1807SOL    HW1 6320   0.203   2.374   2.520
 1807SOL    HW2 6321   0.328   2.426   2.428
 1808SOL     OW 6322   5.383   1.850   6.330
 1808SOL    HW1 6323   5.299   1.900   6.352
 1808SOL    HW2 6324   5.397   1.778   6.398
 1809SOL     OW 6325   4.717   0.294   4.979
 1809SOL    HW1 6326   4.680   0.378   5.019
 1809SOL    HW2 6327   4.661   0.216   5.006
 1810SOL     OW 6328   1.027   0.603   4.711
 1810SOL    HW1 6329   0.997   0.561   4.625
 1810SOL    HW2 6330   1.114   0.651   4.696
 1811SOL     OW 6331   3.698   5.697   1.924
 1811SOL    HW1 6332   3.711   5.675   1.827
 1811SOL    HW2 6333   3.733   5.623   1.981
 1812SOL     OW 6334   4.741   6.512   6.285
 1812SOL    HW1 6335   4.760   6.440   6.219
 1812SOL    HW2 6336   4.813   6.581   6.281
 1813SOL     OW 6337   4.802   4.409   2.037
 1813SOL    HW1 6338   4.782   4.444   1.946
 1813SOL    HW2 6339   4.789   4.310   2.040
 1814SOL     OW 6340   6.772   6.235   0.421
 1814SOL    HW1 6341   6.796   6.238   0.518
 1814SOL    HW2 6342   6.797   6.146   0.384
 1815SOL     OW 6343   5.419   6.224   1.254
 1815SOL    HW1 6344   5.414   6.312   1.207
 1815SOL    HW2 6345   5.469   6.159   1.197
 1816SOL     OW 6346   4.335   4.772   5.218
 1816SOL    HW1 6347   4.311   4.843   5.152
 1816SOL    HW2 6348   4.293   4.794   5.307
 1817SOL     OW 6349   7.021   2.494   3.793
 1817SOL    HW1 6350   0.082   2.511   3.842
 1817SOL    HW2 6351   0.004   2.408   3.741
 1818SOL     OW 6352   2.726   1.112   0.458
 1818SOL    HW1 6353   2.687   1.161   0.379
 1818SOL    HW2 6354   2.810   1.067   0.431
 1819SOL     OW 6355   1.837   4.504   2.763
 1819SOL    HW1 6356   1.901   4.446   2.712
 1819SOL    HW2 6357   1.830   4.471   2.857
 1820SOL     OW 6358   3.293   0.110   5.277
 1820SOL    HW1 6359   3.198   0.079   5.272
 1820SOL    HW2 6360   3.304   0.169   5.356
 1821SOL     OW 6361   3.826   1.715   2.206
 1821SOL    HW1 6362   3.908   1.726   2.262
 1821SOL    HW2 6363   3.799   1.804   2.169
 1822SOL     OW 6364   7.016   3.144   3.183
 1822SOL    HW1 6365   0.050   3.225   3.197
 1822SOL    HW2 6366   0.047   3.072   3.139
 1823SOL     OW 6367   4.279   6.262   1.757
 1823SOL    HW1 6368   4.258   6.191   1.690
 1823SOL    HW2 6369   4.368   6.303   1.737
 1824SOL     OW 6370   4.321   3.107   1.786
 1824SOL    HW1 6371   4.399   3.077   1.840
 1824SOL    HW2 6372   4.336   3.200   1.753
 1825SOL     OW 6373   0.968   2.702   5.228
 1825SOL    HW1 6374   1.038   2.701   5.300
 1825SOL    HW2 6375   0.950   2.796   5.202
 1826SOL     OW 6376   3.523   2.117   1.789
 1826SOL    HW1 6377   3.433   2.160   1.796
 1826SOL    HW2 6378   3.560   2.101   1.881
 1827SOL     OW 6379   5.688   5.784   0.483
 1827SOL    HW1 6380   5.754   5.826   0.419
 1827SOL    HW2 6381   5.653   5.854   0.544
 1828SOL     OW 6382   1.717   3.588   5.272
 1828SOL    HW1 6383   1.626   3.615   5.304
 1828SOL    HW2 6384   1.768   3.669   5.244
 1829SOL     OW 6385   3.928   0.242   1.766
 1829SOL    HW1 6386   3.886   0.313   1.709
 1829SOL    HW2 6387   3.857   0.181   1.800
 1830SOL     OW 6388   5.423   0.813   6.297
 1830SOL    HW1 6389   5.410   0.880   6.371
 1830SOL    HW2 6390   5.513   0.826   6.256
 1831SOL     OW 6391   3.613   4.996   0.175
 1831SOL    HW1 6392   3.554   4.956   0.245
 1831SOL    HW2 6393   3.588   4.960   0.085
 1832SOL     OW 6394   2.754   2.756   6.982
 1832SOL    HW1 6395   2.783   2.761   0.054
 1832SOL    HW2 6396   2.718   2.845   6.954
 1833SOL     OW 6397   5.364   1.377   6.931
 1833SOL    HW1 6398   5.413   1.461   6.955
 1833SOL    HW2 6399   5.420   1.298   6.953
 1834SOL     OW 6400   0.333   2.653   5.232
 1834SOL    HW1 6401   0.366   2.655   5.326
 1834SOL    HW2 6402   0.404   2.687   5.170
 1835SOL     OW 6403   6.419   6.633   1.475
 1835SOL    HW1 6404   6.326   6.600   1.459
 1835SOL    HW2 6405   6.458   6.584   1.554
 1836SOL     OW 6406   5.312   2.625   2.330
 1836SOL    HW1 6407   5.323   2.586   2.421
 1836SOL    HW2 6408   5.215   2.627   2.305
 1837SOL     OW 6409   3.282   2.119   6.716
 1837SOL    HW1 6410   3.193   2.136   6.673
 1837SOL    HW2 6411   3.271   2.051   6.788
 1838SOL     OW 6412   5.069   0.720   0.839
 1838SOL    HW1 6413   5.039   0.728   0.934
 1838SOL    HW2 6414   4.990   0.720   0.778
 1839SOL     OW 6415   0.271   0.389   0.639
 1839SOL    HW1 6416   0.254   0.398   0.541
 1839SOL    HW2 6417   0.240   0.298   0.670
 1840SOL     OW 6418   4.481   6.188   4.114
 1840SOL    HW1 6419   4.531   6.274   4.109
 1840SOL    HW2 6420   4.490   6.140   4.026
 1841SOL     OW 6421   1.340   1.112   1.886
 1841SOL    HW1 6422   1.364   1.127   1.982
 1841SOL    HW2 6423   1.255   1.060   1.881
 1842SOL     OW 6424   1.006   5.654   1.305
 1842SOL    HW1 6425   1.021   5.706   1.389
 1842SOL    HW2 6426   0.999   5.717   1.228
 1843SOL     OW 6427   2.544   1.126   6.245
 1843SOL    HW1 6428   2.476   1.169   6.304
 1843SOL    HW2 6429   2.497   1.074   6.173
 1844SOL     OW 6430   6.095   2.644   6.047
 1844SOL    HW1 6431   6.147   2.709   6.104
 1844SOL    HW2 6432   6.010   2.687   6.018
 1845SOL     OW 6433   0.910   2.082   2.985
 1845SOL    HW1 6434   0.971   2.155   3.015
 1845SOL    HW2 6435   0.964   2.004   2.953
 1846SOL     OW 6436   3.059   1.614   1.131
 1846SOL    HW1 6437   2.979   1.650   1.178
 1846SOL    HW2 6438   3.057   1.641   1.035
 1847SOL     OW 6439   1.632   5.905   6.096
 1847SOL    HW1 6440   1.567   5.840   6.134
 1847SOL    HW2 6441   1.585   5.990   6.073
 1848SOL     OW 6442   3.956   6.511   3.395
 1848SOL    HW1 6443   3.881   6.451   3.365
 1848SOL    HW2 6444   4.038   6.456   3.409
 1849SOL     OW 6445   4.796   2.387   2.079
 1849SOL    HW1 6446   4.725   2.446   2.119
 1849SOL    HW2 6447   4.868   2.443   2.040
 1850SOL     OW 6448   4.197   2.032   0.457
 1850SOL    HW1 6449   4.234   2.086   0.532
 1850SOL    HW2 6450   4.181   2.092   0.378
 1851SOL     OW 6451   6.794   4.556   4.998
 1851SOL    HW1 6452   6.828   4.572   5.091
 1851SOL    HW2 6453   6.776   4.458   4.985
 1852SOL     OW 6454   0.804   0.407   2.871
 1852SOL    HW1 6455   0.860   0.335   2.913
 1852SOL    HW2 6456   0.721   0.421   2.924
 1853SOL     OW 6457   0.179   2.203   6.065
 1853SOL    HW1 6458   0.190   2.170   6.158
 1853SOL    HW2 6459   0.237   2.149   6.003
 1854SOL     OW 6460   0.810   6.554   3.400
 1854SOL    HW1 6461   0.761   6.627   3.446
 1854SOL    HW2 6462   0.812   6.473   3.458
 1855SOL     OW 6463   5.589   2.793   4.520
 1855SOL    HW1 6464   5.668   2.812   4.579
 1855SOL    HW2 6465   5.603   2.705   4.473
 1856SOL     OW 6466   4.096   3.560   0.154
 1856SOL    HW1 6467   4.168   3.588   0.217
 1856SOL    HW2 6468   4.043   3.486   0.194
 1857SOL     OW 6469   3.656   1.140   6.801
 1857SOL    HW1 6470   3.634   1.104   6.892
 1857SOL    HW2 6471   3.663   1.240   6.806
 1858SOL     OW 6472   4.860   2.552   3.992
 1858SOL    HW1 6473   4.794   2.491   4.035
 1858SOL    HW2 6474   4.815   2.637   3.964
 1859SOL     OW 6475   6.216   1.117   4.076
 1859SOL    HW1 6476   6.144   1.186   4.079
 1859SOL    HW2 6477   6.284   1.141   4.007
 1860SOL     OW 6478   2.127   1.002   6.123
 1860SOL    HW1 6479   2.046   1.059   6.110
 1860SOL    HW2 6480   2.189   1.014   6.046
 1861SOL     OW 6481   6.562   6.608   4.610
 1861SOL    HW1 6482   6.633   6.582   4.544
 1861SOL    HW2 6483   6.475   6.620   4.562
 1862SOL     OW 6484   2.743   5.307   5.216
 1862SOL    HW1 6485   2.746   5.397   5.260
 1862SOL    HW2 6486   2.821   5.253   5.245
 1863SOL     OW 6487   0.320   2.528   1.185
 1863SOL    HW1 6488   0.380   2.448   1.195
 1863SOL    HW2 6489   0.358   2.604   1.237
 1864SOL     OW 6490   3.815   5.711   2.349
 1864SOL    HW1 6491   3.855   5.773   2.417
 1864SOL    HW2 6492   3.819   5.754   2.259
 1865SOL     OW 6493   6.201   2.224   5.783
 1865SOL    HW1 6494   6.264   2.167   5.834
 1865SOL    HW2 6495   6.174   2.303   5.839
 1866SOL     OW 6496   0.456   5.216   3.179
 1866SOL    HW1 6497   0.547   5.176   3.186
 1866SOL    HW2 6498   0.413   5.217   3.269
 1867SOL     OW 6499   0.593   2.641   1.524
 1867SOL    HW1 6500   0.662   2.705   1.556
 1867SOL    HW2 6501   0.553   2.675   1.438
 1868SOL     OW 6502   5.716   3.274   6.990
 1868SOL    HW1 6503   5.715   3.178   6.965
 1868SOL    HW2 6504   5.715   3.283   0.065
 1869SOL     OW 6505   4.787   1.032   4.522
 1869SOL    HW1 6506   4.767   0.974   4.601
 1869SOL    HW2 6507   4.817   1.122   4.554
 1870SOL     OW 6508   6.389   6.537   5.772
 1870SOL    HW1 6509   6.447   6.494   5.703
 1870SOL    HW2 6510   6.438   6.538   5.860
 1871SOL     OW 6511   0.371   6.642   6.864
 1871SOL    HW1 6512   0.274   6.646   6.889
 1871SOL    HW2 6513   0.389   6.554   6.818
 1872SOL     OW 6514   2.905   3.150   1.559
 1872SOL    HW1 6515   2.926   3.094   1.639
 1872SOL    HW2 6516   2.806   3.158   1.549
 1873SOL     OW 6517   6.353   1.205   0.764
 1873SOL    HW1 6518   6.340   1.194   0.665
 1873SOL    HW2 6519   6.451   1.206   0.785
 1874SOL     OW 6520   0.795   5.468   0.656
 1874SOL    HW1 6521   0.703   5.428   0.656
 1874SOL    HW2 6522   0.791   5.560   0.617
 1875SOL     OW 6523   0.210   5.690   1.654
 1875SOL    HW1 6524   0.178   5.617   1.594
 1875SOL    HW2 6525   0.233   5.651   1.744
 1876SOL     OW 6526   0.490   5.525   1.121
 1876SOL    HW1 6527   0.491   5.466   1.201
 1876SOL    HW2 6528   0.558   5.493   1.054
 1877SOL     OW 6529   0.936   1.599   2.416
 1877SOL    HW1 6530   0.942   1.690   2.375
 1877SOL    HW2 6531   0.989   1.596   2.500
 1878SOL     OW 6532   5.480   3.856   4.061
 1878SOL    HW1 6533   5.518   3.943   4.027
 1878SOL    HW2 6534   5.480   3.789   3.987
 1879SOL     OW 6535   4.662   6.402   4.487
 1879SOL    HW1 6536   4.697   6.428   4.578
 1879SOL    HW2 6537   4.612   6.316   4.494
 1880SOL     OW 6538   0.113   1.261   4.188
 1880SOL    HW1 6539   0.177   1.188   4.168
 1880SOL    HW2 6540   0.020   1.224   4.197
 1881SOL     OW 6541   1.967   1.601   3.982
 1881SOL    HW1 6542   1.993   1.659   4.059
 1881SOL    HW2 6543   2.025   1.520   3.980
 1882SOL     OW 6544   1.534   5.248   0.346
 1882SOL    HW1 6545   1.499   5.340   0.364
 1882SOL    HW2 6546   1.483   5.207   0.270
 1883SOL     OW 6547   2.152   2.416   2.857
 1883SOL    HW1 6548   2.181   2.480   2.785
 1883SOL    HW2 6549   2.056   2.392   2.844
 1884SOL     OW 6550   4.270   1.128   0.372
 1884SOL    HW1 6551   4.264   1.041   0.324
 1884SOL    HW2 6552   4.354   1.175   0.346
 1885SOL     OW 6553   0.053   1.653   0.446
 1885SOL    HW1 6554   0.102   1.652   0.360
 1885SOL    HW2 6555   0.054   1.562   0.488
 1886SOL     OW 6556   3.343   2.339   6.444
 1886SOL    HW1 6557   3.292   2.316   6.361
 1886SOL    HW2 6558   3.405   2.264   6.468
 1887SOL     OW 6559   0.737   6.467   4.861
 1887SOL    HW1 6560   0.722   6.566   4.867
 1887SOL    HW2 6561   0.691   6.422   4.938
 1888SOL     OW 6562   2.019   1.921   5.319
 1888SOL    HW1 6563   2.088   1.989   5.295
 1888SOL    HW2 6564   1.999   1.927   5.417
 1889SOL     OW 6565   3.134   2.682   6.833
 1889SOL    HW1 6566   3.230   2.687   6.805
 1889SOL    HW2 6567   3.127   2.639   6.923
 1890SOL     OW 6568   6.081   6.092   6.788
 1890SOL    HW1 6569   6.058   6.038   6.707
 1890SOL    HW2 6570   6.003   6.095   6.850
 1891SOL     OW 6571   5.353   3.493   6.374
 1891SOL    HW1 6572   5.257   3.485   6.347
 1891SOL    HW2 6573   5.390   3.579   6.340
 1892SOL     OW 6574   4.010   6.976   1.743
 1892SOL    HW1 6575   4.067   0.029   1.772
 1892SOL    HW2 6576   3.930   6.969   1.802
 1893SOL     OW 6577   2.965   1.450   5.267
 1893SOL    HW1 6578   2.979   1.507   5.187
 1893SOL    HW2 6579   2.897   1.379   5.246
 1894SOL     OW 6580   5.161   3.853   1.555
 1894SOL    HW1 6581   5.130   3.804   1.473
 1894SOL    HW2 6582   5.131   3.948   1.550
 1895SOL     OW 6583   4.217   0.371   3.763
 1895SOL    HW1 6584   4.290   0.413   3.817
 1895SOL    HW2 6585   4.250   0.354   3.670
 1896SOL     OW 6586   6.179   2.164   6.188
 1896SOL    HW1 6587   6.257   2.139   6.130
 1896SOL    HW2 6588   6.153   2.085   6.244
 1897SOL     OW 6589   5.446   5.274   3.558
 1897SOL    HW1 6590   5.543   5.291   3.579
 1897SOL    HW2 6591   5.423   5.318   3.472
 1898SOL     OW 6592   5.747   6.429   6.945
 1898SOL    HW1 6593   5.662   6.377   6.937
 1898SOL    HW2 6594   5.798   6.424   6.859
 1899SOL     OW 6595   1.335   2.155   2.988
 1899SOL    HW1 6596   1.332   2.055   2.998
 1899SOL    HW2 6597   1.333   2.178   2.891
 1900SOL     OW 6598   3.006   6.391   1.905
 1900SOL    HW1 6599   2.926   6.407   1.963
 1900SOL    HW2 6600   2.982   6.410   1.810
 1901SOL     OW 6601   1.657   1.346   6.249
 1901SOL    HW1 6602   1.626   1.253   6.266
 1901SOL    HW2 6603   1.607   1.410   6.307
 1902SOL     OW 6604   1.695   2.325   5.139
 1902SOL    HW1 6605   1.736   2.374   5.216
 1902SOL    HW2 6606   1.647   2.244   5.173
 1903SOL     OW 6607   6.699   4.033   3.914
 1903SOL    HW1 6608   6.728   4.125   3.943
 1903SOL    HW2 6609   6.771   3.967   3.935
 1904SOL     OW 6610   0.576   0.521   4.755
 1904SOL    HW1 6611   0.508   0.529   4.682
 1904SOL    HW2 6612   0.640   0.447   4.732
 1905SOL     OW 6613   6.342   2.859   4.807
 1905SOL    HW1 6614   6.304   2.776   4.847
 1905SOL    HW2 6615   6.369   2.841   4.712
 1906SOL     OW 6616   2.599   5.922   6.842
 1906SOL    HW1 6617   2.527   5.891   6.903
 1906SOL    HW2 6618   2.666   5.976   6.893
 1907SOL     OW 6619   4.263   6.152   3.546
 1907SOL    HW1 6620   4.282   6.110   3.635
 1907SOL    HW2 6621   4.342   6.140   3.486
 1908SOL     OW 6622   4.792   0.247   6.685
 1908SOL    HW1 6623   4.794   0.197   6.772
 1908SOL    HW2 6624   4.758   0.339   6.700
 1909SOL     OW 6625   4.217   5.262   4.601
 1909SOL    HW1 6626   4.294   5.224   4.551
 1909SOL    HW2 6627   4.241   5.354   4.634
 1910SOL     OW 6628   5.207   2.821   4.422
 1910SOL    HW1 6629   5.120   2.850   4.382
 1910SOL    HW2 6630   5.190   2.773   4.508
 1911SOL     OW 6631   0.137   3.553   5.960
 1911SOL    HW1 6632   0.206   3.612   5.918
 1911SOL    HW2 6633   0.049   3.600   5.963
 1912SOL     OW 6634   2.476   6.170   3.449
 1912SOL    HW1 6635   2.409   6.137   3.383
 1912SOL    HW2 6636   2.540   6.096   3.472
 1913SOL     OW 6637   1.298   4.077   5.453
 1913SOL    HW1 6638   1.329   4.037   5.539
 1913SOL    HW2 6639   1.365   4.144   5.421
 1914SOL     OW 6640   4.602   1.323   5.677
 1914SOL    HW1 6641   4.580   1.235   5.719
 1914SOL    HW2 6642   4.701   1.338   5.680
 1915SOL     OW 6643   3.450   0.476   5.156
 1915SOL    HW1 6644   3.432   0.385   5.120
 1915SOL    HW2 6645   3.370   0.534   5.142
 1916SOL     OW 6646   4.021   6.509   1.651
 1916SOL    HW1 6647   4.005   6.422   1.698
 1916SOL    HW2 6648   3.990   6.584   1.709
 1917SOL     OW 6649   3.628   2.915   4.109
 1917SOL    HW1 6650   3.642   3.009   4.138
 1917SOL    HW2 6651   3.605   2.858   4.188
 1918SOL     OW 6652   6.066   6.436   4.679
 1918SOL    HW1 6653   6.068   6.494   4.760
 1918SOL    HW2 6654   5.979   6.448   4.632
 1919SOL     OW 6655   6.518   6.901   1.473
 1919SOL    HW1 6656   6.459   6.967   1.520
 1919SOL    HW2 6657   6.489   6.808   1.496
 1920SOL     OW 6658   0.065   6.241   4.206
 1920SOL    HW1 6659   7.007   6.263   4.258
 1920SOL    HW2 6660   0.039   6.212   4.114
 1921SOL     OW 6661   0.965   6.594   6.379
 1921SOL    HW1 6662   0.999   6.686   6.362
 1921SOL    HW2 6663   0.966   6.575   6.477
 1922SOL     OW 6664   3.727   4.341   1.084
 1922SOL    HW1 6665   3.716   4.242   1.082
 1922SOL    HW2 6666   3.659   4.382   1.023
 1923SOL     OW 6667   1.939   2.591   0.989
 1923SOL    HW1 6668   1.980   2.613   1.077
 1923SOL    HW2 6669   1.849   2.635   0.982
 1924SOL     OW 6670   1.148   3.183   1.914
 1924SOL    HW1 6671   1.072   3.144   1.863
 1924SOL    HW2 6672   1.214   3.111   1.936
 1925SOL     OW 6673   3.581   4.083   0.210
 1925SOL    HW1 6674   3.485   4.057   0.221
 1925SOL    HW2 6675   3.639   4.018   0.259
 1926SOL     OW 6676   0.861   6.958   3.808
 1926SOL    HW1 6677   0.822   0.018   3.847
 1926SOL    HW2 6678   0.861   6.964   3.708
 1927SOL     OW 6679   4.340   3.841   0.205
 1927SOL    HW1 6680   4.251   3.881   0.183
 1927SOL    HW2 6681   4.396   3.908   0.253
 1928SOL     OW 6682   6.862   5.271   5.593
 1928SOL    HW1 6683   6.768   5.273   5.626
 1928SOL    HW2 6684   6.870   5.328   5.512
 1929SOL     OW 6685   1.383   6.876   3.383
 1929SOL    HW1 6686   1.415   6.783   3.366
 1929SOL    HW2 6687   1.323   6.877   3.463
 1930SOL     OW 6688   6.454   4.965   7.019
 1930SOL    HW1 6689   6.446   4.972   6.919
 1930SOL    HW2 6690   6.550   4.977   0.021
 1931SOL     OW 6691   0.722   2.318   5.010
 1931SOL    HW1 6692   0.641   2.375   4.998
 1931SOL    HW2 6693   0.799   2.375   5.039
 1932SOL     OW 6694   5.885   2.870   2.495
 1932SOL    HW1 6695   5.853   2.952   2.541
 1932SOL    HW2 6696   5.985   2.867   2.497
 1933SOL     OW 6697   2.449   4.624   1.210
 1933SOL    HW1 6698   2.465   4.579   1.298
 1933SOL    HW2 6699   2.363   4.674   1.213
 1934SOL     OW 6700   0.384   6.297   4.975
 1934SOL    HW1 6701   0.285   6.279   4.978
 1934SOL    HW2 6702   0.429   6.223   4.924
 1935SOL     OW 6703   2.383   1.060   3.927
 1935SOL    HW1 6704   2.385   1.145   3.873
 1935SOL    HW2 6705   2.399   0.982   3.866
 1936SOL     OW 6706   6.679   6.147   5.741
 1936SOL    HW1 6707   6.756   6.086   5.726
 1936SOL    HW2 6708   6.663   6.158   5.839
 1937SOL     OW 6709   4.621   0.586   2.948
 1937SOL    HW1 6710   4.676   0.509   2.917
 1937SOL    HW2 6711   4.545   0.553   3.003
 1938SOL     OW 6712   5.382   0.430   3.598
 1938SOL    HW1 6713   5.427   0.370   3.664
 1938SOL    HW2 6714   5.326   0.375   3.536
 1939SOL     OW 6715   2.319   0.539   3.178
 1939SOL    HW1 6716   2.338   0.588   3.093
 1939SOL    HW2 6717   2.354   0.446   3.172
 1940SOL     OW 6718   6.539   5.328   6.944
 1940SOL    HW1 6719   6.579   5.299   6.857
 1940SOL    HW2 6720   6.568   5.265   7.017
 1941SOL     OW 6721   5.197   5.018   3.075
 1941SOL    HW1 6722   5.175   4.951   3.146
 1941SOL    HW2 6723   5.113   5.048   3.031
 1942SOL     OW 6724   6.408   5.106   3.062
 1942SOL    HW1 6725   6.433   5.014   3.032
 1942SOL    HW2 6726   6.455   5.174   3.005
 1943SOL     OW 6727   3.421   5.664   2.209
 1943SOL    HW1 6728   3.436   5.761   2.187
 1943SOL    HW2 6729   3.323   5.648   2.223
 1944SOL     OW 6730   6.229   0.311   1.991
 1944SOL    HW1 6731   6.316   0.359   1.978
 1944SOL    HW2 6732   6.204   0.263   1.907
 1945SOL     OW 6733   3.024   4.937   4.051
 1945SOL    HW1 6734   2.956   4.878   4.006
 1945SOL    HW2 6735   2.981   5.025   4.073
 1946SOL     OW 6736   1.939   0.341   0.186
 1946SOL    HW1 6737   1.919   0.293   0.100
 1946SOL    HW2 6738   1.897   0.432   0.184
 1947SOL     OW 6739   5.480   6.861   4.071
 1947SOL    HW1 6740   5.448   6.781   4.122
 1947SOL    HW2 6741   5.567   6.893   4.110
 1948SOL     OW 6742   6.118   4.085   6.025
 1948SOL    HW1 6743   6.187   4.155   6.006
 1948SOL    HW2 6744   6.153   3.995   5.996
 1949SOL     OW 6745   5.524   3.752   6.645
 1949SOL    HW1 6746   5.467   3.682   6.690
 1949SOL    HW2 6747   5.465   3.825   6.610
 1950SOL     OW 6748   2.674   4.602   1.024
 1950SOL    HW1 6749   2.601   4.585   1.090
 1950SOL    HW2 6750   2.675   4.699   0.999
 1951SOL     OW 6751   6.755   2.256   7.009
 1951SOL    HW1 6752   6.761   2.157   7.014
 1951SOL    HW2 6753   6.740   2.294   0.076
 1952SOL     OW 6754   4.032   2.233   5.520
 1952SOL    HW1 6755   4.065   2.273   5.606
 1952SOL    HW2 6756   4.098   2.249   5.448
 1953SOL     OW 6757   0.255   3.564   5.290
 1953SOL    HW1 6758   0.256   3.506   5.209
 1953SOL    HW2 6759   0.328   3.632   5.285
 1954SOL     OW 6760   2.276   1.958   3.826
 1954SOL    HW1 6761   2.334   2.036   3.803
 1954SOL    HW2 6762   2.260   1.903   3.744
 1955SOL     OW 6763   6.449   6.084   2.139
 1955SOL    HW1 6764   6.447   6.121   2.232
 1955SOL    HW2 6765   6.543   6.060   2.115
 1956SOL     OW 6766   5.831   6.699   2.664
 1956SOL    HW1 6767   5.929   6.692   2.683
 1956SOL    HW2 6768   5.817   6.694   2.565
 1957SOL     OW 6769   0.569   6.642   5.414
 1957SOL    HW1 6770   0.665   6.642   5.443
 1957SOL    HW2 6771   0.527   6.555   5.439
 1958SOL     OW 6772   5.017   3.358   5.713
 1958SOL    HW1 6773   4.932   3.354   5.660
 1958SOL    HW2 6774   5.093   3.331   5.655
 1959SOL     OW 6775   1.842   2.025   6.659
 1959SOL    HW1 6776   1.774   2.000   6.591
 1959SOL    HW2 6777   1.898   2.100   6.625
 1960SOL     OW 6778   5.253   6.363   1.742
 1960SOL    HW1 6779   5.229   6.268   1.759
 1960SOL    HW2 6780   5.196   6.423   1.798
 1961SOL     OW 6781   5.741   5.080   4.487
 1961SOL    HW1 6782   5.685   5.158   4.514
 1961SOL    HW2 6783   5.808   5.109   4.419
 1962SOL     OW 6784   0.013   6.608   3.068
 1962SOL    HW1 6785   0.034   6.693   3.116
 1962SOL    HW2 6786   6.948   6.617   3.022
 1963SOL     OW 6787   1.592   6.975   2.730
 1963SOL    HW1 6788   1.608   6.880   2.757
 1963SOL    HW2 6789   1.671   0.007   2.757
 1964SOL     OW 6790   5.272   4.196   2.599
 1964SOL    HW1 6791   5.350   4.172   2.657
 1964SOL    HW2 6792   5.225   4.113   2.570
 1965SOL     OW 6793   2.217   5.326   3.786
 1965SOL    HW1 6794   2.258   5.238   3.760
 1965SOL    HW2 6795   2.276   5.400   3.756
 1966SOL     OW 6796   6.600   5.890   5.881
 1966SOL    HW1 6797   6.700   5.888   5.881
 1966SOL    HW2 6798   6.565   5.822   5.945
 1967SOL     OW 6799   4.760   2.807   4.448
 1967SOL    HW1 6800   4.838   2.866   4.426
 1967SOL    HW2 6801   4.734   2.819   4.544
 1968SOL     OW 6802   3.026   5.395   5.518
 1968SOL    HW1 6803   3.049   5.417   5.423
 1968SOL    HW2 6804   2.940   5.345   5.521
 1969SOL     OW 6805   6.648   2.284   1.804
 1969SOL    HW1 6806   6.551   2.261   1.809
 1969SOL    HW2 6807   6.674   2.334   1.886
 1970SOL     OW 6808   2.080   6.939   3.718
 1970SOL    HW1 6809   2.014   7.014   3.721
 1970SOL    HW2 6810   2.086   6.896   3.808
 1971SOL     OW 6811   0.309   6.966   6.069
 1971SOL    HW1 6812   0.248   6.963   6.148
 1971SOL    HW2 6813   0.400   6.994   6.099
 1972SOL     OW 6814   1.185   4.784   4.201
 1972SOL    HW1 6815   1.268   4.836   4.221
 1972SOL    HW2 6816   1.210   4.690   4.176
 1973SOL     OW 6817   2.817   3.128   0.244
 1973SOL    HW1 6818   2.916   3.141   0.240
 1973SOL    HW2 6819   2.781   3.170   0.327
 1974SOL     OW 6820   5.507   0.679   4.145
 1974SOL    HW1 6821   5.452   0.735   4.084
 1974SOL    HW2 6822   5.583   0.638   4.094
 1975SOL     OW 6823   3.181   1.228   3.389
 1975SOL    HW1 6824   3.271   1.261   3.418
 1975SOL    HW2 6825   3.131   1.303   3.345
 1976SOL     OW 6826   6.881   4.980   0.426
 1976SOL    HW1 6827   6.905   4.894   0.471
 1976SOL    HW2 6828   6.845   4.961   0.335
 1977SOL     OW 6829   1.970   2.540   4.972
 1977SOL    HW1 6830   2.010   2.539   5.064
 1977SOL    HW2 6831   1.974   2.633   4.935
 1978SOL     OW 6832   6.584   1.353   4.998
 1978SOL    HW1 6833   6.621   1.442   4.969
 1978SOL    HW2 6834   6.627   1.281   4.944
 1979SOL     OW 6835   6.019   5.423   3.550
 1979SOL    HW1 6836   5.984   5.371   3.472
 1979SOL    HW2 6837   6.056   5.510   3.517
 1980SOL     OW 6838   4.088   0.108   1.369
 1980SOL    HW1 6839   3.991   0.102   1.346
 1980SOL    HW2 6840   4.105   0.191   1.423
 1981SOL     OW 6841   4.737   3.108   1.627
 1981SOL    HW1 6842   4.660   3.080   1.683
 1981SOL    HW2 6843   4.822   3.092   1.677
 1982SOL     OW 6844   5.770   6.917   4.962
 1982SOL    HW1 6845   5.791   6.820   4.974
 1982SOL    HW2 6846   5.720   6.950   5.042
 1983SOL     OW 6847   1.047   3.721   2.779
 1983SOL    HW1 6848   0.998   3.782   2.842
 1983SOL    HW2 6849   1.101   3.655   2.831
 1984SOL     OW 6850   4.180   0.623   5.696
 1984SOL    HW1 6851   4.161   0.578   5.609
 1984SOL    HW2 6852   4.252   0.574   5.744
 1985SOL     OW 6853   1.630   0.259   1.566
 1985SOL    HW1 6854   1.698   0.271   1.494
 1985SOL    HW2 6855   1.663   0.299   1.651
 1986SOL     OW 6856   1.112   1.720   6.177
 1986SOL    HW1 6857   1.166   1.671   6.108
 1986SOL    HW2 6858   1.064   1.796   6.133
 1987SOL     OW 6859   2.516   3.209   6.886
 1987SOL    HW1 6860   2.532   3.112   6.906
 1987SOL    HW2 6861   2.571   3.264   6.949
 1988SOL     OW 6862   4.961   2.779   6.991
 1988SOL    HW1 6863   5.045   2.738   6.957
 1988SOL    HW2 6864   4.976   2.877   7.008
 1989SOL     OW 6865   2.707   0.551   4.477
 1989SOL    HW1 6866   2.782   0.529   4.415
 1989SOL    HW2 6867   2.633   0.594   4.426
 1990SOL     OW 6868   2.303   0.995   2.416
 1990SOL    HW1 6869   2.279   1.046   2.334
 1990SOL    HW2 6870   2.402   1.002   2.432
 1991SOL     OW 6871   4.109   5.603   4.455
 1991SOL    HW1 6872   4.074   5.696   4.441
 1991SOL    HW2 6873   4.138   5.593   4.550
 1992SOL     OW 6874   2.398   6.969   5.752
 1992SOL    HW1 6875   2.329   6.958   5.823
 1992SOL    HW2 6876   2.354   7.001   5.668
 1993SOL     OW 6877   3.584   3.290   4.763
 1993SOL    HW1 6878   3.642   3.316   4.686
 1993SOL    HW2 6879   3.496   3.257   4.729
 1994SOL     OW 6880   6.388   2.535   2.244
 1994SOL    HW1 6881   6.368   2.509   2.339
 1994SOL    HW2 6882   6.334   2.478   2.182
 1995SOL     OW 6883   5.155   2.618   1.264
 1995SOL    HW1 6884   5.219   2.694   1.263
 1995SOL    HW2 6885   5.193   2.544   1.319
 1996SOL     OW 6886   2.959   4.192   6.949
 1996SOL    HW1 6887   2.886   4.257   6.929
 1996SOL    HW2 6888   3.037   4.209   6.889
 1997SOL     OW 6889   5.255   0.650   3.749
 1997SOL    HW1 6890   5.190   0.584   3.787
 1997SOL    HW2 6891   5.323   0.603   3.694
 1998SOL     OW 6892   3.083   4.880   4.991
 1998SOL    HW1 6893   3.013   4.854   4.925
 1998SOL    HW2 6894   3.066   4.833   5.078
 1999SOL     OW 6895   1.800   0.996   2.413
 1999SOL    HW1 6896   1.833   0.921   2.355
 1999SOL    HW2 6897   1.751   1.063   2.356
 2000SOL     OW 6898   3.991   2.146   4.798
 2000SOL    HW1 6899   3.904   2.098   4.790
 2000SOL    HW2 6900   4.001   2.181   4.891
 2001SOL     OW 6901   3.327   2.887   0.388
 2001SOL    HW1 6902   3.349   2.868   0.292
 2001SOL    HW2 6903   3.230   2.868   0.404
 2002SOL     OW 6904   1.925   4.604   5.080
 2002SOL    HW1 6905   2.017   4.642   5.067
 2002SOL    HW2 6906   1.931   4.504   5.082
 2003SOL     OW 6907   6.301   5.849   3.503
 2003SOL    HW1 6908   6.231   5.918   3.524
 2003SOL    HW2 6909   6.390   5.883   3.533
 2004SOL     OW 6910   3.305   0.796   5.942
 2004SOL    HW1 6911   3.284   0.803   6.039
 2004SOL    HW2 6912   3.367   0.870   5.916
 2005SOL     OW 6913   3.080   6.224   6.099
 2005SOL    HW1 6914   3.130   6.200   6.182
 2005SOL    HW2 6915   3.142   6.220   6.021
 2006SOL     OW 6916   3.714   5.020   3.790
 2006SOL    HW1 6917   3.720   5.023   3.890
 2006SOL    HW2 6918   3.767   5.094   3.751
 2007SOL     OW 6919   6.026   5.098   0.253
 2007SOL    HW1 6920   5.943   5.086   0.308
 2007SOL    HW2 6921   6.106   5.076   0.308
 2008SOL     OW 6922   0.343   5.729   3.892
 2008SOL    HW1 6923   0.373   5.638   3.920
 2008SOL    HW2 6924   0.292   5.772   3.966
 2009SOL     OW 6925   0.691   0.256   1.771
 2009SOL    HW1 6926   0.725   0.318   1.842
 2009SOL    HW2 6927   0.724   0.286   1.681
 2010SOL     OW 6928   1.534   0.084   0.843
 2010SOL    HW1 6929   1.472   0.119   0.914
 2010SOL    HW2 6930   1.628   0.109   0.866
 2011SOL     OW 6931   6.895   2.565   5.282
 2011SOL    HW1 6932   6.890   2.591   5.378
 2011SOL    HW2 6933   6.823   2.611   5.230
 2012SOL     OW 6934   0.819   3.677   1.381
 2012SOL    HW1 6935   0.752   3.603   1.379
 2012SOL    HW2 6936   0.842   3.699   1.476
 2013SOL     OW 6937   4.318   1.350   2.150
 2013SOL    HW1 6938   4.303   1.317   2.243
 2013SOL    HW2 6939   4.237   1.331   2.094
 2014SOL     OW 6940   2.564   5.686   3.530
 2014SOL    HW1 6941   2.608   5.735   3.606
 2014SOL    HW2 6942   2.496   5.745   3.487
 2015SOL     OW 6943   3.049   6.745   0.045
 2015SOL    HW1 6944   3.106   6.663   0.040
 2015SOL    HW2 6945   2.953   6.717   0.049
 2016SOL     OW 6946   6.729   4.910   4.013
 2016SOL    HW1 6947   6.737   4.837   3.945
 2016SOL    HW2 6948   6.794   4.893   4.088
 2017SOL     OW 6949   3.053   5.828   2.481
 2017SOL    HW1 6950   3.152   5.830   2.470
 2017SOL    HW2 6951   3.026   5.891   2.553
 2018SOL     OW 6952   0.923   5.197   5.815
 2018SOL    HW1 6953   0.830   5.224   5.791
 2018SOL    HW2 6954   0.928   5.180   5.914
 2019SOL     OW 6955   6.274   1.667   2.306
 2019SOL    HW1 6956   6.258   1.568   2.308
 2019SOL    HW2 6957   6.282   1.702   2.399
 2020SOL     OW 6958   2.033   6.064   3.059
 2020SOL    HW1 6959   2.061   6.010   3.139
 2020SOL    HW2 6960   1.936   6.047   3.040
 2021SOL     OW 6961   0.827   6.702   1.771
 2021SOL    HW1 6962   0.874   6.678   1.856
 2021SOL    HW2 6963   0.830   6.801   1.757
 2022SOL     OW 6964   2.365   4.099   1.074
 2022SOL    HW1 6965   2.280   4.123   1.121
 2022SOL    HW2 6966   2.433   4.172   1.088
 2023SOL     OW 6967   6.746   0.932   5.931
 2023SOL    HW1 6968   6.703   1.017   5.898
 2023SOL    HW2 6969   6.708   0.854   5.881
 2024SOL     OW 6970   5.796   1.068   3.598
 2024SOL    HW1 6971   5.775   0.989   3.540
 2024SOL    HW2 6972   5.771   1.047   3.692
 2025SOL     OW 6973   6.916   1.168   1.543
 2025SOL    HW1 6974   6.820   1.154   1.567
 2025SOL    HW2 6975   6.949   1.253   1.585
 2026SOL     OW 6976   1.735   1.699   5.472
 2026SOL    HW1 6977   1.790   1.650   5.405
 2026SOL    HW2 6978   1.638   1.677   5.458
 2027SOL     OW 6979   0.497   1.474   2.654
 2027SOL    HW1 6980   0.596   1.480   2.643
 2027SOL    HW2 6981   0.453   1.553   2.612
 2028SOL     OW 6982   4.395   2.957   6.589
 2028SOL    HW1 6983   4.324   3.009   6.542
 2028SOL    HW2 6984   4.353   2.881   6.639
 2029SOL     OW 6985   1.612   0.410   0.256
 2029SOL    HW1 6986   1.601   0.326   0.203
 2029SOL    HW2 6987   1.528   0.464   0.252
 2030SOL     OW 6988   1.446   0.904   3.384
 2030SOL    HW1 6989   1.488   0.821   3.348
 2030SOL    HW2 6990   1.412   0.959   3.308
 2031SOL     OW 6991   4.936   6.819   2.513
 2031SOL    HW1 6992   5.005   6.770   2.460
 2031SOL    HW2 6993   4.977   6.900   2.555
 2032SOL     OW 6994   5.030   6.381   1.389
 2032SOL    HW1 6995   5.059   6.288   1.365
 2032SOL    HW2 6996   4.988   6.424   1.309
 2033SOL     OW 6997   5.701   5.071   0.254
 2033SOL    HW1 6998   5.649   5.148   0.217
 2033SOL    HW2 6999   5.692   4.992   0.193
 2034SOL     OW 7000   2.092   0.336   2.905
 2034SOL    HW1 7001   2.073   0.266   2.973
 2034SOL    HW2 7002   2.171   0.309   2.850
 2035SOL     OW 7003   1.312   2.985   2.007
 2035SOL    HW1 7004   1.390   2.923   2.006
 2035SOL    HW2 7005   1.336   3.069   2.055
 2036SOL     OW 7006   1.694   4.636   0.482
 2036SOL    HW1 7007   1.668   4.683   0.567
 2036SOL    HW2 7008   1.773   4.577   0.500
 2037SOL     OW 7009   0.197   1.323   6.189
 2037SOL    HW1 7010   0.200   1.421   6.173
 2037SOL    HW2 7011   0.126   1.302   6.257
 2038SOL     OW 7012   0.651   0.760   4.886
 2038SOL    HW1 7013   0.608   0.677   4.852
 2038SOL    HW2 7014   0.601   0.793   4.966
 2039SOL     OW 7015   0.868   5.728   2.505
 2039SOL    HW1 7016   0.883   5.806   2.445
 2039SOL    HW2 7017   0.850   5.761   2.598
 2040SOL     OW 7018   3.877   3.528   4.874
 2040SOL    HW1 7019   3.836   3.464   4.809
 2040SOL    HW2 7020   3.932   3.477   4.940
 2041SOL     OW 7021   5.931   4.436   6.084
 2041SOL    HW1 7022   5.959   4.357   6.139
 2041SOL    HW2 7023   6.010   4.472   6.035
 2042SOL     OW 7024   4.027   5.635   6.622
 2042SOL    HW1 7025   4.039   5.734   6.618
 2042SOL    HW2 7026   4.097   5.595   6.682
 2043SOL     OW 7027   4.872   4.590   2.216
 2043SOL    HW1 7028   4.874   4.507   2.160
 2043SOL    HW2 7029   4.807   4.578   2.291
 2044SOL     OW 7030   6.589   0.588   1.793
 2044SOL    HW1 7031   6.598   0.501   1.743
 2044SOL    HW2 7032   6.621   0.662   1.734
 2045SOL     OW 7033   1.805   5.164   6.240
 2045SOL    HW1 7034   1.749   5.100   6.187
 2045SOL    HW2 7035   1.898   5.164   6.204
 2046SOL     OW 7036   6.100   0.537   4.927
 2046SOL    HW1 7037   6.009   0.528   4.885
 2046SOL    HW2 7038   6.103   0.622   4.981
 2047SOL     OW 7039   5.449   2.634   0.086
 2047SOL    HW1 7040   5.521   2.652   0.019
 2047SOL    HW2 7041   5.490   2.632   0.178
 2048SOL     OW 7042   4.513   0.232   5.490
 2048SOL    HW1 7043   4.478   0.210   5.399
 2048SOL    HW2 7044   4.588   0.170   5.512
 2049SOL     OW 7045   5.187   0.099   0.305
 2049SOL    HW1 7046   5.218   0.018   0.256
 2049SOL    HW2 7047   5.184   0.080   0.403
 2050SOL     OW 7048   5.853   1.912   3.971
 2050SOL    HW1 7049   5.822   1.987   3.912
 2050SOL    HW2 7050   5.778   1.883   4.030
 2051SOL     OW 7051   1.711   5.005   0.637
 2051SOL    HW1 7052   1.672   4.913   0.630
 2051SOL    HW2 7053   1.668   5.054   0.713
 2052SOL     OW 7054   0.988   3.392   0.393
 2052SOL    HW1 7055   0.990   3.477   0.445
 2052SOL    HW2 7056   1.071   3.384   0.339
 2053SOL     OW 7057   5.492   0.592   0.336
 2053SOL    HW1 7058   5.567   0.584   0.271
 2053SOL    HW2 7059   5.492   0.682   0.378
 2054SOL     OW 7060   6.192   2.988   0.923
 2054SOL    HW1 7061   6.221   3.039   0.842
 2054SOL    HW2 7062   6.120   3.039   0.970
 2055SOL     OW 7063   6.040   2.899   4.043
 2055SOL    HW1 7064   5.941   2.890   4.032
 2055SOL    HW2 7065   6.069   2.852   4.127
 2056SOL     OW 7066   1.151   0.657   3.299
 2056SOL    HW1 7067   1.136   0.740   3.352
 2056SOL    HW2 7068   1.074   0.644   3.236
 2057SOL     OW 7069   0.042   2.815   4.101
 2057SOL    HW1 7070   6.982   2.765   4.079
 2057SOL    HW2 7071   0.109   2.751   4.140
 2058SOL     OW 7072   0.048   2.231   1.977
 2058SOL    HW1 7073   0.099   2.313   1.951
 2058SOL    HW2 7074   0.097   2.150   1.943
 2059SOL     OW 7075   1.659   1.510   6.778
 2059SOL    HW1 7076   1.581   1.573   6.781
 2059SOL    HW2 7077   1.738   1.553   6.822
 2060SOL     OW 7078   0.781   5.202   2.636
 2060SOL    HW1 7079   0.739   5.190   2.726
 2060SOL    HW2 7080   0.792   5.299   2.617
 2061SOL     OW 7081   6.633   1.538   1.881
 2061SOL    HW1 7082   6.655   1.518   1.976
 2061SOL    HW2 7083   6.535   1.558   1.873
 2062SOL     OW 7084   4.336   0.787   3.310
 2062SOL    HW1 7085   4.280   0.843   3.371
 2062SOL    HW2 7086   4.280   0.752   3.235
 2063SOL     OW 7087   2.064   2.535   6.615
 2063SOL    HW1 7088   1.992   2.499   6.556
 2063SOL    HW2 7089   2.031   2.616   6.663
 2064SOL     OW 7090   0.536   2.546   0.022
 2064SOL    HW1 7091   0.498   2.581   6.960
 2064SOL    HW2 7092   0.555   2.448   0.013
 2065SOL     OW 7093   6.397   3.185   2.155
 2065SOL    HW1 7094   6.480   3.238   2.174
 2065SOL    HW2 7095   6.394   3.162   2.058
 2066SOL     OW 7096   1.679   6.349   4.304
 2066SOL    HW1 7097   1.654   6.434   4.350
 2066SOL    HW2 7098   1.693   6.366   4.206
 2067SOL     OW 7099   6.808   0.167   1.276
 2067SOL    HW1 7100   6.773   0.097   1.214
 2067SOL    HW2 7101   6.775   0.149   1.368
 2068SOL     OW 7102   1.548   2.087   5.197
 2068SOL    HW1 7103   1.500   2.031   5.129
 2068SOL    HW2 7104   1.614   2.029   5.245
 2069SOL     OW 7105   0.587   1.931   1.613
 2069SOL    HW1 7106   0.577   2.030   1.603
 2069SOL    HW2 7107   0.676   1.911   1.654
 2070SOL     OW 7108   0.658   1.207   2.961
 2070SOL    HW1 7109   0.684   1.216   2.865
 2070SOL    HW2 7110   0.560   1.220   2.971
 2071SOL     OW 7111   1.573   6.566   4.444
 2071SOL    HW1 7112   1.621   6.654   4.457
 2071SOL    HW2 7113   1.493   6.580   4.386
 2072SOL     OW 7114   4.968   5.391   1.723
 2072SOL    HW1 7115   5.039   5.431   1.665
 2072SOL    HW2 7116   4.930   5.462   1.784
 2073SOL     OW 7117   2.718   0.020   6.035
 2073SOL    HW1 7118   2.632   0.062   6.006
 2073SOL    HW2 7119   2.712   6.945   6.020
 2074SOL     OW 7120   5.605   1.297   2.157
 2074SOL    HW1 7121   5.521   1.339   2.122
 2074SOL    HW2 7122   5.681   1.361   2.147
 2075SOL     OW 7123   4.401   3.427   6.425
 2075SOL    HW1 7124   4.468   3.389   6.361
 2075SOL    HW2 7125   4.410   3.526   6.428
 2076SOL     OW 7126   5.032   0.365   1.168
 2076SOL    HW1 7127   4.966   0.384   1.095
 2076SOL    HW2 7128   5.113   0.321   1.129
 2077SOL     OW 7129   5.569   0.729   2.530
 2077SOL    HW1 7130   5.481   0.747   2.575
 2077SOL    HW2 7131   5.620   0.662   2.584
 2078SOL     OW 7132   3.184   5.392   5.251
 2078SOL    HW1 7133   3.153   5.407   5.157
 2078SOL    HW2 7134   3.198   5.294   5.267
 2079SOL     OW 7135   5.351   1.388   3.813
 2079SOL    HW1 7136   5.422   1.358   3.876
 2079SOL    HW2 7137   5.266   1.403   3.864
 2080SOL     OW 7138   2.756   2.363   4.316
 2080SOL    HW1 7139   2.794   2.456   4.318
 2080SOL    HW2 7140   2.821   2.300   4.359
 2081SOL     OW 7141   0.508   6.586   5.107
 2081SOL    HW1 7142   0.410   6.569   5.116
 2081SOL    HW2 7143   0.547   6.602   5.198
 2082SOL     OW 7144   5.339   0.655   1.100
 2082SOL    HW1 7145   5.277   0.685   1.172
 2082SOL    HW2 7146   5.351   0.729   1.033
 2083SOL     OW 7147   2.924   5.559   5.807
 2083SOL    HW1 7148   2.937   5.657   5.819
 2083SOL    HW2 7149   2.889   5.541   5.715
 2084SOL     OW 7150   6.918   2.852   3.287
 2084SOL    HW1 7151   6.888   2.947   3.288
 2084SOL    HW2 7152   6.972   2.832   3.368
 2085SOL     OW 7153   5.334   0.031   5.895
 2085SOL    HW1 7154   5.393   0.064   5.969
 2085SOL    HW2 7155   5.279   0.106   5.860
 2086SOL     OW 7156   3.061   5.292   0.593
 2086SOL    HW1 7157   3.149   5.265   0.632
 2086SOL    HW2 7158   3.041   5.387   0.618
 2087SOL     OW 7159   5.094   6.844   3.865
 2087SOL    HW1 7160   5.001   6.851   3.828
 2087SOL    HW2 7161   5.146   6.926   3.839
 2088SOL     OW 7162   3.073   0.212   0.337
 2088SOL    HW1 7163   3.153   0.153   0.325
 2088SOL    HW2 7164   3.010   0.171   0.403
 2089SOL     OW 7165   3.938   0.508   6.950
 2089SOL    HW1 7166   3.940   0.489   6.852
 2089SOL    HW2 7167   3.875   0.584   6.967
 2090SOL     OW 7168   3.285   3.341   4.311
 2090SOL    HW1 7169   3.329   3.308   4.394
 2090SOL    HW2 7170   3.270   3.440   4.317
 2091SOL     OW 7171   2.097   4.547   0.687
 2091SOL    HW1 7172   2.099   4.462   0.635
 2091SOL    HW2 7173   2.051   4.618   0.633
 2092SOL     OW 7174   6.447   6.110   0.820
 2092SOL    HW1 7175   6.376   6.153   0.876
 2092SOL    HW2 7176   6.449   6.152   0.729
 2093SOL     OW 7177   1.317   2.366   1.841
 2093SOL    HW1 7178   1.258   2.333   1.768
 2093SOL    HW2 7179   1.260   2.400   1.917
 2094SOL     OW 7180   6.022   6.789   2.265
 2094SOL    HW1 7181   6.062   6.855   2.330
 2094SOL    HW2 7182   5.949   6.738   2.310
 2095SOL     OW 7183   6.130   5.110   4.901
 2095SOL    HW1 7184   6.105   5.102   4.805
 2095SOL    HW2 7185   6.054   5.150   4.952
 2096SOL     OW 7186   4.607   4.584   2.967
 2096SOL    HW1 7187   4.626   4.486   2.966
 2096SOL    HW2 7188   4.650   4.628   2.888
 2097SOL     OW 7189   0.424   2.639   0.373
 2097SOL    HW1 7190   0.502   2.669   0.318
 2097SOL    HW2 7191   0.387   2.717   0.423
 2098SOL     OW 7192   4.273   0.628   4.169
 2098SOL    HW1 7193   4.178   0.610   4.141
 2098SOL    HW2 7194   4.313   0.544   4.205
 2099SOL     OW 7195   3.187   1.875   4.177
 2099SOL    HW1 7196   3.240   1.833   4.103
 2099SOL    HW2 7197   3.119   1.809   4.210
 2100SOL     OW 7198   4.480   3.778   6.694
 2100SOL    HW1 7199   4.432   3.827   6.621
 2100SOL    HW2 7200   4.565   3.738   6.657
 2101SOL     OW 7201   6.932   6.927   3.760
 2101SOL    HW1 7202   6.931   6.947   3.662
 2101SOL    HW2 7203   6.903   7.009   3.810
 2102SOL     OW 7204   0.086   4.899   2.148
 2102SOL    HW1 7205   0.061   4.851   2.232
 2102SOL    HW2 7206   0.011   4.960   2.121
 2103SOL     OW 7207   3.592   4.121   6.434
 2103SOL    HW1 7208   3.600   4.112   6.533
 2103SOL    HW2 7209   3.577   4.031   6.394
 2104SOL     OW 7210   1.140   3.636   5.644
 2104SOL    HW1 7211   1.219   3.680   5.602
 2104SOL    HW2 7212   1.067   3.703   5.655
 2105SOL     OW 7213   5.793   5.579   1.736
 2105SOL    HW1 7214   5.736   5.606   1.813
 2105SOL    HW2 7215   5.845   5.658   1.704
 2106SOL     OW 7216   4.795   5.540   6.808
 2106SOL    HW1 7217   4.779   5.469   6.739
 2106SOL    HW2 7218   4.855   5.505   6.879
 2107SOL     OW 7219   4.227   4.026   6.263
 2107SOL    HW1 7220   4.292   4.008   6.189
 2107SOL    HW2 7221   4.149   4.076   6.228
 2108SOL     OW 7222   5.409   5.057   6.159
 2108SOL    HW1 7223   5.508   5.042   6.160
 2108SOL    HW2 7224   5.365   4.980   6.113
 2109SOL     OW 7225   5.427   0.001   3.184
 2109SOL    HW1 7226   5.448   0.053   3.267
 2109SOL    HW2 7227   5.385   6.938   3.209
 2110SOL     OW 7228   2.508   4.601   6.394
 2110SOL    HW1 7229   2.558   4.603   6.308
 2110SOL    HW2 7230   2.422   4.651   6.385
 2111SOL     OW 7231   1.094   2.950   0.048
 2111SOL    HW1 7232   1.097   3.020   0.119
 2111SOL    HW2 7233   1.017   2.968   7.010
 2112SOL     OW 7234   4.690   3.143   1.364
 2112SOL    HW1 7235   4.718   3.123   1.458
 2112SOL    HW2 7236   4.592   3.123   1.354
 2113SOL     OW 7237   6.973   0.685   2.677
 2113SOL    HW1 7238   6.994   0.754   2.608
 2113SOL    HW2 7239   6.958   0.730   2.765
 2114SOL     OW 7240   2.217   3.963   6.818
 2114SOL    HW1 7241   2.285   3.947   6.889
 2114SOL    HW2 7242   2.245   3.917   6.734
 2115SOL     OW 7243   2.639   5.026   2.480
 2115SOL    HW1 7244   2.703   4.955   2.509
 2115SOL    HW2 7245   2.546   5.001   2.508
 2116SOL     OW 7246   0.052   4.046   3.323
 2116SOL    HW1 7247   6.995   4.039   3.265
 2116SOL    HW2 7248   0.130   4.006   3.275
 2117SOL     OW 7249   0.394   4.900   0.876
 2117SOL    HW1 7250   0.328   4.974   0.893
 2117SOL    HW2 7251   0.396   4.838   0.954
 2118SOL     OW 7252   6.730   3.864   2.091
 2118SOL    HW1 7253   6.701   3.790   2.151
 2118SOL    HW2 7254   6.712   3.839   1.996
 2119SOL     OW 7255   2.922   6.261   1.350
 2119SOL    HW1 7256   2.928   6.329   1.277
 2119SOL    HW2 7257   2.840   6.205   1.336
 2120SOL     OW 7258   6.933   5.159   2.124
 2120SOL    HW1 7259   6.853   5.191   2.174
 2120SOL    HW2 7260   6.928   5.189   2.029
 2121SOL     OW 7261   0.869   5.132   4.717
 2121SOL    HW1 7262   0.960   5.159   4.749
 2121SOL    HW2 7263   0.800   5.189   4.761
 2122SOL     OW 7264   4.727   4.178   4.747
 2122SOL    HW1 7265   4.658   4.196   4.817
 2122SOL    HW2 7266   4.757   4.264   4.706
 2123SOL     OW 7267   6.322   4.915   3.418
 2123SOL    HW1 7268   6.226   4.886   3.422
 2123SOL    HW2 7269   6.329   5.000   3.367
 2124SOL     OW 7270   1.929   2.121   0.634
 2124SOL    HW1 7271   1.912   2.046   0.698
 2124SOL    HW2 7272   2.021   2.158   0.649
 2125SOL     OW 7273   3.230   7.018   0.587
 2125SOL    HW1 7274   3.181   6.977   0.664
 2125SOL    HW2 7275   3.181   6.997   0.502
 2126SOL     OW 7276   2.871   0.760   0.702
 2126SOL    HW1 7277   2.868   0.740   0.799
 2126SOL    HW2 7278   2.943   0.705   0.658
 2127SOL     OW 7279   5.347   3.565   5.255
 2127SOL    HW1 7280   5.257   3.584   5.216
 2127SOL    HW2 7281   5.385   3.649   5.293
 2128SOL     OW 7282   0.423   4.901   4.715
 2128SOL    HW1 7283   0.486   4.836   4.757
 2128SOL    HW2 7284   0.465   4.992   4.713
 2129SOL     OW 7285   3.911   2.020   5.687
 2129SOL    HW1 7286   4.007   2.037   5.664
 2129SOL    HW2 7287   3.906   1.964   5.770
 2130SOL     OW 7288   4.280   6.308   2.598
 2130SOL    HW1 7289   4.225   6.392   2.590
 2130SOL    HW2 7290   4.339   6.315   2.678
 2131SOL     OW 7291   6.675   1.911   0.262
 2131SOL    HW1 7292   6.595   1.853   0.275
 2131SOL    HW2 7293   6.757   1.863   0.294
 2132SOL     OW 7294   2.250   2.971   0.788
 2132SOL    HW1 7295   2.276   2.879   0.762
 2132SOL    HW2 7296   2.326   3.014   0.837
 2133SOL     OW 7297   3.119   2.520   5.676
 2133SOL    HW1 7298   3.023   2.538   5.656
 2133SOL    HW2 7299   3.130   2.500   5.773
 2134SOL     OW 7300   1.050   0.151   0.663
 2134SOL    HW1 7301   0.979   0.172   0.597
 2134SOL    HW2 7302   1.052   0.052   0.680
 2135SOL     OW 7303   0.494   3.768   3.993
 2135SOL    HW1 7304   0.481   3.834   3.919
 2135SOL    HW2 7305   0.590   3.739   3.995
 2136SOL     OW 7306   2.161   5.470   2.055
 2136SOL    HW1 7307   2.190   5.400   2.120
 2136SOL    HW2 7308   2.104   5.537   2.102
 2137SOL     OW 7309   2.186   5.657   4.164
 2137SOL    HW1 7310   2.151   5.678   4.255
 2137SOL    HW2 7311   2.207   5.560   4.157
 2138SOL     OW 7312   5.058   1.681   2.079
 2138SOL    HW1 7313   5.125   1.754   2.090
 2138SOL    HW2 7314   5.046   1.661   1.982
 2139SOL     OW 7315   2.703   0.836   5.456
 2139SOL    HW1 7316   2.648   0.810   5.377
 2139SOL    HW2 7317   2.670   0.786   5.537
 2140SOL     OW 7318   2.517   1.049   5.350
 2140SOL    HW1 7319   2.588   1.097   5.402
 2140SOL    HW2 7320   2.556   0.967   5.309
 2141SOL     OW 7321   6.425   4.452   2.436
 2141SOL    HW1 7322   6.474   4.391   2.375
 2141SOL    HW2 7323   6.490   4.503   2.492
 2142SOL     OW 7324   1.820   1.404   2.839
 2142SOL    HW1 7325   1.846   1.501   2.833
 2142SOL    HW2 7326   1.743   1.395   2.902
 2143SOL     OW 7327   1.617   4.800   0.266
 2143SOL    HW1 7328   1.671   4.768   0.344
 2143SOL    HW2 7329   1.539   4.852   0.299
 2144SOL     OW 7330   5.849   5.775   4.104
 2144SOL    HW1 7331   5.874   5.737   4.194
 2144SOL    HW2 7332   5.869   5.708   4.033
 2145SOL     OW 7333   4.253   0.052   3.428
 2145SOL    HW1 7334   4.308   0.134   3.417
 2145SOL    HW2 7335   4.310   7.001   3.461
 2146SOL     OW 7336   2.310   2.717   0.637
 2146SOL    HW1 7337   2.262   2.644   0.588
 2146SOL    HW2 7338   2.334   2.789   0.572
 2147SOL     OW 7339   5.790   0.813   4.796
 2147SOL    HW1 7340   5.781   0.784   4.700
 2147SOL    HW2 7341   5.700   0.815   4.838
 2148SOL     OW 7342   0.220   3.396   6.704
 2148SOL    HW1 7343   0.166   3.417   6.622
 2148SOL    HW2 7344   0.317   3.409   6.684
 2149SOL     OW 7345   0.606   0.159   0.030
 2149SOL    HW1 7346   0.631   0.221   6.980
 2149SOL    HW2 7347   0.540   0.203   0.091
 2150SOL     OW 7348   2.397   3.219   1.098
 2150SOL    HW1 7349   2.365   3.173   1.181
 2150SOL    HW2 7350   2.406   3.317   1.116
 2151SOL     OW 7351   1.235   5.389   0.342
 2151SOL    HW1 7352   1.143   5.406   0.379
 2151SOL    HW2 7353   1.293   5.350   0.413
 2152SOL     OW 7354   4.044   5.949   3.923
 2152SOL    HW1 7355   4.119   5.980   3.863
 2152SOL    HW2 7356   4.077   5.942   4.017
 2153SOL     OW 7357   4.587   1.342   3.399
 2153SOL    HW1 7358   4.665   1.345   3.337
 2153SOL    HW2 7359   4.617   1.364   3.492
 2154SOL     OW 7360   3.028   0.065   3.291
 2154SOL    HW1 7361   3.039   6.997   3.253
 2154SOL    HW2 7362   3.054   0.133   3.223
 2155SOL     OW 7363   4.855   6.712   1.459
 2155SOL    HW1 7364   4.864   6.810   1.443
 2155SOL    HW2 7365   4.945   6.669   1.457
 2156SOL     OW 7366   5.624   1.766   4.023
 2156SOL    HW1 7367   5.539   1.774   3.972
 2156SOL    HW2 7368   5.696   1.732   3.962
 2157SOL     OW 7369   3.395   6.054   3.907
 2157SOL    HW1 7370   3.353   5.972   3.945
 2157SOL    HW2 7371   3.473   6.028   3.849
 2158SOL     OW 7372   3.693   0.453   0.223
 2158SOL    HW1 7373   3.733   0.497   0.304
 2158SOL    HW2 7374   3.691   0.519   0.148
 2159SOL     OW 7375   1.005   0.806   5.724
 2159SOL    HW1 7376   1.090   0.754   5.709
 2159SOL    HW2 7377   1.023   0.903   5.710
 2160SOL     OW 7378   5.562   6.338   0.360
 2160SOL    HW1 7379   5.650   6.317   0.403
 2160SOL    HW2 7380   5.568   6.321   0.261
 2161SOL     OW 7381   1.112   2.540   2.384
 2161SOL    HW1 7382   1.121   2.607   2.310
 2161SOL    HW2 7383   1.076   2.585   2.465
 2162SOL     OW 7384   0.946   0.229   2.010
 2162SOL    HW1 7385   0.952   0.283   2.094
 2162SOL    HW2 7386   0.972   0.286   1.932
 2163SOL     OW 7387   1.560   3.436   2.219
 2163SOL    HW1 7388   1.478   3.413   2.270
 2163SOL    HW2 7389   1.639   3.392   2.261
 2164SOL     OW 7390   1.864   2.759   2.588
 2164SOL    HW1 7391   1.827   2.670   2.615
 2164SOL    HW2 7392   1.938   2.784   2.651
 2165SOL     OW 7393   0.316   1.571   3.935
 2165SOL    HW1 7394   0.402   1.621   3.932
 2165SOL    HW2 7395   0.278   1.574   4.027
 2166SOL     OW 7396   6.907   3.999   2.633
 2166SOL    HW1 7397   6.825   3.972   2.684
 2166SOL    HW2 7398   6.918   4.098   2.637
 2167SOL     OW 7399   2.960   1.907   3.652
 2167SOL    HW1 7400   2.953   1.884   3.749
 2167SOL    HW2 7401   3.017   1.988   3.641
 2168SOL     OW 7402   1.645   1.950   2.923
 2168SOL    HW1 7403   1.688   1.903   2.846
 2168SOL    HW2 7404   1.546   1.940   2.918
 2169SOL     OW 7405   0.453   0.206   1.895
 2169SOL    HW1 7406   0.427   0.110   1.896
 2169SOL    HW2 7407   0.533   0.219   1.837
 2170SOL     OW 7408   0.558   3.565   5.453
 2170SOL    HW1 7409   0.652   3.586   5.480
 2170SOL    HW2 7410   0.530   3.626   5.379
 2171SOL     OW 7411   0.519   5.463   1.512
 2171SOL    HW1 7412   0.615   5.478   1.488
 2171SOL    HW2 7413   0.509   5.461   1.611
 2172SOL     OW 7414   1.338   1.682   4.831
 2172SOL    HW1 7415   1.257   1.738   4.816
 2172SOL    HW2 7416   1.358   1.630   4.748
 2173SOL     OW 7417   5.836   0.348   5.229
 2173SOL    HW1 7418   5.744   0.380   5.203
 2173SOL    HW2 7419   5.879   0.416   5.288
 2174SOL     OW 7420   6.549   6.378   5.612
 2174SOL    HW1 7421   6.567   6.285   5.646
 2174SOL    HW2 7422   6.630   6.435   5.626
 2175SOL     OW 7423   2.894   3.830   5.308
 2175SOL    HW1 7424   2.821   3.898   5.318
 2175SOL    HW2 7425   2.901   3.803   5.212
 2176SOL     OW 7426   5.435   2.182   1.355
 2176SOL    HW1 7427   5.415   2.192   1.452
 2176SOL    HW2 7428   5.364   2.127   1.311
 2177SOL     OW 7429   0.250   0.240   3.760
 2177SOL    HW1 7430   0.193   0.220   3.840
 2177SOL    HW2 7431   0.346   0.229   3.785
 2178SOL     OW 7432   0.625   1.966   2.757
 2178SOL    HW1 7433   0.590   1.898   2.822
 2178SOL    HW2 7434   0.715   1.937   2.724
 2179SOL     OW 7435   1.708   4.149   6.224
 2179SOL    HW1 7436   1.675   4.124   6.315
 2179SOL    HW2 7437   1.660   4.095   6.155
 2180SOL     OW 7438   0.826   6.361   2.199
 2180SOL    HW1 7439   0.920   6.349   2.168
 2180SOL    HW2 7440   0.815   6.317   2.288
 2181SOL     OW 7441   4.186   4.869   4.590
 2181SOL    HW1 7442   4.196   4.822   4.502
 2181SOL    HW2 7443   4.099   4.919   4.591
 2182SOL     OW 7444   0.128   5.427   2.311
 2182SOL    HW1 7445   0.099   5.338   2.347
 2182SOL    HW2 7446   0.214   5.454   2.354
 2183SOL     OW 7447   3.391   2.654   0.084
 2183SOL    HW1 7448   3.303   2.616   0.055
 2183SOL    HW2 7449   3.383   2.753   0.090
 2184SOL     OW 7450   6.141   1.166   6.607
 2184SOL    HW1 7451   6.125   1.219   6.690
 2184SOL    HW2 7452   6.178   1.076   6.632
 2185SOL     OW 7453   0.798   0.596   6.976
 2185SOL    HW1 7454   0.879   0.540   6.994
 2185SOL    HW2 7455   0.718   0.553   7.017
 2186SOL     OW 7456   6.983   4.736   5.556
 2186SOL    HW1 7457   6.907   4.731   5.490
 2186SOL    HW2 7458   0.033   4.790   5.516
 2187SOL     OW 7459   0.637   5.601   3.233
 2187SOL    HW1 7460   0.599   5.568   3.147
 2187SOL    HW2 7461   0.676   5.525   3.285
 2188SOL     OW 7462   2.355   0.801   0.993
 2188SOL    HW1 7463   2.339   0.781   0.897
 2188SOL    HW2 7464   2.287   0.865   1.026
 2189SOL     OW 7465   2.707   1.913   0.998
 2189SOL    HW1 7466   2.744   1.825   1.028
 2189SOL    HW2 7467   2.756   1.943   0.916
 2190SOL     OW 7468   6.403   4.108   2.347
 2190SOL    HW1 7469   6.408   4.158   2.261
 2190SOL    HW2 7470   6.402   4.010   2.328
 2191SOL     OW 7471   2.647   0.148   0.440
 2191SOL    HW1 7472   2.682   0.120   0.350
 2191SOL    HW2 7473   2.661   0.246   0.452
 2192SOL     OW 7474   4.640   1.359   0.885
 2192SOL    HW1 7475   4.556   1.407   0.858
 2192SOL    HW2 7476   4.649   1.275   0.832
 2193SOL     OW 7477   1.258   6.419   6.058
 2193SOL    HW1 7478   1.249   6.424   6.158
 2193SOL    HW2 7479   1.332   6.479   6.029
 2194SOL     OW 7480   0.830   3.566   6.059
 2194SOL    HW1 7481   0.817   3.644   5.999
 2194SOL    HW2 7482   0.742   3.519   6.073
 2195SOL     OW 7483   0.479   3.936   6.502
 2195SOL    HW1 7484   0.391   3.910   6.542
 2195SOL    HW2 7485   0.520   3.856   6.458
 2196SOL     OW 7486   2.823   6.748   5.631
 2196SOL    HW1 7487   2.905   6.776   5.681
 2196SOL    HW2 7488   2.748   6.735   5.696
 2197SOL     OW 7489   2.804   5.196   5.614
 2197SOL    HW1 7490   2.709   5.218   5.590
 2197SOL    HW2 7491   2.838   5.124   5.553
 2198SOL     OW 7492   0.581   0.756   6.621
 2198SOL    HW1 7493   0.541   0.805   6.699
 2198SOL    HW2 7494   0.628   0.675   6.653
 2199SOL     OW 7495   4.356   6.685   4.589
 2199SOL    HW1 7496   4.397   6.707   4.500
 2199SOL    HW2 7497   4.399   6.602   4.625
 2200SOL     OW 7498   2.888   2.086   4.108
 2200SOL    HW1 7499   2.923   2.096   4.201
 2200SOL    HW2 7500   2.790   2.105   4.108
 2201SOL     OW 7501   6.006   4.032   3.620
 2201SOL    HW1 7502   6.005   3.951   3.678
 2201SOL    HW2 7503   6.088   4.086   3.639
 2202SOL     OW 7504   3.912   5.824   2.104
 2202SOL    HW1 7505   3.873   5.913   2.129
 2202SOL    HW2 7506   3.897   5.807   2.006
 2203SOL     OW 7507   2.028   3.237   0.806
 2203SOL    HW1 7508   2.084   3.154   0.806
 2203SOL    HW2 7509   1.956   3.228   0.875
 2204SOL     OW 7510   5.374   3.165   1.068
 2204SOL    HW1 7511   5.369   3.138   0.972
 2204SOL    HW2 7512   5.463   3.138   1.105
 2205SOL     OW 7513   0.682   4.968   0.316
 2205SOL    HW1 7514   0.702   4.899   0.386
 2205SOL    HW2 7515   0.612   4.932   0.254
 2206SOL     OW 7516   2.670   2.242   5.893
 2206SOL    HW1 7517   2.570   2.248   5.894
 2206SOL    HW2 7518   2.707   2.283   5.976
 2207SOL     OW 7519   4.885   6.100   0.690
 2207SOL    HW1 7520   4.969   6.083   0.639
 2207SOL    HW2 7521   4.856   6.015   0.735
 2208SOL     OW 7522   0.635   5.921   4.427
 2208SOL    HW1 7523   0.651   6.016   4.453
 2208SOL    HW2 7524   0.546   5.892   4.462
 2209SOL     OW 7525   3.116   5.811   4.286
 2209SOL    HW1 7526   3.110   5.743   4.359
 2209SOL    HW2 7527   3.030   5.814   4.235
 2210SOL     OW 7528   4.798   6.280   1.115
 2210SOL    HW1 7529   4.864   6.349   1.145
 2210SOL    HW2 7530   4.811   6.262   1.017
 2211SOL     OW 7531   6.962   1.567   0.803
 2211SOL    HW1 7532   7.012   1.490   0.764
 2211SOL    HW2 7533   7.004   1.594   0.889
 2212SOL     OW 7534   2.432   6.227   6.948
 2212SOL    HW1 7535   2.474   6.137   6.934
 2212SOL    HW2 7536   2.364   6.221   7.020
 2213SOL     OW 7537   3.555   2.130   4.346
 2213SOL    HW1 7538   3.544   2.105   4.442
 2213SOL    HW2 7539   3.503   2.213   4.327
 2214SOL     OW 7540   4.105   3.778   6.444
 2214SOL    HW1 7541   4.196   3.815   6.424
 2214SOL    HW2 7542   4.096   3.687   6.403
 2215SOL     OW 7543   4.612   6.994   6.731
 2215SOL    HW1 7544   4.646   0.021   6.810
 2215SOL    HW2 7545   4.574   0.035   6.665
 2216SOL     OW 7546   0.723   6.792   6.242
 2216SOL    HW1 7547   0.670   6.864   6.198
 2216SOL    HW2 7548   0.793   6.833   6.301
 2217SOL     OW 7549   4.148   0.418   3.303
 2217SOL    HW1 7550   4.151   0.359   3.223
 2217SOL    HW2 7551   4.055   0.452   3.315
 2218SOL     OW 7552   0.557   5.272   6.112
 2218SOL    HW1 7553   0.564   5.368   6.138
 2218SOL    HW2 7554   0.647   5.237   6.087
 2219SOL     OW 7555   5.616   1.030   0.613
 2219SOL    HW1 7556   5.565   1.041   0.698
 2219SOL    HW2 7557   5.678   0.952   0.621
 2220SOL     OW 7558   0.846   6.007   5.658
 2220SOL    HW1 7559   0.913   6.065   5.612
 2220SOL    HW2 7560   0.825   6.045   5.748
 2221SOL     OW 7561   6.899   1.076   4.115
 2221SOL    HW1 7562   6.937   1.027   4.193
 2221SOL    HW2 7563   6.815   1.030   4.084
 2222SOL     OW 7564   4.516   5.917   1.738
 2222SOL    HW1 7565   4.432   5.947   1.694
 2222SOL    HW2 7566   4.594   5.961   1.692
 2223SOL     OW 7567   6.504   6.244   5.363
 2223SOL    HW1 7568   6.501   6.312   5.436
 2223SOL    HW2 7569   6.574   6.176   5.385
 2224SOL     OW 7570   5.455   3.925   0.952
 2224SOL    HW1 7571   5.499   3.848   0.997
 2224SOL    HW2 7572   5.518   4.003   0.949
 2225SOL     OW 7573   0.639   6.903   3.182
 2225SOL    HW1 7574   0.599   6.877   3.094
 2225SOL    HW2 7575   0.580   6.871   3.256
 2226SOL     OW 7576   2.124   5.356   0.570
 2226SOL    HW1 7577   2.132   5.371   0.471
 2226SOL    HW2 7578   2.191   5.289   0.600
 2227SOL     OW 7579   4.114   1.924   2.023
 2227SOL    HW1 7580   4.036   1.988   2.026
 2227SOL    HW2 7581   4.197   1.973   2.049
 2228SOL     OW 7582   5.232   4.707   0.153
 2228SOL    HW1 7583   5.321   4.736   0.189
 2228SOL    HW2 7584   5.186   4.786   0.112
 2229SOL     OW 7585   3.639   3.594   4.286
 2229SOL    HW1 7586   3.670   3.686   4.311
 2229SOL    HW2 7587   3.581   3.600   4.205
 2230SOL     OW 7588   5.435   6.659   0.796
 2230SOL    HW1 7589   5.513   6.719   0.781
 2230SOL    HW2 7590   5.356   6.714   0.824
 2231SOL     OW 7591   1.386   0.400   6.867
 2231SOL    HW1 7592   1.388   0.467   6.792
 2231SOL    HW2 7593   1.292   0.387   6.898
 2232SOL     OW 7594   1.396   0.581   5.701
 2232SOL    HW1 7595   1.402   0.487   5.668
 2232SOL    HW2 7596   1.392   0.582   5.801
 2233SOL     OW 7597   2.789   3.874   0.765
 2233SOL    HW1 7598   2.837   3.792   0.798
 2233SOL    HW2 7599   2.774   3.936   0.842
 2234SOL     OW 7600   4.410   1.498   0.790
 2234SOL    HW1 7601   4.434   1.469   0.698
 2234SOL    HW2 7602   4.410   1.597   0.795
 2235SOL     OW 7603   2.282   1.374   3.104
 2235SOL    HW1 7604   2.290   1.453   3.043
 2235SOL    HW2 7605   2.305   1.290   3.053
 2236SOL     OW 7606   2.010   4.122   5.418
 2236SOL    HW1 7607   2.054   4.116   5.328
 2236SOL    HW2 7608   1.917   4.085   5.412
 2237SOL     OW 7609   6.577   5.055   5.224
 2237SOL    HW1 7610   6.584   5.077   5.321
 2237SOL    HW2 7611   6.657   5.092   5.176
 2238SOL     OW 7612   5.135   4.374   2.125
 2238SOL    HW1 7613   5.235   4.368   2.126
 2238SOL    HW2 7614   5.107   4.465   2.094
 2239SOL     OW 7615   4.041   6.943   3.522
 2239SOL    HW1 7616   4.119   6.996   3.489
 2239SOL    HW2 7617   3.956   6.986   3.492
 2240SOL     OW 7618   4.508   5.041   3.437
 2240SOL    HW1 7619   4.532   5.035   3.533
 2240SOL    HW2 7620   4.485   5.135   3.414
 2241SOL     OW 7621   0.236   0.329   1.992
 2241SOL    HW1 7622   0.300   0.275   1.937
 2241SOL    HW2 7623   0.146   0.327   1.949
 2242SOL     OW 7624   4.968   3.212   2.903
 2242SOL    HW1 7625   4.925   3.300   2.922
 2242SOL    HW2 7626   5.059   3.209   2.945
 2243SOL     OW 7627   1.083   6.317   0.949
 2243SOL    HW1 7628   1.136   6.337   0.866
 2243SOL    HW2 7629   1.089   6.395   1.011
 2244SOL     OW 7630   2.361   0.381   0.400
 2244SOL    HW1 7631   2.274   0.373   0.449
 2244SOL    HW2 7632   2.343   0.394   0.302
 2245SOL     OW 7633   0.580   0.494   0.082
 2245SOL    HW1 7634   0.519   0.563   0.042
 2245SOL    HW2 7635   0.526   0.418   0.117
 2246SOL     OW 7636   1.922   0.897   5.349
 2246SOL    HW1 7637   1.978   0.980   5.347
 2246SOL    HW2 7638   1.978   0.819   5.321
 2247SOL     OW 7639   3.009   3.858   2.665
 2247SOL    HW1 7640   3.004   3.777   2.607
 2247SOL    HW2 7641   3.055   3.932   2.614
 2248SOL     OW 7642   5.206   4.277   5.209
 2248SOL    HW1 7643   5.130   4.218   5.182
 2248SOL    HW2 7644   5.245   4.319   5.127
 2249SOL     OW 7645   2.073   6.875   3.983
 2249SOL    HW1 7646   2.137   6.832   4.047
 2249SOL    HW2 7647   1.998   6.917   4.034
 2250SOL     OW 7648   4.519   4.185   6.568
 2250SOL    HW1 7649   4.475   4.233   6.492
 2250SOL    HW2 7650   4.458   4.186   6.647
 2251SOL     OW 7651   5.134   6.926   5.708
 2251SOL    HW1 7652   5.188   6.955   5.628
 2251SOL    HW2 7653   5.062   6.863   5.679
 2252SOL     OW 7654   4.711   1.606   2.648
 2252SOL    HW1 7655   4.758   1.526   2.686
 2252SOL    HW2 7656   4.612   1.593   2.655
 2253SOL     OW 7657   0.769   3.614   0.573
 2253SOL    HW1 7658   0.731   3.527   0.605
 2253SOL    HW2 7659   0.869   3.612   0.582
 2254SOL     OW 7660   3.760   3.419   2.830
 2254SOL    HW1 7661   3.691   3.348   2.839
 2254SOL    HW2 7662   3.746   3.488   2.902
 2255SOL     OW 7663   3.185   4.157   5.911
 2255SOL    HW1 7664   3.243   4.231   5.877
 2255SOL    HW2 7665   3.207   4.138   6.006
 2256SOL     OW 7666   5.135   6.544   1.898
 2256SOL    HW1 7667   5.149   6.633   1.941
 2256SOL    HW2 7668   5.041   6.536   1.867
 2257SOL     OW 7669   0.061   1.404   4.753
 2257SOL    HW1 7670   0.046   1.463   4.832
 2257SOL    HW2 7671   0.150   1.359   4.761
 2258SOL     OW 7672   2.493   6.305   4.045
 2258SOL    HW1 7673   2.501   6.402   4.021
 2258SOL    HW2 7674   2.521   6.249   3.967
 2259SOL     OW 7675   6.172   1.975   4.607
 2259SOL    HW1 7676   6.259   2.021   4.589
 2259SOL    HW2 7677   6.178   1.880   4.577
 2260SOL     OW 7678   1.337   3.669   1.772
 2260SOL    HW1 7679   1.376   3.577   1.771
 2260SOL    HW2 7680   1.262   3.673   1.706
 2261SOL     OW 7681   5.660   3.877   0.017
 2261SOL    HW1 7682   5.698   3.910   6.955
 2261SOL    HW2 7683   5.697   3.930   0.093
 2262SOL     OW 7684   6.347   0.397   4.491
 2262SOL    HW1 7685   6.340   0.383   4.589
 2262SOL    HW2 7686   6.428   0.453   4.471
 2263SOL     OW 7687   1.508   4.486   0.286
 2263SOL    HW1 7688   1.579   4.550   0.316
 2263SOL    HW2 7689   1.446   4.534   0.223
 2264SOL     OW 7690   1.755   6.896   5.949
 2264SOL    HW1 7691   1.729   6.956   5.873
 2264SOL    HW2 7692   1.757   6.949   6.034
 2265SOL     OW 7693   0.835   5.955   4.069
 2265SOL    HW1 7694   0.881   5.959   3.980
 2265SOL    HW2 7695   0.860   6.035   4.123
 2266SOL     OW 7696   4.599   1.955   6.571
 2266SOL    HW1 7697   4.669   2.020   6.599
 2266SOL    HW2 7698   4.638   1.890   6.506
 2267SOL     OW 7699   4.992   2.943   4.333
 2267SOL    HW1 7700   5.030   3.027   4.372
 2267SOL    HW2 7701   4.966   2.959   4.238
 2268SOL     OW 7702   6.863   4.584   5.903
 2268SOL    HW1 7703   6.935   4.592   5.972
 2268SOL    HW2 7704   6.904   4.551   5.817
 2269SOL     OW 7705   1.958   3.003   5.069
 2269SOL    HW1 7706   2.019   3.083   5.070
 2269SOL    HW2 7707   1.964   2.955   5.156
 2270SOL     OW 7708   5.009   2.110   6.171
 2270SOL    HW1 7709   5.062   2.193   6.154
 2270SOL    HW2 7710   4.943   2.097   6.097
 2271SOL     OW 7711   5.875   4.775   6.052
 2271SOL    HW1 7712   5.824   4.718   6.116
 2271SOL    HW2 7713   5.970   4.781   6.081
 2272SOL     OW 7714   6.001   0.870   6.009
 2272SOL    HW1 7715   5.954   0.958   6.006
 2272SOL    HW2 7716   6.091   0.881   6.050
 2273SOL     OW 7717   1.768   2.682   2.071
 2273SOL    HW1 7718   1.849   2.718   2.116
 2273SOL    HW2 7719   1.792   2.598   2.022
 2274SOL     OW 7720   0.627   1.029   0.279
 2274SOL    HW1 7721   0.652   1.049   0.184
 2274SOL    HW2 7722   0.539   0.981   0.281
 2275SOL     OW 7723   5.528   4.932   2.398
 2275SOL    HW1 7724   5.492   4.841   2.421
 2275SOL    HW2 7725   5.453   4.996   2.385
 2276SOL     OW 7726   1.474   1.301   1.314
 2276SOL    HW1 7727   1.468   1.371   1.386
 2276SOL    HW2 7728   1.428   1.218   1.345
 2277SOL     OW 7729   3.306   4.085   3.213
 2277SOL    HW1 7730   3.228   4.066   3.273
 2277SOL    HW2 7731   3.391   4.077   3.265
 2278SOL     OW 7732   0.807   2.025   3.928
 2278SOL    HW1 7733   0.771   1.978   3.847
 2278SOL    HW2 7734   0.906   2.037   3.918
 2279SOL     OW 7735   0.327   5.901   5.269
 2279SOL    HW1 7736   0.415   5.936   5.300
 2279SOL    HW2 7737   0.293   5.833   5.334
 2280SOL     OW 7738   4.787   1.316   4.947
 2280SOL    HW1 7739   4.710   1.379   4.953
 2280SOL    HW2 7740   4.755   1.222   4.958
 2281SOL     OW 7741   5.068   6.555   2.740
 2281SOL    HW1 7742   5.061   6.511   2.650
 2281SOL    HW2 7743   5.132   6.632   2.735
 2282SOL     OW 7744   4.151   5.798   5.573
 2282SOL    HW1 7745   4.118   5.710   5.541
 2282SOL    HW2 7746   4.078   5.866   5.567
 2283SOL     OW 7747   1.073   0.596   3.657
 2283SOL    HW1 7748   1.096   0.512   3.608
 2283SOL    HW2 7749   1.130   0.671   3.623
 2284SOL     OW 7750   1.280   3.243   6.300
 2284SOL    HW1 7751   1.326   3.165   6.341
 2284SOL    HW2 7752   1.210   3.277   6.363
 2285SOL     OW 7753   1.547   3.944   6.890
 2285SOL    HW1 7754   1.620   3.928   6.823
 2285SOL    HW2 7755   1.485   4.014   6.856
 2286SOL     OW 7756   4.869   6.222   3.985
 2286SOL    HW1 7757   4.788   6.276   4.011
 2286SOL    HW2 7758   4.951   6.268   4.017
 2287SOL     OW 7759   1.723   1.194   3.333
 2287SOL    HW1 7760   1.661   1.135   3.281
 2287SOL    HW2 7761   1.727   1.284   3.290
 2288SOL     OW 7762   0.174   5.886   3.550
 2288SOL    HW1 7763   0.233   5.806   3.559
 2288SOL    HW2 7764   0.229   5.969   3.552
 2289SOL     OW 7765   0.886   6.065   2.014
 2289SOL    HW1 7766   0.793   6.044   2.043
 2289SOL    HW2 7767   0.919   5.994   1.952
 2290SOL     OW 7768   1.090   5.085   1.273
 2290SOL    HW1 7769   1.036   5.083   1.357
 2290SOL    HW2 7770   1.155   5.161   1.277
 2291SOL     OW 7771   3.130   1.615   5.659
 2291SOL    HW1 7772   3.163   1.576   5.745
 2291SOL    HW2 7773   3.132   1.545   5.588
 2292SOL     OW 7774   1.352   0.894   4.630
 2292SOL    HW1 7775   1.357   0.794   4.630
 2292SOL    HW2 7776   1.300   0.924   4.710
 2293SOL     OW 7777   5.247   5.420   2.059
 2293SOL    HW1 7778   5.183   5.405   2.134
 2293SOL    HW2 7779   5.220   5.502   2.008
 2294SOL     OW 7780   4.413   6.725   6.774
 2294SOL    HW1 7781   4.352   6.740   6.696
 2294SOL    HW2 7782   4.497   6.778   6.760
 2295SOL     OW 7783   0.540   2.323   1.181
 2295SOL    HW1 7784   0.472   2.249   1.182
 2295SOL    HW2 7785   0.585   2.324   1.091
 2296SOL     OW 7786   3.091   6.892   0.265
 2296SOL    HW1 7787   3.086   6.846   0.176
 2296SOL    HW2 7788   3.186   6.918   0.283
 2297SOL     OW 7789   3.905   4.934   5.613
 2297SOL    HW1 7790   3.909   4.977   5.523
 2297SOL    HW2 7791   3.825   4.873   5.618
 2298SOL     OW 7792   3.750   2.133   1.518
 2298SOL    HW1 7793   3.753   2.064   1.590
 2298SOL    HW2 7794   3.811   2.209   1.542
 2299SOL     OW 7795   5.152   6.242   6.865
 2299SOL    HW1 7796   5.160   6.147   6.833
 2299SOL    HW2 7797   5.099   6.244   6.950
 2300SOL     OW 7798   1.621   5.034   1.442
 2300SOL    HW1 7799   1.611   5.074   1.351
 2300SOL    HW2 7800   1.678   5.093   1.499
 2301SOL     OW 7801   4.021   3.334   2.810
 2301SOL    HW1 7802   3.923   3.355   2.809
 2301SOL    HW2 7803   4.035   3.239   2.781
 2302SOL     OW 7804   3.194   5.551   3.082
 2302SOL    HW1 7805   3.247   5.630   3.115
 2302SOL    HW2 7806   3.196   5.478   3.151
 2303SOL     OW 7807   1.029   3.106   4.653
 2303SOL    HW1 7808   1.071   3.044   4.719
 2303SOL    HW2 7809   0.986   3.182   4.701
 2304SOL     OW 7810   2.150   1.185   3.639
 2304SOL    HW1 7811   2.092   1.107   3.663
 2304SOL    HW2 7812   2.178   1.232   3.723
 2305SOL     OW 7813   3.628   5.534   2.330
 2305SOL    HW1 7814   3.553   5.583   2.284
 2305SOL    HW2 7815   3.695   5.600   2.364
 2306SOL     OW 7816   1.824   4.576   1.744
 2306SOL    HW1 7817   1.845   4.587   1.841
 2306SOL    HW2 7818   1.786   4.484   1.728
 2307SOL     OW 7819   0.643   2.050   3.033
 2307SOL    HW1 7820   0.642   2.071   3.130
 2307SOL    HW2 7821   0.737   2.057   2.998
 2308SOL     OW 7822   0.598   0.405   6.604
 2308SOL    HW1 7823   0.697   0.401   6.622
 2308SOL    HW2 7824   0.583   0.408   6.505
 2309SOL     OW 7825   3.476   5.446   6.624
 2309SOL    HW1 7826   3.470   5.351   6.654
 2309SOL    HW2 7827   3.571   5.473   6.615
 2310SOL     OW 7828   5.696   0.981   1.666
 2310SOL    HW1 7829   5.622   0.915   1.652
 2310SOL    HW2 7830   5.752   0.950   1.743
 2311SOL     OW 7831   2.487   0.384   2.765
 2311SOL    HW1 7832   2.431   0.467   2.758
 2311SOL    HW2 7833   2.540   0.387   2.850
 2312SOL     OW 7834   4.136   0.205   2.654
 2312SOL    HW1 7835   4.124   0.133   2.723
 2312SOL    HW2 7836   4.069   0.277   2.671
 2313SOL     OW 7837   4.696   4.208   2.204
 2313SOL    HW1 7838   4.625   4.161   2.153
 2313SOL    HW2 7839   4.663   4.297   2.234
 2314SOL     OW 7840   6.205   0.725   3.819
 2314SOL    HW1 7841   6.140   0.729   3.894
 2314SOL    HW2 7842   6.206   0.813   3.771
 2315SOL     OW 7843   4.496   4.163   5.882
 2315SOL    HW1 7844   4.531   4.070   5.878
 2315SOL    HW2 7845   4.433   4.172   5.959
 2316SOL     OW 7846   2.880   1.342   5.939
 2316SOL    HW1 7847   2.890   1.321   5.841
 2316SOL    HW2 7848   2.964   1.384   5.973
 2317SOL     OW 7849   6.056   6.474   4.358
 2317SOL    HW1 7850   6.045   6.508   4.265
 2317SOL    HW2 7851   6.097   6.383   4.355
 2318SOL     OW 7852   2.139   4.106   4.610
 2318SOL    HW1 7853   2.169   4.117   4.705
 2318SOL    HW2 7854   2.177   4.179   4.554
 2319SOL     OW 7855   1.974   5.302   4.862
 2319SOL    HW1 7856   2.024   5.215   4.863
 2319SOL    HW2 7857   1.932   5.315   4.772
 2320SOL     OW 7858   1.104   3.356   5.676
 2320SOL    HW1 7859   1.110   3.455   5.664
 2320SOL    HW2 7860   1.179   3.312   5.625
 2321SOL     OW 7861   2.723   4.860   6.070
 2321SOL    HW1 7862   2.722   4.960   6.075
 2321SOL    HW2 7863   2.800   4.830   6.015
 2322SOL     OW 7864   2.108   3.640   2.385
 2322SOL    HW1 7865   2.110   3.656   2.286
 2322SOL    HW2 7866   2.064   3.553   2.404
 2323SOL     OW 7867   2.717   4.772   1.364
 2323SOL    HW1 7868   2.664   4.695   1.328
 2323SOL    HW2 7869   2.768   4.742   1.444
 2324SOL     OW 7870   0.369   5.485   2.441
 2324SOL    HW1 7871   0.353   5.561   2.503
 2324SOL    HW2 7872   0.467   5.480   2.419
 2325SOL     OW 7873   6.616   4.853   1.665
 2325SOL    HW1 7874   6.544   4.842   1.733
 2325SOL    HW2 7875   6.579   4.901   1.585
 2326SOL     OW 7876   1.274   6.737   0.094
 2326SOL    HW1 7877   1.266   6.793   0.012
 2326SOL    HW2 7878   1.332   6.657   0.075
 2327SOL     OW 7879   6.907   0.558   3.013
 2327SOL    HW1 7880   6.924   0.656   3.016
 2327SOL    HW2 7881   6.980   0.510   3.060
 2328SOL     OW 7882   1.494   2.029   2.134
 2328SOL    HW1 7883   1.505   2.123   2.165
 2328SOL    HW2 7884   1.470   2.029   2.037
 2329SOL     OW 7885   1.046   4.366   3.878
 2329SOL    HW1 7886   0.958   4.324   3.904
 2329SOL    HW2 7887   1.095   4.304   3.816
 2330SOL     OW 7888   6.637   2.967   0.440
 2330SOL    HW1 7889   6.651   3.060   0.407
 2330SOL    HW2 7890   6.714   2.940   0.497
 2331SOL     OW 7891   3.706   5.965   0.009
 2331SOL    HW1 7892   3.736   6.005   6.946
 2331SOL    HW2 7893   3.785   5.921   0.054
 2332SOL     OW 7894   6.289   0.119   5.989
 2332SOL    HW1 7895   6.346   0.051   5.942
 2332SOL    HW2 7896   6.300   0.109   6.088
 2333SOL     OW 7897   6.950   4.814   2.833
 2333SOL    HW1 7898   6.979   4.798   2.927
 2333SOL    HW2 7899   6.949   4.913   2.814
 2334SOL     OW 7900   1.968   1.268   6.412
 2334SOL    HW1 7901   2.015   1.191   6.454
 2334SOL    HW2 7902   1.948   1.337   6.481
 2335SOL     OW 7903   6.186   1.495   3.971
 2335SOL    HW1 7904   6.120   1.554   4.018
 2335SOL    HW2 7905   6.215   1.539   3.886
 2336SOL     OW 7906   2.397   1.617   3.950
 2336SOL    HW1 7907   2.435   1.546   4.009
 2336SOL    HW2 7908   2.456   1.629   3.870
 2337SOL     OW 7909   4.360   1.748   1.492
 2337SOL    HW1 7910   4.388   1.694   1.571
 2337SOL    HW2 7911   4.356   1.689   1.411
 2338SOL     OW 7912   0.828   3.619   4.142
 2338SOL    HW1 7913   0.911   3.672   4.124
 2338SOL    HW2 7914   0.784   3.596   4.056
 2339SOL     OW 7915   3.261   3.350   2.881
 2339SOL    HW1 7916   3.351   3.322   2.915
 2339SOL    HW2 7917   3.232   3.432   2.930
 2340SOL     OW 7918   0.517   5.172   6.732
 2340SOL    HW1 7919   0.525   5.081   6.691
 2340SOL    HW2 7920   0.421   5.201   6.729
 2341SOL     OW 7921   2.285   4.658   2.972
 2341SOL    HW1 7922   2.383   4.638   2.975
 2341SOL    HW2 7923   2.253   4.653   2.878
 2342SOL     OW 7924   2.781   6.659   4.213
 2342SOL    HW1 7925   2.775   6.607   4.128
 2342SOL    HW2 7926   2.689   6.670   4.251
 2343SOL     OW 7927   2.401   6.466   3.121
 2343SOL    HW1 7928   2.319   6.430   3.166
 2343SOL    HW2 7929   2.461   6.391   3.095
 2344SOL     OW 7930   7.015   5.279   0.918
 2344SOL    HW1 7931   0.044   5.201   0.885
 2344SOL    HW2 7932   6.924   5.277   0.877
 2345SOL     OW 7933   2.179   5.480   4.668
 2345SOL    HW1 7934   2.126   5.421   4.729
 2345SOL    HW2 7935   2.169   5.447   4.574
 2346SOL     OW 7936   4.174   3.309   5.958
 2346SOL    HW1 7937   4.138   3.239   6.020
 2346SOL    HW2 7938   4.272   3.297   5.948
 2347SOL     OW 7939   1.278   2.140   1.114
 2347SOL    HW1 7940   1.300   2.057   1.165
 2347SOL    HW2 7941   1.294   2.220   1.172
 2348SOL     OW 7942   1.804   6.227   3.643
 2348SOL    HW1 7943   1.773   6.140   3.605
 2348SOL    HW2 7944   1.900   6.218   3.671
 2349SOL     OW 7945   1.011   4.088   6.690
 2349SOL    HW1 7946   0.989   4.057   6.782
 2349SOL    HW2 7947   0.947   4.161   6.664
 2350SOL     OW 7948   5.868   3.452   5.771
 2350SOL    HW1 7949   5.905   3.462   5.679
 2350SOL    HW2 7950   5.850   3.542   5.810
 2351SOL     OW 7951   2.976   4.947   3.074
 2351SOL    HW1 7952   2.958   5.045   3.062
 2351SOL    HW2 7953   3.057   4.921   3.021
 2352SOL     OW 7954   6.513   2.986   3.720
 2352SOL    HW1 7955   6.555   3.025   3.802
 2352SOL    HW2 7956   6.575   2.997   3.642
 2353SOL     OW 7957   4.432   5.301   5.501
 2353SOL    HW1 7958   4.433   5.202   5.483
 2353SOL    HW2 7959   4.369   5.321   5.575
 2354SOL     OW 7960   2.588   2.404   4.540
 2354SOL    HW1 7961   2.616   2.356   4.624
 2354SOL    HW2 7962   2.654   2.386   4.467
 2355SOL     OW 7963   2.360   6.062   5.193
 2355SOL    HW1 7964   2.348   5.968   5.161
 2355SOL    HW2 7965   2.416   6.112   5.127
 2356SOL     OW 7966   0.966   3.293   6.959
 2356SOL    HW1 7967   1.051   3.258   6.921
 2356SOL    HW2 7968   0.952   3.387   6.929
 2357SOL     OW 7969   3.777   1.513   1.586
 2357SOL    HW1 7970   3.823   1.601   1.575
 2357SOL    HW2 7971   3.788   1.458   1.503
 2358SOL     OW 7972   2.667   4.693   5.824
 2358SOL    HW1 7973   2.613   4.645   5.894
 2358SOL    HW2 7974   2.618   4.775   5.795
 2359SOL     OW 7975   0.714   0.325   5.190
 2359SOL    HW1 7976   0.640   0.376   5.146
 2359SOL    HW2 7977   0.772   0.285   5.119
 2360SOL     OW 7978   6.722   3.769   0.841
 2360SOL    HW1 7979   6.813   3.799   0.811
 2360SOL    HW2 7980   6.663   3.758   0.761
 2361SOL     OW 7981   2.787   1.333   6.300
 2361SOL    HW1 7982   2.737   1.246   6.303
 2361SOL    HW2 7983   2.811   1.355   6.206
 2362SOL     OW 7984   3.129   5.132   3.762
 2362SOL    HW1 7985   3.114   5.041   3.802
 2362SOL    HW2 7986   3.045   5.186   3.768
 2363SOL     OW 7987   3.632   2.027   3.395
 2363SOL    HW1 7988   3.685   2.087   3.455
 2363SOL    HW2 7989   3.654   2.048   3.300
 2364SOL     OW 7990   1.127   2.734   2.184
 2364SOL    HW1 7991   1.194   2.791   2.231
 2364SOL    HW2 7992   1.138   2.744   2.085
 2365SOL     OW 7993   6.334   1.869   6.744
 2365SOL    HW1 7994   6.287   1.950   6.709
 2365SOL    HW2 7995   6.325   1.794   6.679
 2366SOL     OW 7996   3.440   4.933   0.811
 2366SOL    HW1 7997   3.501   4.885   0.748
 2366SOL    HW2 7998   3.494   4.982   0.879
 2367SOL     OW 7999   2.015   3.241   0.000
 2367SOL    HW1 8000   2.107   3.270   0.025
 2367SOL    HW2 8001   1.999   3.148   0.036
 2368SOL     OW 8002   5.682   0.173   3.970
 2368SOL    HW1 8003   5.643   0.169   4.062
 2368SOL    HW2 8004   5.781   0.170   3.976
 2369SOL     OW 8005   2.077   6.890   4.388
 2369SOL    HW1 8006   2.173   6.885   4.362
 2369SOL    HW2 8007   2.050   6.805   4.433
 2370SOL     OW 8008   5.705   2.865   6.723
 2370SOL    HW1 8009   5.803   2.876   6.704
 2370SOL    HW2 8010   5.681   2.916   6.805
 2371SOL     OW 8011   2.330   6.630   2.066
 2371SOL    HW1 8012   2.340   6.668   2.159
 2371SOL    HW2 8013   2.370   6.693   2.000
 2372SOL     OW 8014   0.112   2.493   2.216
 2372SOL    HW1 8015   0.122   2.497   2.117
 2372SOL    HW2 8016   0.159   2.411   2.251
 2373SOL     OW 8017   1.677   3.668   5.694
 2373SOL    HW1 8018   1.687   3.761   5.656
 2373SOL    HW2 8019   1.696   3.670   5.792
 2374SOL     OW 8020   6.596   2.017   5.025
 2374SOL    HW1 8021   6.546   1.973   4.951
 2374SOL    HW2 8022   6.583   1.965   5.109
 2375SOL     OW 8023   3.184   5.575   5.905
 2375SOL    HW1 8024   3.224   5.487   5.930
 2375SOL    HW2 8025   3.089   5.563   5.878
 2376SOL     OW 8026   5.813   3.716   3.964
 2376SOL    HW1 8027   5.775   3.751   4.050
 2376SOL    HW2 8028   5.752   3.737   3.889
 2377SOL     OW 8029   3.033   3.945   3.639
 2377SOL    HW1 8030   3.050   3.982   3.730
 2377SOL    HW2 8031   3.041   3.845   3.642
 2378SOL     OW 8032   4.892   2.023   7.011
 2378SOL    HW1 8033   4.947   2.056   6.934
 2378SOL    HW2 8034   4.865   2.101   0.044
 2379SOL     OW 8035   6.574   1.257   0.108
 2379SOL    HW1 8036   6.657   1.306   0.081
 2379SOL    HW2 8037   6.584   1.224   0.202
 2380SOL     OW 8038   7.017   2.738   0.386
 2380SOL    HW1 8039   6.947   2.725   0.315
 2380SOL    HW2 8040   0.037   2.651   0.405
 2381SOL     OW 8041   1.943   5.944   3.631
 2381SOL    HW1 8042   1.960   5.995   3.546
 2381SOL    HW2 8043   2.005   5.866   3.636
 2382SOL     OW 8044   1.881   3.309   4.514
 2382SOL    HW1 8045   1.842   3.242   4.451
 2382SOL    HW2 8046   1.954   3.360   4.468
 2383SOL     OW 8047   6.596   6.673   1.224
 2383SOL    HW1 8048   6.524   6.687   1.156
 2383SOL    HW2 8049   6.555   6.642   1.310
 2384SOL     OW 8050   4.808   1.923   2.219
 2384SOL    HW1 8051   4.873   1.867   2.271
 2384SOL    HW2 8052   4.825   2.020   2.237
 2385SOL     OW 8053   0.257   0.569   0.145
 2385SOL    HW1 8054   0.173   0.623   0.149
 2385SOL    HW2 8055   0.317   0.606   0.074
 2386SOL     OW 8056   5.063   5.931   4.569
 2386SOL    HW1 8057   5.068   5.979   4.657
 2386SOL    HW2 8058   5.136   5.963   4.509
 2387SOL     OW 8059   1.909   1.172   4.426
 2387SOL    HW1 8060   1.870   1.135   4.510
 2387SOL    HW2 8061   2.008   1.180   4.436
 2388SOL     OW 8062   6.669   3.022   3.934
 2388SOL    HW1 8063   6.647   3.106   3.985
 2388SOL    HW2 8064   6.636   2.943   3.986
 2389SOL     OW 8065   4.711   4.488   3.719
 2389SOL    HW1 8066   4.671   4.437   3.796
 2389SOL    HW2 8067   4.758   4.424   3.658
 2390SOL     OW 8068   4.100   3.584   2.801
 2390SOL    HW1 8069   4.055   3.495   2.810
 2390SOL    HW2 8070   4.199   3.572   2.810
 2391SOL     OW 8071   5.080   4.514   5.973
 2391SOL    HW1 8072   5.140   4.447   5.929
 2391SOL    HW2 8073   5.106   4.526   6.069
 2392SOL     OW 8074   2.450   6.965   6.529
 2392SOL    HW1 8075   2.433   7.019   6.612
 2392SOL    HW2 8076   2.517   6.894   6.549
 2393SOL     OW 8077   4.837   4.618   6.030
 2393SOL    HW1 8078   4.917   4.562   6.008
 2393SOL    HW2 8079   4.768   4.561   6.075
 2394SOL     OW 8080   6.804   3.990   4.932
 2394SOL    HW1 8081   6.754   3.905   4.913
 2394SOL    HW2 8082   6.821   4.038   4.846
 2395SOL     OW 8083   4.696   6.895   5.794
 2395SOL    HW1 8084   4.680   6.988   5.763
 2395SOL    HW2 8085   4.776   6.894   5.855
 2396SOL     OW 8086   3.829   5.254   0.758
 2396SOL    HW1 8087   3.868   5.205   0.680
 2396SOL    HW2 8088   3.730   5.259   0.748
 2397SOL     OW 8089   0.198   4.072   4.558
 2397SOL    HW1 8090   0.283   4.120   4.538
 2397SOL    HW2 8091   0.124   4.139   4.570
 2398SOL     OW 8092   5.345   4.182   0.088
 2398SOL    HW1 8093   5.282   4.144   0.156
 2398SOL    HW2 8094   5.317   4.151   7.021
 2399SOL     OW 8095   4.170   1.096   1.133
 2399SOL    HW1 8096   4.232   1.049   1.071
 2399SOL    HW2 8097   4.186   1.195   1.128
 2400SOL     OW 8098   2.275   4.157   0.800
 2400SOL    HW1 8099   2.189   4.143   0.850
 2400SOL    HW2 8100   2.345   4.191   0.863
 2401SOL     OW 8101   5.811   5.645   6.667
 2401SOL    HW1 8102   5.799   5.740   6.698
 2401SOL    HW2 8103   5.735   5.621   6.606
 2402SOL     OW 8104   0.718   0.123   4.349
 2402SOL    HW1 8105   0.627   0.152   4.319
 2402SOL    HW2 8106   0.757   0.061   4.281
 2403SOL     OW 8107   0.782   2.485   5.688
 2403SOL    HW1 8108   0.722   2.555   5.725
 2403SOL    HW2 8109   0.864   2.477   5.745
 2404SOL     OW 8110   2.140   1.205   1.266
 2404SOL    HW1 8111   2.210   1.183   1.334
 2404SOL    HW2 8112   2.169   1.285   1.213
 2405SOL     OW 8113   3.175   4.038   2.519
 2405SOL    HW1 8114   3.109   4.019   2.446
 2405SOL    HW2 8115   3.265   4.053   2.479
 2406SOL     OW 8116   3.774   1.345   1.369
 2406SOL    HW1 8117   3.826   1.263   1.348
 2406SOL    HW2 8118   3.692   1.319   1.421
 2407SOL     OW 8119   5.748   2.091   3.795
 2407SOL    HW1 8120   5.801   2.108   3.713
 2407SOL    HW2 8121   5.716   2.177   3.834
 2408SOL     OW 8122   4.500   4.511   2.150
 2408SOL    HW1 8123   4.538   4.521   2.241
 2408SOL    HW2 8124   4.555   4.445   2.098
 2409SOL     OW 8125   2.449   3.804   1.536
 2409SOL    HW1 8126   2.421   3.843   1.449
 2409SOL    HW2 8127   2.547   3.820   1.550
 2410SOL     OW 8128   3.949   3.539   4.334
 2410SOL    HW1 8129   4.036   3.554   4.289
 2410SOL    HW2 8130   3.898   3.467   4.287
 2411SOL     OW 8131   5.392   6.707   4.881
 2411SOL    HW1 8132   5.393   6.625   4.939
 2411SOL    HW2 8133   5.436   6.782   4.930
 2412SOL     OW 8134   5.752   3.884   1.517
 2412SOL    HW1 8135   5.751   3.966   1.573
 2412SOL    HW2 8136   5.700   3.900   1.433
 2413SOL     OW 8137   5.559   0.250   1.576
 2413SOL    HW1 8138   5.475   0.272   1.525
 2413SOL    HW2 8139   5.636   0.298   1.534
 2414SOL     OW 8140   4.907   3.908   3.529
 2414SOL    HW1 8141   4.999   3.942   3.548
 2414SOL    HW2 8142   4.841   3.983   3.536
 2415SOL     OW 8143   5.901   1.362   2.550
 2415SOL    HW1 8144   5.989   1.410   2.558
 2415SOL    HW2 8145   5.896   1.290   2.619
 2416SOL     OW 8146   5.412   1.803   5.885
 2416SOL    HW1 8147   5.491   1.806   5.824
 2416SOL    HW2 8148   5.425   1.866   5.961
 2417SOL     OW 8149   2.999   3.164   4.925
 2417SOL    HW1 8150   2.970   3.250   4.884
 2417SOL    HW2 8151   2.919   3.113   4.956
 2418SOL     OW 8152   3.549   3.163   4.264
 2418SOL    HW1 8153   3.465   3.214   4.248
 2418SOL    HW2 8154   3.538   3.103   4.343
 2419SOL     OW 8155   0.615   6.513   2.974
 2419SOL    HW1 8156   0.528   6.487   3.015
 2419SOL    HW2 8157   0.680   6.536   3.047
 2420SOL     OW 8158   2.907   0.276   1.751
 2420SOL    HW1 8159   2.848   0.319   1.683
 2420SOL    HW2 8160   2.856   0.207   1.802
 2421SOL     OW 8161   1.535   2.874   4.729
 2421SOL    HW1 8162   1.586   2.927   4.797
 2421SOL    HW2 8163   1.474   2.935   4.678
 2422SOL     OW 8164   4.996   2.095   1.015
 2422SOL    HW1 8165   5.043   2.183   1.013
 2422SOL    HW2 8166   5.054   2.027   1.060
 2423SOL     OW 8167   2.700   6.200   2.361
 2423SOL    HW1 8168   2.749   6.126   2.408
 2423SOL    HW2 8169   2.670   6.268   2.429
 2424SOL     OW 8170   5.578   1.508   0.353
 2424SOL    HW1 8171   5.484   1.531   0.325
 2424SOL    HW2 8172   5.632   1.487   0.272
 2425SOL     OW 8173   6.370   0.484   4.078
 2425SOL    HW1 8174   6.414   0.571   4.103
 2425SOL    HW2 8175   6.397   0.414   4.143
 2426SOL     OW 8176   2.549   5.028   4.679
 2426SOL    HW1 8177   2.642   5.064   4.685
 2426SOL    HW2 8178   2.550   4.929   4.693
 2427SOL     OW 8179   5.946   6.473   4.970
 2427SOL    HW1 8180   5.952   6.421   5.055
 2427SOL    HW2 8181   5.874   6.542   4.979
 2428SOL     OW 8182   0.401   0.705   1.491
 2428SOL    HW1 8183   0.396   0.654   1.577
 2428SOL    HW2 8184   0.496   0.730   1.473
 2429SOL     OW 8185   5.382   5.604   1.133
 2429SOL    HW1 8186   5.439   5.544   1.188
 2429SOL    HW2 8187   5.324   5.548   1.073
 2430SOL     OW 8188   5.770   0.723   2.339
 2430SOL    HW1 8189   5.695   0.710   2.404
 2430SOL    HW2 8190   5.733   0.729   2.246
 2431SOL     OW 8191   3.945   0.579   2.167
 2431SOL    HW1 8192   3.853   0.540   2.155
 2431SOL    HW2 8193   3.938   0.679   2.167
 2432SOL     OW 8194   4.389   6.334   2.105
 2432SOL    HW1 8195   4.342   6.306   2.021
 2432SOL    HW2 8196   4.373   6.265   2.176
 2433SOL     OW 8197   4.207   0.395   6.884
 2433SOL    HW1 8198   4.298   0.419   6.915
 2433SOL    HW2 8199   4.143   0.399   6.961
 2434SOL     OW 8200   3.900   1.379   6.057
 2434SOL    HW1 8201   3.900   1.280   6.048
 2434SOL    HW2 8202   3.981   1.417   6.012
 2435SOL     OW 8203   6.323   5.661   5.092
 2435SOL    HW1 8204   6.271   5.742   5.120
 2435SOL    HW2 8205   6.261   5.582   5.091
 2436SOL     OW 8206   2.620   5.767   0.355
 2436SOL    HW1 8207   2.632   5.669   0.371
 2436SOL    HW2 8208   2.692   5.818   0.402
 2437SOL     OW 8209   0.241   6.346   5.821
 2437SOL    HW1 8210   0.160   6.294   5.794
 2437SOL    HW2 8211   0.216   6.413   5.890
 2438SOL     OW 8212   3.144   2.570   0.672
 2438SOL    HW1 8213   3.058   2.520   0.660
 2438SOL    HW2 8214   3.127   2.668   0.664
 2439SOL     OW 8215   5.890   4.182   5.481
 2439SOL    HW1 8216   5.861   4.113   5.413
 2439SOL    HW2 8217   5.968   4.232   5.445
 2440SOL     OW 8218   5.708   5.417   5.941
 2440SOL    HW1 8219   5.756   5.332   5.960
 2440SOL    HW2 8220   5.624   5.397   5.890
 2441SOL     OW 8221   5.855   2.418   0.669
 2441SOL    HW1 8222   5.835   2.378   0.579
 2441SOL    HW2 8223   5.898   2.349   0.727
 2442SOL     OW 8224   0.751   3.718   4.785
 2442SOL    HW1 8225   0.808   3.696   4.706
 2442SOL    HW2 8226   0.725   3.634   4.832
 2443SOL     OW 8227   2.719   4.312   6.235
 2443SOL    HW1 8228   2.723   4.302   6.335
 2443SOL    HW2 8229   2.650   4.251   6.198
 2444SOL     OW 8230   2.501   3.556   5.961
 2444SOL    HW1 8231   2.539   3.465   5.944
 2444SOL    HW2 8232   2.480   3.600   5.874
 2445SOL     OW 8233   0.431   0.766   1.126
 2445SOL    HW1 8234   0.375   0.771   1.043
 2445SOL    HW2 8235   0.373   0.761   1.206
 2446SOL     OW 8236   6.194   4.702   5.209
 2446SOL    HW1 8237   6.171   4.742   5.120
 2446SOL    HW2 8238   6.284   4.735   5.238
 2447SOL     OW 8239   0.708   1.411   6.961
 2447SOL    HW1 8240   0.749   1.454   0.017
 2447SOL    HW2 8241   0.675   1.481   6.899
 2448SOL     OW 8242   1.265   0.358   4.535
 2448SOL    HW1 8243   1.290   0.280   4.479
 2448SOL    HW2 8244   1.184   0.403   4.496
 2449SOL     OW 8245   0.356   3.859   5.575
 2449SOL    HW1 8246   0.449   3.851   5.613
 2449SOL    HW2 8247   0.348   3.803   5.493
 2450SOL     OW 8248   2.078   3.793   3.025
 2450SOL    HW1 8249   2.121   3.723   2.968
 2450SOL    HW2 8250   2.064   3.756   3.117
 2451SOL     OW 8251   1.960   6.021   4.044
 2451SOL    HW1 8252   2.044   5.995   3.995
 2451SOL    HW2 8253   1.981   6.093   4.110
 2452SOL     OW 8254   0.804   2.214   4.146
 2452SOL    HW1 8255   0.823   2.166   4.060
 2452SOL    HW2 8256   0.849   2.303   4.146
 2453SOL     OW 8257   0.043   3.898   1.521
 2453SOL    HW1 8258   0.082   3.823   1.573
 2453SOL    HW2 8259   0.010   3.863   1.433
 2454SOL     OW 8260   2.731   0.720   2.430
 2454SOL    HW1 8261   2.726   0.782   2.352
 2454SOL    HW2 8262   2.745   0.773   2.514
 2455SOL     OW 8263   5.871   5.994   0.340
 2455SOL    HW1 8264   5.809   5.936   0.287
 2455SOL    HW2 8265   5.965   5.975   0.313
 2456SOL     OW 8266   4.567   6.771   1.316
 2456SOL    HW1 8267   4.564   6.863   1.356
 2456SOL    HW2 8268   4.540   6.704   1.384
 2457SOL     OW 8269   5.419   6.258   1.562
 2457SOL    HW1 8270   5.369   6.307   1.633
 2457SOL    HW2 8271   5.398   6.299   1.473
 2458SOL     OW 8272   0.539   5.430   3.772
 2458SOL    HW1 8273   0.597   5.497   3.726
 2458SOL    HW2 8274   0.470   5.397   3.709
 2459SOL     OW 8275   2.156   0.512   0.755
 2459SOL    HW1 8276   2.221   0.453   0.802
 2459SOL    HW2 8277   2.203   0.593   0.721
 2460SOL     OW 8278   3.131   5.621   1.590
 2460SOL    HW1 8279   3.223   5.620   1.628
 2460SOL    HW2 8280   3.123   5.695   1.523
 2461SOL     OW 8281   5.456   1.039   2.654
 2461SOL    HW1 8282   5.366   1.082   2.651
 2461SOL    HW2 8283   5.492   1.032   2.561
 2462SOL     OW 8284   2.105   4.797   6.228
 2462SOL    HW1 8285   2.076   4.794   6.132
 2462SOL    HW2 8286   2.165   4.719   6.248
 2463SOL     OW 8287   6.793   1.718   4.004
 2463SOL    HW1 8288   6.699   1.750   4.007
 2463SOL    HW2 8289   6.805   1.642   4.068
 2464SOL     OW 8290   1.569   3.052   1.054
 2464SOL    HW1 8291   1.484   3.056   1.108
 2464SOL    HW2 8292   1.547   3.033   0.959
 2465SOL     OW 8293   6.243   5.579   3.422
 2465SOL    HW1 8294   6.249   5.670   3.464
 2465SOL    HW2 8295   6.333   5.535   3.425
 2466SOL     OW 8296   3.449   1.456   2.439
 2466SOL    HW1 8297   3.497   1.485   2.522
 2466SOL    HW2 8298   3.488   1.504   2.360
 2467SOL     OW 8299   6.830   1.344   5.811
 2467SOL    HW1 8300   6.851   1.264   5.754
 2467SOL    HW2 8301   6.739   1.334   5.850
 2468SOL     OW 8302   0.473   4.376   0.637
 2468SOL    HW1 8303   0.401   4.344   0.576
 2468SOL    HW2 8304   0.537   4.301   0.655
 2469SOL     OW 8305   2.845   3.048   5.755
 2469SOL    HW1 8306   2.893   3.120   5.706
 2469SOL    HW2 8307   2.748   3.070   5.761
 2470SOL     OW 8308   5.499   2.946   0.132
 2470SOL    HW1 8309   5.407   2.928   0.167
 2470SOL    HW2 8310   5.567   2.902   0.191
 2471SOL     OW 8311   1.109   0.380   3.460
 2471SOL    HW1 8312   1.135   0.293   3.419
 2471SOL    HW2 8313   1.047   0.429   3.399
 2472SOL     OW 8314   6.118   1.406   3.154
 2472SOL    HW1 8315   6.031   1.387   3.200
 2472SOL    HW2 8316   6.182   1.331   3.171
 2473SOL     OW 8317   0.705   6.752   4.890
 2473SOL    HW1 8318   0.707   6.775   4.988
 2473SOL    HW2 8319   0.612   6.764   4.856
 2474SOL     OW 8320   5.513   5.392   4.726
 2474SOL    HW1 8321   5.467   5.338   4.796
 2474SOL    HW2 8322   5.444   5.436   4.668
 2475SOL     OW 8323   4.144   2.519   0.054
 2475SOL    HW1 8324   4.089   2.448   0.098
 2475SOL    HW2 8325   4.086   2.599   0.035
 2476SOL     OW 8326   0.046   2.192   4.184
 2476SOL    HW1 8327   0.136   2.153   4.202
 2476SOL    HW2 8328   7.021   2.205   4.271
 2477SOL     OW 8329   4.359   4.876   1.417
 2477SOL    HW1 8330   4.427   4.806   1.437
 2477SOL    HW2 8331   4.270   4.847   1.452
 2478SOL     OW 8332   6.473   6.834   3.393
 2478SOL    HW1 8333   6.534   6.861   3.468
 2478SOL    HW2 8334   6.384   6.807   3.431
 2479SOL     OW 8335   0.527   3.545   0.192
 2479SOL    HW1 8336   0.611   3.491   0.192
 2479SOL    HW2 8337   0.528   3.607   0.271
 2480SOL     OW 8338   0.862   3.786   1.652
 2480SOL    HW1 8339   0.811   3.719   1.706
 2480SOL    HW2 8340   0.854   3.876   1.694
 2481SOL     OW 8341   4.324   5.298   2.521
 2481SOL    HW1 8342   4.225   5.297   2.535
 2481SOL    HW2 8343   4.347   5.245   2.440
 2482SOL     OW 8344   4.575   2.456   4.130
 2482SOL    HW1 8345   4.537   2.395   4.061
 2482SOL    HW2 8346   4.624   2.402   4.199
 2483SOL     OW 8347   0.772   1.664   6.385
 2483SOL    HW1 8348   0.858   1.611   6.381
 2483SOL    HW2 8349   0.700   1.606   6.422
 2484SOL     OW 8350   3.176   2.298   6.213
 2484SOL    HW1 8351   3.222   2.284   6.126
 2484SOL    HW2 8352   3.119   2.218   6.234
 2485SOL     OW 8353   0.450   6.068   2.207
 2485SOL    HW1 8354   0.412   6.030   2.122
 2485SOL    HW2 8355   0.458   6.167   2.198
 2486SOL     OW 8356   0.767   4.843   3.331
 2486SOL    HW1 8357   0.794   4.898   3.409
 2486SOL    HW2 8358   0.733   4.754   3.363
 2487SOL     OW 8359   3.138   0.841   1.026
 2487SOL    HW1 8360   3.096   0.913   1.081
 2487SOL    HW2 8361   3.187   0.778   1.087
 2488SOL     OW 8362   3.572   6.336   6.449
 2488SOL    HW1 8363   3.653   6.287   6.419
 2488SOL    HW2 8364   3.595   6.393   6.528
 2489SOL     OW 8365   0.199   5.769   4.107
 2489SOL    HW1 8366   0.157   5.699   4.165
 2489SOL    HW2 8367   0.248   5.835   4.164
 2490SOL     OW 8368   5.179   3.582   1.651
 2490SOL    HW1 8369   5.195   3.672   1.611
 2490SOL    HW2 8370   5.113   3.532   1.596
 2491SOL     OW 8371   0.826   4.533   2.942
 2491SOL    HW1 8372   0.769   4.498   2.868
 2491SOL    HW2 8373   0.773   4.596   2.998
 2492SOL     OW 8374   4.552   2.643   5.868
 2492SOL    HW1 8375   4.511   2.726   5.907
 2492SOL    HW2 8376   4.509   2.624   5.780
 2493SOL     OW 8377   6.299   1.732   4.152
 2493SOL    HW1 8378   6.288   1.662   4.222
 2493SOL    HW2 8379   6.365   1.702   4.084
 2494SOL     OW 8380   4.826   3.950   1.411
 2494SOL    HW1 8381   4.922   3.951   1.382
 2494SOL    HW2 8382   4.821   3.940   1.510
 2495SOL     OW 8383   6.028   1.273   3.940
 2495SOL    HW1 8384   5.936   1.312   3.928
 2495SOL    HW2 8385   6.093   1.346   3.961
 2496SOL     OW 8386   1.188   6.056   6.704
 2496SOL    HW1 8387   1.144   6.030   6.790
 2496SOL    HW2 8388   1.279   6.091   6.722
 2497SOL     OW 8389   5.472   1.962   6.080
 2497SOL    HW1 8390   5.566   1.991   6.063
 2497SOL    HW2 8391   5.464   1.930   6.174
 2498SOL     OW 8392   1.113   3.832   4.844
 2498SOL    HW1 8393   1.205   3.821   4.806
 2498SOL    HW2 8394   1.075   3.742   4.866
 2499SOL     OW 8395   6.170   0.352   6.088
 2499SOL    HW1 8396   6.248   0.414   6.078
 2499SOL    HW2 8397   6.193   0.264   6.046
 2500SOL     OW 8398   4.613   3.362   6.260
 2500SOL    HW1 8399   4.607   3.423   6.181
 2500SOL    HW2 8400   4.702   3.375   6.305
 2501SOL     OW 8401   6.353   4.767   0.613
 2501SOL    HW1 8402   6.384   4.684   0.661
 2501SOL    HW2 8403   6.304   4.741   0.530
 2502SOL     OW 8404   2.061   6.654   3.120
 2502SOL    HW1 8405   2.001   6.733   3.129
 2502SOL    HW2 8406   2.110   6.640   3.206
 2503SOL     OW 8407   4.908   6.445   4.737
 2503SOL    HW1 8408   4.986   6.479   4.791
 2503SOL    HW2 8409   4.825   6.492   4.765
 2504SOL     OW 8410   1.805   4.149   3.163
 2504SOL    HW1 8411   1.720   4.128   3.210
 2504SOL    HW2 8412   1.871   4.075   3.177
 2505SOL     OW 8413   4.479   4.807   3.818
 2505SOL    HW1 8414   4.397   4.754   3.839
 2505SOL    HW2 8415   4.552   4.784   3.883
 2506SOL     OW 8416   0.212   1.857   0.792
 2506SOL    HW1 8417   0.269   1.912   0.852
 2506SOL    HW2 8418   0.163   1.917   0.728
 2507SOL     OW 8419   6.370   5.803   1.134
 2507SOL    HW1 8420   6.306   5.842   1.068
 2507SOL    HW2 8421   6.434   5.874   1.164
 2508SOL     OW 8422   2.368   2.575   2.233
 2508SOL    HW1 8423   2.292   2.535   2.181
 2508SOL    HW2 8424   2.450   2.519   2.223
 2509SOL     OW 8425   5.180   1.748   3.313
 2509SOL    HW1 8426   5.192   1.802   3.396
 2509SOL    HW2 8427   5.255   1.682   3.305
 2510SOL     OW 8428   3.569   5.808   0.840
 2510SOL    HW1 8429   3.500   5.751   0.796
 2510SOL    HW2 8430   3.609   5.870   0.772
 2511SOL     OW 8431   0.831   6.693   4.346
 2511SOL    HW1 8432   0.807   6.790   4.340
 2511SOL    HW2 8433   0.891   6.678   4.425
 2512SOL     OW 8434   5.211   2.997   3.939
 2512SOL    HW1 8435   5.243   2.920   3.995
 2512SOL    HW2 8436   5.288   3.058   3.920
 2513SOL     OW 8437   0.367   4.952   1.626
 2513SOL    HW1 8438   0.453   4.907   1.599
 2513SOL    HW2 8439   0.387   5.045   1.657
 2514SOL     OW 8440   1.161   1.726   4.339
 2514SOL    HW1 8441   1.092   1.733   4.267
 2514SOL    HW2 8442   1.233   1.663   4.310
 2515SOL     OW 8443   0.932   4.773   0.186
 2515SOL    HW1 8444   0.918   4.688   0.136
 2515SOL    HW2 8445   0.865   4.841   0.156
 2516SOL     OW 8446   5.080   6.312   4.167
 2516SOL    HW1 8447   5.049   6.289   4.259
 2516SOL    HW2 8448   5.178   6.292   4.158
 2517SOL     OW 8449   2.689   4.859   0.768
 2517SOL    HW1 8450   2.675   4.884   0.864
 2517SOL    HW2 8451   2.752   4.925   0.726
 2518SOL     OW 8452   2.647   2.029   6.091
 2518SOL    HW1 8453   2.695   2.090   6.028
 2518SOL    HW2 8454   2.710   2.000   6.163
 2519SOL     OW 8455   5.083   4.237   4.784
 2519SOL    HW1 8456   5.062   4.139   4.780
 2519SOL    HW2 8457   5.043   4.283   4.704
 2520SOL     OW 8458   2.840   5.044   2.259
 2520SOL    HW1 8459   2.793   5.022   2.345
 2520SOL    HW2 8460   2.817   4.975   2.190
 2521SOL     OW 8461   6.036   7.005   6.001
 2521SOL    HW1 8462   5.991   0.048   5.941
 2521SOL    HW2 8463   6.134   7.022   6.001
 2522SOL     OW 8464   0.876   3.154   5.323
 2522SOL    HW1 8465   0.836   3.214   5.393
 2522SOL    HW2 8466   0.974   3.171   5.317
 2523SOL     OW 8467   6.564   2.756   6.580
 2523SOL    HW1 8468   6.625   2.832   6.606
 2523SOL    HW2 8469   6.585   2.676   6.637
 2524SOL     OW 8470   0.574   0.028   5.023
 2524SOL    HW1 8471   0.503   7.001   4.974
 2524SOL    HW2 8472   0.600   7.001   5.105
 2525SOL     OW 8473   1.668   4.297   2.976
 2525SOL    HW1 8474   1.708   4.382   3.010
 2525SOL    HW2 8475   1.719   4.219   3.012
 2526SOL     OW 8476   0.514   2.037   5.551
 2526SOL    HW1 8477   0.587   2.051   5.483
 2526SOL    HW2 8478   0.426   2.028   5.503
 2527SOL     OW 8479   5.705   6.998   3.746
 2527SOL    HW1 8480   5.618   6.957   3.717
 2527SOL    HW2 8481   5.704   7.010   3.846
 2528SOL     OW 8482   6.165   5.161   0.595
 2528SOL    HW1 8483   6.145   5.079   0.650
 2528SOL    HW2 8484   6.079   5.204   0.568
 2529SOL     OW 8485   5.446   3.837   5.129
 2529SOL    HW1 8486   5.374   3.904   5.108
 2529SOL    HW2 8487   5.443   3.763   5.062
 2530SOL     OW 8488   1.501   6.721   3.968
 2530SOL    HW1 8489   1.553   6.709   3.883
 2530SOL    HW2 8490   1.404   6.734   3.945
 2531SOL     OW 8491   5.027   1.233   0.711
 2531SOL    HW1 8492   5.050   1.310   0.652
 2531SOL    HW2 8493   4.928   1.232   0.727
 2532SOL     OW 8494   1.371   4.284   5.815
 2532SOL    HW1 8495   1.292   4.285   5.877
 2532SOL    HW2 8496   1.357   4.351   5.742
 2533SOL     OW 8497   5.757   6.703   5.311
 2533SOL    HW1 8498   5.852   6.683   5.287
 2533SOL    HW2 8499   5.726   6.639   5.381
 2534SOL     OW 8500   6.697   2.090   3.817
 2534SOL    HW1 8501   6.614   2.040   3.841
 2534SOL    HW2 8502   6.761   2.086   3.893
 2535SOL     OW 8503   1.863   0.934   3.046
 2535SOL    HW1 8504   1.811   0.977   2.971
 2535SOL    HW2 8505   1.828   0.842   3.062
 2536SOL     OW 8506   6.453   0.591   3.862
 2536SOL    HW1 8507   6.416   0.526   3.929
 2536SOL    HW2 8508   6.380   0.619   3.800
 2537SOL     OW 8509   4.346   5.229   1.503
 2537SOL    HW1 8510   4.414   5.301   1.489
 2537SOL    HW2 8511   4.284   5.227   1.424
 2538SOL     OW 8512   1.561   4.574   4.999
 2538SOL    HW1 8513   1.508   4.657   4.985
 2538SOL    HW2 8514   1.606   4.577   5.089
 2539SOL     OW 8515   2.680   0.740   6.033
 2539SOL    HW1 8516   2.766   0.694   6.013
 2539SOL    HW2 8517   2.696   0.816   6.096
 2540SOL     OW 8518   5.872   1.989   2.465
 2540SOL    HW1 8519   5.881   1.895   2.500
 2540SOL    HW2 8520   5.916   1.995   2.376
 2541SOL     OW 8521   0.179   6.985   5.836
 2541SOL    HW1 8522   0.231   6.969   5.920
 2541SOL    HW2 8523   0.218   0.038   5.786
 2542SOL     OW 8524   3.638   1.435   3.809
 2542SOL    HW1 8525   3.638   1.337   3.791
 2542SOL    HW2 8526   3.568   1.457   3.877
 2543SOL     OW 8527   0.246   2.277   4.781
 2543SOL    HW1 8528   0.175   2.268   4.851
 2543SOL    HW2 8529   0.229   2.358   4.726
 2544SOL     OW 8530   6.340   5.986   2.713
 2544SOL    HW1 8531   6.424   6.021   2.672
 2544SOL    HW2 8532   6.362   5.918   2.783
 2545SOL     OW 8533   6.484   1.705   0.270
 2545SOL    HW1 8534   6.499   1.617   0.317
 2545SOL    HW2 8535   6.392   1.706   0.231
 2546SOL     OW 8536   6.563   4.084   2.542
 2546SOL    HW1 8537   6.648   4.084   2.491
 2546SOL    HW2 8538   6.488   4.114   2.483
 2547SOL     OW 8539   5.592   3.694   1.062
 2547SOL    HW1 8540   5.690   3.680   1.074
 2547SOL    HW2 8541   5.541   3.639   1.128
 2548SOL     OW 8542   0.000   6.274   5.697
 2548SOL    HW1 8543   6.983   6.337   5.764
 2548SOL    HW2 8544   6.989   6.295   5.606
 2549SOL     OW 8545   3.089   3.153   0.275
 2549SOL    HW1 8546   3.159   3.212   0.234
 2549SOL    HW2 8547   3.087   3.166   0.374
 2550SOL     OW 8548   4.110   6.450   6.688
 2550SOL    HW1 8549   4.180   6.500   6.638
 2550SOL    HW2 8550   4.028   6.507   6.696
 2551SOL     OW 8551   3.825   4.917   0.910
 2551SOL    HW1 8552   3.857   5.004   0.946
 2551SOL    HW2 8553   3.827   4.919   0.810
 2552SOL     OW 8554   2.445   5.761   1.739
 2552SOL    HW1 8555   2.467   5.835   1.676
 2552SOL    HW2 8556   2.526   5.704   1.753
 2553SOL     OW 8557   4.149   1.239   0.063
 2553SOL    HW1 8558   4.095   1.162   0.031
 2553SOL    HW2 8559   4.090   1.320   0.070
 2554SOL     OW 8560   1.821   5.897   1.693
 2554SOL    HW1 8561   1.857   5.804   1.688
 2554SOL    HW2 8562   1.831   5.941   1.603
 2555SOL     OW 8563   5.830   6.974   4.504
 2555SOL    HW1 8564   5.807   0.028   4.563
 2555SOL    HW2 8565   5.770   6.897   4.525
 2556SOL     OW 8566   3.661   0.054   0.373
 2556SOL    HW1 8567   3.760   0.060   0.361
 2556SOL    HW2 8568   3.619   0.026   0.286
 2557SOL     OW 8569   2.991   0.923   0.111
 2557SOL    HW1 8570   2.955   0.836   0.144
 2557SOL    HW2 8571   3.054   0.907   0.035
 2558SOL     OW 8572   5.037   3.484   1.434
 2558SOL    HW1 8573   5.070   3.390   1.435
 2558SOL    HW2 8574   4.937   3.485   1.444
 2559SOL     OW 8575   0.798   4.263   4.013
 2559SOL    HW1 8576   0.714   4.303   4.050
 2559SOL    HW2 8577   0.876   4.297   4.065
 2560SOL     OW 8578   5.019   2.183   3.501
 2560SOL    HW1 8579   5.112   2.185   3.537
 2560SOL    HW2 8580   4.980   2.276   3.503
 2561SOL     OW 8581   3.754   0.131   4.421
 2561SOL    HW1 8582   3.677   0.156   4.363
 2561SOL    HW2 8583   3.825   0.089   4.365
 2562SOL     OW 8584   2.008   6.496   4.358
 2562SOL    HW1 8585   2.051   6.471   4.272
 2562SOL    HW2 8586   1.996   6.413   4.414
 2563SOL     OW 8587   3.625   2.615   6.260
 2563SOL    HW1 8588   3.559   2.661   6.320
 2563SOL    HW2 8589   3.694   2.680   6.230
 2564SOL     OW 8590   1.231   2.036   0.185
 2564SOL    HW1 8591   1.290   1.957   0.194
 2564SOL    HW2 8592   1.251   2.084   0.099
 2565SOL     OW 8593   1.063   1.584   0.440
 2565SOL    HW1 8594   1.152   1.602   0.398
 2565SOL    HW2 8595   1.046   1.652   0.512
 2566SOL     OW 8596   2.778   0.599   1.278
 2566SOL    HW1 8597   2.695   0.607   1.222
 2566SOL    HW2 8598   2.787   0.679   1.337
 2567SOL     OW 8599   2.151   1.190   0.172
 2567SOL    HW1 8600   2.052   1.199   0.183
 2567SOL    HW2 8601   2.179   1.099   0.202
 2568SOL     OW 8602   3.219   6.590   0.325
 2568SOL    HW1 8603   3.144   6.598   0.390
 2568SOL    HW2 8604   3.280   6.669   0.335
 2569SOL     OW 8605   1.990   0.352   0.907
 2569SOL    HW1 8606   2.032   0.334   0.996
 2569SOL    HW2 8607   2.046   0.416   0.855
 2570SOL     OW 8608   0.182   5.817   5.034
 2570SOL    HW1 8609   0.249   5.843   5.104
 2570SOL    HW2 8610   0.198   5.871   4.951
 2571SOL     OW 8611   3.235   3.654   4.301
 2571SOL    HW1 8612   3.328   3.690   4.302
 2571SOL    HW2 8613   3.208   3.631   4.207
 2572SOL     OW 8614   1.851   5.312   2.347
 2572SOL    HW1 8615   1.815   5.400   2.379
 2572SOL    HW2 8616   1.797   5.281   2.268
 2573SOL     OW 8617   0.034   1.835   4.244
 2573SOL    HW1 8618   0.016   1.894   4.165
 2573SOL    HW2 8619   7.021   1.744   4.227
 2574SOL     OW 8620   0.559   3.922   1.948
 2574SOL    HW1 8621   0.568   3.956   1.854
 2574SOL    HW2 8622   0.646   3.932   1.995
 2575SOL     OW 8623   5.651   3.183   6.626
 2575SOL    HW1 8624   5.636   3.201   6.529
 2575SOL    HW2 8625   5.629   3.265   6.679
 2576SOL     OW 8626   1.860   0.080   3.751
 2576SOL    HW1 8627   1.817   0.027   3.825
 2576SOL    HW2 8628   1.839   0.177   3.763
 2577SOL     OW 8629   2.330   6.018   1.811
 2577SOL    HW1 8630   2.293   5.985   1.724
 2577SOL    HW2 8631   2.260   6.011   1.882
 2578SOL     OW 8632   4.854   2.235   3.737
 2578SOL    HW1 8633   4.932   2.228   3.675
 2578SOL    HW2 8634   4.802   2.149   3.735
 2579SOL     OW 8635   6.580   1.455   6.037
 2579SOL    HW1 8636   6.666   1.480   6.081
 2579SOL    HW2 8637   6.568   1.508   5.953
 2580SOL     OW 8638   1.495   1.917   6.095
 2580SOL    HW1 8639   1.417   1.903   6.035
 2580SOL    HW2 8640   1.559   1.981   6.052
 2581SOL     OW 8641   6.475   0.040   4.446
 2581SOL    HW1 8642   6.385   0.045   4.488
 2581SOL    HW2 8643   6.515   0.131   4.442
 2582SOL     OW 8644   0.153   5.398   2.801
 2582SOL    HW1 8645   0.162   5.469   2.731
 2582SOL    HW2 8646   0.164   5.439   2.891
 2583SOL     OW 8647   1.974   1.063   6.932
 2583SOL    HW1 8648   1.986   1.160   6.953
 2583SOL    HW2 8649   2.063   1.020   6.920
 2584SOL     OW 8650   5.364   6.962   2.010
 2584SOL    HW1 8651   5.434   6.891   2.018
 2584SOL    HW2 8652   5.278   6.921   1.982
 2585SOL     OW 8653   4.497   0.966   1.525
 2585SOL    HW1 8654   4.409   0.979   1.479
 2585SOL    HW2 8655   4.484   0.908   1.606
 2586SOL     OW 8656   6.547   1.808   4.321
 2586SOL    HW1 8657   6.539   1.716   4.358
 2586SOL    HW2 8658   6.642   1.840   4.331
 2587SOL     OW 8659   6.527   6.683   2.459
 2587SOL    HW1 8660   6.517   6.780   2.433
 2587SOL    HW2 8661   6.464   6.628   2.404
 2588SOL     OW 8662   5.020   0.657   1.637
 2588SOL    HW1 8663   5.012   0.565   1.675
 2588SOL    HW2 8664   5.026   0.652   1.538
 2589SOL     OW 8665   5.770   6.212   0.469
 2589SOL    HW1 8666   5.809   6.138   0.414
 2589SOL    HW2 8667   5.844   6.270   0.503
 2590SOL     OW 8668   3.952   6.507   2.561
 2590SOL    HW1 8669   3.967   6.586   2.503
 2590SOL    HW2 8670   3.952   6.424   2.505
 2591SOL     OW 8671   5.548   0.421   1.791
 2591SOL    HW1 8672   5.564   0.346   1.726
 2591SOL    HW2 8673   5.465   0.402   1.844
 2592SOL     OW 8674   3.094   5.131   1.707
 2592SOL    HW1 8675   3.089   5.229   1.728
 2592SOL    HW2 8676   3.189   5.106   1.690
 2593SOL     OW 8677   3.376   6.524   2.684
 2593SOL    HW1 8678   3.458   6.559   2.640
 2593SOL    HW2 8679   3.295   6.552   2.633
 2594SOL     OW 8680   1.060   6.252   5.977
 2594SOL    HW1 8681   0.990   6.299   6.031
 2594SOL    HW2 8682   1.139   6.311   5.966
 2595SOL     OW 8683   6.170   3.306   3.926
 2595SOL    HW1 8684   6.114   3.384   3.954
 2595SOL    HW2 8685   6.114   3.223   3.925
 2596SOL     OW 8686   4.342   2.052   2.087
 2596SOL    HW1 8687   4.377   2.037   2.180
 2596SOL    HW2 8688   4.406   2.014   2.021
 2597SOL     OW 8689   1.941   2.737   6.805
 2597SOL    HW1 8690   1.878   2.693   6.869
 2597SOL    HW2 8691   1.893   2.808   6.754
 2598SOL     OW 8692   5.817   2.726   2.773
 2598SOL    HW1 8693   5.818   2.776   2.686
 2598SOL    HW2 8694   5.781   2.634   2.758
 2599SOL     OW 8695   4.825   4.089   6.841
 2599SOL    HW1 8696   4.863   4.080   6.749
 2599SOL    HW2 8697   4.745   4.030   6.850
 2600SOL     OW 8698   6.747   3.589   3.707
 2600SOL    HW1 8699   6.758   3.503   3.657
 2600SOL    HW2 8700   6.655   3.595   3.744
 2601SOL     OW 8701   3.567   3.317   5.739
 2601SOL    HW1 8702   3.503   3.253   5.781
 2601SOL    HW2 8703   3.660   3.280   5.745
 2602SOL     OW 8704   5.949   5.919   5.503
 2602SOL    HW1 8705   5.878   5.929   5.433
 2602SOL    HW2 8706   6.038   5.939   5.463
 2603SOL     OW 8707   2.438   2.973   0.145
 2603SOL    HW1 8708   2.525   2.983   0.098
 2603SOL    HW2 8709   2.374   3.043   0.114
 2604SOL     OW 8710   5.618   1.377   1.620
 2604SOL    HW1 8711   5.610   1.430   1.536
 2604SOL    HW2 8712   5.529   1.336   1.642
 2605SOL     OW 8713   4.991   4.288   3.552
 2605SOL    HW1 8714   4.991   4.350   3.474
 2605SOL    HW2 8715   4.928   4.212   3.535
 2606SOL     OW 8716   0.207   4.761   1.755
 2606SOL    HW1 8717   0.229   4.852   1.721
 2606SOL    HW2 8718   0.230   4.755   1.852
 2607SOL     OW 8719   0.828   2.073   4.921
 2607SOL    HW1 8720   0.805   2.166   4.949
 2607SOL    HW2 8721   0.819   2.065   4.822
 2608SOL     OW 8722   5.039   0.139   0.636
 2608SOL    HW1 8723   4.980   0.117   0.713
 2608SOL    HW2 8724   4.986   0.180   0.563
 2609SOL     OW 8725   0.181   2.464   4.540
 2609SOL    HW1 8726   0.156   2.371   4.513
 2609SOL    HW2 8727   0.099   2.522   4.538
 2610SOL     OW 8728   5.727   5.943   4.850
 2610SOL    HW1 8729   5.800   5.891   4.895
 2610SOL    HW2 8730   5.726   5.920   4.753
 2611SOL     OW 8731   3.225   6.213   1.662
 2611SOL    HW1 8732   3.214   6.288   1.598
 2611SOL    HW2 8733   3.321   6.202   1.687
 2612SOL     OW 8734   6.229   0.022   4.540
 2612SOL    HW1 8735   6.191   0.071   4.618
 2612SOL    HW2 8736   6.156   6.996   4.493
 2613SOL     OW 8737   4.050   0.939   0.890
 2613SOL    HW1 8738   4.148   0.954   0.903
 2613SOL    HW2 8739   4.006   1.026   0.869
 2614SOL     OW 8740   0.176   5.865   6.531
 2614SOL    HW1 8741   0.171   5.834   6.626
 2614SOL    HW2 8742   0.247   5.935   6.523
 2615SOL     OW 8743   5.538   5.183   1.891
 2615SOL    HW1 8744   5.590   5.119   1.947
 2615SOL    HW2 8745   5.441   5.177   1.915
 2616SOL     OW 8746   3.809   3.478   2.552
 2616SOL    HW1 8747   3.784   3.574   2.541
 2616SOL    HW2 8748   3.776   3.445   2.641
 2617SOL     OW 8749   3.700   0.042   1.539
 2617SOL    HW1 8750   3.699   0.080   1.632
 2617SOL    HW2 8751   3.663   6.973   1.540
 2618SOL     OW 8752   0.829   0.594   0.541
 2618SOL    HW1 8753   0.797   0.677   0.495
 2618SOL    HW2 8754   0.820   0.516   0.479
 2619SOL     OW 8755   5.324   1.449   1.345
 2619SOL    HW1 8756   5.310   1.456   1.246
 2619SOL    HW2 8757   5.419   1.469   1.366
 2620SOL     OW 8758   1.642   4.290   4.373
 2620SOL    HW1 8759   1.714   4.304   4.305
 2620SOL    HW2 8760   1.617   4.378   4.413
 2621SOL     OW 8761   1.256   4.553   4.094
 2621SOL    HW1 8762   1.317   4.490   4.143
 2621SOL    HW2 8763   1.220   4.508   4.013
 2622SOL     OW 8764   2.849   3.141   6.327
 2622SOL    HW1 8765   2.901   3.218   6.363
 2622SOL    HW2 8766   2.891   3.108   6.243
 2623SOL     OW 8767   3.425   1.028   5.837
 2623SOL    HW1 8768   3.385   1.028   5.745
 2623SOL    HW2 8769   3.374   1.091   5.895
 2624SOL     OW 8770   6.322   2.099   4.267
 2624SOL    HW1 8771   6.368   2.027   4.318
 2624SOL    HW2 8772   6.358   2.101   4.173
 2625SOL     OW 8773   4.648   0.479   5.171
 2625SOL    HW1 8774   4.700   0.563   5.181
 2625SOL    HW2 8775   4.681   0.411   5.236
 2626SOL     OW 8776   1.988   6.531   2.288
 2626SOL    HW1 8777   2.015   6.546   2.383
 2626SOL    HW2 8778   2.059   6.480   2.241
 2627SOL     OW 8779   7.004   0.164   4.838
 2627SOL    HW1 8780   6.990   0.220   4.757
 2627SOL    HW2 8781   6.916   0.124   4.867
 2628SOL     OW 8782   3.280   5.762   5.499
 2628SOL    HW1 8783   3.242   5.758   5.407
 2628SOL    HW2 8784   3.273   5.672   5.542
 2629SOL     OW 8785   3.379   4.339   1.336
 2629SOL    HW1 8786   3.461   4.345   1.392
 2629SOL    HW2 8787   3.321   4.265   1.370
 2630SOL     OW 8788   2.679   2.357   2.456
 2630SOL    HW1 8789   2.777   2.345   2.469
 2630SOL    HW2 8790   2.630   2.277   2.490
 2631SOL     OW 8791   4.677   6.867   4.361
 2631SOL    HW1 8792   4.711   6.824   4.445
 2631SOL    HW2 8793   4.595   6.819   4.331
 2632SOL     OW 8794   5.376   1.606   0.844
 2632SOL    HW1 8795   5.421   1.644   0.763
 2632SOL    HW2 8796   5.278   1.622   0.838
 2633SOL     OW 8797   6.367   2.493   6.757
 2633SOL    HW1 8798   6.379   2.419   6.823
 2633SOL    HW2 8799   6.295   2.469   6.693
 2634SOL     OW 8800   2.515   5.660   1.219
 2634SOL    HW1 8801   2.612   5.635   1.218
 2634SOL    HW2 8802   2.460   5.577   1.234
 2635SOL     OW 8803   5.396   4.741   3.590
 2635SOL    HW1 8804   5.335   4.683   3.644
 2635SOL    HW2 8805   5.378   4.837   3.612
 2636SOL     OW 8806   6.141   0.747   5.078
 2636SOL    HW1 8807   6.119   0.760   5.174
 2636SOL    HW2 8808   6.097   0.818   5.023
 2637SOL     OW 8809   4.699   6.573   2.385
 2637SOL    HW1 8810   4.676   6.627   2.467
 2637SOL    HW2 8811   4.685   6.629   2.304
 2638SOL     OW 8812   5.846   5.644   1.164
 2638SOL    HW1 8813   5.767   5.596   1.203
 2638SOL    HW2 8814   5.917   5.651   1.233
 2639SOL     OW 8815   6.657   6.423   0.242
 2639SOL    HW1 8816   6.699   6.509   0.214
 2639SOL    HW2 8817   6.721   6.371   0.298
 2640SOL     OW 8818   6.607   6.840   6.345
 2640SOL    HW1 8819   6.685   6.825   6.285
 2640SOL    HW2 8820   6.523   6.840   6.291
 2641SOL     OW 8821   5.914   5.024   0.508
 2641SOL    HW1 8822   5.891   5.087   0.582
 2641SOL    HW2 8823   5.965   4.947   0.545
 2642SOL     OW 8824   6.242   0.324   3.755
 2642SOL    HW1 8825   6.327   0.334   3.808
 2642SOL    HW2 8826   6.264   0.292   3.663
 2643SOL     OW 8827   0.953   0.635   2.735
 2643SOL    HW1 8828   0.942   0.565   2.806
 2643SOL    HW2 8829   1.017   0.602   2.666
 2644SOL     OW 8830   0.302   5.152   6.183
 2644SOL    HW1 8831   0.389   5.184   6.146
 2644SOL    HW2 8832   0.287   5.057   6.156
 2645SOL     OW 8833   5.775   5.273   5.667
 2645SOL    HW1 8834   5.757   5.191   5.613
 2645SOL    HW2 8835   5.689   5.307   5.705
 2646SOL     OW 8836   6.417   6.492   6.806
 2646SOL    HW1 8837   6.506   6.449   6.787
 2646SOL    HW2 8838   6.355   6.423   6.843
 2647SOL     OW 8839   3.593   2.198   0.879
 2647SOL    HW1 8840   3.622   2.247   0.797
 2647SOL    HW2 8841   3.499   2.223   0.902
 2648SOL     OW 8842   3.358   0.564   2.462
 2648SOL    HW1 8843   3.391   0.652   2.496
 2648SOL    HW2 8844   3.386   0.491   2.525
 2649SOL     OW 8845   3.777   2.429   5.651
 2649SOL    HW1 8846   3.680   2.450   5.661
 2649SOL    HW2 8847   3.804   2.361   5.718
 2650SOL     OW 8848   0.445   6.577   1.551
 2650SOL    HW1 8849   0.433   6.478   1.562
 2650SOL    HW2 8850   0.472   6.617   1.638
 2651SOL     OW 8851   0.691   0.332   3.571
 2651SOL    HW1 8852   0.594   0.350   3.552
 2651SOL    HW2 8853   0.739   0.314   3.485
 2652SOL     OW 8854   3.203   3.339   2.381
 2652SOL    HW1 8855   3.271   3.355   2.309
 2652SOL    HW2 8856   3.203   3.416   2.444
 2653SOL     OW 8857   6.432   6.043   6.451
 2653SOL    HW1 8858   6.344   6.048   6.498
 2653SOL    HW2 8859   6.463   6.136   6.429
 2654SOL     OW 8860   5.572   2.277   6.168
 2654SOL    HW1 8861   5.577   2.347   6.239
 2654SOL    HW2 8862   5.479   2.240   6.165
 2655SOL     OW 8863   5.122   5.964   4.897
 2655SOL    HW1 8864   5.207   5.953   4.846
 2655SOL    HW2 8865   5.075   6.048   4.868
 2656SOL     OW 8866   5.552   3.664   3.869
 2656SOL    HW1 8867   5.470   3.653   3.813
 2656SOL    HW2 8868   5.603   3.578   3.869
 2657SOL     OW 8869   2.136   2.595   5.784
 2657SOL    HW1 8870   2.216   2.586   5.843
 2657SOL    HW2 8871   2.135   2.685   5.741
 2658SOL     OW 8872   5.700   4.429   5.589
 2658SOL    HW1 8873   5.640   4.439   5.509
 2658SOL    HW2 8874   5.791   4.400   5.558
 2659SOL     OW 8875   6.683   2.694   3.433
 2659SOL    HW1 8876   6.697   2.625   3.362
 2659SOL    HW2 8877   6.714   2.659   3.521
 2660SOL     OW 8878   6.971   1.823   3.652
 2660SOL    HW1 8879   7.001   1.760   3.580
 2660SOL    HW2 8880   6.961   1.914   3.614
 2661SOL     OW 8881   4.463   6.134   1.070
 2661SOL    HW1 8882   4.484   6.203   1.000
 2661SOL    HW2 8883   4.374   6.154   1.111
 2662SOL     OW 8884   3.265   6.745   3.850
 2662SOL    HW1 8885   3.256   6.809   3.925
 2662SOL    HW2 8886   3.291   6.655   3.885
 2663SOL     OW 8887   0.705   4.429   2.404
 2663SOL    HW1 8888   0.634   4.499   2.410
 2663SOL    HW2 8889   0.667   4.341   2.430
 2664SOL     OW 8890   4.197   3.551   1.905
 2664SOL    HW1 8891   4.179   3.568   2.002
 2664SOL    HW2 8892   4.180   3.634   1.853
 2665SOL     OW 8893   4.000   1.300   4.690
 2665SOL    HW1 8894   3.954   1.331   4.607
 2665SOL    HW2 8895   3.939   1.308   4.768
 2666SOL     OW 8896   5.407   5.964   1.394
 2666SOL    HW1 8897   5.429   6.041   1.334
 2666SOL    HW2 8898   5.481   5.951   1.460
 2667SOL     OW 8899   1.519   4.980   3.934
 2667SOL    HW1 8900   1.538   5.043   3.858
 2667SOL    HW2 8901   1.438   4.926   3.912
 2668SOL     OW 8902   0.130   2.490   5.963
 2668SOL    HW1 8903   0.149   2.393   5.978
 2668SOL    HW2 8904   0.212   2.544   5.982
 2669SOL     OW 8905   4.295   4.836   5.492
 2669SOL    HW1 8906   4.353   4.916   5.508
 2669SOL    HW2 8907   4.224   4.859   5.426
 2670SOL     OW 8908   1.627   0.403   6.537
 2670SOL    HW1 8909   1.687   0.322   6.542
 2670SOL    HW2 8910   1.681   0.485   6.553
 2671SOL     OW 8911   2.917   3.694   5.715
 2671SOL    HW1 8912   3.009   3.678   5.750
 2671SOL    HW2 8913   2.910   3.657   5.623
 2672SOL     OW 8914   0.698   4.572   0.611
 2672SOL    HW1 8915   0.772   4.511   0.582
 2672SOL    HW2 8916   0.620   4.517   0.641
 2673SOL     OW 8917   4.669   2.173   3.250
 2673SOL    HW1 8918   4.573   2.181   3.275
 2673SOL    HW2 8919   4.690   2.236   3.175
 2674SOL     OW 8920   5.059   5.397   5.629
 2674SOL    HW1 8921   5.129   5.421   5.697
 2674SOL    HW2 8922   4.969   5.399   5.672
 2675SOL     OW 8923   0.615   3.886   5.641
 2675SOL    HW1 8924   0.646   3.871   5.736
 2675SOL    HW2 8925   0.612   3.984   5.623
 2676SOL     OW 8926   4.381   0.571   1.919
 2676SOL    HW1 8927   4.319   0.548   1.994
 2676SOL    HW2 8928   4.425   0.488   1.885
 2677SOL     OW 8929   2.237   5.228   2.634
 2677SOL    HW1 8930   2.187   5.267   2.557
 2677SOL    HW2 8931   2.233   5.128   2.629
 2678SOL     OW 8932   0.742   4.920   6.032
 2678SOL    HW1 8933   0.795   5.003   6.044
 2678SOL    HW2 8934   0.752   4.887   5.938
 2679SOL     OW 8935   2.505   4.352   1.131
 2679SOL    HW1 8936   2.594   4.324   1.168
 2679SOL    HW2 8937   2.472   4.432   1.181
 2680SOL     OW 8938   0.981   2.255   1.850
 2680SOL    HW1 8939   1.005   2.310   1.770
 2680SOL    HW2 8940   0.993   2.309   1.933
 2681SOL     OW 8941   1.344   1.881   2.629
 2681SOL    HW1 8942   1.418   1.818   2.655
 2681SOL    HW2 8943   1.339   1.888   2.530
 2682SOL     OW 8944   6.360   2.067   3.450
 2682SOL    HW1 8945   6.441   2.120   3.423
 2682SOL    HW2 8946   6.283   2.095   3.393
 2683SOL     OW 8947   1.160   0.163   1.594
 2683SOL    HW1 8948   1.188   0.071   1.623
 2683SOL    HW2 8949   1.237   0.226   1.605
 2684SOL     OW 8950   2.679   6.357   3.344
 2684SOL    HW1 8951   2.655   6.453   3.358
 2684SOL    HW2 8952   2.602   6.299   3.373
 2685SOL     OW 8953   5.466   5.699   4.906
 2685SOL    HW1 8954   5.409   5.618   4.919
 2685SOL    HW2 8955   5.498   5.732   4.995
 2686SOL     OW 8956   1.492   2.780   4.344
 2686SOL    HW1 8957   1.429   2.822   4.410
 2686SOL    HW2 8958   1.467   2.810   4.251
 2687SOL     OW 8959   4.776   5.594   3.143
 2687SOL    HW1 8960   4.721   5.673   3.171
 2687SOL    HW2 8961   4.763   5.577   3.045
 2688SOL     OW 8962   3.824   5.089   6.352
 2688SOL    HW1 8963   3.777   5.086   6.264
 2688SOL    HW2 8964   3.921   5.069   6.338
 2689SOL     OW 8965   6.650   3.298   4.372
 2689SOL    HW1 8966   6.590   3.222   4.399
 2689SOL    HW2 8967   6.658   3.301   4.273
 2690SOL     OW 8968   3.294   3.542   3.803
 2690SOL    HW1 8969   3.228   3.545   3.728
 2690SOL    HW2 8970   3.371   3.483   3.778
 2691SOL     OW 8971   1.063   5.892   1.880
 2691SOL    HW1 8972   1.129   5.955   1.838
 2691SOL    HW2 8973   1.106   5.803   1.894
 2692SOL     OW 8974   0.298   6.246   3.516
 2692SOL    HW1 8975   0.203   6.230   3.488
 2692SOL    HW2 8976   0.328   6.336   3.484
 2693SOL     OW 8977   1.611   4.017   3.002
 2693SOL    HW1 8978   1.689   3.989   2.946
 2693SOL    HW2 8979   1.577   4.105   2.970
 2694SOL     OW 8980   2.433   0.168   3.342
 2694SOL    HW1 8981   2.348   0.206   3.304
 2694SOL    HW2 8982   2.446   0.075   3.308
 2695SOL     OW 8983   3.917   1.749   2.883
 2695SOL    HW1 8984   3.863   1.820   2.928
 2695SOL    HW2 8985   4.013   1.775   2.884
 2696SOL     OW 8986   4.005   3.827   5.509
 2696SOL    HW1 8987   3.945   3.856   5.435
 2696SOL    HW2 8988   3.965   3.851   5.597
 2697SOL     OW 8989   2.700   2.034   4.557
 2697SOL    HW1 8990   2.730   2.122   4.593
 2697SOL    HW2 8991   2.613   2.045   4.509
 2698SOL     OW 8992   2.282   3.339   0.054
 2698SOL    HW1 8993   2.294   3.438   0.052
 2698SOL    HW2 8994   2.347   3.296   7.015
 2699SOL     OW 8995   3.753   5.609   1.673
 2699SOL    HW1 8996   3.846   5.575   1.658
 2699SOL    HW2 8997   3.753   5.708   1.663
 2700SOL     OW 8998   2.109   3.601   2.839
 2700SOL    HW1 8999   2.114   3.505   2.811
 2700SOL    HW2 9000   2.108   3.659   2.757
 2701SOL     OW 9001   3.326   6.923   6.220
 2701SOL    HW1 9002   3.398   6.931   6.150
 2701SOL    HW2 9003   3.250   6.984   6.196
 2702SOL     OW 9004   0.020   0.370   3.218
 2702SOL    HW1 9005   7.008   0.317   3.295
 2702SOL    HW2 9006   0.020   0.313   3.136
 2703SOL     OW 9007   2.270   1.319   2.488
 2703SOL    HW1 9008   2.229   1.317   2.397
 2703SOL    HW2 9009   2.198   1.319   2.558
 2704SOL     OW 9010   1.671   5.714   0.946
 2704SOL    HW1 9011   1.767   5.722   0.919
 2704SOL    HW2 9012   1.621   5.795   0.918
 2705SOL     OW 9013   0.165   4.934   3.156
 2705SOL    HW1 9014   0.206   4.936   3.248
 2705SOL    HW2 9015   0.233   4.963   3.089
 2706SOL     OW 9016   0.224   2.037   1.893
 2706SOL    HW1 9017   0.280   2.111   1.856
 2706SOL    HW2 9018   0.199   1.975   1.819
 2707SOL     OW 9019   2.360   1.294   5.773
 2707SOL    HW1 9020   2.445   1.325   5.729
 2707SOL    HW2 9021   2.383   1.227   5.844
 2708SOL     OW 9022   2.161   2.425   0.871
 2708SOL    HW1 9023   2.175   2.399   0.967
 2708SOL    HW2 9024   2.105   2.507   0.867
 2709SOL     OW 9025   4.783   6.305   0.818
 2709SOL    HW1 9026   4.842   6.237   0.773
 2709SOL    HW2 9027   4.834   6.389   0.833
 2710SOL     OW 9028   5.765   3.987   2.495
 2710SOL    HW1 9029   5.705   3.908   2.484
 2710SOL    HW2 9030   5.859   3.955   2.509
 2711SOL     OW 9031   1.300   0.173   2.086
 2711SOL    HW1 9032   1.256   0.098   2.037
 2711SOL    HW2 9033   1.237   0.251   2.091
 2712SOL     OW 9034   2.996   4.798   0.652
 2712SOL    HW1 9035   3.089   4.797   0.688
 2712SOL    HW2 9036   2.941   4.728   0.698
 2713SOL     OW 9037   2.178   3.174   5.060
 2713SOL    HW1 9038   2.232   3.091   5.051
 2713SOL    HW2 9039   2.158   3.212   4.970
 2714SOL     OW 9040   5.165   0.147   5.258
 2714SOL    HW1 9041   5.255   0.190   5.249
 2714SOL    HW2 9042   5.119   0.147   5.169
 2715SOL     OW 9043   6.813   0.910   6.689
 2715SOL    HW1 9044   6.853   0.821   6.671
 2715SOL    HW2 9045   6.863   0.955   6.763
 2716SOL     OW 9046   0.348   6.821   2.745
 2716SOL    HW1 9047   0.255   6.786   2.745
 2716SOL    HW2 9048   0.347   6.920   2.734
 2717SOL     OW 9049   0.995   0.577   3.087
 2717SOL    HW1 9050   0.915   0.575   3.028
 2717SOL    HW2 9051   1.077   0.593   3.032
 2718SOL     OW 9052   1.463   4.727   3.375
 2718SOL    HW1 9053   1.510   4.725   3.464
 2718SOL    HW2 9054   1.470   4.637   3.332
 2719SOL     OW 9055   4.060   5.195   1.498
 2719SOL    HW1 9056   4.063   5.282   1.449
 2719SOL    HW2 9057   3.977   5.191   1.554
 2720SOL     OW 9058   1.104   6.179   3.968
 2720SOL    HW1 9059   1.133   6.118   4.041
 2720SOL    HW2 9060   1.045   6.251   4.006
 2721SOL     OW 9061   4.228   0.217   4.188
 2721SOL    HW1 9062   4.298   0.288   4.184
 2721SOL    HW2 9063   4.268   0.132   4.222
 2722SOL     OW 9064   1.686   6.065   1.831
 2722SOL    HW1 9065   1.616   5.994   1.839
 2722SOL    HW2 9066   1.766   6.028   1.784
 2723SOL     OW 9067   1.290   1.323   5.320
 2723SOL    HW1 9068   1.303   1.276   5.408
 2723SOL    HW2 9069   1.357   1.289   5.254
 2724SOL     OW 9070   3.560   5.665   6.107
 2724SOL    HW1 9071   3.529   5.638   6.198
 2724SOL    HW2 9072   3.481   5.675   6.046
 2725SOL     OW 9073   2.961   4.800   3.304
 2725SOL    HW1 9074   3.047   4.772   3.348
 2725SOL    HW2 9075   2.982   4.850   3.221
 2726SOL     OW 9076   5.132   5.639   1.923
 2726SOL    HW1 9077   5.120   5.686   1.835
 2726SOL    HW2 9078   5.042   5.620   1.963
 2727SOL     OW 9079   2.182   5.680   3.364
 2727SOL    HW1 9080   2.097   5.662   3.414
 2727SOL    HW2 9081   2.228   5.593   3.344
 2728SOL     OW 9082   3.860   0.408   5.943
 2728SOL    HW1 9083   3.891   0.339   5.879
 2728SOL    HW2 9084   3.806   0.365   6.015
 2729SOL     OW 9085   5.967   5.265   2.678
 2729SOL    HW1 9086   5.973   5.190   2.612
 2729SOL    HW2 9087   5.871   5.277   2.705
 2730SOL     OW 9088   2.197   5.603   1.667
 2730SOL    HW1 9089   2.201   5.698   1.696
 2730SOL    HW2 9090   2.242   5.593   1.578
 2731SOL     OW 9091   3.023   3.648   1.478
 2731SOL    HW1 9092   3.020   3.570   1.541
 2731SOL    HW2 9093   3.065   3.726   1.525
 2732SOL     OW 9094   6.183   2.218   2.824
 2732SOL    HW1 9095   6.116   2.237   2.895
 2732SOL    HW2 9096   6.142   2.160   2.754
 2733SOL     OW 9097   1.368   0.321   5.600
 2733SOL    HW1 9098   1.390   0.252   5.668
 2733SOL    HW2 9099   1.365   0.279   5.509
 2734SOL     OW 9100   2.402   5.829   4.431
 2734SOL    HW1 9101   2.417   5.864   4.338
 2734SOL    HW2 9102   2.449   5.888   4.497
 2735SOL     OW 9103   1.494   4.447   2.202
 2735SOL    HW1 9104   1.459   4.369   2.253
 2735SOL    HW2 9105   1.503   4.422   2.106
 2736SOL     OW 9106   4.246   0.237   5.596
 2736SOL    HW1 9107   4.333   0.224   5.548
 2736SOL    HW2 9108   4.193   0.308   5.550
 2737SOL     OW 9109   4.452   3.288   5.876
 2737SOL    HW1 9110   4.482   3.370   5.828
 2737SOL    HW2 9111   4.527   3.252   5.931
 2738SOL     OW 9112   5.566   5.185   3.808
 2738SOL    HW1 9113   5.474   5.155   3.784
 2738SOL    HW2 9114   5.560   5.256   3.878
 2739SOL     OW 9115   6.161   3.116   1.281
 2739SOL    HW1 9116   6.151   3.076   1.190
 2739SOL    HW2 9117   6.230   3.188   1.279
 2740SOL     OW 9118   6.503   2.275   3.104
 2740SOL    HW1 9119   6.460   2.295   3.016
 2740SOL    HW2 9120   6.494   2.177   3.123
 2741SOL     OW 9121   0.477   2.394   6.030
 2741SOL    HW1 9122   0.494   2.297   6.018
 2741SOL    HW2 9123   0.444   2.433   5.944
 2742SOL     OW 9124   1.958   6.699   5.939
 2742SOL    HW1 9125   2.038   6.752   5.965
 2742SOL    HW2 9126   1.876   6.754   5.951
 2743SOL     OW 9127   5.060   4.558   0.630
 2743SOL    HW1 9128   5.070   4.588   0.535
 2743SOL    HW2 9129   5.054   4.459   0.634
 2744SOL     OW 9130   3.806   1.534   6.552
 2744SOL    HW1 9131   3.821   1.477   6.471
 2744SOL    HW2 9132   3.892   1.573   6.583
 2745SOL     OW 9133   2.253   6.023   0.605
 2745SOL    HW1 9134   2.180   5.979   0.658
 2745SOL    HW2 9135   2.215   6.099   0.553
 2746SOL     OW 9136   1.466   1.649   6.431
 2746SOL    HW1 9137   1.419   1.706   6.365
 2746SOL    HW2 9138   1.565   1.656   6.417
 2747SOL     OW 9139   4.868   5.851   4.026
 2747SOL    HW1 9140   4.888   5.932   4.081
 2747SOL    HW2 9141   4.942   5.836   3.961
 2748SOL     OW 9142   3.737   1.418   4.247
 2748SOL    HW1 9143   3.727   1.336   4.303
 2748SOL    HW2 9144   3.652   1.471   4.248
 2749SOL     OW 9145   4.885   5.349   4.176
 2749SOL    HW1 9146   4.789   5.326   4.194
 2749SOL    HW2 9147   4.919   5.293   4.101
 2750SOL     OW 9148   0.641   5.900   2.341
 2750SOL    HW1 9149   0.604   5.839   2.411
 2750SOL    HW2 9150   0.569   5.961   2.308
 2751SOL     OW 9151   1.080   6.673   6.632
 2751SOL    HW1 9152   1.064   6.618   6.714
 2751SOL    HW2 9153   1.042   6.765   6.646
 2752SOL     OW 9154   5.996   6.291   5.490
 2752SOL    HW1 9155   6.007   6.192   5.493
 2752SOL    HW2 9156   6.068   6.335   5.544
 2753SOL     OW 9157   2.727   5.480   5.606
 2753SOL    HW1 9158   2.665   5.552   5.637
 2753SOL    HW2 9159   2.675   5.396   5.588
 2754SOL     OW 9160   0.895   6.186   4.191
 2754SOL    HW1 9161   0.873   6.282   4.205
 2754SOL    HW2 9162   0.972   6.160   4.250
 2755SOL     OW 9163   3.942   5.932   2.494
 2755SOL    HW1 9164   3.963   6.029   2.508
 2755SOL    HW2 9165   3.973   5.880   2.574
 2756SOL     OW 9166   0.435   2.666   5.485
 2756SOL    HW1 9167   0.382   2.684   5.568
 2756SOL    HW2 9168   0.532   2.672   5.505
 2757SOL     OW 9169   4.054   3.437   6.614
 2757SOL    HW1 9170   4.022   3.512   6.671
 2757SOL    HW2 9171   4.147   3.412   6.639
 2758SOL     OW 9172   0.159   6.704   1.806
 2758SOL    HW1 9173   0.253   6.735   1.797
 2758SOL    HW2 9174   0.102   6.778   1.842
 2759SOL     OW 9175   3.442   3.978   5.996
 2759SOL    HW1 9176   3.347   4.007   6.004
 2759SOL    HW2 9177   3.446   3.881   5.971
 2760SOL     OW 9178   5.538   6.153   2.903
 2760SOL    HW1 9179   5.454   6.183   2.858
 2760SOL    HW2 9180   5.606   6.129   2.835
 2761SOL     OW 9181   1.017   2.308   3.610
 2761SOL    HW1 9182   1.069   2.359   3.679
 2761SOL    HW2 9183   0.919   2.320   3.627
 2762SOL     OW 9184   2.631   2.633   0.311
 2762SOL    HW1 9185   2.650   2.617   0.408
 2762SOL    HW2 9186   2.534   2.656   0.299
 2763SOL     OW 9187   6.545   1.796   4.037
 2763SOL    HW1 9188   6.515   1.875   3.984
 2763SOL    HW2 9189   6.538   1.817   4.135
 2764SOL     OW 9190   0.764   3.112   2.668
 2764SOL    HW1 9191   0.858   3.082   2.685
 2764SOL    HW2 9192   0.747   3.114   2.570
 2765SOL     OW 9193   6.188   6.684   6.537
 2765SOL    HW1 9194   6.139   6.728   6.613
 2765SOL    HW2 9195   6.280   6.722   6.531
 2766SOL     OW 9196   4.486   0.416   6.945
 2766SOL    HW1 9197   4.519   0.329   6.982
 2766SOL    HW2 9198   4.505   0.490   7.010
 2767SOL     OW 9199   0.149   5.244   6.584
 2767SOL    HW1 9200   0.089   5.322   6.567
 2767SOL    HW2 9201   0.169   5.237   6.681
 2768SOL     OW 9202   3.843   6.736   1.551
 2768SOL    HW1 9203   3.942   6.725   1.546
 2768SOL    HW2 9204   3.806   6.753   1.460
 2769SOL     OW 9205   0.674   4.519   5.682
 2769SOL    HW1 9206   0.719   4.476   5.604
 2769SOL    HW2 9207   0.589   4.563   5.652
 2770SOL     OW 9208   2.514   6.453   0.800
 2770SOL    HW1 9209   2.600   6.459   0.750
 2770SOL    HW2 9210   2.470   6.365   0.779
 2771SOL     OW 9211   4.551   6.858   4.899
 2771SOL    HW1 9212   4.550   6.789   4.971
 2771SOL    HW2 9213   4.645   6.871   4.866
 2772SOL     OW 9214   4.368   0.733   3.745
 2772SOL    HW1 9215   4.364   0.651   3.802
 2772SOL    HW2 9216   4.437   0.721   3.674
 2773SOL     OW 9217   5.595   2.948   5.097
 2773SOL    HW1 9218   5.584   2.872   5.034
 2773SOL    HW2 9219   5.684   2.942   5.142
 2774SOL     OW 9220   5.923   1.559   4.104
 2774SOL    HW1 9221   5.861   1.593   4.034
 2774SOL    HW2 9222   5.962   1.636   4.154
 2775SOL     OW 9223   0.274   3.564   4.043
 2775SOL    HW1 9224   0.355   3.601   4.088
 2775SOL    HW2 9225   0.287   3.569   3.944
 2776SOL     OW 9226   4.867   5.030   5.916
 2776SOL    HW1 9227   4.944   5.085   5.882
 2776SOL    HW2 9228   4.902   4.960   5.978
 2777SOL     OW 9229   2.798   2.353   6.112
 2777SOL    HW1 9230   2.755   2.332   6.200
 2777SOL    HW2 9231   2.885   2.400   6.127
 2778SOL     OW 9232   2.730   0.621   6.329
 2778SOL    HW1 9233   2.684   0.676   6.259
 2778SOL    HW2 9234   2.778   0.681   6.392
 2779SOL     OW 9235   4.769   0.989   1.084
 2779SOL    HW1 9236   4.730   1.060   1.142
 2779SOL    HW2 9237   4.850   0.950   1.129
 2780SOL     OW 9238   6.960   1.711   4.783
 2780SOL    HW1 9239   7.022   1.685   4.857
 2780SOL    HW2 9240   6.988   1.800   4.747
 2781SOL     OW 9241   5.432   1.528   3.089
 2781SOL    HW1 9242   5.500   1.461   3.060
 2781SOL    HW2 9243   5.389   1.569   3.007
 2782SOL     OW 9244   5.353   0.566   6.391
 2782SOL    HW1 9245   5.384   0.533   6.302
 2782SOL    HW2 9246   5.388   0.659   6.406
 2783SOL     OW 9247   6.151   3.597   1.805
 2783SOL    HW1 9248   6.192   3.517   1.849
 2783SOL    HW2 9249   6.182   3.603   1.710
 2784SOL     OW 9250   1.061   2.481   0.876
 2784SOL    HW1 9251   1.103   2.469   0.786
 2784SOL    HW2 9252   1.097   2.564   0.919
 2785SOL     OW 9253   6.316   2.988   2.435
 2785SOL    HW1 9254   6.321   3.034   2.346
 2785SOL    HW2 9255   6.315   2.889   2.422
 2786SOL     OW 9256   0.687   5.899   6.493
 2786SOL    HW1 9257   0.700   5.987   6.448
 2786SOL    HW2 9258   0.761   5.837   6.466
 2787SOL     OW 9259   6.919   5.589   0.012
 2787SOL    HW1 9260   6.974   5.505   0.021
 2787SOL    HW2 9261   6.880   5.593   6.944
 2788SOL     OW 9262   2.889   6.926   6.315
 2788SOL    HW1 9263   2.810   6.986   6.302
 2788SOL    HW2 9264   2.963   6.957   6.255
 2789SOL     OW 9265   1.145   1.847   5.106
 2789SOL    HW1 9266   1.058   1.858   5.155
 2789SOL    HW2 9267   1.129   1.802   5.019
 2790SOL     OW 9268   1.351   5.285   2.033
 2790SOL    HW1 9269   1.316   5.378   2.043
 2790SOL    HW2 9270   1.282   5.229   1.986
 2791SOL     OW 9271   0.778   3.313   3.234
 2791SOL    HW1 9272   0.819   3.222   3.224
 2791SOL    HW2 9273   0.739   3.322   3.325
 2792SOL     OW 9274   3.561   1.276   5.728
 2792SOL    HW1 9275   3.525   1.192   5.768
 2792SOL    HW2 9276   3.518   1.291   5.638
 2793SOL     OW 9277   3.804   3.960   0.846
 2793SOL    HW1 9278   3.736   3.892   0.819
 2793SOL    HW2 9279   3.890   3.941   0.799
 2794SOL     OW 9280   0.810   2.737   6.840
 2794SOL    HW1 9281   0.713   2.759   6.855
 2794SOL    HW2 9282   0.865   2.818   6.858
 2795SOL     OW 9283   1.050   6.161   1.613
 2795SOL    HW1 9284   1.073   6.257   1.629
 2795SOL    HW2 9285   0.952   6.148   1.623
 2796SOL     OW 9286   1.999   5.367   6.396
 2796SOL    HW1 9287   1.990   5.429   6.318
 2796SOL    HW2 9288   2.003   5.273   6.363
 2797SOL     OW 9289   5.036   5.031   3.538
 2797SOL    HW1 9290   4.994   4.969   3.471
 2797SOL    HW2 9291   4.972   5.105   3.559
 2798SOL     OW 9292   5.279   1.188   1.364
 2798SOL    HW1 9293   5.357   1.149   1.315
 2798SOL    HW2 9294   5.298   1.284   1.385
 2799SOL     OW 9295   3.618   6.361   4.419
 2799SOL    HW1 9296   3.573   6.287   4.369
 2799SOL    HW2 9297   3.712   6.334   4.441
 2800SOL     OW 9298   5.740   0.144   6.099
 2800SOL    HW1 9299   5.687   0.141   6.014
 2800SOL    HW2 9300   5.767   0.239   6.118
 2801SOL     OW 9301   6.931   4.463   4.445
 2801SOL    HW1 9302   6.935   4.423   4.354
 2801SOL    HW2 9303   6.836   4.482   4.469
 2802SOL     OW 9304   1.665   4.718   5.406
 2802SOL    HW1 9305   1.616   4.755   5.486
 2802SOL    HW2 9306   1.758   4.694   5.432
 2803SOL     OW 9307   4.005   2.188   6.054
 2803SOL    HW1 9308   4.094   2.206   6.095
 2803SOL    HW2 9309   3.963   2.108   6.098
 2804SOL     OW 9310   6.832   2.676   4.087
 2804SOL    HW1 9311   6.846   2.579   4.069
 2804SOL    HW2 9312   6.738   2.701   4.066
 2805SOL     OW 9313   3.550   2.930   0.832
 2805SOL    HW1 9314   3.479   2.946   0.900
 2805SOL    HW2 9315   3.516   2.954   0.741
 2806SOL     OW 9316   0.043   3.213   5.981
 2806SOL    HW1 9317   0.135   3.236   5.948
 2806SOL    HW2 9318   0.033   3.113   5.985
 2807SOL     OW 9319   4.033   1.065   3.678
 2807SOL    HW1 9320   4.072   0.974   3.661
 2807SOL    HW2 9321   4.062   1.096   3.769
 2808SOL     OW 9322   0.445   4.653   5.624
 2808SOL    HW1 9323   0.388   4.656   5.542
 2808SOL    HW2 9324   0.387   4.643   5.704
 2809SOL     OW 9325   0.332   5.685   2.165
 2809SOL    HW1 9326   0.233   5.675   2.168
 2809SOL    HW2 9327   0.366   5.709   2.255
 2810SOL     OW 9328   2.378   6.730   3.026
 2810SOL    HW1 9329   2.372   6.735   2.927
 2810SOL    HW2 9330   2.380   6.634   3.054
 2811SOL     OW 9331   1.045   1.132   1.116
 2811SOL    HW1 9332   1.011   1.165   1.028
 2811SOL    HW2 9333   1.047   1.208   1.181
 2812SOL     OW 9334   0.985   1.443   0.990
 2812SOL    HW1 9335   1.079   1.444   1.025
 2812SOL    HW2 9336   0.967   1.354   0.947
 2813SOL     OW 9337   0.725   3.309   1.800
 2813SOL    HW1 9338   0.790   3.240   1.771
 2813SOL    HW2 9339   0.737   3.328   1.898
 2814SOL     OW 9340   2.829   4.126   0.278
 2814SOL    HW1 9341   2.783   4.081   0.354
 2814SOL    HW2 9342   2.832   4.225   0.295
 2815SOL     OW 9343   0.007   4.723   4.994
 2815SOL    HW1 9344   6.940   4.694   4.965
 2815SOL    HW2 9345   0.061   4.750   4.914
 2816SOL     OW 9346   0.458   5.814   5.582
 2816SOL    HW1 9347   0.448   5.714   5.583
 2816SOL    HW2 9348   0.553   5.837   5.559
 2817SOL     OW 9349   3.316   0.641   2.172
 2817SOL    HW1 9350   3.323   0.741   2.174
 2817SOL    HW2 9351   3.327   0.606   2.265
 2818SOL     OW 9352   2.034   0.566   0.434
 2818SOL    HW1 9353   1.935   0.568   0.434
 2818SOL    HW2 9354   2.067   0.473   0.448
 2819SOL     OW 9355   1.051   0.233   6.680
 2819SOL    HW1 9356   1.015   0.306   6.621
 2819SOL    HW2 9357   1.138   0.201   6.644
 2820SOL     OW 9358   1.672   2.492   6.924
 2820SOL    HW1 9359   1.597   2.426   6.932
 2820SOL    HW2 9360   1.759   2.444   6.929
 2821SOL     OW 9361   3.575   3.468   6.130
 2821SOL    HW1 9362   3.568   3.521   6.046
 2821SOL    HW2 9363   3.578   3.371   6.108
 2822SOL     OW 9364   4.719   3.045   6.885
 2822SOL    HW1 9365   4.665   3.004   6.958
 2822SOL    HW2 9366   4.815   3.050   6.913
 2823SOL     OW 9367   4.939   2.866   1.273
 2823SOL    HW1 9368   4.873   2.863   1.347
 2823SOL    HW2 9369   4.955   2.773   1.239
 2824SOL     OW 9370   1.054   3.813   4.423
 2824SOL    HW1 9371   0.984   3.777   4.486
 2824SOL    HW2 9372   1.109   3.737   4.389
 2825SOL     OW 9373   5.386   1.672   6.545
 2825SOL    HW1 9374   5.386   1.720   6.632
 2825SOL    HW2 9375   5.458   1.602   6.546
 2826SOL     OW 9376   2.602   2.575   6.127
 2826SOL    HW1 9377   2.677   2.511   6.145
 2826SOL    HW2 9378   2.533   2.567   6.199
 2827SOL     OW 9379   6.140   1.195   6.344
 2827SOL    HW1 9380   6.128   1.156   6.436
 2827SOL    HW2 9381   6.190   1.281   6.350
 2828SOL     OW 9382   1.612   3.516   1.130
 2828SOL    HW1 9383   1.684   3.536   1.063
 2828SOL    HW2 9384   1.533   3.575   1.112
 2829SOL     OW 9385   3.313   3.715   2.109
 2829SOL    HW1 9386   3.307   3.718   2.209
 2829SOL    HW2 9387   3.312   3.808   2.072
 2830SOL     OW 9388   3.196   5.899   5.075
 2830SOL    HW1 9389   3.247   5.904   4.989
 2830SOL    HW2 9390   3.212   5.810   5.118
 2831SOL     OW 9391   5.666   1.856   1.845
 2831SOL    HW1 9392   5.720   1.775   1.824
 2831SOL    HW2 9393   5.613   1.841   1.929
 2832SOL     OW 9394   0.892   3.898   2.059
 2832SOL    HW1 9395   0.986   3.872   2.080
 2832SOL    HW2 9396   0.830   3.825   2.087
 2833SOL     OW 9397   1.267   2.315   2.416
 2833SOL    HW1 9398   1.347   2.348   2.465
 2833SOL    HW2 9399   1.193   2.382   2.425
 2834SOL     OW 9400   3.884   6.447   4.698
 2834SOL    HW1 9401   3.840   6.362   4.727
 2834SOL    HW2 9402   3.898   6.507   4.777
 2835SOL     OW 9403   6.509   0.522   6.827
 2835SOL    HW1 9404   6.455   0.445   6.862
 2835SOL    HW2 9405   6.565   0.559   6.900
 2836SOL     OW 9406   3.290   5.818   2.911
 2836SOL    HW1 9407   3.325   5.751   2.845
 2836SOL    HW2 9408   3.190   5.816   2.910
 2837SOL     OW 9409   5.188   4.485   1.675
 2837SOL    HW1 9410   5.133   4.408   1.705
 2837SOL    HW2 9411   5.285   4.461   1.681
 2838SOL     OW 9412   6.556   4.587   6.618
 2838SOL    HW1 9413   6.549   4.490   6.638
 2838SOL    HW2 9414   6.492   4.638   6.676
 2839SOL     OW 9415   6.170   3.436   4.944
 2839SOL    HW1 9416   6.150   3.376   4.867
 2839SOL    HW2 9417   6.130   3.527   4.927
 2840SOL     OW 9418   6.587   6.939   4.216
 2840SOL    HW1 9419   6.541   6.989   4.290
 2840SOL    HW2 9420   6.594   6.998   4.136
 2841SOL     OW 9421   5.615   4.094   2.297
 2841SOL    HW1 9422   5.664   4.046   2.370
 2841SOL    HW2 9423   5.579   4.180   2.332
 2842SOL     OW 9424   1.198   0.315   3.735
 2842SOL    HW1 9425   1.161   0.221   3.740
 2842SOL    HW2 9426   1.209   0.341   3.639
 2843SOL     OW 9427   2.312   2.323   3.602
 2843SOL    HW1 9428   2.236   2.282   3.653
 2843SOL    HW2 9429   2.277   2.365   3.518
 2844SOL     OW 9430   5.173   3.623   0.313
 2844SOL    HW1 9431   5.209   3.596   0.224
 2844SOL    HW2 9432   5.149   3.541   0.365
 2845SOL     OW 9433   2.872   1.802   1.995
 2845SOL    HW1 9434   2.863   1.834   2.089
 2845SOL    HW2 9435   2.955   1.746   1.987
 2846SOL     OW 9436   6.941   0.105   6.726
 2846SOL    HW1 9437   6.893   0.093   6.813
 2846SOL    HW2 9438   6.878   0.086   6.651
 2847SOL     OW 9439   4.588   4.800   1.065
 2847SOL    HW1 9440   4.546   4.734   1.128
 2847SOL    HW2 9441   4.523   4.874   1.047
 2848SOL     OW 9442   1.050   4.189   5.409
 2848SOL    HW1 9443   1.130   4.129   5.409
 2848SOL    HW2 9444   1.026   4.214   5.315
 2849SOL     OW 9445   5.254   0.419   1.805
 2849SOL    HW1 9446   5.167   0.396   1.761
 2849SOL    HW2 9447   5.241   0.429   1.903
 2850SOL     OW 9448   1.398   0.916   2.347
 2850SOL    HW1 9449   1.337   0.846   2.384
 2850SOL    HW2 9450   1.447   0.960   2.422
 2851SOL     OW 9451   3.359   3.045   1.581
 2851SOL    HW1 9452   3.321   2.977   1.519
 2851SOL    HW2 9453   3.393   3.000   1.663
 2852SOL     OW 9454   6.571   4.734   5.627
 2852SOL    HW1 9455   6.487   4.759   5.579
 2852SOL    HW2 9456   6.589   4.636   5.612
 2853SOL     OW 9457   0.195   4.086   5.635
 2853SOL    HW1 9458   0.261   4.018   5.604
 2853SOL    HW2 9459   0.123   4.042   5.689
 2854SOL     OW 9460   4.010   0.869   5.648
 2854SOL    HW1 9461   3.961   0.934   5.590
 2854SOL    HW2 9462   4.065   0.808   5.591
 2855SOL     OW 9463   2.388   1.587   4.912
 2855SOL    HW1 9464   2.296   1.627   4.919
 2855SOL    HW2 9465   2.450   1.654   4.870
 2856SOL     OW 9466   1.033   5.502   3.806
 2856SOL    HW1 9467   1.015   5.515   3.708
 2856SOL    HW2 9468   0.964   5.441   3.844
 2857SOL     OW 9469   0.178   4.328   0.758
 2857SOL    HW1 9470   0.126   4.275   0.691
 2857SOL    HW2 9471   0.237   4.393   0.710
 2858SOL     OW 9472   4.368   4.725   2.459
 2858SOL    HW1 9473   4.307   4.695   2.385
 2858SOL    HW2 9474   4.369   4.825   2.462
 2859SOL     OW 9475   5.438   4.791   1.733
 2859SOL    HW1 9476   5.481   4.792   1.643
 2859SOL    HW2 9477   5.386   4.876   1.746
 2860SOL     OW 9478   0.957   0.204   2.526
 2860SOL    HW1 9479   0.942   0.122   2.470
 2860SOL    HW2 9480   1.040   0.191   2.581
 2861SOL     OW 9481   4.692   4.451   5.744
 2861SOL    HW1 9482   4.593   4.460   5.734
 2861SOL    HW2 9483   4.712   4.381   5.813
 2862SOL     OW 9484   4.698   2.901   6.665
 2862SOL    HW1 9485   4.735   2.976   6.719
 2862SOL    HW2 9486   4.673   2.825   6.727
 2863SOL     OW 9487   5.752   1.482   5.064
 2863SOL    HW1 9488   5.696   1.408   5.027
 2863SOL    HW2 9489   5.745   1.482   5.164
 2864SOL     OW 9490   3.880   4.459   0.487
 2864SOL    HW1 9491   3.853   4.395   0.559
 2864SOL    HW2 9492   3.970   4.496   0.507
 2865SOL     OW 9493   5.754   4.892   4.859
 2865SOL    HW1 9494   5.755   4.991   4.868
 2865SOL    HW2 9495   5.691   4.853   4.926
 2866SOL     OW 9496   3.903   4.253   0.283
 2866SOL    HW1 9497   3.820   4.304   0.263
 2866SOL    HW2 9498   3.943   4.285   0.369
 2867SOL     OW 9499   5.558   6.381   2.566
 2867SOL    HW1 9500   5.473   6.433   2.558
 2867SOL    HW2 9501   5.587   6.349   2.476
 2868SOL     OW 9502   0.694   6.796   5.817
 2868SOL    HW1 9503   0.757   6.857   5.770
 2868SOL    HW2 9504   0.720   6.790   5.914
 2869SOL     OW 9505   6.283   5.614   4.177
 2869SOL    HW1 9506   6.272   5.557   4.096
 2869SOL    HW2 9507   6.332   5.698   4.153
 2870SOL     OW 9508   6.798   1.946   2.257
 2870SOL    HW1 9509   6.731   1.873   2.269
 2870SOL    HW2 9510   6.890   1.906   2.259
 2871SOL     OW 9511   4.475   1.264   2.523
 2871SOL    HW1 9512   4.388   1.222   2.497
 2871SOL    HW2 9513   4.528   1.284   2.440
 2872SOL     OW 9514   2.452   2.000   2.536
 2872SOL    HW1 9515   2.516   2.067   2.574
 2872SOL    HW2 9516   2.482   1.973   2.445
 2873SOL     OW 9517   0.721   6.978   1.528
 2873SOL    HW1 9518   0.735   6.991   1.626
 2873SOL    HW2 9519   0.623   6.973   1.508
 2874SOL     OW 9520   2.454   1.309   3.317
 2874SOL    HW1 9521   2.550   1.309   3.287
 2874SOL    HW2 9522   2.395   1.325   3.238
 2875SOL     OW 9523   2.126   6.911   3.026
 2875SOL    HW1 9524   2.212   6.863   3.040
 2875SOL    HW2 9525   2.083   6.879   2.942
 2876SOL     OW 9526   1.920   0.135   1.877
 2876SOL    HW1 9527   2.016   0.154   1.855
 2876SOL    HW2 9528   1.862   0.204   1.833
 2877SOL     OW 9529   1.346   2.433   6.703
 2877SOL    HW1 9530   1.270   2.437   6.637
 2877SOL    HW2 9531   1.319   2.479   6.788
 2878SOL     OW 9532   4.155   3.548   4.137
 2878SOL    HW1 9533   4.117   3.459   4.111
 2878SOL    HW2 9534   4.254   3.538   4.153
 2879SOL     OW 9535   5.055   4.156   0.282
 2879SOL    HW1 9536   5.032   4.059   0.277
 2879SOL    HW2 9537   5.135   4.169   0.340
 2880SOL     OW 9538   2.048   0.905   3.475
 2880SOL    HW1 9539   2.016   0.966   3.403
 2880SOL    HW2 9540   2.128   0.855   3.444
 2881SOL     OW 9541   5.391   5.981   0.136
 2881SOL    HW1 9542   5.343   6.016   0.216
 2881SOL    HW2 9543   5.330   5.921   0.085
 2882SOL     OW 9544   4.554   6.109   0.164
 2882SOL    HW1 9545   4.603   6.076   0.084
 2882SOL    HW2 9546   4.556   6.209   0.167
 2883SOL     OW 9547   6.040   6.629   4.146
 2883SOL    HW1 9548   6.021   6.722   4.114
 2883SOL    HW2 9549   5.984   6.564   4.096
 2884SOL     OW 9550   5.953   5.186   4.061
 2884SOL    HW1 9551   5.917   5.124   3.991
 2884SOL    HW2 9552   6.044   5.156   4.087
 2885SOL     OW 9553   1.158   2.606   3.259
 2885SOL    HW1 9554   1.060   2.593   3.276
 2885SOL    HW2 9555   1.176   2.702   3.237
 2886SOL     OW 9556   2.175   4.311   5.524
 2886SOL    HW1 9557   2.104   4.253   5.484
 2886SOL    HW2 9558   2.229   4.256   5.589
 2887SOL     OW 9559   0.147   5.745   3.260
 2887SOL    HW1 9560   0.195   5.747   3.172
 2887SOL    HW2 9561   0.212   5.719   3.332
 2888SOL     OW 9562   5.920   7.019   6.500
 2888SOL    HW1 9563   5.844   0.033   6.553
 2888SOL    HW2 9564   5.899   7.022   6.403
 2889SOL     OW 9565   3.648   6.226   2.880
 2889SOL    HW1 9566   3.672   6.323   2.875
 2889SOL    HW2 9567   3.723   6.171   2.844
 2890SOL     OW 9568   0.930   2.443   1.414
 2890SOL    HW1 9569   0.970   2.407   1.330
 2890SOL    HW2 9570   0.838   2.406   1.425
 2891SOL     OW 9571   6.747   2.027   4.655
 2891SOL    HW1 9572   6.763   2.041   4.753
 2891SOL    HW2 9573   6.672   1.963   4.642
 2892SOL     OW 9574   5.556   3.751   2.438
 2892SOL    HW1 9575   5.621   3.697   2.385
 2892SOL    HW2 9576   5.467   3.750   2.392
 2893SOL     OW 9577   6.811   5.487   4.540
 2893SOL    HW1 9578   6.813   5.419   4.613
 2893SOL    HW2 9579   6.859   5.451   4.460
 2894SOL     OW 9580   2.104   5.364   2.444
 2894SOL    HW1 9581   2.099   5.434   2.516
 2894SOL    HW2 9582   2.014   5.354   2.402
 2895SOL     OW 9583   4.408   0.078   5.821
 2895SOL    HW1 9584   4.347   0.053   5.746
 2895SOL    HW2 9585   4.501   0.085   5.787
 2896SOL     OW 9586   5.301   0.120   4.320
 2896SOL    HW1 9587   5.284   0.195   4.256
 2896SOL    HW2 9588   5.235   0.125   4.395
 2897SOL     OW 9589   4.261   4.939   3.268
 2897SOL    HW1 9590   4.187   4.923   3.203
 2897SOL    HW2 9591   4.279   4.855   3.319
 2898SOL     OW 9592   5.214   3.002   2.793
 2898SOL    HW1 9593   5.203   3.037   2.700
 2898SOL    HW2 9594   5.129   2.958   2.822
 2899SOL     OW 9595   7.010   3.614   0.877
 2899SOL    HW1 9596   0.012   3.541   0.814
 2899SOL    HW2 9597   6.962   3.576   0.955
 2900SOL     OW 9598   2.580   3.132   5.790
 2900SOL    HW1 9599   2.579   3.223   5.748
 2900SOL    HW2 9600   2.545   3.138   5.883
 2901SOL     OW 9601   0.696   3.691   3.008
 2901SOL    HW1 9602   0.684   3.604   3.056
 2901SOL    HW2 9603   0.675   3.680   2.911
 2902SOL     OW 9604   6.577   6.317   4.202
 2902SOL    HW1 9605   6.591   6.404   4.156
 2902SOL    HW2 9606   6.530   6.333   4.289
 2903SOL     OW 9607   5.110   4.594   0.362
 2903SOL    HW1 9608   5.172   4.516   0.374
 2903SOL    HW2 9609   5.144   4.653   0.288
 2904SOL     OW 9610   2.181   4.183   5.201
 2904SOL    HW1 9611   2.255   4.146   5.147
 2904SOL    HW2 9612   2.211   4.194   5.296
 2905SOL     OW 9613   1.580   6.216   1.505
 2905SOL    HW1 9614   1.511   6.287   1.517
 2905SOL    HW2 9615   1.536   6.126   1.499
 2906SOL     OW 9616   6.144   6.018   4.480
 2906SOL    HW1 9617   6.082   5.941   4.473
 2906SOL    HW2 9618   6.121   6.072   4.561
 2907SOL     OW 9619   0.510   1.079   4.627
 2907SOL    HW1 9620   0.549   1.124   4.707
 2907SOL    HW2 9621   0.452   1.143   4.577
 2908SOL     OW 9622   4.441   6.849   2.903
 2908SOL    HW1 9623   4.442   6.770   2.965
 2908SOL    HW2 9624   4.378   6.918   2.938
 2909SOL     OW 9625   6.848   6.568   1.412
 2909SOL    HW1 9626   6.784   6.498   1.443
 2909SOL    HW2 9627   6.931   6.564   1.467
 2910SOL     OW 9628   0.647   0.709   4.210
 2910SOL    HW1 9629   0.617   0.757   4.292
 2910SOL    HW2 9630   0.569   0.695   4.149
 2911SOL     OW 9631   0.070   4.301   5.480
 2911SOL    HW1 9632   0.117   4.223   5.523
 2911SOL    HW2 9633   0.063   4.285   5.382
 2912SOL     OW 9634   0.988   1.638   1.767
 2912SOL    HW1 9635   0.902   1.671   1.805
 2912SOL    HW2 9636   0.999   1.671   1.673
 2913SOL     OW 9637   2.990   6.635   2.847
 2913SOL    HW1 9638   3.038   6.612   2.931
 2913SOL    HW2 9639   2.916   6.699   2.867
 2914SOL     OW 9640   4.275   5.586   0.807
 2914SOL    HW1 9641   4.335   5.506   0.805
 2914SOL    HW2 9642   4.193   5.565   0.860
 2915SOL     OW 9643   2.645   0.186   2.950
 2915SOL    HW1 9644   2.679   0.132   3.027
 2915SOL    HW2 9645   2.721   0.227   2.901
 2916SOL     OW 9646   1.659   6.008   6.803
 2916SOL    HW1 9647   1.595   6.057   6.862
 2916SOL    HW2 9648   1.751   6.015   6.841
 2917SOL     OW 9649   3.009   6.857   3.684
 2917SOL    HW1 9650   3.101   6.823   3.706
 2917SOL    HW2 9651   3.001   6.952   3.712
 2918SOL     OW 9652   4.724   2.814   1.548
 2918SOL    HW1 9653   4.632   2.789   1.579
 2918SOL    HW2 9654   4.747   2.906   1.580
 2919SOL     OW 9655   0.685   5.726   5.151
 2919SOL    HW1 9656   0.763   5.706   5.092
 2919SOL    HW2 9657   0.623   5.790   5.105
 2920SOL     OW 9658   1.883   2.430   2.746
 2920SOL    HW1 9659   1.945   2.446   2.669
 2920SOL    HW2 9660   1.809   2.369   2.717
 2921SOL     OW 9661   0.926   6.350   3.580
 2921SOL    HW1 9662   0.905   6.401   3.663
 2921SOL    HW2 9663   1.024   6.332   3.575
 2922SOL     OW 9664   3.841   6.380   4.156
 2922SOL    HW1 9665   3.754   6.362   4.111
 2922SOL    HW2 9666   3.910   6.315   4.122
 2923SOL     OW 9667   6.389   5.335   5.005
 2923SOL    HW1 9668   6.484   5.360   4.986
 2923SOL    HW2 9669   6.341   5.316   4.919
 2924SOL     OW 9670   6.102   1.729   5.569
 2924SOL    HW1 9671   6.169   1.803   5.571
 2924SOL    HW2 9672   6.085   1.697   5.662
 2925SOL     OW 9673   5.391   6.677   5.419
 2925SOL    HW1 9674   5.413   6.581   5.402
 2925SOL    HW2 9675   5.355   6.718   5.335
 2926SOL     OW 9676   6.336   2.492   4.501
 2926SOL    HW1 9677   6.369   2.450   4.585
 2926SOL    HW2 9678   6.414   2.520   4.445
 2927SOL     OW 9679   1.232   1.834   1.753
 2927SOL    HW1 9680   1.236   1.769   1.676
 2927SOL    HW2 9681   1.151   1.891   1.744
 2928SOL     OW 9682   6.338   3.004   0.162
 2928SOL    HW1 9683   6.435   3.028   0.162
 2928SOL    HW2 9684   6.289   3.062   0.097
 2929SOL     OW 9685   2.016   2.346   4.090
 2929SOL    HW1 9686   1.996   2.408   4.167
 2929SOL    HW2 9687   2.093   2.382   4.038
 2930SOL     OW 9688   0.553   4.062   4.259
 2930SOL    HW1 9689   0.545   3.963   4.260
 2930SOL    HW2 9690   0.564   4.096   4.352
 2931SOL     OW 9691   5.101   3.907   5.615
 2931SOL    HW1 9692   5.013   3.954   5.603
 2931SOL    HW2 9693   5.122   3.854   5.533
 2932SOL     OW 9694   5.993   4.867   1.446
 2932SOL    HW1 9695   6.051   4.942   1.478
 2932SOL    HW2 9696   6.022   4.781   1.488
 2933SOL     OW 9697   1.279   6.456   6.843
 2933SOL    HW1 9698   1.285   6.527   6.773
 2933SOL    HW2 9699   1.195   6.403   6.830
 2934SOL     OW 9700   3.601   4.449   0.826
 2934SOL    HW1 9701   3.640   4.438   0.734
 2934SOL    HW2 9702   3.502   4.452   0.820
 2935SOL     OW 9703   0.504   2.299   6.299
 2935SOL    HW1 9704   0.490   2.356   6.217
 2935SOL    HW2 9705   0.590   2.324   6.343
 2936SOL     OW 9706   4.747   5.979   1.599
 2936SOL    HW1 9707   4.845   5.992   1.589
 2936SOL    HW2 9708   4.703   5.983   1.509
 2937SOL     OW 9709   4.887   4.471   2.547
 2937SOL    HW1 9710   4.898   4.425   2.636
 2937SOL    HW2 9711   4.951   4.432   2.482
 2938SOL     OW 9712   0.579   5.553   6.182
 2938SOL    HW1 9713   0.572   5.649   6.156
 2938SOL    HW2 9714   0.672   5.521   6.165
 2939SOL     OW 9715   0.260   6.483   1.942
 2939SOL    HW1 9716   0.298   6.574   1.962
 2939SOL    HW2 9717   0.191   6.491   1.870
 2940SOL     OW 9718   4.303   6.772   4.183
 2940SOL    HW1 9719   4.219   6.717   4.180
 2940SOL    HW2 9720   4.313   6.821   4.097
 2941SOL     OW 9721   1.859   4.958   2.936
 2941SOL    HW1 9722   1.769   4.931   2.904
 2941SOL    HW2 9723   1.850   5.009   3.022
 2942SOL     OW 9724   3.371   1.755   1.317
 2942SOL    HW1 9725   3.434   1.677   1.316
 2942SOL    HW2 9726   3.423   1.840   1.309
 2943SOL     OW 9727   5.879   4.055   2.897
 2943SOL    HW1 9728   5.789   4.097   2.885
 2943SOL    HW2 9729   5.918   4.034   2.808
 2944SOL     OW 9730   1.594   5.854   2.313
 2944SOL    HW1 9731   1.653   5.889   2.386
 2944SOL    HW2 9732   1.577   5.756   2.328
 2945SOL     OW 9733   4.601   4.412   0.904
 2945SOL    HW1 9734   4.683   4.440   0.855
 2945SOL    HW2 9735   4.567   4.327   0.864
 2946SOL     OW 9736   3.844   3.648   5.236
 2946SOL    HW1 9737   3.819   3.720   5.300
 2946SOL    HW2 9738   3.898   3.687   5.161
 2947SOL     OW 9739   6.663   6.059   0.989
 2947SOL    HW1 9740   6.614   6.049   1.076
 2947SOL    HW2 9741   6.598   6.061   0.914
 2948SOL     OW 9742   0.090   3.552   2.578
 2948SOL    HW1 9743   0.104   3.649   2.556
 2948SOL    HW2 9744   0.146   3.496   2.517
 2949SOL     OW 9745   1.594   6.360   0.615
 2949SOL    HW1 9746   1.684   6.372   0.656
 2949SOL    HW2 9747   1.566   6.445   0.571
 2950SOL     OW 9748   6.208   5.370   2.796
 2950SOL    HW1 9749   6.120   5.335   2.764
 2950SOL    HW2 9750   6.270   5.382   2.719
 2951SOL     OW 9751   6.845   1.047   1.831
 2951SOL    HW1 9752   6.803   0.956   1.829
 2951SOL    HW2 9753   6.775   1.117   1.815
 2952SOL     OW 9754   6.818   1.693   5.168
 2952SOL    HW1 9755   6.787   1.624   5.233
 2952SOL    HW2 9756   6.787   1.784   5.198
 2953SOL     OW 9757   1.244   4.869   3.570
 2953SOL    HW1 9758   1.239   4.838   3.475
 2953SOL    HW2 9759   1.289   4.959   3.573
 2954SOL     OW 9760   0.029   4.415   6.567
 2954SOL    HW1 9761   0.108   4.392   6.511
 2954SOL    HW2 9762   7.018   4.333   6.613
 2955SOL     OW 9763   1.856   4.513   5.678
 2955SOL    HW1 9764   1.858   4.539   5.581
 2955SOL    HW2 9765   1.948   4.520   5.716
 2956SOL     OW 9766   5.350   4.425   3.947
 2956SOL    HW1 9767   5.445   4.450   3.966
 2956SOL    HW2 9768   5.348   4.350   3.881
 2957SOL     OW 9769   2.217   5.353   1.021
 2957SOL    HW1 9770   2.144   5.405   0.976
 2957SOL    HW2 9771   2.176   5.279   1.075
 2958SOL     OW 9772   2.433   4.865   2.563
 2958SOL    HW1 9773   2.366   4.823   2.503
 2958SOL    HW2 9774   2.393   4.877   2.654
 2959SOL     OW 9775   6.931   3.670   3.194
 2959SOL    HW1 9776   6.895   3.578   3.180
 2959SOL    HW2 9777   6.997   3.669   3.270
 2960SOL     OW 9778   5.137   6.973   1.085
 2960SOL    HW1 9779   5.147   6.967   1.184
 2960SOL    HW2 9780   5.149   0.044   1.056
 2961SOL     OW 9781   5.803   3.175   2.024
 2961SOL    HW1 9782   5.817   3.211   1.932
 2961SOL    HW2 9783   5.868   3.219   2.087
 2962SOL     OW 9784   0.118   0.712   3.539
 2962SOL    HW1 9785   0.081   0.659   3.463
 2962SOL    HW2 9786   0.059   0.790   3.558
 2963SOL     OW 9787   1.514   0.771   4.905
 2963SOL    HW1 9788   1.430   0.825   4.911
 2963SOL    HW2 9789   1.590   0.832   4.879
 2964SOL     OW 9790   1.578   1.042   6.358
 2964SOL    HW1 9791   1.649   1.009   6.421
 2964SOL    HW2 9792   1.508   1.091   6.410
 2965SOL     OW 9793   6.769   6.562   5.533
 2965SOL    HW1 9794   6.842   6.630   5.539
 2965SOL    HW2 9795   6.681   6.608   5.518
 2966SOL     OW 9796   2.655   5.793   2.022
 2966SOL    HW1 9797   2.640   5.891   2.007
 2966SOL    HW2 9798   2.620   5.767   2.113
 2967SOL     OW 9799   5.298   0.231   4.831
 2967SOL    HW1 9800   5.376   0.173   4.852
 2967SOL    HW2 9801   5.283   0.294   4.907
 2968SOL     OW 9802   1.056   3.496   1.285
 2968SOL    HW1 9803   1.027   3.575   1.338
 2968SOL    HW2 9804   1.073   3.524   1.190
 2969SOL     OW 9805   4.647   3.379   5.445
 2969SOL    HW1 9806   4.577   3.444   5.416
 2969SOL    HW2 9807   4.734   3.404   5.402
 2970SOL     OW 9808   2.525   2.548   5.785
 2970SOL    HW1 9809   2.606   2.497   5.755
 2970SOL    HW2 9810   2.545   2.646   5.784
 2971SOL     OW 9811   5.097   2.861   5.830
 2971SOL    HW1 9812   5.002   2.889   5.846
 2971SOL    HW2 9813   5.152   2.941   5.806
 2972SOL     OW 9814   6.558   5.101   6.524
 2972SOL    HW1 9815   6.468   5.081   6.485
 2972SOL    HW2 9816   6.618   5.138   6.453
 2973SOL     OW 9817   4.813   1.006   3.687
 2973SOL    HW1 9818   4.775   1.063   3.760
 2973SOL    HW2 9819   4.827   1.061   3.605
 2974SOL     OW 9820   4.253   6.841   1.877
 2974SOL    HW1 9821   4.242   6.778   1.953
 2974SOL    HW2 9822   4.163   6.864   1.839
 2975SOL     OW 9823   5.167   3.585   4.363
 2975SOL    HW1 9824   5.068   3.572   4.368
 2975SOL    HW2 9825   5.214   3.498   4.377
 2976SOL     OW 9826   3.928   0.849   2.180
 2976SOL    HW1 9827   3.855   0.897   2.227
 2976SOL    HW2 9828   3.955   0.899   2.098
 2977SOL     OW 9829   0.781   0.508   1.891
 2977SOL    HW1 9830   0.728   0.546   1.968
 2977SOL    HW2 9831   0.775   0.570   1.813
 2978SOL     OW 9832   4.639   5.163   6.823
 2978SOL    HW1 9833   4.707   5.217   6.773
 2978SOL    HW2 9834   4.603   5.091   6.764
 2979SOL     OW 9835   2.762   1.031   4.602
 2979SOL    HW1 9836   2.696   1.101   4.630
 2979SOL    HW2 9837   2.855   1.062   4.623
 2980SOL     OW 9838   3.285   3.479   4.682
 2980SOL    HW1 9839   3.359   3.435   4.631
 2980SOL    HW2 9840   3.324   3.539   4.752
 2981SOL     OW 9841   2.159   0.834   1.513
 2981SOL    HW1 9842   2.222   0.833   1.435
 2981SOL    HW2 9843   2.130   0.740   1.533
 2982SOL     OW 9844   2.055   0.428   1.206
 2982SOL    HW1 9845   1.984   0.381   1.259
 2982SOL    HW2 9846   2.025   0.522   1.187
 2983SOL     OW 9847   6.403   3.037   5.509
 2983SOL    HW1 9848   6.309   3.008   5.493
 2983SOL    HW2 9849   6.404   3.125   5.557
 2984SOL     OW 9850   0.228   5.874   1.420
 2984SOL    HW1 9851   0.249   5.812   1.495
 2984SOL    HW2 9852   0.231   5.824   1.334
 2985SOL     OW 9853   6.697   0.654   5.882
 2985SOL    HW1 9854   6.663   0.560   5.880
 2985SOL    HW2 9855   6.736   0.676   5.792
 2986SOL     OW 9856   3.615   3.333   2.340
 2986SOL    HW1 9857   3.713   3.327   2.358
 2986SOL    HW2 9858   3.574   3.399   2.404
 2987SOL     OW 9859   1.994   5.987   5.535
 2987SOL    HW1 9860   2.047   5.927   5.476
 2987SOL    HW2 9861   2.023   6.082   5.520
 2988SOL     OW 9862   7.001   1.608   6.649
 2988SOL    HW1 9863   6.981   1.542   6.723
 2988SOL    HW2 9864   6.921   1.615   6.589
 2989SOL     OW 9865   5.097   3.130   4.471
 2989SOL    HW1 9866   5.140   3.080   4.547
 2989SOL    HW2 9867   5.042   3.205   4.507
 2990SOL     OW 9868   5.299   1.768   4.430
 2990SOL    HW1 9869   5.324   1.852   4.478
 2990SOL    HW2 9870   5.352   1.692   4.467
 2991SOL     OW 9871   0.294   3.554   0.646
 2991SOL    HW1 9872   0.271   3.533   0.551
 2991SOL    HW2 9873   0.256   3.483   0.706
 2992SOL     OW 9874   0.449   3.793   5.291
 2992SOL    HW1 9875   0.431   3.889   5.314
 2992SOL    HW2 9876   0.476   3.786   5.195
 2993SOL     OW 9877   2.069   3.712   0.734
 2993SOL    HW1 9878   2.112   3.627   0.705
 2993SOL    HW2 9879   2.092   3.785   0.669
 2994SOL     OW 9880   3.413   5.898   5.722
 2994SOL    HW1 9881   3.373   5.930   5.808
 2994SOL    HW2 9882   3.349   5.836   5.677
 2995SOL     OW 9883   4.560   0.439   0.873
 2995SOL    HW1 9884   4.481   0.481   0.918
 2995SOL    HW2 9885   4.624   0.405   0.942
 2996SOL     OW 9886   6.830   0.527   4.316
 2996SOL    HW1 9887   6.803   0.622   4.299
 2996SOL    HW2 9888   6.809   0.471   4.236
 2997SOL     OW 9889   5.314   6.553   4.434
 2997SOL    HW1 9890   5.236   6.492   4.439
 2997SOL    HW2 9891   5.399   6.499   4.433
 2998SOL     OW 9892   2.747   1.073   1.553
 2998SOL    HW1 9893   2.756   1.095   1.650
 2998SOL    HW2 9894   2.731   1.157   1.501
 2999SOL     OW 9895   2.682   4.888   1.049
 2999SOL    HW1 9896   2.745   4.936   1.110
 2999SOL    HW2 9897   2.588   4.903   1.079
 3000SOL     OW 9898   2.614   3.974   5.569
 3000SOL    HW1 9899   2.607   3.904   5.640
 3000SOL    HW2 9900   2.685   4.040   5.595
 3001SOL     OW 9901   5.698   0.546   6.364
 3001SOL    HW1 9902   5.718   0.603   6.443
 3001SOL    HW2 9903   5.630   0.477   6.389
 3002SOL     OW 9904   1.478   1.655   1.840
 3002SOL    HW1 9905   1.547   1.611   1.783
 3002SOL    HW2 9906   1.387   1.625   1.812
 3003SOL     OW 9907   1.613   6.650   0.222
 3003SOL    HW1 9908   1.567   6.596   0.151
 3003SOL    HW2 9909   1.704   6.613   0.238
 3004SOL     OW 9910   2.553   6.560   3.952
 3004SOL    HW1 9911   2.618   6.504   3.901
 3004SOL    HW2 9912   2.586   6.654   3.956
 3005SOL     OW 9913   1.196   2.380   0.380
 3005SOL    HW1 9914   1.185   2.281   0.380
 3005SOL    HW2 9915   1.132   2.420   0.315
 3006SOL     OW 9916   5.378   1.498   6.175
 3006SOL    HW1 9917   5.340   1.560   6.106
 3006SOL    HW2 9918   5.323   1.504   6.259
 3007SOL     OW 9919   5.686   5.627   7.016
 3007SOL    HW1 9920   5.703   5.553   0.057
 3007SOL    HW2 9921   5.623   5.596   6.945
 3008SOL     OW 9922   4.397   3.453   5.576
 3008SOL    HW1 9923   4.386   3.457   5.476
 3008SOL    HW2 9924   4.351   3.371   5.611
 3009SOL     OW 9925   6.601   3.403   2.220
 3009SOL    HW1 9926   6.631   3.370   2.309
 3009SOL    HW2 9927   6.606   3.503   2.217
 3010SOL     OW 9928   4.392   5.854   0.713
 3010SOL    HW1 9929   4.489   5.858   0.688
 3010SOL    HW2 9930   4.368   5.760   0.739
 3011SOL     OW 9931   6.649   0.819   0.939
 3011SOL    HW1 9932   6.613   0.776   1.022
 3011SOL    HW2 9933   6.669   0.915   0.959
 3012SOL     OW 9934   2.165   2.370   4.887
 3012SOL    HW1 9935   2.065   2.365   4.889
 3012SOL    HW2 9936   2.194   2.466   4.889
 3013SOL     OW 9937   6.879   5.005   5.032
 3013SOL    HW1 9938   6.960   4.950   5.053
 3013SOL    HW2 9939   6.818   4.953   4.972
 3014SOL     OW 9940   5.598   0.248   6.344
 3014SOL    HW1 9941   5.621   0.221   6.250
 3014SOL    HW2 9942   5.505   0.220   6.365
 3015SOL     OW 9943   1.407   0.851   6.232
 3015SOL    HW1 9944   1.457   0.935   6.250
 3015SOL    HW2 9945   1.471   0.775   6.222
 3016SOL     OW 9946   2.263   6.264   4.254
 3016SOL    HW1 9947   2.246   6.304   4.164
 3016SOL    HW2 9948   2.347   6.211   4.253
 3017SOL     OW 9949   1.158   5.312   0.091
 3017SOL    HW1 9950   1.061   5.333   0.102
 3017SOL    HW2 9951   1.206   5.330   0.177
 3018SOL     OW 9952   3.606   0.724   1.404
 3018SOL    HW1 9953   3.643   0.657   1.340
 3018SOL    HW2 9954   3.620   0.817   1.367
 3019SOL     OW 9955   1.893   0.547   5.797
 3019SOL    HW1 9956   1.971   0.491   5.769
 3019SOL    HW2 9957   1.909   0.642   5.769
 3020SOL     OW 9958   6.351   4.210   7.012
 3020SOL    HW1 9959   6.413   4.167   0.054
 3020SOL    HW2 9960   6.300   4.284   0.033
 3021SOL     OW 9961   3.774   0.535   4.729
 3021SOL    HW1 9962   3.749   0.631   4.718
 3021SOL    HW2 9963   3.872   0.527   4.742
 3022SOL     OW 9964   4.269   5.842   3.521
 3022SOL    HW1 9965   4.343   5.784   3.487
 3022SOL    HW2 9966   4.182   5.811   3.482
 3023SOL     OW 9967   5.484   4.823   4.268
 3023SOL    HW1 9968   5.501   4.832   4.366
 3023SOL    HW2 9969   5.424   4.744   4.251
 3024SOL     OW 9970   0.429   0.712   0.498
 3024SOL    HW1 9971   0.348   0.768   0.484
 3024SOL    HW2 9972   0.437   0.646   0.424
 3025SOL     OW 9973   4.167   5.667   0.052
 3025SOL    HW1 9974   4.127   5.751   0.015
 3025SOL    HW2 9975   4.183   5.678   0.150
 3026SOL     OW 9976   0.183   0.575   2.108
 3026SOL    HW1 9977   0.218   0.660   2.068
 3026SOL    HW2 9978   0.212   0.498   2.053
 3027SOL     OW 9979   4.342   0.583   0.310
 3027SOL    HW1 9980   4.359   0.517   0.384
 3027SOL    HW2 9981   4.254   0.563   0.267
 3028SOL     OW 9982   3.189   3.076   5.586
 3028SOL    HW1 9983   3.220   3.031   5.669
 3028SOL    HW2 9984   3.268   3.101   5.530
 3029SOL     OW 9985   6.517   3.465   4.567
 3029SOL    HW1 9986   6.514   3.391   4.634
 3029SOL    HW2 9987   6.546   3.430   4.479
 3030SOL     OW 9988   2.306   2.773   6.162
 3030SOL    HW1 9989   2.369   2.735   6.230
 3030SOL    HW2 9990   2.215   2.782   6.202
 3031SOL     OW 9991   0.975   5.570   0.961
 3031SOL    HW1 9992   0.905   5.640   0.969
 3031SOL    HW2 9993   0.968   5.526   0.871
 3032SOL     OW 9994   2.393   0.074   3.009
 3032SOL    HW1 9995   2.475   0.114   2.967
 3032SOL    HW2 9996   2.311   0.118   2.971
 3033SOL     OW 9997   0.724   1.675   5.423
 3033SOL    HW1 9998   0.821   1.694   5.409
 3033SOL    HW2 9999   0.669   1.736   5.366
 3034SOL     OW10000   6.284   4.470   3.574
 3034SOL    HW110001   6.383   4.465   3.564
 3034SOL    HW210002   6.247   4.377   3.580
 3035SOL     OW10003   0.529   3.240   0.431
 3035SOL    HW110004   0.520   3.190   0.346
 3035SOL    HW210005   0.626   3.258   0.450
 3036SOL     OW10006   3.366   1.841   5.346
 3036SOL    HW110007   3.422   1.780   5.402
 3036SOL    HW210008   3.411   1.930   5.337
 3037SOL     OW10009   0.984   5.720   6.724
 3037SOL    HW110010   1.025   5.769   6.647
 3037SOL    HW210011   0.886   5.707   6.707
 3038SOL     OW10012   5.682   4.688   6.238
 3038SOL    HW110013   5.594   4.668   6.195
 3038SOL    HW210014   5.715   4.607   6.286
 3039SOL     OW10015   6.744   3.838   6.122
 3039SOL    HW110016   6.765   3.918   6.065
 3039SOL    HW210017   6.650   3.846   6.156
 3040SOL     OW10018   5.557   5.022   6.625
 3040SOL    HW110019   5.606   5.104   6.594
 3040SOL    HW210020   5.606   4.941   6.593
 3041SOL     OW10021   1.361   4.591   5.776
 3041SOL    HW110022   1.291   4.579   5.846
 3041SOL    HW210023   1.320   4.587   5.685
 3042SOL     OW10024   0.373   4.899   4.441
 3042SOL    HW110025   0.400   4.920   4.534
 3042SOL    HW210026   0.294   4.955   4.415
 3043SOL     OW10027   2.453   5.844   1.015
 3043SOL    HW110028   2.384   5.915   1.017
 3043SOL    HW210029   2.443   5.785   1.095
 3044SOL     OW10030   3.757   3.998   4.742
 3044SOL    HW110031   3.694   3.957   4.808
 3044SOL    HW210032   3.758   3.944   4.658
 3045SOL     OW10033   4.556   1.972   1.890
 3045SOL    HW110034   4.547   1.970   1.790
 3045SOL    HW210035   4.650   1.996   1.914
 3046SOL     OW10036   4.970   6.759   1.012
 3046SOL    HW110037   4.872   6.766   1.030
 3046SOL    HW210038   5.014   6.845   1.037
 3047SOL     OW10039   5.727   1.307   4.707
 3047SOL    HW110040   5.724   1.348   4.615
 3047SOL    HW210041   5.794   1.234   4.709
 3048SOL     OW10042   3.746   4.844   1.247
 3048SOL    HW110043   3.706   4.832   1.156
 3048SOL    HW210044   3.832   4.793   1.253
 3049SOL     OW10045   1.068   1.848   2.187
 3049SOL    HW110046   1.073   1.906   2.105
 3049SOL    HW210047   1.152   1.858   2.240
 3050SOL     OW10048   3.690   2.307   6.644
 3050SOL    HW110049   3.762   2.295   6.713
 3050SOL    HW210050   3.726   2.358   6.567
 3051SOL     OW10051   2.441   5.232   5.233
 3051SOL    HW110052   2.455   5.222   5.135
 3051SOL    HW210053   2.373   5.166   5.264
 3052SOL     OW10054   6.890   0.106   2.428
 3052SOL    HW110055   6.820   0.177   2.429
 3052SOL    HW210056   6.979   0.147   2.452
 3053SOL     OW10057   1.047   4.337   0.465
 3053SOL    HW110058   0.989   4.273   0.413
 3053SOL    HW210059   1.051   4.424   0.417
 3054SOL     OW10060   4.701   0.848   3.031
 3054SOL    HW110061   4.649   0.770   2.998
 3054SOL    HW210062   4.653   0.889   3.109
 3055SOL     OW10063   5.807   6.111   0.069
 3055SOL    HW110064   5.761   6.198   0.081
 3055SOL    HW210065   5.740   6.040   0.047
 3056SOL     OW10066   4.567   1.515   5.922
 3056SOL    HW110067   4.496   1.446   5.910
 3056SOL    HW210068   4.623   1.521   5.840
 3057SOL     OW10069   5.183   3.898   2.885
 3057SOL    HW110070   5.260   3.913   2.947
 3057SOL    HW210071   5.204   3.938   2.795
 3058SOL     OW10072   0.619   4.313   6.194
 3058SOL    HW110073   0.567   4.273   6.270
 3058SOL    HW210074   0.563   4.381   6.147
 3059SOL     OW10075   1.789   1.823   2.721
 3059SOL    HW110076   1.714   1.758   2.704
 3059SOL    HW210077   1.851   1.785   2.790
 3060SOL     OW10078   5.643   4.425   4.254
 3060SOL    HW110079   5.571   4.484   4.220
 3060SOL    HW210080   5.732   4.468   4.238
 3061SOL     OW10081   5.823   0.457   3.759
 3061SOL    HW110082   5.826   0.364   3.722
 3061SOL    HW210083   5.888   0.515   3.710
 3062SOL     OW10084   4.171   4.386   1.001
 3062SOL    HW110085   4.221   4.449   1.062
 3062SOL    HW210086   4.171   4.294   1.041
 3063SOL     OW10087   0.263   4.795   2.840
 3063SOL    HW110088   0.203   4.752   2.773
 3063SOL    HW210089   0.218   4.877   2.877
 3064SOL     OW10090   4.791   2.507   6.498
 3064SOL    HW110091   4.797   2.558   6.412
 3064SOL    HW210092   4.779   2.409   6.479
 3065SOL     OW10093   5.857   1.542   6.796
 3065SOL    HW110094   5.779   1.479   6.790
 3065SOL    HW210095   5.868   1.590   6.709
 3066SOL     OW10096   5.514   0.054   4.864
 3066SOL    HW110097   5.550   7.023   4.940
 3066SOL    HW210098   5.540   0.012   4.777
 3067SOL     OW10099   1.285   2.651   5.314
 3067SOL    HW110100   1.286   2.737   5.365
 3067SOL    HW210101   1.305   2.669   5.217
 3068SOL     OW10102   6.878   0.745   0.818
 3068SOL    HW110103   6.783   0.759   0.847
 3068SOL    HW210104   6.878   0.691   0.734
 3069SOL     OW10105   5.017   6.510   3.954
 3069SOL    HW110106   5.012   6.591   4.012
 3069SOL    HW210107   5.053   6.433   4.007
 3070SOL     OW10108   1.958   0.704   0.690
 3070SOL    HW110109   2.041   0.649   0.695
 3070SOL    HW210110   1.880   0.649   0.718
 3071SOL     OW10111   5.828   4.818   5.195
 3071SOL    HW110112   5.905   4.805   5.134
 3071SOL    HW210113   5.794   4.912   5.187
 3072SOL     OW10114   1.993   6.773   6.331
 3072SOL    HW110115   2.079   6.726   6.311
 3072SOL    HW210116   1.926   6.707   6.365
 3073SOL     OW10117   0.548   5.444   1.780
 3073SOL    HW110118   0.632   5.401   1.811
 3073SOL    HW210119   0.507   5.496   1.855
 3074SOL     OW10120   3.293   2.783   1.878
 3074SOL    HW110121   3.320   2.766   1.783
 3074SOL    HW210122   3.202   2.744   1.895
 3075SOL     OW10123   2.988   5.124   1.430
 3075SOL    HW110124   3.024   5.066   1.503
 3075SOL    HW210125   3.064   5.168   1.382
 3076SOL     OW10126   0.828   0.895   5.272
 3076SOL    HW110127   0.800   0.973   5.216
 3076SOL    HW210128   0.892   0.838   5.221
 3077SOL     OW10129   0.125   4.093   2.268
 3077SOL    HW110130   0.056   4.034   2.225
 3077SOL    HW210131   0.196   4.115   2.201
 3078SOL     OW10132   6.949   3.372   1.816
 3078SOL    HW110133   6.865   3.384   1.868
 3078SOL    HW210134   7.020   3.333   1.876
 3079SOL     OW10135   2.339   3.709   5.375
 3079SOL    HW110136   2.354   3.622   5.423
 3079SOL    HW210137   2.426   3.757   5.366
 3080SOL     OW10138   3.385   4.360   1.065
 3080SOL    HW110139   3.348   4.350   1.158
 3080SOL    HW210140   3.447   4.284   1.047
 3081SOL     OW10141   1.530   3.786   0.288
 3081SOL    HW110142   1.575   3.732   0.360
 3081SOL    HW210143   1.551   3.883   0.302
 3082SOL     OW10144   5.258   5.480   4.955
 3082SOL    HW110145   5.242   5.393   4.907
 3082SOL    HW210146   5.177   5.537   4.947
 3083SOL     OW10147   4.046   5.531   1.690
 3083SOL    HW110148   4.084   5.619   1.720
 3083SOL    HW210149   4.000   5.486   1.767
 3084SOL     OW10150   6.972   4.554   4.015
 3084SOL    HW110151   7.002   4.645   3.986
 3084SOL    HW210152   6.916   4.513   3.943
 3085SOL     OW10153   6.163   5.476   0.347
 3085SOL    HW110154   6.202   5.563   0.378
 3085SOL    HW210155   6.227   5.432   0.284
 3086SOL     OW10156   6.174   6.176   6.392
 3086SOL    HW110157   6.148   6.089   6.435
 3086SOL    HW210158   6.143   6.252   6.449
 3087SOL     OW10159   3.914   0.015   2.198
 3087SOL    HW110160   4.009   0.023   2.166
 3087SOL    HW210161   3.896   0.087   2.265
 3088SOL     OW10162   1.959   3.405   5.776
 3088SOL    HW110163   1.888   3.376   5.840
 3088SOL    HW210164   1.917   3.439   5.692
 3089SOL     OW10165   4.663   5.022   6.280
 3089SOL    HW110166   4.577   5.052   6.324
 3089SOL    HW210167   4.642   4.971   6.197
 3090SOL     OW10168   0.350   2.619   2.120
 3090SOL    HW110169   0.366   2.715   2.142
 3090SOL    HW210170   0.347   2.565   2.204
 3091SOL     OW10171   0.677   3.029   0.916
 3091SOL    HW110172   0.700   3.001   0.823
 3091SOL    HW210173   0.651   2.949   0.970
 3092SOL     OW10174   5.954   1.345   2.030
 3092SOL    HW110175   5.875   1.303   1.985
 3092SOL    HW210176   5.924   1.427   2.079
 3093SOL     OW10177   6.580   5.556   0.082
 3093SOL    HW110178   6.638   5.600   0.014
 3093SOL    HW210179   6.541   5.472   0.043
 3094SOL     OW10180   2.267   1.920   0.110
 3094SOL    HW110181   2.289   1.824   0.094
 3094SOL    HW210182   2.223   1.957   0.028
 3095SOL     OW10183   1.838   4.184   5.794
 3095SOL    HW110184   1.894   4.260   5.763
 3095SOL    HW210185   1.867   4.156   5.886
 3096SOL     OW10186   0.391   2.927   4.148
 3096SOL    HW110187   0.319   2.936   4.217
 3096SOL    HW210188   0.374   2.844   4.094
 3097SOL     OW10189   5.196   3.123   4.983
 3097SOL    HW110190   5.274   3.143   5.043
 3097SOL    HW210191   5.131   3.064   5.032
 3098SOL     OW10192   1.998   3.403   3.380
 3098SOL    HW110193   2.071   3.355   3.332
 3098SOL    HW210194   1.911   3.358   3.362
 3099SOL     OW10195   0.235   6.519   4.542
 3099SOL    HW110196   0.269   6.437   4.588
 3099SOL    HW210197   0.312   6.578   4.518
 3100SOL     OW10198   5.699   4.821   1.791
 3100SOL    HW110199   5.599   4.824   1.799
 3100SOL    HW210200   5.725   4.829   1.695
 3101SOL     OW10201   4.514   6.675   5.129
 3101SOL    HW110202   4.533   6.595   5.186
 3101SOL    HW210203   4.417   6.679   5.108
 3102SOL     OW10204   6.635   5.062   2.047
 3102SOL    HW110205   6.559   5.055   2.111
 3102SOL    HW210206   6.641   5.155   2.011
 3103SOL     OW10207   3.262   1.540   1.599
 3103SOL    HW110208   3.350   1.586   1.600
 3103SOL    HW210209   3.233   1.525   1.504
 3104SOL     OW10210   4.876   1.623   5.004
 3104SOL    HW110211   4.905   1.529   4.986
 3104SOL    HW210212   4.823   1.656   4.926
 3105SOL     OW10213   5.979   3.892   6.998
 3105SOL    HW110214   5.960   3.824   0.045
 3105SOL    HW210215   5.961   3.852   6.908
 3106SOL     OW10216   5.456   1.451   5.557
 3106SOL    HW110217   5.417   1.360   5.572
 3106SOL    HW210218   5.397   1.520   5.599
 3107SOL     OW10219   2.856   1.826   5.227
 3107SOL    HW110220   2.827   1.921   5.239
 3107SOL    HW210221   2.954   1.823   5.208
 3108SOL     OW10222   2.336   4.195   3.215
 3108SOL    HW110223   2.329   4.294   3.207
 3108SOL    HW210224   2.325   4.153   3.125
 3109SOL     OW10225   6.857   6.298   4.322
 3109SOL    HW110226   6.856   6.269   4.418
 3109SOL    HW210227   6.771   6.273   4.279
 3110SOL     OW10228   0.732   5.052   3.155
 3110SOL    HW110229   0.745   4.998   3.238
 3110SOL    HW210230   0.788   5.013   3.081
 3111SOL     OW10231   5.653   4.365   3.649
 3111SOL    HW110232   5.714   4.363   3.729
 3111SOL    HW210233   5.642   4.459   3.619
 3112SOL     OW10234   3.487   1.371   6.116
 3112SOL    HW110235   3.539   1.434   6.059
 3112SOL    HW210236   3.417   1.422   6.166
 3113SOL     OW10237   1.915   6.333   3.274
 3113SOL    HW110238   1.893   6.389   3.355
 3113SOL    HW210239   1.878   6.241   3.286
 3114SOL     OW10240   4.603   1.406   6.187
 3114SOL    HW110241   4.593   1.433   6.091
 3114SOL    HW210242   4.545   1.465   6.244
 3115SOL     OW10243   4.825   5.573   5.497
 3115SOL    HW110244   4.770   5.490   5.505
 3115SOL    HW210245   4.922   5.548   5.486
 3116SOL     OW10246   0.784   0.784   0.162
 3116SOL    HW110247   0.768   0.705   0.103
 3116SOL    HW210248   0.879   0.783   0.194
 3117SOL     OW10249   4.847   0.485   6.458
 3117SOL    HW110250   4.903   0.465   6.539
 3117SOL    HW210251   4.907   0.511   6.383
 3118SOL     OW10252   1.166   1.675   3.500
 3118SOL    HW110253   1.213   1.608   3.442
 3118SOL    HW210254   1.091   1.630   3.548
 3119SOL     OW10255   4.858   5.458   5.064
 3119SOL    HW110256   4.826   5.434   4.973
 3119SOL    HW210257   4.784   5.502   5.115
 3120SOL     OW10258   2.477   5.917   6.215
 3120SOL    HW110259   2.511   5.984   6.281
 3120SOL    HW210260   2.526   5.831   6.226
 3121SOL     OW10261   3.504   1.841   3.943
 3121SOL    HW110262   3.460   1.925   3.975
 3121SOL    HW210263   3.435   1.769   3.935
 3122SOL     OW10264   5.469   5.192   4.929
 3122SOL    HW110265   5.562   5.199   4.892
 3122SOL    HW210266   5.421   5.116   4.886
 3123SOL     OW10267   1.725   1.485   3.232
 3123SOL    HW110268   1.802   1.539   3.263
 3123SOL    HW210269   1.643   1.510   3.285
 3124SOL     OW10270   4.756   0.402   4.441
 3124SOL    HW110271   4.732   0.332   4.373
 3124SOL    HW210272   4.697   0.391   4.521
 3125SOL     OW10273   1.731   1.239   5.334
 3125SOL    HW110274   1.699   1.202   5.421
 3125SOL    HW210275   1.779   1.326   5.349
 3126SOL     OW10276   5.399   5.097   5.463
 3126SOL    HW110277   5.450   5.014   5.485
 3126SOL    HW210278   5.301   5.077   5.464
 3127SOL     OW10279   0.191   1.097   5.185
 3127SOL    HW110280   0.236   1.016   5.148
 3127SOL    HW210281   0.101   1.107   5.144
 3128SOL     OW10282   3.538   0.872   0.990
 3128SOL    HW110283   3.544   0.807   1.066
 3128SOL    HW210284   3.507   0.961   1.025
 3129SOL     OW10285   4.358   3.615   0.339
 3129SOL    HW110286   4.329   3.625   0.434
 3129SOL    HW210287   4.353   3.703   0.293
 3130SOL     OW10288   6.691   5.591   1.891
 3130SOL    HW110289   6.626   5.666   1.906
 3130SOL    HW210290   6.724   5.595   1.797
 3131SOL     OW10291   6.280   4.479   2.825
 3131SOL    HW110292   6.211   4.551   2.828
 3131SOL    HW210293   6.328   4.475   2.912
 3132SOL     OW10294   4.539   4.032   0.266
 3132SOL    HW110295   4.624   4.032   0.214
 3132SOL    HW210296   4.551   4.084   0.351
 3133SOL     OW10297   4.407   0.412   4.247
 3133SOL    HW110298   4.499   0.400   4.209
 3133SOL    HW210299   4.406   0.383   4.342
 3134SOL     OW10300   5.813   5.316   2.421
 3134SOL    HW110301   5.762   5.325   2.335
 3134SOL    HW210302   5.900   5.364   2.413
 3135SOL     OW10303   4.290   5.439   6.567
 3135SOL    HW110304   4.251   5.488   6.488
 3135SOL    HW210305   4.292   5.500   6.646
 3136SOL     OW10306   6.746   1.292   3.491
 3136SOL    HW110307   6.722   1.313   3.586
 3136SOL    HW210308   6.824   1.348   3.464
 3137SOL     OW10309   5.774   6.610   6.568
 3137SOL    HW110310   5.796   6.635   6.474
 3137SOL    HW210311   5.720   6.525   6.568
 3138SOL     OW10312   5.797   6.263   4.846
 3138SOL    HW110313   5.826   6.171   4.820
 3138SOL    HW210314   5.868   6.306   4.902
 3139SOL     OW10315   2.513   5.356   1.272
 3139SOL    HW110316   2.473   5.281   1.219
 3139SOL    HW210317   2.596   5.323   1.318
 3140SOL     OW10318   0.059   6.280   6.933
 3140SOL    HW110319   0.044   6.195   6.983
 3140SOL    HW210320   6.996   6.328   6.923
 3141SOL     OW10321   6.518   1.590   6.648
 3141SOL    HW110322   6.480   1.542   6.569
 3141SOL    HW210323   6.589   1.653   6.618
 3142SOL     OW10324   4.073   0.781   3.946
 3142SOL    HW110325   4.089   0.841   4.024
 3142SOL    HW210326   4.044   0.835   3.867
 3143SOL     OW10327   6.424   1.482   0.571
 3143SOL    HW110328   6.376   1.399   0.542
 3143SOL    HW210329   6.379   1.561   0.529
 3144SOL     OW10330   4.150   4.082   0.361
 3144SOL    HW110331   4.101   4.133   0.290
 3144SOL    HW210332   4.105   3.993   0.374
 3145SOL     OW10333   0.267   6.318   0.125
 3145SOL    HW110334   0.193   6.347   0.063
 3145SOL    HW210335   0.349   6.372   0.107
 3146SOL     OW10336   6.676   1.121   4.827
 3146SOL    HW110337   6.614   1.060   4.877
 3146SOL    HW210338   6.765   1.077   4.817
 3147SOL     OW10339   3.458   5.550   0.482
 3147SOL    HW110340   3.418   5.577   0.570
 3147SOL    HW210341   3.422   5.608   0.409
 3148SOL     OW10342   6.868   5.600   1.673
 3148SOL    HW110343   6.897   5.555   1.757
 3148SOL    HW210344   6.935   5.582   1.601
 3149SOL     OW10345   2.883   2.236   6.953
 3149SOL    HW110346   2.798   2.283   6.977
 3149SOL    HW210347   2.862   2.143   6.923
 3150SOL     OW10348   6.385   5.892   5.430
 3150SOL    HW110349   6.389   5.932   5.521
 3150SOL    HW210350   6.477   5.866   5.400
 3151SOL     OW10351   0.152   0.387   5.485
 3151SOL    HW110352   0.203   0.439   5.554
 3151SOL    HW210353   0.215   0.359   5.412
 3152SOL     OW10354   1.338   3.175   6.036
 3152SOL    HW110355   1.315   3.208   6.128
 3152SOL    HW210356   1.256   3.137   5.993
 3153SOL     OW10357   6.249   5.118   1.606
 3153SOL    HW110358   6.318   5.152   1.670
 3153SOL    HW210359   6.280   5.031   1.567
 3154SOL     OW10360   4.447   0.895   0.063
 3154SOL    HW110361   4.351   0.867   0.061
 3154SOL    HW210362   4.453   0.993   0.045
 3155SOL     OW10363   1.085   4.565   0.312
 3155SOL    HW110364   1.167   4.606   0.353
 3155SOL    HW210365   1.013   4.633   0.307
 3156SOL     OW10366   3.630   4.217   1.732
 3156SOL    HW110367   3.694   4.206   1.808
 3156SOL    HW210368   3.542   4.176   1.756
 3157SOL     OW10369   0.846   1.160   5.664
 3157SOL    HW110370   0.860   1.258   5.656
 3157SOL    HW210371   0.899   1.113   5.593
 3158SOL     OW10372   1.801   0.981   5.976
 3158SOL    HW110373   1.856   1.049   6.025
 3158SOL    HW210374   1.859   0.931   5.912
 3159SOL     OW10375   6.047   0.531   6.894
 3159SOL    HW110376   5.986   0.477   6.952
 3159SOL    HW210377   5.994   0.569   6.818
 3160SOL     OW10378   1.710   0.335   5.851
 3160SOL    HW110379   1.762   0.381   5.780
 3160SOL    HW210380   1.773   0.286   5.912
 3161SOL     OW10381   1.957   2.552   1.883
 3161SOL    HW110382   2.042   2.603   1.898
 3161SOL    HW210383   1.979   2.458   1.857
 3162SOL     OW10384   1.467   5.733   1.178
 3162SOL    HW110385   1.561   5.731   1.142
 3162SOL    HW210386   1.406   5.772   1.109
 3163SOL     OW10387   4.140   4.250   0.051
 3163SOL    HW110388   4.212   4.270   0.118
 3163SOL    HW210389   4.072   4.323   0.052
 3164SOL     OW10390   2.415   6.655   3.389
 3164SOL    HW110391   2.323   6.654   3.428
 3164SOL    HW210392   2.410   6.626   3.293
 3165SOL     OW10393   0.845   0.021   6.417
 3165SOL    HW110394   0.869   7.015   6.509
 3165SOL    HW210395   0.766   0.083   6.422
 3166SOL     OW10396   5.183   1.008   5.057
 3166SOL    HW110397   5.192   1.106   5.036
 3166SOL    HW210398   5.271   0.972   5.086
 3167SOL     OW10399   5.588   2.901   0.574
 3167SOL    HW110400   5.557   2.994   0.594
 3167SOL    HW210401   5.580   2.845   0.656
 3168SOL     OW10402   4.651   2.029   0.563
 3168SOL    HW110403   4.724   2.051   0.629
 3168SOL    HW210404   4.663   1.934   0.532
 3169SOL     OW10405   2.561   4.434   1.775
 3169SOL    HW110406   2.644   4.490   1.766
 3169SOL    HW210407   2.525   4.443   1.867
 3170SOL     OW10408   2.081   3.602   3.215
 3170SOL    HW110409   2.015   3.542   3.260
 3170SOL    HW210410   2.127   3.658   3.284
 3171SOL     OW10411   5.544   2.445   3.598
 3171SOL    HW110412   5.596   2.412   3.520
 3171SOL    HW210413   5.452   2.405   3.596
 3172SOL     OW10414   6.256   3.845   1.829
 3172SOL    HW110415   6.270   3.894   1.915
 3172SOL    HW210416   6.227   3.751   1.848
 3173SOL     OW10417   4.485   2.974   0.361
 3173SOL    HW110418   4.401   2.927   0.337
 3173SOL    HW210419   4.464   3.063   0.401
 3174SOL     OW10420   3.182   3.515   6.509
 3174SOL    HW110421   3.263   3.477   6.464
 3174SOL    HW210422   3.165   3.467   6.595
 3175SOL     OW10423   5.548   0.841   4.907
 3175SOL    HW110424   5.517   0.840   5.002
 3175SOL    HW210425   5.470   0.861   4.847
 3176SOL     OW10426   0.468   4.620   4.452
 3176SOL    HW110427   0.383   4.673   4.452
 3176SOL    HW210428   0.546   4.682   4.441
 3177SOL     OW10429   5.165   3.647   3.523
 3177SOL    HW110430   5.157   3.667   3.425
 3177SOL    HW210431   5.073   3.635   3.562
 3178SOL     OW10432   6.727   0.804   1.886
 3178SOL    HW110433   6.690   0.858   1.962
 3178SOL    HW210434   6.681   0.715   1.882
 3179SOL     OW10435   1.355   2.031   1.889
 3179SOL    HW110436   1.321   1.938   1.877
 3179SOL    HW210437   1.349   2.081   1.802
 3180SOL     OW10438   0.101   5.980   0.314
 3180SOL    HW110439   0.056   5.943   0.396
 3180SOL    HW210440   0.179   6.036   0.342
 3181SOL     OW10441   1.733   6.841   4.831
 3181SOL    HW110442   1.823   6.847   4.874
 3181SOL    HW210443   1.681   6.767   4.873
 3182SOL     OW10444   2.022   1.283   0.815
 3182SOL    HW110445   2.097   1.331   0.861
 3182SOL    HW210446   1.942   1.284   0.874
 3183SOL     OW10447   3.757   4.071   1.107
 3183SOL    HW110448   3.769   4.019   1.023
 3183SOL    HW210449   3.691   4.025   1.166
 3184SOL     OW10450   0.539   2.233   4.613
 3184SOL    HW110451   0.491   2.293   4.549
 3184SOL    HW210452   0.474   2.170   4.655
 3185SOL     OW10453   0.728   5.582   6.657
 3185SOL    HW110454   0.648   5.639   6.675
 3185SOL    HW210455   0.700   5.499   6.609
 3186SOL     OW10456   0.285   1.676   6.589
 3186SOL    HW110457   0.292   1.712   6.495
 3186SOL    HW210458   0.191   1.684   6.620
 3187SOL     OW10459   4.797   6.127   2.509
 3187SOL    HW110460   4.786   6.046   2.452
 3187SOL    HW210461   4.867   6.110   2.579
 3188SOL     OW10462   2.127   5.266   6.804
 3188SOL    HW110463   2.045   5.217   6.777
 3188SOL    HW210464   2.121   5.361   6.776
 3189SOL     OW10465   3.462   1.432   5.386
 3189SOL    HW110466   3.503   1.509   5.434
 3189SOL    HW210467   3.363   1.432   5.402
 3190SOL     OW10468   5.858   6.464   4.518
 3190SOL    HW110469   5.940   6.482   4.464
 3190SOL    HW210470   5.811   6.384   4.481
 3191SOL     OW10471   3.485   5.541   1.073
 3191SOL    HW110472   3.438   5.625   1.100
 3191SOL    HW210473   3.583   5.553   1.082
 3192SOL     OW10474   5.712   1.704   2.823
 3192SOL    HW110475   5.626   1.754   2.816
 3192SOL    HW210476   5.695   1.606   2.806
 3193SOL     OW10477   3.464   7.013   4.764
 3193SOL    HW110478   3.381   0.009   4.816
 3193SOL    HW210479   3.485   0.067   4.704
 3194SOL     OW10480   1.546   0.174   6.873
 3194SOL    HW110481   1.633   0.201   6.833
 3194SOL    HW210482   1.477   0.243   6.853
 3195SOL     OW10483   0.235   1.531   1.526
 3195SOL    HW110484   0.328   1.552   1.495
 3195SOL    HW210485   0.237   1.451   1.586
 3196SOL     OW10486   5.920   0.452   3.461
 3196SOL    HW110487   5.982   0.452   3.539
 3196SOL    HW210488   5.941   0.530   3.401
 3197SOL     OW10489   1.745   0.696   6.593
 3197SOL    HW110490   1.670   0.752   6.629
 3197SOL    HW210491   1.821   0.697   6.658
 3198SOL     OW10492   5.533   2.994   3.357
 3198SOL    HW110493   5.478   2.984   3.440
 3198SOL    HW210494   5.629   2.977   3.379
 3199SOL     OW10495   5.501   4.171   2.719
 3199SOL    HW110496   5.520   4.156   2.816
 3199SOL    HW210497   5.587   4.173   2.668
 3200SOL     OW10498   5.479   3.880   3.527
 3200SOL    HW110499   5.401   3.859   3.585
 3200SOL    HW210500   5.497   3.803   3.467
 3201SOL     OW10501   6.086   4.792   2.565
 3201SOL    HW110502   6.067   4.871   2.506
 3201SOL    HW210503   6.013   4.725   2.554
 3202SOL     OW10504   1.927   3.490   6.959
 3202SOL    HW110505   1.914   3.552   0.012
 3202SOL    HW210506   1.941   3.397   6.992
 3203SOL     OW10507   3.740   6.793   1.304
 3203SOL    HW110508   3.673   6.853   1.260
 3203SOL    HW210509   3.795   6.747   1.235
 3204SOL     OW10510   3.490   1.143   3.132
 3204SOL    HW110511   3.423   1.070   3.143
 3204SOL    HW210512   3.513   1.153   3.035
 3205SOL     OW10513   4.807   3.777   5.875
 3205SOL    HW110514   4.800   3.770   5.775
 3205SOL    HW210515   4.898   3.746   5.904
 3206SOL     OW10516   3.262   3.265   0.967
 3206SOL    HW110517   3.225   3.313   1.046
 3206SOL    HW210518   3.272   3.168   0.988
 3207SOL     OW10519   1.818   5.255   5.842
 3207SOL    HW110520   1.823   5.342   5.890
 3207SOL    HW210521   1.870   5.186   5.894
 3208SOL     OW10522   6.292   4.947   6.219
 3208SOL    HW110523   6.371   4.892   6.248
 3208SOL    HW210524   6.293   5.035   6.268
 3209SOL     OW10525   5.165   5.619   6.766
 3209SOL    HW110526   5.118   5.578   6.688
 3209SOL    HW210527   5.241   5.676   6.735
 3210SOL     OW10528   5.964   5.863   1.964
 3210SOL    HW110529   6.064   5.860   1.971
 3210SOL    HW210530   5.925   5.795   2.027
 3211SOL     OW10531   1.284   5.669   6.460
 3211SOL    HW110532   1.321   5.610   6.532
 3211SOL    HW210533   1.255   5.612   6.382
 3212SOL     OW10534   1.619   0.789   3.154
 3212SOL    HW110535   1.530   0.755   3.122
 3212SOL    HW210536   1.625   0.887   3.135
 3213SOL     OW10537   1.210   0.261   6.312
 3213SOL    HW110538   1.114   0.241   6.293
 3213SOL    HW210539   1.225   0.265   6.410
 3214SOL     OW10540   3.199   0.999   2.355
 3214SOL    HW110541   3.220   1.096   2.367
 3214SOL    HW210542   3.103   0.988   2.331
 3215SOL     OW10543   2.114   3.144   1.515
 3215SOL    HW110544   2.122   3.178   1.608
 3215SOL    HW210545   2.022   3.165   1.480
 3216SOL     OW10546   5.928   4.679   0.802
 3216SOL    HW110547   5.863   4.630   0.744
 3216SOL    HW210548   5.984   4.614   0.852
 3217SOL     OW10549   0.052   5.891   2.493
 3217SOL    HW110550   0.140   5.917   2.454
 3217SOL    HW210551   0.016   5.965   2.550
 3218SOL     OW10552   5.143   1.263   3.018
 3218SOL    HW110553   5.132   1.180   2.963
 3218SOL    HW210554   5.166   1.238   3.112
 3219SOL     OW10555   6.162   1.380   5.379
 3219SOL    HW110556   6.242   1.437   5.399
 3219SOL    HW210557   6.084   1.438   5.357
 3220SOL     OW10558   6.863   4.556   6.406
 3220SOL    HW110559   6.936   4.506   6.453
 3220SOL    HW210560   6.825   4.499   6.333
 3221SOL     OW10561   3.420   1.128   1.180
 3221SOL    HW110562   3.355   1.133   1.104
 3221SOL    HW210563   3.382   1.177   1.259
 3222SOL     OW10564   3.491   1.660   2.681
 3222SOL    HW110565   3.393   1.682   2.685
 3222SOL    HW210566   3.504   1.561   2.691
 3223SOL     OW10567   1.491   5.964   0.616
 3223SOL    HW110568   1.428   6.041   0.626
 3223SOL    HW210569   1.470   5.894   0.684
 3224SOL     OW10570   3.356   2.103   3.592
 3224SOL    HW110571   3.398   2.174   3.535
 3224SOL    HW210572   3.410   2.090   3.675
 3225SOL     OW10573   3.815   1.055   4.173
 3225SOL    HW110574   3.845   1.105   4.092
 3225SOL    HW210575   3.882   0.984   4.195
 3226SOL     OW10576   6.489   0.520   0.640
 3226SOL    HW110577   6.443   0.455   0.700
 3226SOL    HW210578   6.579   0.484   0.615
 3227SOL     OW10579   4.874   4.612   4.937
 3227SOL    HW110580   4.929   4.647   5.013
 3227SOL    HW210581   4.852   4.516   4.954
 3228SOL     OW10582   2.476   3.992   0.188
 3228SOL    HW110583   2.483   3.923   0.259
 3228SOL    HW210584   2.499   4.082   0.226
 3229SOL     OW10585   1.443   1.536   0.439
 3229SOL    HW110586   1.389   1.545   0.523
 3229SOL    HW210587   1.516   1.469   0.453
 3230SOL     OW10588   3.033   6.040   5.686
 3230SOL    HW110589   2.997   5.968   5.745
 3230SOL    HW210590   3.107   6.088   5.734
 3231SOL     OW10591   2.225   2.288   2.487
 3231SOL    HW110592   2.214   2.359   2.556
 3231SOL    HW210593   2.163   2.212   2.507
 3232SOL     OW10594   3.940   5.214   4.216
 3232SOL    HW110595   3.898   5.138   4.266
 3232SOL    HW210596   3.906   5.301   4.253
 3233SOL     OW10597   0.270   1.912   0.345
 3233SOL    HW110598   0.198   1.910   0.275
 3233SOL    HW210599   0.357   1.885   0.305
 3234SOL     OW10600   2.717   2.653   0.595
 3234SOL    HW110601   2.719   2.749   0.566
 3234SOL    HW210602   2.703   2.649   0.694
 3235SOL     OW10603   0.593   0.057   2.940
 3235SOL    HW110604   0.662   0.069   2.869
 3235SOL    HW210605   0.598   6.987   2.976
 3236SOL     OW10606   3.733   2.196   0.050
 3236SOL    HW110607   3.752   2.106   0.089
 3236SOL    HW210608   3.635   2.203   0.030
 3237SOL     OW10609   5.971   1.996   5.108
 3237SOL    HW110610   5.998   1.988   5.011
 3237SOL    HW210611   5.998   2.086   5.142
 3238SOL     OW10612   6.399   4.763   1.862
 3238SOL    HW110613   6.307   4.778   1.897
 3238SOL    HW210614   6.397   4.692   1.792
 3239SOL     OW10615   6.772   0.033   4.735
 3239SOL    HW110616   6.747   0.053   4.640
 3239SOL    HW210617   6.727   0.098   4.796
 3240SOL     OW10618   0.463   0.265   0.255
 3240SOL    HW110619   0.422   0.174   0.257
 3240SOL    HW210620   0.447   0.310   0.343
 3241SOL     OW10621   5.959   2.060   5.766
 3241SOL    HW110622   6.042   2.114   5.780
 3241SOL    HW210623   5.952   2.035   5.669
 3242SOL     OW10624   5.714   3.825   4.497
 3242SOL    HW110625   5.639   3.809   4.562
 3242SOL    HW210626   5.733   3.923   4.491
 3243SOL     OW10627   5.992   4.738   4.390
 3243SOL    HW110628   5.922   4.722   4.460
 3243SOL    HW210629   6.023   4.832   4.395
 3244SOL     OW10630   5.352   0.094   6.675
 3244SOL    HW110631   5.449   0.073   6.694
 3244SOL    HW210632   5.343   0.125   6.581
 3245SOL     OW10633   4.193   1.042   5.431
 3245SOL    HW110634   4.136   1.124   5.433
 3245SOL    HW210635   4.253   1.040   5.511
 3246SOL     OW10636   6.793   0.318   2.976
 3246SOL    HW110637   6.841   0.406   2.981
 3246SOL    HW210638   6.736   0.315   2.894
 3247SOL     OW10639   0.509   4.304   3.429
 3247SOL    HW110640   0.523   4.356   3.345
 3247SOL    HW210641   0.508   4.366   3.507
 3248SOL     OW10642   5.409   2.107   3.370
 3248SOL    HW110643   5.368   2.064   3.289
 3248SOL    HW210644   5.508   2.108   3.361
 3249SOL     OW10645   2.906   3.514   3.878
 3249SOL    HW110646   2.952   3.430   3.907
 3249SOL    HW210647   2.863   3.557   3.957
 3250SOL     OW10648   4.833   5.282   2.712
 3250SOL    HW110649   4.878   5.195   2.690
 3250SOL    HW210650   4.734   5.271   2.707
 3251SOL     OW10651   2.209   1.625   2.805
 3251SOL    HW110652   2.262   1.669   2.878
 3251SOL    HW210653   2.261   1.624   2.721
 3252SOL     OW10654   1.948   1.053   3.269
 3252SOL    HW110655   1.927   1.007   3.183
 3252SOL    HW210656   1.871   1.109   3.297
 3253SOL     OW10657   6.804   4.079   0.567
 3253SOL    HW110658   6.840   4.082   0.660
 3253SOL    HW210659   6.854   4.011   0.514
 3254SOL     OW10660   6.293   0.339   0.752
 3254SOL    HW110661   6.195   0.344   0.770
 3254SOL    HW210662   6.335   0.276   0.817
 3255SOL     OW10663   5.046   5.662   1.166
 3255SOL    HW110664   5.126   5.702   1.212
 3255SOL    HW210665   5.042   5.697   1.072
 3256SOL     OW10666   4.817   2.224   1.284
 3256SOL    HW110667   4.836   2.318   1.313
 3256SOL    HW210668   4.873   2.202   1.204
 3257SOL     OW10669   2.602   2.423   3.110
 3257SOL    HW110670   2.506   2.400   3.094
 3257SOL    HW210671   2.648   2.436   3.023
 3258SOL     OW10672   2.581   5.498   3.344
 3258SOL    HW110673   2.601   5.579   3.399
 3258SOL    HW210674   2.650   5.428   3.361
 3259SOL     OW10675   5.222   4.602   3.776
 3259SOL    HW110676   5.241   4.524   3.836
 3259SOL    HW210677   5.125   4.625   3.781
 3260SOL     OW10678   0.935   4.275   2.920
 3260SOL    HW110679   0.909   4.367   2.949
 3260SOL    HW210680   1.002   4.237   2.984
 3261SOL     OW10681   5.464   6.824   3.798
 3261SOL    HW110682   5.488   6.835   3.894
 3261SOL    HW210683   5.445   6.728   3.778
 3262SOL     OW10684   3.091   2.091   2.748
 3262SOL    HW110685   3.186   2.100   2.718
 3262SOL    HW210686   3.070   1.994   2.761
 3263SOL     OW10687   0.108   1.367   2.543
 3263SOL    HW110688   0.094   1.402   2.450
 3263SOL    HW210689   0.118   1.444   2.606
 3264SOL     OW10690   1.603   4.752   7.020
 3264SOL    HW110691   1.694   4.734   6.984
 3264SOL    HW210692   1.607   4.758   0.096
 3265SOL     OW10693   6.008   5.145   6.431
 3265SOL    HW110694   6.001   5.066   6.492
 3265SOL    HW210695   5.922   5.196   6.432
 3266SOL     OW10696   3.255   5.557   6.654
 3266SOL    HW110697   3.345   5.517   6.637
 3266SOL    HW210698   3.223   5.603   6.572
 3267SOL     OW10699   3.842   0.286   0.717
 3267SOL    HW110700   3.769   0.227   0.681
 3267SOL    HW210701   3.822   0.311   0.811
 3268SOL     OW10702   6.357   5.586   1.614
 3268SOL    HW110703   6.330   5.553   1.524
 3268SOL    HW210704   6.275   5.601   1.670
 3269SOL     OW10705   1.701   5.226   1.676
 3269SOL    HW110706   1.752   5.303   1.715
 3269SOL    HW210707   1.605   5.251   1.666
 3270SOL     OW10708   0.357   2.928   5.339
 3270SOL    HW110709   0.330   2.836   5.367
 3270SOL    HW210710   0.447   2.925   5.295
 3271SOL     OW10711   0.449   2.555   2.410
 3271SOL    HW110712   0.512   2.480   2.391
 3271SOL    HW210713   0.500   2.635   2.441
 3272SOL     OW10714   4.504   6.289   0.546
 3272SOL    HW110715   4.524   6.306   0.643
 3272SOL    HW210716   4.480   6.375   0.502
 3273SOL     OW10717   4.890   2.645   5.941
 3273SOL    HW110718   4.922   2.731   5.981
 3273SOL    HW210719   4.795   2.630   5.966
 3274SOL     OW10720   5.844   0.279   0.970
 3274SOL    HW110721   5.879   0.371   0.951
 3274SOL    HW210722   5.895   0.212   0.916
 3275SOL     OW10723   4.583   0.372   1.653
 3275SOL    HW110724   4.532   0.449   1.614
 3275SOL    HW210725   4.539   0.343   1.738
 3276SOL     OW10726   5.065   0.327   0.362
 3276SOL    HW110727   5.138   0.373   0.412
 3276SOL    HW210728   5.095   0.236   0.335
 3277SOL     OW10729   3.395   2.051   2.150
 3277SOL    HW110730   3.371   2.120   2.081
 3277SOL    HW210731   3.479   2.079   2.197
 3278SOL     OW10732   6.620   0.654   0.218
 3278SOL    HW110733   6.645   0.558   0.214
 3278SOL    HW210734   6.556   0.675   0.144
 3279SOL     OW10735   3.150   0.305   1.850
 3279SOL    HW110736   3.069   0.281   1.796
 3279SOL    HW210737   3.128   0.383   1.909
 3280SOL     OW10738   6.045   4.543   3.679
 3280SOL    HW110739   6.136   4.522   3.644
 3280SOL    HW210740   6.018   4.474   3.746
 3281SOL     OW10741   6.373   3.595   1.130
 3281SOL    HW110742   6.291   3.629   1.083
 3281SOL    HW210743   6.369   3.621   1.227
 3282SOL     OW10744   0.460   4.890   4.192
 3282SOL    HW110745   0.429   4.979   4.160
 3282SOL    HW210746   0.432   4.878   4.288
 3283SOL     OW10747   3.581   1.992   0.417
 3283SOL    HW110748   3.561   1.969   0.513
 3283SOL    HW210749   3.677   2.018   0.409
 3284SOL     OW10750   1.869   6.290   4.504
 3284SOL    HW110751   1.791   6.304   4.442
 3284SOL    HW210752   1.836   6.252   4.591
 3285SOL     OW10753   3.770   1.988   4.873
 3285SOL    HW110754   3.683   2.031   4.897
 3285SOL    HW210755   3.813   1.952   4.955
 3286SOL     OW10756   2.625   1.616   1.458
 3286SOL    HW110757   2.610   1.528   1.503
 3286SOL    HW210758   2.601   1.690   1.522
 3287SOL     OW10759   2.690   0.276   0.082
 3287SOL    HW110760   2.612   0.285   0.145
 3287SOL    HW210761   2.730   0.366   0.065
 3288SOL     OW10762   2.236   6.404   1.321
 3288SOL    HW110763   2.183   6.483   1.352
 3288SOL    HW210764   2.235   6.333   1.392
 3289SOL     OW10765   4.105   1.300   6.622
 3289SOL    HW110766   4.200   1.272   6.607
 3289SOL    HW210767   4.100   1.399   6.627
 3290SOL     OW10768   0.240   5.768   0.620
 3290SOL    HW110769   0.172   5.840   0.631
 3290SOL    HW210770   0.208   5.684   0.665
 3291SOL     OW10771   4.850   6.759   5.253
 3291SOL    HW110772   4.799   6.750   5.338
 3291SOL    HW210773   4.828   6.684   5.192
 3292SOL     OW10774   6.756   2.169   1.110
 3292SOL    HW110775   6.854   2.162   1.128
 3292SOL    HW210776   6.707   2.183   1.196
 3293SOL     OW10777   5.797   5.779   3.512
 3293SOL    HW110778   5.718   5.792   3.452
 3293SOL    HW210779   5.800   5.684   3.544
 3294SOL     OW10780   5.363   2.713   4.698
 3294SOL    HW110781   5.370   2.619   4.663
 3294SOL    HW210782   5.423   2.772   4.644
 3295SOL     OW10783   1.032   2.744   2.563
 3295SOL    HW110784   0.983   2.724   2.648
 3295SOL    HW210785   1.119   2.789   2.584
 3296SOL     OW10786   1.537   0.508   6.006
 3296SOL    HW110787   1.589   0.454   5.940
 3296SOL    HW210788   1.584   0.594   6.022
 3297SOL     OW10789   2.912   1.149   4.809
 3297SOL    HW110790   2.938   1.225   4.749
 3297SOL    HW210791   2.845   1.182   4.876
 3298SOL     OW10792   5.429   3.922   5.910
 3298SOL    HW110793   5.393   3.947   6.000
 3298SOL    HW210794   5.529   3.922   5.913
 3299SOL     OW10795   2.585   4.598   4.230
 3299SOL    HW110796   2.675   4.638   4.216
 3299SOL    HW210797   2.539   4.587   4.142
 3300SOL     OW10798   1.899   0.050   4.419
 3300SOL    HW110799   1.921   0.111   4.495
 3300SOL    HW210800   1.965   6.999   4.415
 3301SOL     OW10801   1.028   1.488   2.880
 3301SOL    HW110802   1.099   1.516   2.946
 3301SOL    HW210803   0.942   1.474   2.929
 3302SOL     OW10804   2.539   4.904   5.764
 3302SOL    HW110805   2.551   4.995   5.803
 3302SOL    HW210806   2.577   4.901   5.672
 3303SOL     OW10807   3.740   2.961   0.018
 3303SOL    HW110808   3.756   2.892   0.090
 3303SOL    HW210809   3.821   3.018   0.008
 3304SOL     OW10810   2.980   5.479   6.717
 3304SOL    HW110811   3.074   5.515   6.724
 3304SOL    HW210812   2.922   5.526   6.783
 3305SOL     OW10813   3.455   2.568   1.042
 3305SOL    HW110814   3.460   2.615   1.130
 3305SOL    HW210815   3.523   2.494   1.040
 3306SOL     OW10816   2.333   0.757   0.004
 3306SOL    HW110817   2.302   0.713   0.088
 3306SOL    HW210818   2.277   0.838   7.010
 3307SOL     OW10819   1.721   6.715   5.388
 3307SOL    HW110820   1.672   6.728   5.474
 3307SOL    HW210821   1.760   6.623   5.386
 3308SOL     OW10822   3.873   4.380   1.338
 3308SOL    HW110823   3.901   4.290   1.370
 3308SOL    HW210824   3.845   4.374   1.242
 3309SOL     OW10825   5.874   3.364   3.607
 3309SOL    HW110826   5.869   3.264   3.598
 3309SOL    HW210827   5.785   3.404   3.584
 3310SOL     OW10828   6.311   4.969   5.720
 3310SOL    HW110829   6.260   5.055   5.716
 3310SOL    HW210830   6.306   4.924   5.631
 3311SOL     OW10831   2.928   3.448   0.204
 3311SOL    HW110832   2.921   3.352   0.178
 3311SOL    HW210833   2.839   3.481   0.237
 3312SOL     OW10834   4.705   2.432   5.634
 3312SOL    HW110835   4.748   2.522   5.642
 3312SOL    HW210836   4.618   2.441   5.585
 3313SOL     OW10837   0.886   0.976   3.515
 3313SOL    HW110838   0.866   1.071   3.494
 3313SOL    HW210839   0.887   0.922   3.431
 3314SOL     OW10840   2.662   5.563   2.849
 3314SOL    HW110841   2.627   5.491   2.909
 3314SOL    HW210842   2.679   5.525   2.758
 3315SOL     OW10843   0.389   5.496   5.183
 3315SOL    HW110844   0.439   5.526   5.102
 3315SOL    HW210845   0.303   5.546   5.189
 3316SOL     OW10846   3.864   2.764   6.218
 3316SOL    HW110847   3.838   2.815   6.300
 3316SOL    HW210848   3.933   2.696   6.241
 3317SOL     OW10849   4.838   2.464   2.428
 3317SOL    HW110850   4.868   2.463   2.523
 3317SOL    HW210851   4.769   2.393   2.413
 3318SOL     OW10852   3.350   2.313   0.954
 3318SOL    HW110853   3.340   2.412   0.965
 3318SOL    HW210854   3.267   2.274   0.915
 3319SOL     OW10855   6.521   5.992   3.567
 3319SOL    HW110856   6.489   6.084   3.543
 3319SOL    HW210857   6.594   5.998   3.634
 3320SOL     OW10858   6.134   6.902   1.440
 3320SOL    HW110859   6.188   6.942   1.367
 3320SOL    HW210860   6.056   6.961   1.460
 3321SOL     OW10861   4.799   1.267   0.545
 3321SOL    HW110862   4.797   1.364   0.520
 3321SOL    HW210863   4.729   1.249   0.614
 3322SOL     OW10864   6.698   3.963   1.054
 3322SOL    HW110865   6.770   3.954   1.123
 3322SOL    HW210866   6.722   3.906   0.975
 3323SOL     OW10867   1.664   2.623   1.383
 3323SOL    HW110868   1.687   2.719   1.399
 3323SOL    HW210869   1.741   2.565   1.409
 3324SOL     OW10870   5.039   5.912   5.891
 3324SOL    HW110871   5.117   5.899   5.952
 3324SOL    HW210872   4.996   5.824   5.873
 3325SOL     OW10873   2.313   3.874   6.205
 3325SOL    HW110874   2.275   3.823   6.128
 3325SOL    HW210875   2.384   3.819   6.250
 3326SOL     OW10876   3.749   1.001   2.344
 3326SOL    HW110877   3.778   0.947   2.423
 3326SOL    HW210878   3.672   1.060   2.370
 3327SOL     OW10879   0.578   5.220   0.181
 3327SOL    HW110880   0.652   5.241   0.246
 3327SOL    HW210881   0.525   5.143   0.216
 3328SOL     OW10882   4.641   2.316   6.389
 3328SOL    HW110883   4.548   2.288   6.414
 3328SOL    HW210884   4.663   2.281   6.297
 3329SOL     OW10885   6.893   5.928   5.874
 3329SOL    HW110886   6.912   5.878   5.958
 3329SOL    HW210887   6.958   6.003   5.864
 3330SOL     OW10888   6.419   3.520   2.864
 3330SOL    HW110889   6.516   3.546   2.870
 3330SOL    HW210890   6.406   3.430   2.906
 3331SOL     OW10891   2.258   3.080   1.292
 3331SOL    HW110892   2.178   3.041   1.245
 3331SOL    HW210893   2.232   3.107   1.384
 3332SOL     OW10894   6.329   4.882   1.497
 3332SOL    HW110895   6.404   4.896   1.433
 3332SOL    HW210896   6.290   4.790   1.483
 3333SOL     OW10897   4.569   5.722   5.845
 3333SOL    HW110898   4.536   5.664   5.771
 3333SOL    HW210899   4.493   5.742   5.908
 3334SOL     OW10900   2.646   4.215   1.591
 3334SOL    HW110901   2.587   4.258   1.659
 3334SOL    HW210902   2.742   4.232   1.615
 3335SOL     OW10903   5.675   4.270   4.839
 3335SOL    HW110904   5.617   4.191   4.855
 3335SOL    HW210905   5.768   4.239   4.818
 3336SOL     OW10906   3.301   5.789   6.040
 3336SOL    HW110907   3.260   5.720   5.980
 3336SOL    HW210908   3.258   5.784   6.130
 3337SOL     OW10909   3.580   1.926   0.930
 3337SOL    HW110910   3.673   1.891   0.944
 3337SOL    HW210911   3.581   2.026   0.927
 3338SOL     OW10912   0.370   4.616   0.740
 3338SOL    HW110913   0.392   4.525   0.705
 3338SOL    HW210914   0.448   4.652   0.792
 3339SOL     OW10915   6.813   5.600   6.494
 3339SOL    HW110916   6.814   5.680   6.433
 3339SOL    HW210917   6.769   5.524   6.448
 3340SOL     OW10918   3.509   6.498   1.619
 3340SOL    HW110919   3.538   6.499   1.523
 3340SOL    HW210920   3.411   6.516   1.624
 3341SOL     OW10921   1.158   0.458   1.966
 3341SOL    HW110922   1.081   0.483   2.025
 3341SOL    HW210923   1.123   0.419   1.881
 3342SOL     OW10924   2.534   6.709   4.341
 3342SOL    HW110925   2.500   6.778   4.404
 3342SOL    HW210926   2.464   6.639   4.326
 3343SOL     OW10927   5.979   2.466   1.237
 3343SOL    HW110928   6.044   2.425   1.172
 3343SOL    HW210929   5.938   2.548   1.197
 3344SOL     OW10930   0.237   3.440   5.535
 3344SOL    HW110931   0.146   3.451   5.574
 3344SOL    HW210932   0.238   3.474   5.441
 3345SOL     OW10933   2.948   3.259   5.624
 3345SOL    HW110934   2.890   3.288   5.548
 3345SOL    HW210935   3.028   3.211   5.588
 3346SOL     OW10936   1.271   6.125   2.362
 3346SOL    HW110937   1.330   6.090   2.289
 3346SOL    HW210938   1.260   6.224   2.351
 3347SOL     OW10939   5.555   4.027   4.896
 3347SOL    HW110940   5.592   4.028   4.988
 3347SOL    HW210941   5.455   4.036   4.900
 3348SOL     OW10942   3.521   2.954   3.566
 3348SOL    HW110943   3.535   2.917   3.474
 3348SOL    HW210944   3.426   2.984   3.575
 3349SOL     OW10945   6.251   3.710   5.064
 3349SOL    HW110946   6.164   3.730   5.017
 3349SOL    HW210947   6.326   3.719   4.999
 3350SOL     OW10948   0.752   1.417   1.133
 3350SOL    HW110949   0.726   1.321   1.123
 3350SOL    HW210950   0.829   1.437   1.072
 3351SOL     OW10951   5.033   1.668   1.797
 3351SOL    HW110952   5.036   1.767   1.792
 3351SOL    HW210953   4.946   1.635   1.758
 3352SOL     OW10954   0.470   3.924   0.530
 3352SOL    HW110955   0.413   3.882   0.601
 3352SOL    HW210956   0.525   3.997   0.570
 3353SOL     OW10957   1.824   6.468   5.969
 3353SOL    HW110958   1.807   6.432   6.061
 3353SOL    HW210959   1.889   6.544   5.974
 3354SOL     OW10960   0.921   1.887   2.608
 3354SOL    HW110961   0.953   1.792   2.616
 3354SOL    HW210962   0.854   1.893   2.534
 3355SOL     OW10963   6.396   1.564   2.627
 3355SOL    HW110964   6.395   1.508   2.710
 3355SOL    HW210965   6.471   1.534   2.568
 3356SOL     OW10966   2.772   2.917   6.542
 3356SOL    HW110967   2.776   2.990   6.473
 3356SOL    HW210968   2.860   2.909   6.588
 3357SOL     OW10969   2.716   4.916   2.027
 3357SOL    HW110970   2.789   4.972   1.988
 3357SOL    HW210971   2.745   4.820   2.028
 3358SOL     OW10972   5.227   4.640   2.871
 3358SOL    HW110973   5.306   4.701   2.871
 3358SOL    HW210974   5.243   4.564   2.934
 3359SOL     OW10975   0.950   1.248   2.044
 3359SOL    HW110976   0.940   1.148   2.053
 3359SOL    HW210977   0.986   1.286   2.128
 3360SOL     OW10978   1.379   0.490   6.611
 3360SOL    HW110979   1.478   0.502   6.608
 3360SOL    HW210980   1.335   0.564   6.559
 3361SOL     OW10981   5.560   6.828   2.597
 3361SOL    HW110982   5.608   6.863   2.517
 3361SOL    HW210983   5.626   6.785   2.659
 3362SOL     OW10984   2.326   1.521   5.372
 3362SOL    HW110985   2.234   1.497   5.402
 3362SOL    HW210986   2.352   1.464   5.294
 3363SOL     OW10987   0.492   0.962   6.917
 3363SOL    HW110988   0.446   1.043   6.954
 3363SOL    HW210989   0.584   0.987   6.888
 3364SOL     OW10990   2.128   4.976   6.439
 3364SOL    HW110991   2.136   4.926   6.353
 3364SOL    HW210992   2.037   5.017   6.445
 3365SOL     OW10993   6.514   1.938   5.750
 3365SOL    HW110994   6.609   1.908   5.756
 3365SOL    HW210995   6.465   1.908   5.832
 3366SOL     OW10996   5.243   1.235   5.878
 3366SOL    HW110997   5.288   1.263   5.794
 3366SOL    HW210998   5.252   1.135   5.889
 3367SOL     OW10999   0.692   0.673   2.129
 3367SOL    HW111000   0.609   0.619   2.134
 3367SOL    HW211001   0.674   0.758   2.079
 3368SOL     OW11002   6.745   6.084   5.367
 3368SOL    HW111003   6.771   6.036   5.282
 3368SOL    HW211004   6.782   6.034   5.445
 3369SOL     OW11005   3.983   0.224   6.375
 3369SOL    HW111006   3.901   0.178   6.410
 3369SOL    HW211007   4.029   0.272   6.449
 3370SOL     OW11008   5.587   0.041   5.281
 3370SOL    HW111009   5.585   0.023   5.380
 3370SOL    HW211010   5.682   0.049   5.251
 3371SOL     OW11011   6.836   5.187   1.724
 3371SOL    HW111012   6.765   5.206   1.792
 3371SOL    HW211013   6.815   5.236   1.639
 3372SOL     OW11014   0.440   1.170   2.493
 3372SOL    HW111015   0.398   1.208   2.575
 3372SOL    HW211016   0.475   1.078   2.513
 3373SOL     OW11017   6.694   2.136   5.379
 3373SOL    HW111018   6.624   2.129   5.307
 3373SOL    HW211019   6.649   2.154   5.466
 3374SOL     OW11020   3.173   5.260   4.808
 3374SOL    HW111021   3.148   5.297   4.719
 3374SOL    HW211022   3.255   5.307   4.842
 3375SOL     OW11023   4.516   4.678   5.436
 3375SOL    HW111024   4.592   4.680   5.501
 3375SOL    HW211025   4.445   4.743   5.464
 3376SOL     OW11026   3.302   3.748   2.381
 3376SOL    HW111027   3.367   3.811   2.423
 3376SOL    HW211028   3.213   3.793   2.372
 3377SOL     OW11029   2.101   6.232   5.534
 3377SOL    HW111030   2.100   6.309   5.470
 3377SOL    HW211031   2.060   6.260   5.620
 3378SOL     OW11032   0.360   1.477   0.475
 3378SOL    HW111033   0.395   1.466   0.382
 3378SOL    HW211034   0.358   1.574   0.499
 3379SOL     OW11035   0.833   4.807   5.787
 3379SOL    HW111036   0.821   4.844   5.695
 3379SOL    HW211037   0.816   4.708   5.786
 3380SOL     OW11038   0.463   4.174   6.371
 3380SOL    HW111039   0.365   4.192   6.365
 3380SOL    HW211040   0.479   4.092   6.426
 3381SOL     OW11041   3.044   2.749   0.418
 3381SOL    HW111042   3.036   2.652   0.439
 3381SOL    HW211043   3.019   2.803   0.498
 3382SOL     OW11044   6.753   0.387   0.867
 3382SOL    HW111045   6.714   0.376   0.776
 3382SOL    HW211046   6.851   0.407   0.859
 3383SOL     OW11047   6.348   5.100   2.583
 3383SOL    HW111048   6.265   5.151   2.562
 3383SOL    HW211049   6.324   5.014   2.628
 3384SOL     OW11050   3.865   3.035   4.474
 3384SOL    HW111051   3.872   3.030   4.375
 3384SOL    HW211052   3.953   3.062   4.513
 3385SOL     OW11053   6.549   3.753   3.376
 3385SOL    HW111054   6.526   3.724   3.469
 3385SOL    HW211055   6.464   3.765   3.323
 3386SOL     OW11056   5.808   4.453   5.008
 3386SOL    HW111057   5.894   4.412   4.978
 3386SOL    HW211058   5.732   4.405   4.965
 3387SOL     OW11059   2.611   2.437   2.839
 3387SOL    HW111060   2.589   2.473   2.748
 3387SOL    HW211061   2.569   2.347   2.850
 3388SOL     OW11062   5.981   2.578   1.690
 3388SOL    HW111063   5.971   2.515   1.768
 3388SOL    HW211064   5.895   2.629   1.678
 3389SOL     OW11065   5.301   4.548   3.198
 3389SOL    HW111066   5.391   4.508   3.218
 3389SOL    HW211067   5.294   4.637   3.241
 3390SOL     OW11068   4.900   2.626   5.018
 3390SOL    HW111069   4.916   2.566   5.096
 3390SOL    HW211070   4.843   2.703   5.046
 3391SOL     OW11071   3.508   2.031   4.611
 3391SOL    HW111072   3.524   2.061   4.704
 3391SOL    HW211073   3.562   1.948   4.593
 3392SOL     OW11074   4.153   6.352   3.834
 3392SOL    HW111075   4.083   6.409   3.792
 3392SOL    HW211076   4.202   6.302   3.762
 3393SOL     OW11077   6.792   0.109   6.958
 3393SOL    HW111078   6.821   0.138   0.025
 3393SOL    HW211079   6.701   0.069   6.963
 3394SOL     OW11080   6.131   2.794   1.777
 3394SOL    HW111081   6.092   2.709   1.743
 3394SOL    HW211082   6.059   2.850   1.818
 3395SOL     OW11083   1.304   3.346   5.367
 3395SOL    HW111084   1.352   3.431   5.343
 3395SOL    HW211085   1.370   3.278   5.399
 3396SOL     OW11086   0.233   4.449   3.949
 3396SOL    HW111087   0.248   4.371   4.010
 3396SOL    HW211088   0.297   4.522   3.972
 3397SOL     OW11089   3.880   6.345   6.377
 3397SOL    HW111090   3.856   6.440   6.397
 3397SOL    HW211091   3.949   6.343   6.304
 3398SOL     OW11092   0.615   6.858   3.984
 3398SOL    HW111093   0.587   6.766   4.010
 3398SOL    HW211094   0.596   6.874   3.887
 3399SOL     OW11095   4.836   4.732   4.395
 3399SOL    HW111096   4.815   4.794   4.319
 3399SOL    HW211097   4.864   4.644   4.358
 3400SOL     OW11098   4.857   2.282   6.845
 3400SOL    HW111099   4.870   2.378   6.821
 3400SOL    HW211100   4.947   2.239   6.856
 3401SOL     OW11101   5.935   4.592   0.350
 3401SOL    HW111102   5.881   4.663   0.395
 3401SOL    HW211103   5.874   4.519   0.320
 3402SOL     OW11104   5.382   5.731   1.755
 3402SOL    HW111105   5.447   5.797   1.717
 3402SOL    HW211106   5.289   5.766   1.745
 3403SOL     OW11107   3.557   1.175   5.004
 3403SOL    HW111108   3.603   1.228   5.075
 3403SOL    HW211109   3.547   1.080   5.035
 3404SOL     OW11110   4.853   0.852   0.363
 3404SOL    HW111111   4.810   0.764   0.383
 3404SOL    HW211112   4.819   0.886   0.275
 3405SOL     OW11113   6.822   3.869   0.050
 3405SOL    HW111114   6.907   3.844   0.096
 3405SOL    HW211115   6.828   3.843   6.977
 3406SOL     OW11116   1.479   4.011   2.219
 3406SOL    HW111117   1.485   3.978   2.314
 3406SOL    HW211118   1.512   3.939   2.157
 3407SOL     OW11119   1.256   5.510   2.694
 3407SOL    HW111120   1.342   5.500   2.743
 3407SOL    HW211121   1.273   5.539   2.600
 3408SOL     OW11122   5.266   4.362   2.895
 3408SOL    HW111123   5.258   4.323   2.987
 3408SOL    HW211124   5.349   4.326   2.852
 3409SOL     OW11125   3.861   0.626   5.237
 3409SOL    HW111126   3.869   0.552   5.304
 3409SOL    HW211127   3.893   0.711   5.278
 3410SOL     OW11128   6.272   0.352   0.478
 3410SOL    HW111129   6.355   0.329   0.429
 3410SOL    HW211130   6.283   0.331   0.575
 3411SOL     OW11131   5.022   1.973   2.526
 3411SOL    HW111132   5.050   2.042   2.593
 3411SOL    HW211133   5.068   1.886   2.547
 3412SOL     OW11134   3.918   4.435   0.027
 3412SOL    HW111135   3.835   4.465   7.004
 3412SOL    HW211136   3.923   4.479   0.117
 3413SOL     OW11137   3.714   1.948   2.897
 3413SOL    HW111138   3.706   1.911   2.805
 3413SOL    HW211139   3.629   1.930   2.947
 3414SOL     OW11140   2.592   2.486   4.873
 3414SOL    HW111141   2.661   2.428   4.830
 3414SOL    HW211142   2.624   2.511   4.965
 3415SOL     OW11143   0.705   4.772   4.041
 3415SOL    HW111144   0.650   4.790   4.122
 3415SOL    HW211145   0.801   4.761   4.068
 3416SOL     OW11146   1.320   5.315   5.550
 3416SOL    HW111147   1.411   5.283   5.578
 3416SOL    HW211148   1.252   5.246   5.574
 3417SOL     OW11149   6.198   7.020   2.345
 3417SOL    HW111150   6.166   0.017   2.438
 3417SOL    HW211151   6.298   0.002   2.342
 3418SOL     OW11152   3.205   1.328   5.703
 3418SOL    HW111153   3.229   1.366   5.792
 3418SOL    HW211154   3.122   1.273   5.711
 3419SOL     OW11155   4.355   4.507   0.255
 3419SOL    HW111156   4.432   4.466   0.205
 3419SOL    HW211157   4.305   4.568   0.194
 3420SOL     OW11158   4.153   2.272   3.385
 3420SOL    HW111159   4.145   2.245   3.481
 3420SOL    HW211160   4.157   2.372   3.379
 3421SOL     OW11161   0.108   5.649   5.265
 3421SOL    HW111162   0.074   5.735   5.302
 3421SOL    HW211163   0.106   5.653   5.165
 3422SOL     OW11164   3.319   1.424   2.108
 3422SOL    HW111165   3.317   1.384   2.200
 3422SOL    HW211166   3.403   1.398   2.062
 3423SOL     OW11167   2.565   0.683   1.143
 3423SOL    HW111168   2.521   0.719   1.061
 3423SOL    HW211169   2.497   0.664   1.213
 3424SOL     OW11170   4.432   0.946   2.969
 3424SOL    HW111171   4.363   1.009   3.006
 3424SOL    HW211172   4.502   0.930   3.039
 3425SOL     OW11173   4.572   4.313   1.638
 3425SOL    HW111174   4.521   4.304   1.723
 3425SOL    HW211175   4.641   4.385   1.648
 3426SOL     OW11176   4.311   3.918   0.763
 3426SOL    HW111177   4.352   3.829   0.784
 3426SOL    HW211178   4.268   3.954   0.845
 3427SOL     OW11179   0.933   1.176   0.211
 3427SOL    HW111180   0.936   1.099   0.274
 3427SOL    HW211181   0.869   1.157   0.137
 3428SOL     OW11182   4.050   4.798   2.385
 3428SOL    HW111183   3.967   4.849   2.364
 3428SOL    HW211184   4.074   4.739   2.308
 3429SOL     OW11185   1.445   3.051   6.956
 3429SOL    HW111186   1.520   3.118   6.954
 3429SOL    HW211187   1.464   2.983   0.003
 3430SOL     OW11188   1.522   6.931   0.243
 3430SOL    HW111189   1.519   6.834   0.219
 3430SOL    HW211190   1.465   6.947   0.324
 3431SOL     OW11191   0.756   5.720   0.936
 3431SOL    HW111192   0.722   5.660   0.862
 3431SOL    HW211193   0.684   5.732   1.004
 3432SOL     OW11194   3.331   1.596   5.906
 3432SOL    HW111195   3.427   1.572   5.889
 3432SOL    HW211196   3.320   1.696   5.901
 3433SOL     OW11197   3.348   1.246   4.805
 3433SOL    HW111198   3.406   1.207   4.876
 3433SOL    HW211199   3.398   1.249   4.718
 3434SOL     OW11200   4.667   2.695   2.102
 3434SOL    HW111201   4.670   2.789   2.069
 3434SOL    HW211202   4.578   2.654   2.082
 3435SOL     OW11203   0.237   1.300   1.679
 3435SOL    HW111204   0.181   1.288   1.760
 3435SOL    HW211205   0.255   1.211   1.637
 3436SOL     OW11206   4.075   6.701   4.487
 3436SOL    HW111207   4.164   6.702   4.533
 3436SOL    HW211208   4.004   6.730   4.552
 3437SOL     OW11209   3.933   7.018   5.773
 3437SOL    HW111210   3.936   0.094   5.771
 3437SOL    HW211211   3.845   6.986   5.738
 3438SOL     OW11212   0.755   2.625   6.350
 3438SOL    HW111213   0.668   2.615   6.302
 3438SOL    HW211214   0.790   2.718   6.339
 3439SOL     OW11215   2.526   6.005   3.895
 3439SOL    HW111216   2.622   6.028   3.877
 3439SOL    HW211217   2.470   6.033   3.817
 3440SOL     OW11218   5.390   3.099   0.804
 3440SOL    HW111219   5.334   3.017   0.799
 3440SOL    HW211220   5.371   3.157   0.724
 3441SOL     OW11221   2.681   0.419   3.734
 3441SOL    HW111222   2.672   0.505   3.684
 3441SOL    HW211223   2.639   0.345   3.682
 3442SOL     OW11224   1.990   4.693   3.358
 3442SOL    HW111225   2.020   4.650   3.443
 3442SOL    HW211226   1.956   4.785   3.377
 3443SOL     OW11227   5.535   1.067   2.916
 3443SOL    HW111228   5.511   1.079   2.820
 3443SOL    HW211229   5.622   1.017   2.922
 3444SOL     OW11230   4.791   5.421   0.245
 3444SOL    HW111231   4.748   5.401   0.333
 3444SOL    HW211232   4.770   5.516   0.218
 3445SOL     OW11233   6.618   4.429   3.975
 3445SOL    HW111234   6.659   4.373   4.046
 3445SOL    HW211235   6.690   4.463   3.914
 3446SOL     OW11236   3.800   6.805   2.695
 3446SOL    HW111237   3.859   6.800   2.775
 3446SOL    HW211238   3.748   6.891   2.696
 3447SOL     OW11239   5.545   6.156   6.806
 3447SOL    HW111240   5.543   6.083   6.875
 3447SOL    HW211241   5.622   6.140   6.744
 3448SOL     OW11242   3.530   1.980   1.246
 3448SOL    HW111243   3.463   2.053   1.257
 3448SOL    HW211244   3.620   2.020   1.226
 3449SOL     OW11245   6.996   6.398   3.250
 3449SOL    HW111246   0.009   6.459   3.180
 3449SOL    HW211247   6.906   6.429   3.278
 3450SOL     OW11248   1.053   1.629   1.490
 3450SOL    HW111249   1.067   1.547   1.436
 3450SOL    HW211250   1.021   1.703   1.431
 3451SOL     OW11251   0.839   5.751   4.423
 3451SOL    HW111252   0.771   5.823   4.440
 3451SOL    HW211253   0.831   5.720   4.328
 3452SOL     OW11254   5.913   1.332   0.621
 3452SOL    HW111255   5.853   1.412   0.616
 3452SOL    HW211256   5.870   1.262   0.678
 3453SOL     OW11257   5.375   5.557   4.569
 3453SOL    HW111258   5.309   5.620   4.611
 3453SOL    HW211259   5.410   5.596   4.485
 3454SOL     OW11260   1.060   0.964   0.733
 3454SOL    HW111261   1.029   0.981   0.640
 3454SOL    HW211262   1.008   0.889   0.773
 3455SOL     OW11263   1.843   2.860   4.194
 3455SOL    HW111264   1.794   2.878   4.280
 3455SOL    HW211265   1.941   2.872   4.208
 3456SOL     OW11266   5.750   6.993   1.606
 3456SOL    HW111267   5.800   0.006   1.527
 3456SOL    HW211268   5.787   6.903   1.630
 3457SOL     OW11269   2.278   5.016   3.594
 3457SOL    HW111270   2.360   5.059   3.632
 3457SOL    HW211271   2.287   4.917   3.598
 3458SOL     OW11272   5.731   6.584   0.591
 3458SOL    HW111273   5.645   6.627   0.562
 3458SOL    HW211274   5.779   6.547   0.511
 3459SOL     OW11275   0.195   5.273   4.044
 3459SOL    HW111276   0.135   5.196   4.065
 3459SOL    HW211277   0.159   5.322   3.965
 3460SOL     OW11278   4.445   3.160   6.808
 3460SOL    HW111279   4.482   3.108   6.884
 3460SOL    HW211280   4.460   3.110   6.722
 3461SOL     OW11281   4.016   6.236   3.587
 3461SOL    HW111282   3.987   6.174   3.660
 3461SOL    HW211283   4.100   6.203   3.546
 3462SOL     OW11284   4.857   3.692   3.062
 3462SOL    HW111285   4.874   3.769   3.000
 3462SOL    HW211286   4.879   3.720   3.155
 3463SOL     OW11287   2.213   2.728   1.523
 3463SOL    HW111288   2.278   2.794   1.561
 3463SOL    HW211289   2.122   2.744   1.562
 3464SOL     OW11290   4.978   3.120   6.384
 3464SOL    HW111291   5.076   3.131   6.368
 3464SOL    HW211292   4.952   3.025   6.368
 3465SOL     OW11293   2.129   3.678   2.116
 3465SOL    HW111294   2.166   3.595   2.074
 3465SOL    HW211295   2.051   3.711   2.062
 3466SOL     OW11296   6.191   5.174   4.223
 3466SOL    HW111297   6.260   5.164   4.151
 3466SOL    HW211298   6.204   5.261   4.270
 3467SOL     OW11299   2.906   2.460   0.594
 3467SOL    HW111300   2.844   2.535   0.571
 3467SOL    HW211301   2.861   2.373   0.572
 3468SOL     OW11302   4.521   1.886   1.001
 3468SOL    HW111303   4.495   1.851   1.091
 3468SOL    HW211304   4.577   1.968   1.012
 3469SOL     OW11305   4.109   6.464   5.716
 3469SOL    HW111306   4.152   6.375   5.731
 3469SOL    HW211307   4.180   6.535   5.711
 3470SOL     OW11308   0.446   3.084   2.033
 3470SOL    HW111309   0.441   3.028   2.115
 3470SOL    HW211310   0.514   3.156   2.046
 3471SOL     OW11311   5.175   4.029   3.547
 3471SOL    HW111312   5.184   4.049   3.645
 3471SOL    HW211313   5.261   3.990   3.513
 3472SOL     OW11314   4.480   1.779   3.320
 3472SOL    HW111315   4.456   1.683   3.329
 3472SOL    HW211316   4.401   1.836   3.343
 3473SOL     OW11317   0.058   4.211   2.521
 3473SOL    HW111318   0.053   4.153   2.440
 3473SOL    HW211319   0.153   4.219   2.551
 3474SOL     OW11320   6.529   5.360   4.272
 3474SOL    HW111321   6.469   5.363   4.192
 3474SOL    HW211322   6.518   5.272   4.319
 3475SOL     OW11323   6.837   4.080   4.670
 3475SOL    HW111324   6.899   4.156   4.652
 3475SOL    HW211325   6.850   4.008   4.602
 3476SOL     OW11326   1.153   1.930   3.245
 3476SOL    HW111327   1.141   2.020   3.285
 3476SOL    HW211328   1.188   1.867   3.314
 3477SOL     OW11329   0.630   3.468   1.572
 3477SOL    HW111330   0.648   3.384   1.623
 3477SOL    HW211331   0.656   3.454   1.476
 3478SOL     OW11332   2.291   0.365   6.784
 3478SOL    HW111333   2.349   0.316   6.719
 3478SOL    HW211334   2.268   0.305   6.860
 3479SOL     OW11335   0.651   2.989   4.061
 3479SOL    HW111336   0.701   3.072   4.082
 3479SOL    HW211337   0.574   2.978   4.124
 3480SOL     OW11338   1.058   5.926   6.933
 3480SOL    HW111339   1.122   5.849   6.934
 3480SOL    HW211340   0.968   5.893   6.906
 3481SOL     OW11341   6.756   0.213   6.231
 3481SOL    HW111342   6.757   0.297   6.286
 3481SOL    HW211343   6.674   0.211   6.174
 3482SOL     OW11344   6.255   3.627   4.675
 3482SOL    HW111345   6.283   3.536   4.703
 3482SOL    HW211346   6.304   3.695   4.729
 3483SOL     OW11347   4.565   2.132   3.541
 3483SOL    HW111348   4.643   2.085   3.499
 3483SOL    HW211349   4.517   2.186   3.472
 3484SOL     OW11350   1.720   3.293   5.905
 3484SOL    HW111351   1.751   3.209   5.949
 3484SOL    HW211352   1.664   3.346   5.970
 3485SOL     OW11353   0.369   1.776   5.920
 3485SOL    HW111354   0.333   1.724   5.997
 3485SOL    HW211355   0.454   1.733   5.888
 3486SOL     OW11356   2.627   0.228   4.982
 3486SOL    HW111357   2.542   0.190   5.018
 3486SOL    HW211358   2.648   0.186   4.894
 3487SOL     OW11359   5.667   1.360   6.734
 3487SOL    HW111360   5.726   1.304   6.675
 3487SOL    HW211361   5.592   1.397   6.679
 3488SOL     OW11362   6.089   0.642   4.321
 3488SOL    HW111363   6.181   0.629   4.359
 3488SOL    HW211364   6.086   0.728   4.270
 3489SOL     OW11365   3.104   0.498   0.381
 3489SOL    HW111366   3.109   0.400   0.360
 3489SOL    HW211367   3.170   0.548   0.325
 3490SOL     OW11368   4.343   5.157   0.652
 3490SOL    HW111369   4.299   5.171   0.563
 3490SOL    HW211370   4.347   5.059   0.673
 3491SOL     OW11371   4.832   3.690   0.177
 3491SOL    HW111372   4.876   3.601   0.162
 3491SOL    HW211373   4.818   3.734   0.088
 3492SOL     OW11374   6.173   4.448   2.574
 3492SOL    HW111375   6.185   4.450   2.673
 3492SOL    HW211376   6.262   4.455   2.529
 3493SOL     OW11377   6.179   3.260   4.279
 3493SOL    HW111378   6.231   3.236   4.197
 3493SOL    HW211379   6.089   3.296   4.253
 3494SOL     OW11380   3.947   1.540   2.039
 3494SOL    HW111381   4.044   1.562   2.040
 3494SOL    HW211382   3.898   1.603   2.099
 3495SOL     OW11383   1.834   3.639   1.935
 3495SOL    HW111384   1.889   3.720   1.918
 3495SOL    HW211385   1.883   3.557   1.903
 3496SOL     OW11386   6.726   5.553   1.185
 3496SOL    HW111387   6.767   5.612   1.255
 3496SOL    HW211388   6.644   5.597   1.148
 3497SOL     OW11389   3.753   0.550   2.461
 3497SOL    HW111390   3.804   0.469   2.433
 3497SOL    HW211391   3.720   0.598   2.380
 3498SOL     OW11392   1.982   1.950   1.329
 3498SOL    HW111393   2.006   2.044   1.349
 3498SOL    HW211394   1.894   1.948   1.280
 3499SOL     OW11395   5.994   5.432   5.806
 3499SOL    HW111396   5.985   5.521   5.762
 3499SOL    HW211397   5.921   5.371   5.774
 3500SOL     OW11398   1.636   2.588   3.637
 3500SOL    HW111399   1.565   2.523   3.665
 3500SOL    HW211400   1.594   2.664   3.588
 3501SOL     OW11401   1.372   6.812   5.988
 3501SOL    HW111402   1.276   6.785   5.995
 3501SOL    HW211403   1.382   6.880   5.915
 3502SOL     OW11404   4.905   3.671   2.144
 3502SOL    HW111405   4.833   3.615   2.103
 3502SOL    HW211406   4.995   3.638   2.114
 3503SOL     OW11407   6.624   6.324   6.697
 3503SOL    HW111408   6.715   6.327   6.740
 3503SOL    HW211409   6.580   6.237   6.719
 3504SOL     OW11410   1.418   0.481   1.829
 3504SOL    HW111411   1.361   0.475   1.911
 3504SOL    HW211412   1.506   0.522   1.852
 3505SOL     OW11413   6.055   5.187   6.152
 3505SOL    HW111414   6.153   5.202   6.139
 3505SOL    HW211415   6.038   5.163   6.248
 3506SOL     OW11416   4.929   4.374   4.560
 3506SOL    HW111417   4.933   4.373   4.460
 3506SOL    HW211418   4.867   4.447   4.590
 3507SOL     OW11419   2.630   6.868   0.272
 3507SOL    HW111420   2.660   6.961   0.248
 3507SOL    HW211421   2.680   6.835   0.352
 3508SOL     OW11422   3.060   2.660   5.314
 3508SOL    HW111423   3.120   2.585   5.285
 3508SOL    HW211424   2.969   2.624   5.332
 3509SOL     OW11425   4.227   5.633   6.795
 3509SOL    HW111426   4.221   5.720   6.747
 3509SOL    HW211427   4.199   5.646   6.890
 3510SOL     OW11428   2.651   0.926   0.971
 3510SOL    HW111429   2.676   0.947   0.876
 3510SOL    HW211430   2.553   0.913   0.978
 3511SOL     OW11431   2.791   5.040   1.252
 3511SOL    HW111432   2.865   5.047   1.319
 3511SOL    HW211433   2.725   4.971   1.281
 3512SOL     OW11434   1.147   4.249   6.997
 3512SOL    HW111435   1.102   4.169   0.013
 3512SOL    HW211436   1.078   4.314   6.966
 3513SOL     OW11437   5.783   2.346   0.411
 3513SOL    HW111438   5.853   2.367   0.342
 3513SOL    HW211439   5.723   2.274   0.377
 3514SOL     OW11440   4.371   0.898   2.710
 3514SOL    HW111441   4.327   0.978   2.668
 3514SOL    HW211442   4.379   0.913   2.809
 3515SOL     OW11443   5.985   5.757   4.513
 3515SOL    HW111444   6.048   5.722   4.583
 3515SOL    HW211445   5.984   5.695   4.435
 3516SOL     OW11446   5.214   0.198   1.051
 3516SOL    HW111447   5.218   0.211   0.952
 3516SOL    HW211448   5.306   0.204   1.090
 3517SOL     OW11449   6.348   1.380   0.249
 3517SOL    HW111450   6.273   1.403   0.186
 3517SOL    HW211451   6.424   1.341   0.197
 3518SOL     OW11452   5.662   1.189   5.340
 3518SOL    HW111453   5.680   1.237   5.426
 3518SOL    HW211454   5.634   1.095   5.360
 3519SOL     OW11455   3.545   0.675   0.498
 3519SOL    HW111456   3.482   0.612   0.544
 3519SOL    HW211457   3.633   0.630   0.483
 3520SOL     OW11458   2.930   5.854   5.045
 3520SOL    HW111459   2.911   5.795   4.967
 3520SOL    HW211460   3.028   5.872   5.050
 3521SOL     OW11461   3.015   2.872   6.691
 3521SOL    HW111462   3.034   2.781   6.727
 3521SOL    HW211463   3.095   2.907   6.641
 3522SOL     OW11464   6.789   5.567   0.247
 3522SOL    HW111465   6.705   5.558   0.194
 3522SOL    HW211466   6.863   5.597   0.186
 3523SOL     OW11467   0.903   5.174   6.117
 3523SOL    HW111468   0.869   5.171   6.211
 3523SOL    HW211469   0.997   5.207   6.117
 3524SOL     OW11470   6.665   1.288   3.201
 3524SOL    HW111471   6.618   1.365   3.158
 3524SOL    HW211472   6.699   1.316   3.291
 3525SOL     OW11473   6.380   4.769   4.109
 3525SOL    HW111474   6.440   4.845   4.083
 3525SOL    HW211475   6.396   4.692   4.047
 3526SOL     OW11476   1.168   5.896   3.558
 3526SOL    HW111477   1.077   5.883   3.520
 3526SOL    HW211478   1.199   5.989   3.537
 3527SOL     OW11479   6.764   2.713   5.991
 3527SOL    HW111480   6.794   2.809   5.994
 3527SOL    HW211481   6.829   2.659   5.938
 3528SOL     OW11482   2.697   6.461   5.504
 3528SOL    HW111483   2.705   6.560   5.515
 3528SOL    HW211484   2.760   6.430   5.433
 3529SOL     OW11485   4.820   5.799   6.920
 3529SOL    HW111486   4.867   5.747   6.992
 3529SOL    HW211487   4.837   5.755   6.831
 3530SOL     OW11488   0.423   6.977   2.011
 3530SOL    HW111489   0.431   6.880   2.034
 3530SOL    HW211490   0.433   0.008   2.094
 3531SOL     OW11491   4.982   1.752   1.279
 3531SOL    HW111492   5.023   1.677   1.331
 3531SOL    HW211493   4.928   1.715   1.204
 3532SOL     OW11494   2.250   1.100   2.172
 3532SOL    HW111495   2.187   1.050   2.112
 3532SOL    HW211496   2.240   1.198   2.157
 3533SOL     OW11497   7.008   1.532   2.336
 3533SOL    HW111498   0.008   1.513   2.241
 3533SOL    HW211499   0.020   1.622   2.362
 3534SOL     OW11500   0.074   1.745   1.470
 3534SOL    HW111501   0.117   1.656   1.484
 3534SOL    HW211502   0.132   1.801   1.410
 3535SOL     OW11503   2.820   5.103   4.725
 3535SOL    HW111504   2.866   5.033   4.780
 3535SOL    HW211505   2.836   5.193   4.766
 3536SOL     OW11506   3.123   2.099   2.309
 3536SOL    HW111507   3.129   2.034   2.384
 3536SOL    HW211508   3.214   2.111   2.268
 3537SOL     OW11509   1.924   5.634   2.794
 3537SOL    HW111510   1.989   5.710   2.800
 3537SOL    HW211511   1.835   5.664   2.831
 3538SOL     OW11512   3.043   5.645   4.493
 3538SOL    HW111513   2.973   5.681   4.555
 3538SOL    HW211514   3.106   5.588   4.544
 3539SOL     OW11515   3.985   3.752   4.796
 3539SOL    HW111516   3.913   3.815   4.766
 3539SOL    HW211517   3.945   3.662   4.814
 3540SOL     OW11518   2.063   1.800   4.162
 3540SOL    HW111519   2.156   1.834   4.148
 3540SOL    HW211520   2.013   1.864   4.221
 3541SOL     OW11521   2.940   3.594   5.464
 3541SOL    HW111522   2.913   3.521   5.402
 3541SOL    HW211523   2.905   3.681   5.430
 3542SOL     OW11524   1.373   4.535   2.503
 3542SOL    HW111525   1.363   4.480   2.420
 3542SOL    HW211526   1.317   4.495   2.576
 3543SOL     OW11527   5.313   2.824   4.137
 3543SOL    HW111528   5.242   2.815   4.207
 3543SOL    HW211529   5.400   2.845   4.180
 3544SOL     OW11530   2.109   4.332   6.008
 3544SOL    HW111531   2.201   4.294   6.010
 3544SOL    HW211532   2.058   4.303   6.089
 3545SOL     OW11533   4.399   5.770   6.378
 3545SOL    HW111534   4.404   5.822   6.463
 3545SOL    HW211535   4.480   5.789   6.323
 3546SOL     OW11536   6.603   5.700   3.315
 3546SOL    HW111537   6.590   5.796   3.294
 3546SOL    HW211538   6.700   5.676   3.302
 3547SOL     OW11539   4.790   5.134   4.444
 3547SOL    HW111540   4.867   5.196   4.456
 3547SOL    HW211541   4.797   5.089   4.355
 3548SOL     OW11542   4.740   2.895   4.981
 3548SOL    HW111543   4.711   2.854   4.894
 3548SOL    HW211544   4.684   2.857   5.055
 3549SOL     OW11545   6.437   4.478   3.041
 3549SOL    HW111546   6.502   4.402   3.038
 3549SOL    HW211547   6.483   4.560   3.075
 3550SOL     OW11548   5.573   1.646   2.240
 3550SOL    HW111549   5.528   1.595   2.313
 3550SOL    HW211550   5.516   1.644   2.158
 3551SOL     OW11551   3.289   6.729   3.359
 3551SOL    HW111552   3.305   6.789   3.437
 3551SOL    HW211553   3.252   6.642   3.390
 3552SOL     OW11554   6.025   6.008   2.824
 3552SOL    HW111555   6.125   6.009   2.833
 3552SOL    HW211556   5.990   6.101   2.830
 3553SOL     OW11557   5.155   2.273   2.500
 3553SOL    HW111558   5.080   2.314   2.551
 3553SOL    HW211559   5.139   2.284   2.402
 3554SOL     OW11560   4.153   4.661   6.713
 3554SOL    HW111561   4.145   4.624   6.621
 3554SOL    HW211562   4.132   4.590   6.780
 3555SOL     OW11563   1.222   2.852   3.181
 3555SOL    HW111564   1.280   2.923   3.220
 3555SOL    HW211565   1.231   2.853   3.081
 3556SOL     OW11566   3.314   0.692   5.624
 3556SOL    HW111567   3.370   0.757   5.573
 3556SOL    HW211568   3.293   0.729   5.714
 3557SOL     OW11569   1.849   0.680   5.009
 3557SOL    HW111570   1.924   0.659   5.071
 3557SOL    HW211571   1.778   0.731   5.058
 3558SOL     OW11572   0.173   6.325   1.618
 3558SOL    HW111573   0.271   6.311   1.602
 3558SOL    HW211574   0.121   6.255   1.569
 3559SOL     OW11575   0.748   1.122   4.826
 3559SOL    HW111576   0.793   1.050   4.773
 3559SOL    HW211577   0.778   1.117   4.921
 3560SOL     OW11578   0.536   6.037   1.148
 3560SOL    HW111579   0.624   6.075   1.119
 3560SOL    HW211580   0.546   5.939   1.166
 3561SOL     OW11581   4.941   4.914   5.670
 3561SOL    HW111582   4.930   4.967   5.754
 3561SOL    HW211583   4.995   4.832   5.689
 3562SOL     OW11584   5.489   0.451   3.229
 3562SOL    HW111585   5.412   0.407   3.276
 3562SOL    HW211586   5.570   0.450   3.287
 3563SOL     OW11587   4.856   0.866   1.435
 3563SOL    HW111588   4.873   0.879   1.338
 3563SOL    HW211589   4.772   0.812   1.447
 3564SOL     OW11590   0.017   4.366   4.193
 3564SOL    HW111591   6.989   4.421   4.128
 3564SOL    HW211592   0.115   4.376   4.175
 3565SOL     OW11593   2.786   0.494   4.860
 3565SOL    HW111594   2.726   0.475   4.937
 3565SOL    HW211595   2.749   0.451   4.777
 3566SOL     OW11596   6.997   2.975   6.172
 3566SOL    HW111597   6.935   2.947   6.246
 3566SOL    HW211598   6.948   2.972   6.085
 3567SOL     OW11599   6.823   3.195   0.817
 3567SOL    HW111600   6.744   3.135   0.832
 3567SOL    HW211601   6.790   3.287   0.794
 3568SOL     OW11602   4.667   4.233   3.360
 3568SOL    HW111603   4.656   4.333   3.364
 3568SOL    HW211604   4.702   4.207   3.270
 3569SOL     OW11605   3.320   4.121   4.033
 3569SOL    HW111606   3.317   4.055   4.108
 3569SOL    HW211607   3.387   4.092   3.965
 3570SOL     OW11608   0.349   1.609   6.139
 3570SOL    HW111609   0.414   1.543   6.178
 3570SOL    HW211610   0.316   1.669   6.211
 3571SOL     OW11611   2.403   6.360   5.571
 3571SOL    HW111612   2.412   6.430   5.500
 3571SOL    HW211613   2.396   6.270   5.529
 3572SOL     OW11614   4.948   4.691   1.563
 3572SOL    HW111615   4.979   4.785   1.578
 3572SOL    HW211616   5.028   4.630   1.562
 3573SOL     OW11617   6.732   3.820   2.766
 3573SOL    HW111618   6.657   3.792   2.705
 3573SOL    HW211619   6.771   3.739   2.810
 3574SOL     OW11620   3.034   3.057   5.937
 3574SOL    HW111621   3.021   3.136   5.996
 3574SOL    HW211622   2.963   3.056   5.866
 3575SOL     OW11623   5.567   6.770   0.074
 3575SOL    HW111624   5.527   6.860   0.092
 3575SOL    HW211625   5.523   6.730   7.018
 3576SOL     OW11626   0.928   3.044   6.526
 3576SOL    HW111627   1.004   3.004   6.578
 3576SOL    HW211628   0.853   3.065   6.589
 3577SOL     OW11629   2.872   2.769   5.849
 3577SOL    HW111630   2.791   2.770   5.908
 3577SOL    HW211631   2.865   2.843   5.782
 3578SOL     OW11632   3.218   2.955   6.165
 3578SOL    HW111633   3.204   3.051   6.189
 3578SOL    HW211634   3.130   2.908   6.161
 3579SOL     OW11635   0.651   2.763   2.457
 3579SOL    HW111636   0.577   2.807   2.508
 3579SOL    HW211637   0.739   2.795   2.492
 3580SOL     OW11638   0.424   4.269   1.608
 3580SOL    HW111639   0.373   4.311   1.683
 3580SOL    HW211640   0.365   4.265   1.527
 3581SOL     OW11641   0.635   0.439   2.647
 3581SOL    HW111642   0.587   0.352   2.635
 3581SOL    HW211643   0.707   0.428   2.716
 3582SOL     OW11644   3.778   4.165   6.026
 3582SOL    HW111645   3.784   4.198   5.931
 3582SOL    HW211646   3.688   4.189   6.063
 3583SOL     OW11647   0.658   4.873   0.813
 3583SOL    HW111648   0.566   4.900   0.841
 3583SOL    HW211649   0.722   4.890   0.888
 3584SOL     OW11650   6.169   4.575   4.587
 3584SOL    HW111651   6.154   4.629   4.504
 3584SOL    HW211652   6.261   4.591   4.620
 3585SOL     OW11653   2.486   1.919   3.424
 3585SOL    HW111654   2.479   2.007   3.377
 3585SOL    HW211655   2.553   1.926   3.497
 3586SOL     OW11656   6.093   1.978   4.846
 3586SOL    HW111657   6.158   1.916   4.890
 3586SOL    HW211658   6.107   1.974   4.747
 3587SOL     OW11659   3.122   0.073   6.553
 3587SOL    HW111660   3.047   0.060   6.618
 3587SOL    HW211661   3.126   7.019   6.490
 3588SOL     OW11662   6.456   4.301   4.533
 3588SOL    HW111663   6.493   4.215   4.568
 3588SOL    HW211664   6.356   4.295   4.529
 3589SOL     OW11665   0.482   0.451   6.342
 3589SOL    HW111666   0.493   0.431   6.244
 3589SOL    HW211667   0.397   0.501   6.356
 3590SOL     OW11668   6.774   5.001   0.780
 3590SOL    HW111669   6.863   4.955   0.783
 3590SOL    HW211670   6.717   4.960   0.708
 3591SOL     OW11671   5.660   2.206   6.868
 3591SOL    HW111672   5.592   2.260   6.820
 3591SOL    HW211673   5.750   2.248   6.857
 3592SOL     OW11674   1.924   6.750   1.443
 3592SOL    HW111675   1.915   6.844   1.411
 3592SOL    HW211676   1.870   6.737   1.527
 3593SOL     OW11677   5.210   3.128   5.795
 3593SOL    HW111678   5.282   3.096   5.857
 3593SOL    HW211679   5.246   3.201   5.737
 3594SOL     OW11680   4.677   5.077   4.706
 3594SOL    HW111681   4.727   5.125   4.633
 3594SOL    HW211682   4.587   5.052   4.672
 3595SOL     OW11683   5.654   6.212   5.243
 3595SOL    HW111684   5.634   6.182   5.150
 3595SOL    HW211685   5.749   6.240   5.250
 3596SOL     OW11686   3.986   1.908   3.449
 3596SOL    HW111687   3.912   1.858   3.405
 3596SOL    HW211688   4.015   1.860   3.532
 3597SOL     OW11689   1.958   3.301   5.377
 3597SOL    HW111690   1.924   3.379   5.430
 3597SOL    HW211691   2.041   3.327   5.329
 3598SOL     OW11692   1.319   5.172   5.014
 3598SOL    HW111693   1.269   5.087   5.032
 3598SOL    HW211694   1.324   5.227   5.097
 3599SOL     OW11695   4.409   1.671   4.733
 3599SOL    HW111696   4.394   1.657   4.635
 3599SOL    HW211697   4.492   1.726   4.746
 3600SOL     OW11698   3.262   3.223   0.572
 3600SOL    HW111699   3.306   3.311   0.589
 3600SOL    HW211700   3.163   3.234   0.578
 3601SOL     OW11701   5.314   1.183   5.590
 3601SOL    HW111702   5.344   1.096   5.630
 3601SOL    HW211703   5.224   1.171   5.549
 3602SOL     OW11704   2.199   1.757   0.991
 3602SOL    HW111705   2.186   1.699   0.910
 3602SOL    HW211706   2.295   1.784   0.997
 3603SOL     OW11707   3.032   0.925   5.817
 3603SOL    HW111708   3.132   0.913   5.816
 3603SOL    HW211709   3.000   0.953   5.727
 3604SOL     OW11710   0.009   0.384   3.620
 3604SOL    HW111711   7.008   0.379   3.717
 3604SOL    HW211712   0.107   0.397   3.611
 3605SOL     OW11713   0.700   5.608   3.655
 3605SOL    HW111714   0.790   5.581   3.621
 3605SOL    HW211715   0.708   5.695   3.704
 3606SOL     OW11716   2.511   6.420   2.015
 3606SOL    HW111717   2.493   6.352   1.943
 3606SOL    HW211718   2.442   6.492   2.010
 3607SOL     OW11719   5.217   3.210   3.027
 3607SOL    HW111720   5.248   3.131   2.975
 3607SOL    HW211721   5.263   3.211   3.116
 3608SOL     OW11722   2.832   2.118   5.315
 3608SOL    HW111723   2.759   2.185   5.327
 3608SOL    HW211724   2.911   2.144   5.371
 3609SOL     OW11725   2.416   6.880   4.506
 3609SOL    HW111726   2.409   6.951   4.436
 3609SOL    HW211727   2.396   6.920   4.595
 3610SOL     OW11728   2.514   6.953   5.037
 3610SOL    HW111729   2.548   6.978   4.946
 3610SOL    HW211730   2.584   6.900   5.085
 3611SOL     OW11731   5.019   5.146   2.900
 3611SOL    HW111732   4.943   5.181   2.955
 3611SOL    HW211733   4.984   5.094   2.823
 3612SOL     OW11734   5.853   1.186   6.644
 3612SOL    HW111735   5.902   1.223   6.565
 3612SOL    HW211736   5.864   1.087   6.647
 3613SOL     OW11737   3.808   5.406   1.349
 3613SOL    HW111738   3.813   5.312   1.317
 3613SOL    HW211739   3.755   5.410   1.434
 3614SOL     OW11740   4.112   5.074   6.343
 3614SOL    HW111741   4.140   5.062   6.438
 3614SOL    HW211742   4.152   5.002   6.287
 3615SOL     OW11743   5.778   2.301   5.491
 3615SOL    HW111744   5.760   2.382   5.436
 3615SOL    HW211745   5.820   2.327   5.578
 3616SOL     OW11746   1.363   1.658   6.931
 3616SOL    HW111747   1.288   1.691   6.988
 3616SOL    HW211748   1.332   1.652   6.836
 3617SOL     OW11749   3.739   6.097   6.441
 3617SOL    HW111750   3.716   6.040   6.362
 3617SOL    HW211751   3.829   6.138   6.427
 3618SOL     OW11752   1.860   4.364   4.594
 3618SOL    HW111753   1.938   4.410   4.638
 3618SOL    HW211754   1.890   4.322   4.508
 3619SOL     OW11755   6.037   3.451   1.124
 3619SOL    HW111756   6.014   3.548   1.126
 3619SOL    HW211757   6.000   3.406   1.205
 3620SOL     OW11758   6.154   5.855   5.178
 3620SOL    HW111759   6.175   5.874   5.274
 3620SOL    HW211760   6.087   5.921   5.145
 3621SOL     OW11761   2.875   3.640   3.486
 3621SOL    HW111762   2.875   3.647   3.386
 3621SOL    HW211763   2.809   3.705   3.523
 3622SOL     OW11764   1.046   6.325   6.805
 3622SOL    HW111765   1.000   6.275   6.732
 3622SOL    HW211766   1.023   6.284   6.894
 3623SOL     OW11767   0.996   4.850   6.351
 3623SOL    HW111768   1.042   4.804   6.427
 3623SOL    HW211769   1.060   4.862   6.275
 3624SOL     OW11770   3.104   1.767   1.472
 3624SOL    HW111771   3.108   1.744   1.569
 3624SOL    HW211772   3.193   1.749   1.430
 3625SOL     OW11773   6.795   2.335   0.855
 3625SOL    HW111774   6.715   2.374   0.810
 3625SOL    HW211775   6.766   2.268   0.923
 3626SOL     OW11776   1.155   2.427   4.906
 3626SOL    HW111777   1.219   2.476   4.846
 3626SOL    HW211778   1.206   2.386   4.982
 3627SOL     OW11779   3.737   1.932   2.035
 3627SOL    HW111780   3.710   2.023   2.068
 3627SOL    HW211781   3.756   1.936   1.937
 3628SOL     OW11782   6.087   1.967   1.282
 3628SOL    HW111783   6.078   1.868   1.296
 3628SOL    HW211784   6.157   1.984   1.213
 3629SOL     OW11785   1.289   1.441   4.259
 3629SOL    HW111786   1.343   1.394   4.328
 3629SOL    HW211787   1.337   1.439   4.171
 3630SOL     OW11788   6.843   2.394   3.430
 3630SOL    HW111789   6.780   2.325   3.467
 3630SOL    HW211790   6.821   2.411   3.334
 3631SOL     OW11791   1.627   6.318   2.597
 3631SOL    HW111792   1.676   6.396   2.635
 3631SOL    HW211793   1.643   6.314   2.498
 3632SOL     OW11794   4.864   4.170   0.863
 3632SOL    HW111795   4.858   4.144   0.767
 3632SOL    HW211796   4.790   4.127   0.914
 3633SOL     OW11797   3.731   3.393   6.355
 3633SOL    HW111798   3.820   3.350   6.343
 3633SOL    HW211799   3.696   3.423   6.267
 3634SOL     OW11800   3.250   5.762   6.880
 3634SOL    HW111801   3.232   5.701   6.802
 3634SOL    HW211802   3.310   5.716   6.946
 3635SOL     OW11803   2.192   6.965   2.055
 3635SOL    HW111804   2.246   0.023   2.070
 3635SOL    HW211805   2.129   6.951   2.131
 3636SOL     OW11806   0.718   4.835   6.421
 3636SOL    HW111807   0.692   4.740   6.407
 3636SOL    HW211808   0.815   4.839   6.447
 3637SOL     OW11809   6.466   3.152   6.876
 3637SOL    HW111810   6.416   3.081   6.827
 3637SOL    HW211811   6.526   3.110   6.943
 3638SOL     OW11812   5.836   4.841   2.735
 3638SOL    HW111813   5.880   4.918   2.782
 3638SOL    HW211814   5.749   4.871   2.698
 3639SOL     OW11815   3.469   3.870   4.285
 3639SOL    HW111816   3.387   3.927   4.284
 3639SOL    HW211817   3.526   3.891   4.206
 3640SOL     OW11818   4.765   2.371   0.648
 3640SOL    HW111819   4.814   2.321   0.577
 3640SOL    HW211820   4.776   2.469   0.634
 3641SOL     OW11821   5.890   3.731   2.660
 3641SOL    HW111822   5.876   3.697   2.753
 3641SOL    HW211823   5.971   3.790   2.659
 3642SOL     OW11824   5.800   3.138   6.319
 3642SOL    HW111825   5.792   3.096   6.229
 3642SOL    HW211826   5.742   3.219   6.324
 3643SOL     OW11827   3.976   5.593   5.136
 3643SOL    HW111828   4.074   5.580   5.119
 3643SOL    HW211829   3.937   5.650   5.065
 3644SOL     OW11830   2.703   0.565   1.809
 3644SOL    HW111831   2.655   0.477   1.806
 3644SOL    HW211832   2.784   0.561   1.751
 3645SOL     OW11833   1.353   4.262   3.433
 3645SOL    HW111834   1.307   4.351   3.440
 3645SOL    HW211835   1.429   4.259   3.498
 3646SOL     OW11836   1.973   4.316   5.092
 3646SOL    HW111837   2.058   4.289   5.137
 3646SOL    HW211838   1.952   4.250   5.019
 3647SOL     OW11839   3.549   6.786   6.540
 3647SOL    HW111840   3.510   6.868   6.582
 3647SOL    HW211841   3.490   6.755   6.466
 3648SOL     OW11842   4.578   5.311   3.561
 3648SOL    HW111843   4.537   5.388   3.610
 3648SOL    HW211844   4.607   5.241   3.627
 3649SOL     OW11845   5.953   2.633   0.494
 3649SOL    HW111846   5.898   2.572   0.551
 3649SOL    HW211847   5.934   2.728   0.518
 3650SOL     OW11848   5.409   5.464   0.072
 3650SOL    HW111849   5.451   5.553   0.088
 3650SOL    HW211850   5.369   5.430   0.157
 3651SOL     OW11851   1.134   2.285   5.637
 3651SOL    HW111852   1.226   2.254   5.660
 3651SOL    HW211853   1.132   2.316   5.542
 3652SOL     OW11854   4.082   1.268   2.007
 3652SOL    HW111855   4.055   1.177   2.039
 3652SOL    HW211856   4.015   1.302   1.941
 3653SOL     OW11857   0.655   1.680   1.199
 3653SOL    HW111858   0.687   1.593   1.161
 3653SOL    HW211859   0.579   1.714   1.145
 3654SOL     OW11860   5.232   6.781   0.569
 3654SOL    HW111861   5.218   6.781   0.470
 3654SOL    HW211862   5.216   6.873   0.605
 3655SOL     OW11863   1.609   2.464   4.027
 3655SOL    HW111864   1.665   2.389   3.992
 3655SOL    HW211865   1.662   2.518   4.092
 3656SOL     OW11866   6.747   6.939   1.207
 3656SOL    HW111867   6.683   6.866   1.184
 3656SOL    HW211868   6.759   6.941   1.306
 3657SOL     OW11869   5.390   5.526   5.200
 3657SOL    HW111870   5.358   5.502   5.108
 3657SOL    HW211871   5.435   5.446   5.241
 3658SOL     OW11872   2.273   5.041   5.771
 3658SOL    HW111873   2.289   4.997   5.683
 3658SOL    HW211874   2.360   5.050   5.820
 3659SOL     OW11875   6.904   1.675   6.322
 3659SOL    HW111876   6.878   1.719   6.408
 3659SOL    HW211877   6.999   1.698   6.301
 3660SOL     OW11878   5.602   5.314   6.694
 3660SOL    HW111879   5.623   5.319   6.596
 3660SOL    HW211880   5.604   5.406   6.734
 3661SOL     OW11881   0.167   1.907   4.977
 3661SOL    HW111882   0.262   1.937   4.970
 3661SOL    HW211883   0.121   1.918   4.888
 3662SOL     OW11884   2.823   1.766   5.560
 3662SOL    HW111885   2.816   1.761   5.460
 3662SOL    HW211886   2.829   1.861   5.588
 3663SOL     OW11887   2.702   2.456   6.398
 3663SOL    HW111888   2.773   2.427   6.463
 3663SOL    HW211889   2.675   2.550   6.416
 3664SOL     OW11890   3.866   1.158   1.768
 3664SOL    HW111891   3.852   1.257   1.762
 3664SOL    HW211892   3.963   1.138   1.760
 3665SOL     OW11893   0.822   5.477   6.113
 3665SOL    HW111894   0.892   5.549   6.115
 3665SOL    HW211895   0.864   5.391   6.084
 3666SOL     OW11896   1.924   2.784   4.887
 3666SOL    HW111897   1.940   2.855   4.955
 3666SOL    HW211898   1.955   2.815   4.798
 3667SOL     OW11899   2.080   0.587   1.617
 3667SOL    HW111900   1.986   0.561   1.592
 3667SOL    HW211901   2.139   0.506   1.612
 3668SOL     OW11902   0.077   0.936   1.799
 3668SOL    HW111903   0.108   0.982   1.715
 3668SOL    HW211904   7.005   0.958   1.816
 3669SOL     OW11905   0.661   1.584   3.606
 3669SOL    HW111906   0.615   1.672   3.618
 3669SOL    HW211907   0.614   1.514   3.659
 3670SOL     OW11908   2.809   6.140   1.846
 3670SOL    HW111909   2.888   6.080   1.862
 3670SOL    HW211910   2.841   6.235   1.840
 3671SOL     OW11911   6.068   0.533   3.688
 3671SOL    HW111912   6.118   0.604   3.739
 3671SOL    HW211913   6.106   0.443   3.710
 3672SOL     OW11914   3.826   6.492   3.074
 3672SOL    HW111915   3.773   6.552   3.134
 3672SOL    HW211916   3.797   6.505   2.979
 3673SOL     OW11917   3.371   6.135   1.302
 3673SOL    HW111918   3.289   6.091   1.339
 3673SOL    HW211919   3.442   6.066   1.286
 3674SOL     OW11920   1.922   4.743   6.454
 3674SOL    HW111921   1.904   4.648   6.426
 3674SOL    HW211922   1.994   4.781   6.397
 3675SOL     OW11923   1.495   0.743   4.077
 3675SOL    HW111924   1.419   0.735   4.013
 3675SOL    HW211925   1.460   0.762   4.168
 3676SOL     OW11926   3.984   2.141   4.028
 3676SOL    HW111927   3.953   2.151   4.123
 3676SOL    HW211928   3.906   2.124   3.968
 3677SOL     OW11929   2.277   0.581   4.281
 3677SOL    HW111930   2.218   0.584   4.201
 3677SOL    HW211931   2.229   0.619   4.360
 3678SOL     OW11932   0.997   0.765   3.849
 3678SOL    HW111933   0.905   0.797   3.827
 3678SOL    HW211934   1.015   0.679   3.801
 3679SOL     OW11935   3.985   0.372   2.367
 3679SOL    HW111936   4.084   0.380   2.381
 3679SOL    HW211937   3.957   0.428   2.289
 3680SOL     OW11938   3.159   1.230   4.446
 3680SOL    HW111939   3.103   1.281   4.512
 3680SOL    HW211940   3.232   1.290   4.412
 3681SOL     OW11941   1.472   6.306   4.627
 3681SOL    HW111942   1.565   6.320   4.661
 3681SOL    HW211943   1.407   6.330   4.699
 3682SOL     OW11944   5.603   1.986   1.589
 3682SOL    HW111945   5.552   2.071   1.605
 3682SOL    HW211946   5.599   1.930   1.671
 3683SOL     OW11947   5.634   1.530   6.500
 3683SOL    HW111948   5.666   1.619   6.469
 3683SOL    HW211949   5.662   1.460   6.434
 3684SOL     OW11950   1.930   6.529   5.707
 3684SOL    HW111951   1.933   6.623   5.739
 3684SOL    HW211952   1.859   6.479   5.758
 3685SOL     OW11953   2.345   6.105   5.516
 3685SOL    HW111954   2.358   6.066   5.425
 3685SOL    HW211955   2.251   6.135   5.526
 3686SOL     OW11956   0.310   4.124   2.793
 3686SOL    HW111957   0.239   4.097   2.858
 3686SOL    HW211958   0.377   4.050   2.785
 3687SOL     OW11959   5.484   5.171   4.185
 3687SOL    HW111960   5.496   5.077   4.215
 3687SOL    HW211961   5.386   5.191   4.176
 3688SOL     OW11962   6.196   2.579   0.604
 3688SOL    HW111963   6.192   2.482   0.627
 3688SOL    HW211964   6.124   2.600   0.538
 3689SOL     OW11965   1.164   6.650   5.703
 3689SOL    HW111966   1.242   6.709   5.681
 3689SOL    HW211967   1.187   6.555   5.682
 3690SOL     OW11968   5.128   5.513   1.503
 3690SOL    HW111969   5.212   5.467   1.533
 3690SOL    HW211970   5.093   5.468   1.420
 3691SOL     OW11971   1.370   2.838   0.887
 3691SOL    HW111972   1.276   2.805   0.893
 3691SOL    HW211973   1.371   2.938   0.882
 3692SOL     OW11974   0.577   2.948   5.574
 3692SOL    HW111975   0.609   2.927   5.481
 3692SOL    HW211976   0.598   3.043   5.596
 3693SOL     OW11977   6.294   1.275   2.142
 3693SOL    HW111978   6.250   1.189   2.166
 3693SOL    HW211979   6.257   1.308   2.055
 3694SOL     OW11980   6.646   0.348   2.739
 3694SOL    HW111981   6.647   0.261   2.689
 3694SOL    HW211982   6.726   0.402   2.713
 3695SOL     OW11983   5.808   3.617   2.891
 3695SOL    HW111984   5.772   3.596   2.982
 3695SOL    HW211985   5.886   3.559   2.871
 3696SOL     OW11986   4.039   0.542   4.744
 3696SOL    HW111987   4.058   0.633   4.708
 3696SOL    HW211988   4.102   0.475   4.703
 3697SOL     OW11989   6.982   6.238   2.900
 3697SOL    HW111990   0.042   6.289   2.915
 3697SOL    HW211991   6.907   6.281   2.952
 3698SOL     OW11992   1.601   0.043   3.067
 3698SOL    HW111993   1.693   0.060   3.100
 3698SOL    HW211994   1.545   0.125   3.080
 3699SOL     OW11995   2.675   2.297   3.561
 3699SOL    HW111996   2.636   2.382   3.594
 3699SOL    HW211997   2.746   2.266   3.625
 3700SOL     OW11998   1.131   5.199   4.790
 3700SOL    HW111999   1.112   5.287   4.835
 3700SOL    HW212000   1.227   5.175   4.803
 3701SOL     OW12001   1.566   0.548   2.060
 3701SOL    HW112002   1.637   0.530   2.128
 3701SOL    HW212003   1.540   0.645   2.064
 3702SOL     OW12004   5.519   4.821   3.041
 3702SOL    HW112005   5.594   4.781   2.988
 3702SOL    HW212006   5.495   4.760   3.116
 3703SOL     OW12007   1.315   1.480   3.748
 3703SOL    HW112008   1.378   1.555   3.727
 3703SOL    HW212009   1.348   1.431   3.829
 3704SOL     OW12010   6.469   2.246   0.633
 3704SOL    HW112011   6.523   2.191   0.697
 3704SOL    HW212012   6.372   2.226   0.646
 3705SOL     OW12013   4.905   4.501   3.038
 3705SOL    HW112014   4.920   4.591   2.997
 3705SOL    HW212015   4.839   4.510   3.113
 3706SOL     OW12016   0.832   4.126   0.368
 3706SOL    HW112017   0.862   4.035   0.338
 3706SOL    HW212018   0.732   4.128   0.372
 3707SOL     OW12019   1.384   5.110   3.641
 3707SOL    HW112020   1.475   5.076   3.615
 3707SOL    HW212021   1.367   5.197   3.595
 3708SOL     OW12022   2.564   6.664   0.991
 3708SOL    HW112023   2.564   6.585   0.930
 3708SOL    HW212024   2.489   6.657   1.056
 3709SOL     OW12025   1.595   1.690   2.078
 3709SOL    HW112026   1.534   1.693   1.999
 3709SOL    HW212027   1.622   1.783   2.103
 3710SOL     OW12028   0.404   4.327   5.464
 3710SOL    HW112029   0.350   4.361   5.541
 3710SOL    HW212030   0.388   4.385   5.384
 3711SOL     OW12031   1.264   5.552   4.338
 3711SOL    HW112032   1.330   5.478   4.347
 3711SOL    HW212033   1.198   5.529   4.266
 3712SOL     OW12034   1.838   5.338   4.637
 3712SOL    HW112035   1.825   5.430   4.600
 3712SOL    HW212036   1.748   5.294   4.649
 3713SOL     OW12037   5.726   0.575   3.995
 3713SOL    HW112038   5.746   0.524   3.911
 3713SOL    HW212039   5.743   0.516   4.074
 3714SOL     OW12040   0.745   4.834   0.557
 3714SOL    HW112041   0.707   4.863   0.645
 3714SOL    HW212042   0.742   4.734   0.551
 3715SOL     OW12043   5.595   5.780   3.894
 3715SOL    HW112044   5.675   5.760   3.951
 3715SOL    HW212045   5.585   5.709   3.824
 3716SOL     OW12046   5.047   5.773   4.310
 3716SOL    HW112047   5.033   5.772   4.409
 3716SOL    HW212048   5.006   5.856   4.272
 3717SOL     OW12049   4.560   0.864   0.963
 3717SOL    HW112050   4.631   0.880   1.031
 3717SOL    HW212051   4.597   0.881   0.872
 3718SOL     OW12052   6.470   6.595   6.057
 3718SOL    HW112053   6.525   6.676   6.074
 3718SOL    HW212054   6.385   6.601   6.110
 3719SOL     OW12055   3.732   3.835   0.343
 3719SOL    HW112056   3.651   3.803   0.392
 3719SOL    HW212057   3.730   3.801   0.249
 3720SOL     OW12058   0.356   3.535   1.530
 3720SOL    HW112059   0.312   3.454   1.570
 3720SOL    HW212060   0.454   3.518   1.519
 3721SOL     OW12061   0.108   6.064   5.554
 3721SOL    HW112062   0.063   6.126   5.618
 3721SOL    HW212063   0.150   5.988   5.606
 3722SOL     OW12064   5.015   6.027   2.669
 3722SOL    HW112065   5.035   6.082   2.750
 3722SOL    HW212066   5.028   5.931   2.689
 3723SOL     OW12067   4.637   3.552   0.330
 3723SOL    HW112068   4.538   3.567   0.334
 3723SOL    HW212069   4.678   3.620   0.269
 3724SOL     OW12070   1.522   5.001   4.753
 3724SOL    HW112071   1.579   5.004   4.836
 3724SOL    HW212072   1.467   4.917   4.754
 3725SOL     OW12073   1.222   5.735   0.051
 3725SOL    HW112074   1.137   5.719   0.100
 3725SOL    HW212075   1.265   5.648   0.028
 3726SOL     OW12076   6.033   3.673   4.916
 3726SOL    HW112077   5.964   3.601   4.906
 3726SOL    HW212078   5.998   3.759   4.879
 3727SOL     OW12079   6.853   3.606   3.976
 3727SOL    HW112080   6.926   3.655   4.023
 3727SOL    HW212081   6.856   3.626   3.878
 3728SOL     OW12082   2.850   2.787   0.214
 3728SOL    HW112083   2.784   2.717   0.242
 3728SOL    HW212084   2.931   2.782   0.273
 3729SOL     OW12085   0.854   0.464   5.552
 3729SOL    HW112086   0.834   0.552   5.511
 3729SOL    HW212087   0.952   0.444   5.542
 3730SOL     OW12088   4.694   5.635   4.017
 3730SOL    HW112089   4.744   5.549   4.022
 3730SOL    HW212090   4.754   5.711   4.042
 3731SOL     OW12091   0.033   2.249   6.893
 3731SOL    HW112092   0.050   2.238   6.795
 3731SOL    HW212093   6.958   2.249   6.909
 3732SOL     OW12094   3.481   2.466   6.663
 3732SOL    HW112095   3.388   2.441   6.635
 3732SOL    HW212096   3.543   2.390   6.643
 3733SOL     OW12097   2.003   0.980   3.737
 3733SOL    HW112098   2.025   0.935   3.650
 3733SOL    HW212099   1.905   1.002   3.739
 3734SOL     OW12100   4.006   7.011   1.012
 3734SOL    HW112101   3.979   6.916   1.030
 3734SOL    HW212102   4.103   7.023   1.034
 3735SOL     OW12103   4.290   6.837   2.661
 3735SOL    HW112104   4.265   6.740   2.660
 3735SOL    HW212105   4.371   6.849   2.719
 3736SOL     OW12106   6.693   1.076   1.051
 3736SOL    HW112107   6.791   1.082   1.072
 3736SOL    HW212108   6.658   1.167   1.028
 3737SOL     OW12109   6.866   2.280   2.457
 3737SOL    HW112110   6.776   2.237   2.453
 3737SOL    HW212111   6.921   2.250   2.379
 3738SOL     OW12112   6.694   6.878   0.661
 3738SOL    HW112113   6.727   6.946   0.726
 3738SOL    HW212114   6.606   6.842   0.693
 3739SOL     OW12115   3.439   3.807   0.367
 3739SOL    HW112116   3.376   3.849   0.432
 3739SOL    HW212117   3.393   3.794   0.279
 3740SOL     OW12118   5.073   5.312   6.322
 3740SOL    HW112119   5.022   5.239   6.366
 3740SOL    HW212120   5.046   5.319   6.226
 3741SOL     OW12121   5.374   3.237   0.568
 3741SOL    HW112122   5.337   3.228   0.476
 3741SOL    HW212123   5.469   3.268   0.564
 3742SOL     OW12124   3.902   5.118   0.461
 3742SOL    HW112125   3.947   5.206   0.442
 3742SOL    HW212126   3.899   5.064   0.377
 3743SOL     OW12127   3.861   3.485   1.274
 3743SOL    HW112128   3.894   3.415   1.336
 3743SOL    HW212129   3.915   3.569   1.286
 3744SOL     OW12130   0.695   0.041   2.431
 3744SOL    HW112131   0.666   0.044   2.336
 3744SOL    HW212132   0.650   0.114   2.482
 3745SOL     OW12133   5.031   3.828   2.352
 3745SOL    HW112134   4.983   3.772   2.284
 3745SOL    HW212135   4.984   3.915   2.362
 3746SOL     OW12136   5.959   0.575   4.549
 3746SOL    HW112137   5.957   0.664   4.596
 3746SOL    HW212138   5.987   0.589   4.454
 3747SOL     OW12139   3.557   7.021   5.977
 3747SOL    HW112140   3.551   0.087   5.933
 3747SOL    HW212141   3.637   6.973   5.943
 3748SOL     OW12142   4.990   1.573   2.817
 3748SOL    HW112143   4.970   1.543   2.724
 3748SOL    HW212144   5.084   1.549   2.841
 3749SOL     OW12145   6.985   6.566   2.205
 3749SOL    HW112146   6.935   6.599   2.285
 3749SOL    HW212147   0.056   6.597   2.211
 3750SOL     OW12148   5.667   4.127   0.983
 3750SOL    HW112149   5.686   4.066   0.907
 3750SOL    HW212150   5.724   4.209   0.976
 3751SOL     OW12151   1.932   3.847   2.347
 3751SOL    HW112152   2.003   3.777   2.357
 3751SOL    HW212153   1.848   3.816   2.391
 3752SOL     OW12154   0.861   6.257   6.581
 3752SOL    HW112155   0.785   6.193   6.570
 3752SOL    HW212156   0.826   6.346   6.607
 3753SOL     OW12157   6.425   6.757   5.014
 3753SOL    HW112158   6.339   6.735   4.968
 3753SOL    HW212159   6.497   6.768   4.945
 3754SOL     OW12160   6.601   6.834   0.960
 3754SOL    HW112161   6.693   6.841   0.923
 3754SOL    HW212162   6.558   6.749   0.928
 3755SOL     OW12163   5.387   3.449   2.967
 3755SOL    HW112164   5.371   3.373   2.903
 3755SOL    HW212165   5.336   3.529   2.937
 3756SOL     OW12166   2.978   0.443   6.845
 3756SOL    HW112167   2.990   0.373   6.915
 3756SOL    HW212168   2.969   0.532   6.888
 3757SOL     OW12169   3.222   5.462   6.280
 3757SOL    HW112170   3.313   5.489   6.250
 3757SOL    HW212171   3.184   5.534   6.339
 3758SOL     OW12172   1.597   1.207   3.980
 3758SOL    HW112173   1.601   1.292   4.032
 3758SOL    HW212174   1.654   1.215   3.898
 3759SOL     OW12175   4.706   4.292   6.386
 3759SOL    HW112176   4.646   4.254   6.457
 3759SOL    HW212177   4.801   4.281   6.413
 3760SOL     OW12178   1.652   2.675   4.983
 3760SOL    HW112179   1.621   2.623   4.904
 3760SOL    HW212180   1.752   2.683   4.981
 3761SOL     OW12181   6.998   6.635   4.143
 3761SOL    HW112182   6.904   6.649   4.173
 3761SOL    HW212183   0.037   6.672   4.212
 3762SOL     OW12184   0.464   3.777   0.019
 3762SOL    HW112185   0.426   3.734   6.961
 3762SOL    HW212186   0.481   3.707   0.088
 3763SOL     OW12187   6.160   3.662   6.302
 3763SOL    HW112188   6.147   3.676   6.401
 3763SOL    HW212189   6.234   3.595   6.288
 3764SOL     OW12190   2.534   6.952   3.644
 3764SOL    HW112191   2.464   6.888   3.612
 3764SOL    HW212192   2.528   0.013   3.592
 3765SOL     OW12193   5.687   0.864   4.232
 3765SOL    HW112194   5.658   0.945   4.283
 3765SOL    HW212195   5.609   0.804   4.217
 3766SOL     OW12196   1.447   0.477   5.280
 3766SOL    HW112197   1.504   0.508   5.355
 3766SOL    HW212198   1.408   0.388   5.301
 3767SOL     OW12199   1.351   5.069   1.444
 3767SOL    HW112200   1.441   5.026   1.449
 3767SOL    HW212201   1.284   5.001   1.415
 3768SOL     OW12202   4.563   6.738   0.857
 3768SOL    HW112203   4.486   6.679   0.832
 3768SOL    HW212204   4.587   6.796   0.779
 3769SOL     OW12205   4.418   6.461   4.751
 3769SOL    HW112206   4.408   6.391   4.680
 3769SOL    HW212207   4.414   6.417   4.841
 3770SOL     OW12208   1.822   2.099   6.979
 3770SOL    HW112209   1.830   2.195   7.007
 3770SOL    HW212210   1.824   2.094   6.879
 3771SOL     OW12211   5.251   1.637   5.687
 3771SOL    HW112212   5.292   1.697   5.755
 3771SOL    HW212213   5.178   1.583   5.729
 3772SOL     OW12214   4.980   1.228   2.451
 3772SOL    HW112215   4.932   1.148   2.488
 3772SOL    HW212216   4.994   1.216   2.353
 3773SOL     OW12217   6.771   2.924   6.675
 3773SOL    HW112218   6.819   3.011   6.683
 3773SOL    HW212219   6.836   2.852   6.649
 3774SOL     OW12220   0.356   1.223   2.085
 3774SOL    HW112221   0.403   1.311   2.081
 3774SOL    HW212222   0.257   1.238   2.079
 3775SOL     OW12223   5.713   3.886   3.676
 3775SOL    HW112224   5.628   3.869   3.625
 3775SOL    HW212225   5.770   3.949   3.625
 3776SOL     OW12226   2.733   3.352   0.432
 3776SOL    HW112227   2.694   3.346   0.524
 3776SOL    HW212228   2.662   3.376   0.367
 3777SOL     OW12229   2.118   4.065   3.731
 3777SOL    HW112230   2.067   4.150   3.714
 3777SOL    HW212231   2.158   4.067   3.822
 3778SOL     OW12232   2.088   6.429   1.864
 3778SOL    HW112233   2.085   6.527   1.846
 3778SOL    HW212234   2.097   6.413   1.962
 3779SOL     OW12235   2.964   5.379   6.152
 3779SOL    HW112236   2.918   5.314   6.213
 3779SOL    HW212237   3.042   5.420   6.199
 3780SOL     OW12238   2.946   6.747   4.977
 3780SOL    HW112239   3.017   6.706   5.033
 3780SOL    HW212240   2.941   6.700   4.889
 3781SOL     OW12241   2.844   5.570   4.994
 3781SOL    HW112242   2.809   5.575   5.087
 3781SOL    HW212243   2.776   5.605   4.930
 3782SOL     OW12244   2.212   1.910   3.392
 3782SOL    HW112245   2.311   1.896   3.389
 3782SOL    HW212246   2.189   1.991   3.339
 3783SOL     OW12247   5.114   5.961   5.154
 3783SOL    HW112248   5.187   6.024   5.183
 3783SOL    HW212249   5.118   5.950   5.055
 3784SOL     OW12250   5.639   1.703   3.425
 3784SOL    HW112251   5.612   1.746   3.511
 3784SOL    HW212252   5.558   1.662   3.382
 3785SOL     OW12253   1.689   1.694   1.338
 3785SOL    HW112254   1.592   1.693   1.362
 3785SOL    HW212255   1.709   1.772   1.279
 3786SOL     OW12256   3.170   5.568   3.402
 3786SOL    HW112257   3.229   5.558   3.482
 3786SOL    HW212258   3.148   5.478   3.365
 3787SOL     OW12259   3.849   1.440   3.984
 3787SOL    HW112260   3.801   1.402   4.063
 3787SOL    HW212261   3.783   1.471   3.916
 3788SOL     OW12262   5.393   2.896   2.498
 3788SOL    HW112263   5.390   2.860   2.592
 3788SOL    HW212264   5.389   2.820   2.433
 3789SOL     OW12265   1.548   4.970   3.172
 3789SOL    HW112266   1.471   4.948   3.233
 3789SOL    HW212267   1.585   5.060   3.198
 3790SOL     OW12268   2.051   3.265   3.826
 3790SOL    HW112269   2.078   3.354   3.863
 3790SOL    HW212270   1.984   3.223   3.887
 3791SOL     OW12271   5.050   0.181   2.014
 3791SOL    HW112272   5.071   0.114   2.085
 3791SOL    HW212273   5.115   0.256   2.017
 3792SOL     OW12274   6.912   6.793   5.606
 3792SOL    HW112275   6.952   6.841   5.528
 3792SOL    HW212276   6.985   6.751   5.661
 3793SOL     OW12277   1.763   0.353   2.689
 3793SOL    HW112278   1.760   0.404   2.603
 3793SOL    HW212279   1.854   0.361   2.730
 3794SOL     OW12280   4.339   6.439   1.301
 3794SOL    HW112281   4.248   6.446   1.342
 3794SOL    HW212282   4.399   6.508   1.342
 3795SOL     OW12283   5.189   6.902   6.583
 3795SOL    HW112284   5.093   6.916   6.608
 3795SOL    HW212285   5.243   6.981   6.615
 3796SOL     OW12286   1.345   3.231   2.172
 3796SOL    HW112287   1.270   3.226   2.238
 3796SOL    HW212288   1.337   3.314   2.117
 3797SOL     OW12289   0.473   4.841   2.639
 3797SOL    HW112290   0.430   4.855   2.550
 3797SOL    HW212291   0.407   4.798   2.701
 3798SOL     OW12292   1.730   5.262   2.091
 3798SOL    HW112293   1.642   5.278   2.136
 3798SOL    HW212294   1.735   5.167   2.060
 3799SOL     OW12295   2.039   0.306   5.287
 3799SOL    HW112296   2.046   0.215   5.245
 3799SOL    HW212297   2.086   0.305   5.375
 3800SOL     OW12298   5.042   2.723   4.618
 3800SOL    HW112299   5.077   2.817   4.629
 3800SOL    HW212300   4.963   2.725   4.557
 3801SOL     OW12301   6.909   6.553   5.833
 3801SOL    HW112302   6.830   6.582   5.779
 3801SOL    HW212303   6.986   6.614   5.813
 3802SOL     OW12304   1.729   1.918   5.278
 3802SOL    HW112305   1.818   1.890   5.313
 3802SOL    HW212306   1.709   1.868   5.194
 3803SOL     OW12307   3.574   1.439   0.977
 3803SOL    HW112308   3.602   1.532   1.001
 3803SOL    HW212309   3.653   1.378   0.986
 3804SOL     OW12310   4.817   2.395   4.337
 3804SOL    HW112311   4.789   2.320   4.397
 3804SOL    HW212312   4.763   2.476   4.357
 3805SOL     OW12313   2.481   4.466   1.492
 3805SOL    HW112314   2.573   4.490   1.462
 3805SOL    HW212315   2.477   4.468   1.592
 3806SOL     OW12316   2.732   1.902   6.998
 3806SOL    HW112317   2.738   1.817   6.946
 3806SOL    HW212318   2.700   1.975   6.938
 3807SOL     OW12319   1.452   6.591   3.508
 3807SOL    HW112320   1.475   6.515   3.447
 3807SOL    HW212321   1.397   6.557   3.584
 3808SOL     OW12322   3.078   0.275   1.323
 3808SOL    HW112323   3.065   0.375   1.320
 3808SOL    HW212324   3.161   0.252   1.271
 3809SOL     OW12325   4.378   1.055   6.271
 3809SOL    HW112326   4.316   0.979   6.248
 3809SOL    HW212327   4.445   1.068   6.199
 3810SOL     OW12328   2.736   3.067   5.315
 3810SOL    HW112329   2.808   3.014   5.271
 3810SOL    HW212330   2.648   3.046   5.272
 3811SOL     OW12331   0.857   5.515   5.464
 3811SOL    HW112332   0.809   5.598   5.436
 3811SOL    HW212333   0.875   5.518   5.562
 3812SOL     OW12334   5.558   1.739   5.004
 3812SOL    HW112335   5.511   1.651   5.006
 3812SOL    HW212336   5.657   1.724   5.004
 3813SOL     OW12337   3.433   5.123   1.360
 3813SOL    HW112338   3.357   5.176   1.320
 3813SOL    HW212339   3.396   5.048   1.414
 3814SOL     OW12340   0.396   6.695   2.056
 3814SOL    HW112341   0.487   6.666   2.084
 3814SOL    HW212342   0.333   6.688   2.132
 3815SOL     OW12343   5.231   2.475   1.488
 3815SOL    HW112344   5.158   2.412   1.514
 3815SOL    HW212345   5.242   2.544   1.559
 3816SOL     OW12346   1.056   6.712   1.302
 3816SOL    HW112347   1.025   6.802   1.332
 3816SOL    HW212348   1.020   6.642   1.364
 3817SOL     OW12349   5.411   2.102   5.498
 3817SOL    HW112350   5.316   2.133   5.492
 3817SOL    HW212351   5.431   2.041   5.421
 3818SOL     OW12352   4.896   5.596   2.046
 3818SOL    HW112353   4.823   5.541   2.005
 3818SOL    HW212354   4.923   5.555   2.133
 3819SOL     OW12355   5.422   4.434   0.109
 3819SOL    HW112356   5.391   4.339   0.107
 3819SOL    HW212357   5.373   4.485   0.180
 3820SOL     OW12358   5.360   6.277   4.139
 3820SOL    HW112359   5.404   6.366   4.147
 3820SOL    HW212360   5.416   6.208   4.184
 3821SOL     OW12361   1.197   4.093   2.142
 3821SOL    HW112362   1.295   4.107   2.126
 3821SOL    HW212363   1.172   4.000   2.118
 3822SOL     OW12364   2.246   4.976   1.549
 3822SOL    HW112365   2.295   4.924   1.478
 3822SOL    HW212366   2.312   5.022   1.608
 3823SOL     OW12367   3.732   2.723   5.314
 3823SOL    HW112368   3.719   2.776   5.230
 3823SOL    HW212369   3.701   2.776   5.393
 3824SOL     OW12370   0.103   2.296   6.605
 3824SOL    HW112371   0.004   2.308   6.610
 3824SOL    HW212372   0.146   2.385   6.592
 3825SOL     OW12373   6.883   6.621   6.453
 3825SOL    HW112374   6.980   6.598   6.445
 3825SOL    HW212375   6.829   6.553   6.403
 3826SOL     OW12376   6.719   2.627   1.593
 3826SOL    HW112377   6.662   2.545   1.583
 3826SOL    HW212378   6.666   2.708   1.568
 3827SOL     OW12379   4.384   3.225   0.461
 3827SOL    HW112380   4.308   3.193   0.518
 3827SOL    HW212381   4.349   3.281   0.387
 3828SOL     OW12382   4.002   0.710   2.488
 3828SOL    HW112383   3.921   0.654   2.473
 3828SOL    HW212384   3.978   0.788   2.546
 3829SOL     OW12385   1.999   5.327   3.614
 3829SOL    HW112386   2.066   5.317   3.687
 3829SOL    HW212387   1.908   5.305   3.650
 3830SOL     OW12388   3.060   0.611   4.557
 3830SOL    HW112389   3.047   0.513   4.575
 3830SOL    HW212390   2.971   0.656   4.555
 3831SOL     OW12391   3.810   1.413   1.837
 3831SOL    HW112392   3.857   1.466   1.907
 3831SOL    HW212393   3.780   1.473   1.763
 3832SOL     OW12394   6.307   0.560   2.771
 3832SOL    HW112395   6.311   0.630   2.843
 3832SOL    HW212396   6.326   0.470   2.811
 3833SOL     OW12397   1.317   4.701   0.140
 3833SOL    HW112398   1.276   4.749   0.217
 3833SOL    HW212399   1.334   4.766   0.066
 3834SOL     OW12400   2.321   1.873   6.771
 3834SOL    HW112401   2.322   1.972   6.784
 3834SOL    HW212402   2.415   1.838   6.774
 3835SOL     OW12403   3.479   5.720   5.157
 3835SOL    HW112404   3.513   5.778   5.083
 3835SOL    HW212405   3.496   5.624   5.135
 3836SOL     OW12406   0.904   3.282   6.016
 3836SOL    HW112407   0.869   3.375   6.025
 3836SOL    HW212408   0.877   3.228   6.095
 3837SOL     OW12409   3.553   3.273   0.316
 3837SOL    HW112410   3.634   3.237   0.363
 3837SOL    HW212411   3.526   3.359   0.358
 3838SOL     OW12412   6.065   3.346   5.469
 3838SOL    HW112413   6.084   3.359   5.372
 3838SOL    HW212414   6.053   3.435   5.514
 3839SOL     OW12415   5.992   6.413   5.946
 3839SOL    HW112416   5.907   6.378   5.906
 3839SOL    HW212417   6.024   6.350   6.016
 3840SOL     OW12418   1.765   0.751   3.980
 3840SOL    HW112419   1.824   0.696   4.039
 3840SOL    HW212420   1.674   0.757   4.021
 3841SOL     OW12421   0.177   3.816   4.921
 3841SOL    HW112422   0.228   3.878   4.981
 3841SOL    HW212423   0.224   3.728   4.916
 3842SOL     OW12424   1.034   5.392   6.875
 3842SOL    HW112425   0.942   5.355   6.863
 3842SOL    HW212426   1.086   5.333   6.936
 3843SOL     OW12427   5.954   3.803   0.818
 3843SOL    HW112428   5.986   3.756   0.736
 3843SOL    HW212429   5.990   3.896   0.818
 3844SOL     OW12430   2.252   4.555   6.215
 3844SOL    HW112431   2.340   4.515   6.188
 3844SOL    HW212432   2.212   4.501   6.289
 3845SOL     OW12433   3.657   3.709   3.772
 3845SOL    HW112434   3.705   3.638   3.823
 3845SOL    HW212435   3.575   3.670   3.730
 3846SOL     OW12436   0.184   4.759   3.729
 3846SOL    HW112437   0.196   4.825   3.654
 3846SOL    HW212438   0.165   4.669   3.691
 3847SOL     OW12439   0.843   0.134   0.496
 3847SOL    HW112440   0.833   0.211   0.433
 3847SOL    HW212441   0.761   0.126   0.552
 3848SOL     OW12442   3.064   5.285   0.341
 3848SOL    HW112443   3.164   5.291   0.341
 3848SOL    HW212444   3.031   5.288   0.435
 3849SOL     OW12445   1.841   2.251   6.050
 3849SOL    HW112446   1.844   2.195   6.132
 3849SOL    HW212447   1.878   2.341   6.069
 3850SOL     OW12448   2.704   3.867   1.545
 3850SOL    HW112449   2.747   3.834   1.461
 3850SOL    HW212450   2.758   3.942   1.583
 3851SOL     OW12451   2.730   2.433   1.468
 3851SOL    HW112452   2.776   2.506   1.416
 3851SOL    HW212453   2.700   2.469   1.556
 3852SOL     OW12454   4.237   0.661   5.293
 3852SOL    HW112455   4.274   0.602   5.221
 3852SOL    HW212456   4.302   0.734   5.313
 3853SOL     OW12457   1.779   2.945   1.994
 3853SOL    HW112458   1.730   3.014   2.048
 3853SOL    HW212459   1.756   2.854   2.029
 3854SOL     OW12460   1.091   3.315   4.470
 3854SOL    HW112461   1.110   3.292   4.374
 3854SOL    HW212462   1.087   3.231   4.524
 3855SOL     OW12463   0.206   2.300   5.425
 3855SOL    HW112464   0.236   2.330   5.515
 3855SOL    HW212465   0.107   2.301   5.420
 3856SOL     OW12466   0.977   6.173   5.474
 3856SOL    HW112467   0.970   6.122   5.389
 3856SOL    HW212468   0.920   6.255   5.468
 3857SOL     OW12469   0.836   6.635   5.496
 3857SOL    HW112470   0.872   6.550   5.536
 3857SOL    HW212471   0.819   6.701   5.569
 3858SOL     OW12472   1.840   5.403   0.619
 3858SOL    HW112473   1.801   5.323   0.574
 3858SOL    HW212474   1.939   5.401   0.612
 3859SOL     OW12475   0.187   2.132   2.291
 3859SOL    HW112476   0.092   2.152   2.267
 3859SOL    HW212477   0.227   2.209   2.340
 3860SOL     OW12478   2.756   6.167   5.536
 3860SOL    HW112479   2.839   6.112   5.530
 3860SOL    HW212480   2.682   6.123   5.485
 3861SOL     OW12481   4.477   4.507   0.499
 3861SOL    HW112482   4.419   4.560   0.561
 3861SOL    HW212483   4.426   4.487   0.415
 3862SOL     OW12484   1.144   5.307   6.061
 3862SOL    HW112485   1.147   5.316   5.961
 3862SOL    HW212486   1.212   5.240   6.090
 3863SOL     OW12487   3.424   2.583   0.775
 3863SOL    HW112488   3.338   2.534   0.757
 3863SOL    HW212489   3.435   2.595   0.874
 3864SOL     OW12490   3.754   1.811   6.665
 3864SOL    HW112491   3.725   1.903   6.692
 3864SOL    HW212492   3.681   1.746   6.685
 3865SOL     OW12493   4.257   0.447   2.385
 3865SOL    HW112494   4.239   0.512   2.459
 3865SOL    HW212495   4.311   0.370   2.420
 3866SOL     OW12496   4.220   6.709   6.579
 3866SOL    HW112497   4.232   6.675   6.486
 3866SOL    HW212498   4.158   6.787   6.578
 3867SOL     OW12499   1.745   3.255   3.709
 3867SOL    HW112500   1.817   3.315   3.745
 3867SOL    HW212501   1.656   3.287   3.743
 3868SOL     OW12502   1.652   5.219   3.243
 3868SOL    HW112503   1.735   5.258   3.204
 3868SOL    HW212504   1.653   5.233   3.342
 3869SOL     OW12505   1.317   2.395   3.264
 3869SOL    HW112506   1.267   2.317   3.303
 3869SOL    HW212507   1.259   2.477   3.267
 3870SOL     OW12508   3.284   4.493   0.489
 3870SOL    HW112509   3.326   4.480   0.399
 3870SOL    HW212510   3.267   4.590   0.504
 3871SOL     OW12511   2.815   1.852   4.409
 3871SOL    HW112512   2.781   1.761   4.434
 3871SOL    HW212513   2.775   1.920   4.471
 3872SOL     OW12514   4.046   3.770   0.824
 3872SOL    HW112515   4.056   3.830   0.745
 3872SOL    HW212516   4.114   3.697   0.818
 3873SOL     OW12517   5.271   4.165   1.952
 3873SOL    HW112518   5.317   4.243   1.995
 3873SOL    HW212519   5.172   4.179   1.956
 3874SOL     OW12520   4.754   6.303   6.098
 3874SOL    HW112521   4.853   6.294   6.090
 3874SOL    HW212522   4.712   6.213   6.088
 3875SOL     OW12523   2.024   4.105   0.378
 3875SOL    HW112524   1.981   4.158   0.305
 3875SOL    HW212525   1.957   4.085   0.449
 3876SOL     OW12526   5.084   4.330   2.410
 3876SOL    HW112527   5.173   4.313   2.451
 3876SOL    HW212528   5.093   4.337   2.311
 3877SOL     OW12529   5.294   0.807   2.633
 3877SOL    HW112530   5.356   0.883   2.653
 3877SOL    HW212531   5.206   0.823   2.676
 3878SOL     OW12532   4.062   5.940   4.918
 3878SOL    HW112533   4.085   6.037   4.919
 3878SOL    HW212534   4.086   5.899   5.006
 3879SOL     OW12535   3.065   5.586   1.243
 3879SOL    HW112536   3.093   5.655   1.309
 3879SOL    HW212537   3.123   5.593   1.161
 3880SOL     OW12538   5.630   2.747   3.640
 3880SOL    HW112539   5.592   2.817   3.700
 3880SOL    HW212540   5.567   2.670   3.633
 3881SOL     OW12541   0.804   5.523   1.473
 3881SOL    HW112542   0.832   5.529   1.568
 3881SOL    HW212543   0.882   5.501   1.415
 3882SOL     OW12544   0.724   6.731   6.737
 3882SOL    HW112545   0.686   6.817   6.772
 3882SOL    HW212546   0.785   6.692   6.806
 3883SOL     OW12547   3.295   1.211   5.998
 3883SOL    HW112548   3.233   1.290   6.000
 3883SOL    HW212549   3.377   1.231   6.051
 3884SOL     OW12550   1.281   4.675   5.507
 3884SOL    HW112551   1.372   4.718   5.510
 3884SOL    HW212552   1.211   4.745   5.502
 3885SOL     OW12553   0.220   1.796   5.224
 3885SOL    HW112554   0.193   1.844   5.140
 3885SOL    HW212555   0.161   1.717   5.238
 3886SOL     OW12556   0.133   5.595   4.840
 3886SOL    HW112557   0.144   5.639   4.928
 3886SOL    HW212558   0.123   5.664   4.768
 3887SOL     OW12559   5.224   3.280   5.529
 3887SOL    HW112560   5.317   3.297   5.497
 3887SOL    HW212561   5.182   3.209   5.473
 3888SOL     OW12562   5.014   2.316   1.891
 3888SOL    HW112563   5.029   2.407   1.929
 3888SOL    HW212564   4.927   2.279   1.924
 3889SOL     OW12565   0.104   5.514   0.406
 3889SOL    HW112566   0.010   5.484   0.389
 3889SOL    HW212567   0.106   5.613   0.416
 3890SOL     OW12568   6.611   3.679   2.271
 3890SOL    HW112569   6.516   3.680   2.300
 3890SOL    HW212570   6.668   3.724   2.341
 3891SOL     OW12571   5.739   5.206   6.412
 3891SOL    HW112572   5.749   5.114   6.374
 3891SOL    HW212573   5.740   5.273   6.337
 3892SOL     OW12574   5.546   6.056   3.833
 3892SOL    HW112575   5.455   6.076   3.869
 3892SOL    HW212576   5.573   5.964   3.861
 3893SOL     OW12577   2.978   6.089   4.167
 3893SOL    HW112578   2.974   6.081   4.067
 3893SOL    HW212579   2.972   5.999   4.208
 3894SOL     OW12580   4.807   5.315   6.647
 3894SOL    HW112581   4.890   5.272   6.683
 3894SOL    HW212582   4.786   5.278   6.556
 3895SOL     OW12583   1.898   1.931   5.927
 3895SOL    HW112584   1.802   1.957   5.930
 3895SOL    HW212585   1.950   1.998   5.874
 3896SOL     OW12586   6.625   2.430   6.410
 3896SOL    HW112587   6.530   2.455   6.393
 3896SOL    HW212588   6.685   2.477   6.345
 3897SOL     OW12589   3.539   6.538   2.914
 3897SOL    HW112590   3.476   6.518   2.839
 3897SOL    HW212591   3.502   6.501   2.999
 3898SOL     OW12592   3.588   3.370   5.014
 3898SOL    HW112593   3.505   3.333   5.054
 3898SOL    HW212594   3.586   3.359   4.915
 3899SOL     OW12595   5.319   1.941   4.703
 3899SOL    HW112596   5.305   1.983   4.793
 3899SOL    HW212597   5.256   1.983   4.637
 3900SOL     OW12598   6.602   2.385   4.362
 3900SOL    HW112599   6.585   2.414   4.267
 3900SOL    HW212600   6.680   2.436   4.398
 3901SOL     OW12601   2.631   5.308   4.973
 3901SOL    HW112602   2.665   5.385   4.918
 3901SOL    HW212603   2.665   5.316   5.066
 3902SOL     OW12604   3.909   4.978   2.062
 3902SOL    HW112605   3.881   5.041   2.134
 3902SOL    HW212606   3.832   4.920   2.037
 3903SOL     OW12607   4.802   2.686   5.681
 3903SOL    HW112608   4.881   2.693   5.742
 3903SOL    HW212609   4.718   2.683   5.736
 3904SOL     OW12610   2.404   6.182   0.780
 3904SOL    HW112611   2.370   6.119   0.710
 3904SOL    HW212612   2.349   6.172   0.863
 3905SOL     OW12613   6.899   0.491   6.091
 3905SOL    HW112614   6.843   0.440   6.026
 3905SOL    HW212615   6.996   0.476   6.070
 3906SOL     OW12616   0.479   6.097   4.819
 3906SOL    HW112617   0.489   6.130   4.726
 3906SOL    HW212618   0.559   6.123   4.873
 3907SOL     OW12619   0.894   1.476   5.154
 3907SOL    HW112620   0.875   1.413   5.078
 3907SOL    HW212621   0.836   1.557   5.145
 3908SOL     OW12622   2.274   0.922   4.626
 3908SOL    HW112623   2.235   0.976   4.552
 3908SOL    HW212624   2.365   0.890   4.600
 3909SOL     OW12625   5.084   3.104   1.255
 3909SOL    HW112626   5.160   3.106   1.189
 3909SOL    HW212627   5.034   3.018   1.246
 3910SOL     OW12628   3.370   2.185   1.221
 3910SOL    HW112629   3.277   2.147   1.230
 3910SOL    HW212630   3.380   2.228   1.132
 3911SOL     OW12631   6.982   0.295   1.568
 3911SOL    HW112632   0.031   0.275   1.633
 3911SOL    HW212633   6.943   0.385   1.589
 3912SOL     OW12634   4.033   3.666   6.769
 3912SOL    HW112635   3.982   3.699   6.848
 3912SOL    HW212636   4.131   3.664   6.792
 3913SOL     OW12637   4.078   5.472   1.421
 3913SOL    HW112638   4.063   5.501   1.515
 3913SOL    HW212639   3.991   5.468   1.372
 3914SOL     OW12640   6.650   1.640   0.058
 3914SOL    HW112641   6.604   1.662   0.144
 3914SOL    HW212642   6.615   1.700   7.009
 3915SOL     OW12643   5.620   0.124   5.557
 3915SOL    HW112644   5.714   0.143   5.528
 3915SOL    HW212645   5.609   0.026   5.575
 3916SOL     OW12646   1.689   2.219   2.681
 3916SOL    HW112647   1.769   2.160   2.694
 3916SOL    HW212648   1.609   2.175   2.723
 3917SOL     OW12649   3.529   4.824   1.619
 3917SOL    HW112650   3.508   4.775   1.535
 3917SOL    HW212651   3.538   4.759   1.694
 3918SOL     OW12652   5.095   0.592   6.693
 3918SOL    HW112653   5.097   0.691   6.680
 3918SOL    HW212654   5.023   0.568   6.758
 3919SOL     OW12655   4.401   6.279   2.844
 3919SOL    HW112656   4.494   6.242   2.838
 3919SOL    HW212657   4.403   6.366   2.894
 3920SOL     OW12658   3.417   1.163   5.375
 3920SOL    HW112659   3.374   1.151   5.286
 3920SOL    HW212660   3.455   1.256   5.381
 3921SOL     OW12661   1.554   2.792   6.255
 3921SOL    HW112662   1.496   2.742   6.191
 3921SOL    HW212663   1.577   2.734   6.333
 3922SOL     OW12664   5.027   4.110   3.296
 3922SOL    HW112665   5.059   4.188   3.242
 3922SOL    HW212666   5.089   4.095   3.372
 3923SOL     OW12667   5.100   1.323   1.582
 3923SOL    HW112668   5.020   1.279   1.623
 3923SOL    HW212669   5.080   1.349   1.488
 3924SOL     OW12670   5.114   4.987   4.237
 3924SOL    HW112671   5.126   5.006   4.334
 3924SOL    HW212672   5.019   4.961   4.219
 3925SOL     OW12673   5.087   5.012   0.988
 3925SOL    HW112674   5.049   4.922   0.968
 3925SOL    HW212675   5.018   5.083   0.970
 3926SOL     OW12676   1.040   5.416   5.005
 3926SOL    HW112677   1.010   5.325   5.034
 3926SOL    HW212678   0.977   5.450   4.936
 3927SOL     OW12679   5.699   1.311   5.578
 3927SOL    HW112680   5.786   1.349   5.609
 3927SOL    HW212681   5.631   1.383   5.573
 3928SOL     OW12682   3.442   5.516   2.562
 3928SOL    HW112683   3.500   5.495   2.483
 3928SOL    HW212684   3.366   5.450   2.565
 3929SOL     OW12685   0.893   1.568   5.953
 3929SOL    HW112686   0.961   1.636   5.981
 3929SOL    HW212687   0.877   1.504   6.028
 3930SOL     OW12688   1.608   4.662   3.602
 3930SOL    HW112689   1.630   4.658   3.700
 3930SOL    HW212690   1.669   4.600   3.553
 3931SOL     OW12691   1.040   2.525   0.183
 3931SOL    HW112692   1.116   2.588   0.168
 3931SOL    HW212693   0.985   2.519   0.100
 3932SOL     OW12694   2.386   4.433   3.090
 3932SOL    HW112695   2.473   4.471   3.057
 3932SOL    HW212696   2.310   4.480   3.045
 3933SOL     OW12697   1.900   6.438   1.082
 3933SOL    HW112698   1.989   6.445   1.038
 3933SOL    HW212699   1.906   6.472   1.176
 3934SOL     OW12700   1.974   0.043   1.104
 3934SOL    HW112701   1.915   0.085   1.036
 3934SOL    HW212702   1.941   0.067   1.196
 3935SOL     OW12703   7.012   3.646   5.262
 3935SOL    HW112704   0.081   3.610   5.276
 3935SOL    HW212705   7.014   3.719   5.194
 3936SOL     OW12706   7.005   3.885   5.101
 3936SOL    HW112707   0.041   3.845   5.030
 3936SOL    HW212708   6.929   3.932   5.058
 3937SOL     OW12709   0.525   6.277   0.793
 3937SOL    HW112710   0.544   6.223   0.711
 3937SOL    HW212711   0.610   6.288   0.845
 3938SOL     OW12712   0.939   3.248   1.262
 3938SOL    HW112713   0.979   3.337   1.286
 3938SOL    HW212714   0.996   3.175   1.297
 3939SOL     OW12715   1.182   6.909   3.188
 3939SOL    HW112716   1.238   6.870   3.261
 3939SOL    HW212717   1.232   6.903   3.102
 3940SOL     OW12718   3.046   5.898   0.046
 3940SOL    HW112719   3.012   5.809   0.018
 3940SOL    HW212720   3.128   5.921   7.018
 3941SOL     OW12721   5.007   5.920   2.365
 3941SOL    HW112722   5.043   5.919   2.458
 3941SOL    HW212723   5.069   5.870   2.305
 3942SOL     OW12724   0.002   6.233   6.122
 3942SOL    HW112725   7.013   6.224   6.221
 3942SOL    HW212726   6.946   6.197   6.074
 3943SOL     OW12727   2.209   3.161   0.524
 3943SOL    HW112728   2.243   3.194   0.612
 3943SOL    HW212729   2.250   3.072   0.504
 3944SOL     OW12730   4.228   3.149   6.446
 3944SOL    HW112731   4.231   3.228   6.508
 3944SOL    HW212732   4.291   3.163   6.370
 3945SOL     OW12733   5.608   0.620   3.598
 3945SOL    HW112734   5.534   0.579   3.545
 3945SOL    HW212735   5.672   0.548   3.627
 3946SOL     OW12736   0.132   4.128   0.564
 3946SOL    HW112737   0.159   4.074   0.644
 3946SOL    HW212738   0.057   4.083   0.517
 3947SOL     OW12739   5.604   5.914   1.640
 3947SOL    HW112740   5.617   6.014   1.635
 3947SOL    HW212741   5.694   5.870   1.644
 3948SOL     OW12742   1.688   2.674   5.272
 3948SOL    HW112743   1.661   2.661   5.176
 3948SOL    HW212744   1.780   2.639   5.286
 3949SOL     OW12745   6.453   0.297   2.261
 3949SOL    HW112746   6.392   0.333   2.190
 3949SOL    HW212747   6.447   0.353   2.343
 3950SOL     OW12748   2.955   4.355   1.648
 3950SOL    HW112749   2.956   4.414   1.567
 3950SOL    HW212750   2.935   4.410   1.729
 3951SOL     OW12751   0.621   2.645   4.757
 3951SOL    HW112752   0.666   2.569   4.709
 3951SOL    HW212753   0.689   2.697   4.808
 3952SOL     OW12754   5.784   3.658   0.078
 3952SOL    HW112755   5.718   3.721   0.038
 3952SOL    HW212756   5.737   3.597   0.141
 3953SOL     OW12757   3.232   3.865   6.284
 3953SOL    HW112758   3.194   3.774   6.270
 3953SOL    HW212759   3.330   3.863   6.266
 3954SOL     OW12760   0.595   3.378   5.111
 3954SOL    HW112761   0.568   3.337   5.198
 3954SOL    HW212762   0.598   3.307   5.040
 3955SOL     OW12763   6.591   3.743   0.616
 3955SOL    HW112764   6.541   3.662   0.645
 3955SOL    HW212765   6.640   3.725   0.531
 3956SOL     OW12766   6.731   2.849   5.632
 3956SOL    HW112767   6.655   2.877   5.691
 3956SOL    HW212768   6.698   2.836   5.539
 3957SOL     OW12769   0.789   1.834   1.790
 3957SOL    HW112770   0.745   1.848   1.879
 3957SOL    HW212771   0.869   1.894   1.782
 3958SOL     OW12772   5.491   0.093   0.434
 3958SOL    HW112773   5.399   0.073   0.469
 3958SOL    HW212774   5.511   0.190   0.445
 3959SOL     OW12775   2.270   5.845   1.277
 3959SOL    HW112776   2.336   5.795   1.332
 3959SOL    HW212777   2.183   5.852   1.327
 3960SOL     OW12778   5.360   3.633   1.353
 3960SOL    HW112779   5.260   3.624   1.357
 3960SOL    HW212780   5.399   3.555   1.304
 3961SOL     OW12781   6.238   0.047   1.204
 3961SOL    HW112782   6.200   0.140   1.210
 3961SOL    HW212783   6.338   0.052   1.205
 3962SOL     OW12784   0.381   6.094   5.840
 3962SOL    HW112785   0.321   6.017   5.862
 3962SOL    HW212786   0.326   6.173   5.813
 3963SOL     OW12787   4.779   4.629   3.263
 3963SOL    HW112788   4.710   4.566   3.300
 3963SOL    HW212789   4.739   4.720   3.254
 3964SOL     OW12790   5.788   5.905   6.788
 3964SOL    HW112791   5.704   5.918   6.841
 3964SOL    HW212792   5.798   5.979   6.723
 3965SOL     OW12793   3.526   3.852   0.811
 3965SOL    HW112794   3.573   3.838   0.724
 3965SOL    HW212795   3.431   3.879   0.794
 3966SOL     OW12796   6.262   3.890   5.347
 3966SOL    HW112797   6.232   3.846   5.262
 3966SOL    HW212798   6.344   3.845   5.381
 3967SOL     OW12799   1.701   6.760   6.844
 3967SOL    HW112800   1.681   6.682   6.785
 3967SOL    HW212801   1.636   6.834   6.824
 3968SOL     OW12802   5.204   1.902   0.804
 3968SOL    HW112803   5.142   1.980   0.789
 3968SOL    HW212804   5.281   1.931   0.861
 3969SOL     OW12805   0.577   5.782   1.151
 3969SOL    HW112806   0.646   5.772   1.222
 3969SOL    HW212807   0.512   5.706   1.157
 3970SOL     OW12808   4.995   3.982   4.253
 3970SOL    HW112809   5.094   3.980   4.269
 3970SOL    HW212810   4.950   3.922   4.320
 3971SOL     OW12811   0.425   6.155   3.908
 3971SOL    HW112812   0.376   6.240   3.890
 3971SOL    HW212813   0.437   6.104   3.823
 3972SOL     OW12814   0.894   0.199   6.924
 3972SOL    HW112815   0.945   0.196   6.838
 3972SOL    HW212816   0.929   0.273   6.981
 3973SOL     OW12817   3.213   3.046   3.827
 3973SOL    HW112818   3.139   3.108   3.806
 3973SOL    HW212819   3.270   3.032   3.746
 3974SOL     OW12820   5.838   0.604   6.660
 3974SOL    HW112821   5.886   0.529   6.616
 3974SOL    HW212822   5.739   0.587   6.658
 3975SOL     OW12823   6.863   6.012   5.096
 3975SOL    HW112824   6.872   6.110   5.113
 3975SOL    HW212825   6.838   5.997   5.000
 3976SOL     OW12826   0.890   2.996   6.879
 3976SOL    HW112827   0.953   3.038   6.814
 3976SOL    HW212828   0.854   3.067   6.940
 3977SOL     OW12829   3.184   5.678   4.785
 3977SOL    HW112830   3.259   5.742   4.769
 3977SOL    HW212831   3.097   5.726   4.771
 3978SOL     OW12832   6.521   4.276   6.789
 3978SOL    HW112833   6.468   4.261   6.873
 3978SOL    HW212834   6.459   4.303   6.716
 3979SOL     OW12835   1.104   6.610   3.432
 3979SOL    HW112836   1.181   6.578   3.377
 3979SOL    HW212837   1.018   6.590   3.384
 3980SOL     OW12838   4.887   3.562   4.612
 3980SOL    HW112839   4.912   3.554   4.515
 3980SOL    HW212840   4.882   3.471   4.653
 3981SOL     OW12841   6.717   1.745   5.808
 3981SOL    HW112842   6.651   1.671   5.806
 3981SOL    HW212843   6.807   1.709   5.833
 3982SOL     OW12844   2.109   2.860   4.181
 3982SOL    HW112845   2.111   2.800   4.101
 3982SOL    HW212846   2.109   2.804   4.264
 3983SOL     OW12847   2.982   0.088   3.768
 3983SOL    HW112848   3.054   0.146   3.807
 3983SOL    HW212849   2.938   0.138   3.693
 3984SOL     OW12850   1.474   6.834   1.992
 3984SOL    HW112851   1.511   6.743   1.971
 3984SOL    HW212852   1.548   6.902   1.987
 3985SOL     OW12853   1.807   2.934   1.723
 3985SOL    HW112854   1.848   3.024   1.706
 3985SOL    HW212855   1.802   2.918   1.821
 3986SOL     OW12856   1.596   1.860   1.670
 3986SOL    HW112857   1.519   1.840   1.731
 3986SOL    HW212858   1.665   1.789   1.679
 3987SOL     OW12859   1.347   3.925   5.677
 3987SOL    HW112860   1.281   3.889   5.743
 3987SOL    HW212861   1.425   3.965   5.727
 3988SOL     OW12862   4.926   0.439   0.140
 3988SOL    HW112863   4.998   0.378   0.107
 3988SOL    HW212864   4.936   0.451   0.239
 3989SOL     OW12865   4.458   0.789   5.917
 3989SOL    HW112866   4.416   0.740   5.993
 3989SOL    HW212867   4.394   0.859   5.883
 3990SOL     OW12868   0.549   2.176   4.074
 3990SOL    HW112869   0.599   2.090   4.061
 3990SOL    HW212870   0.612   2.246   4.106
 3991SOL     OW12871   0.995   1.329   3.662
 3991SOL    HW112872   1.079   1.303   3.614
 3991SOL    HW212873   0.961   1.251   3.714
 3992SOL     OW12874   5.985   4.024   6.682
 3992SOL    HW112875   5.892   4.007   6.712
 3992SOL    HW212876   6.000   4.123   6.671
 3993SOL     OW12877   2.244   0.607   4.672
 3993SOL    HW112878   2.204   0.676   4.612
 3993SOL    HW212879   2.189   0.524   4.669
 3994SOL     OW12880   2.477   2.193   2.832
 3994SOL    HW112881   2.499   2.168   2.926
 3994SOL    HW212882   2.391   2.150   2.805
 3995SOL     OW12883   1.393   3.408   2.430
 3995SOL    HW112884   1.315   3.467   2.409
 3995SOL    HW212885   1.408   3.405   2.529
 3996SOL     OW12886   5.739   6.683   4.549
 3996SOL    HW112887   5.641   6.670   4.570
 3996SOL    HW212888   5.783   6.593   4.544
 3997SOL     OW12889   4.806   3.965   2.654
 3997SOL    HW112890   4.811   4.037   2.585
 3997SOL    HW212891   4.719   3.916   2.645
 3998SOL     OW12892   5.136   2.196   2.901
 3998SOL    HW112893   5.225   2.173   2.861
 3998SOL    HW212894   5.067   2.130   2.872
 3999SOL     OW12895   4.207   3.247   1.189
 3999SOL    HW112896   4.224   3.345   1.180
 3999SOL    HW212897   4.130   3.232   1.250
 4000SOL     OW12898   2.653   5.480   2.582
 4000SOL    HW112899   2.726   5.545   2.558
 4000SOL    HW212900   2.633   5.422   2.503
 4001SOL     OW12901   0.949   5.277   4.165
 4001SOL    HW112902   0.867   5.243   4.120
 4001SOL    HW212903   0.963   5.228   4.251
 4002SOL     OW12904   3.463   4.060   3.794
 4002SOL    HW112905   3.436   3.965   3.790
 4002SOL    HW212906   3.434   4.107   3.711
 4003SOL     OW12907   1.558   0.870   5.337
 4003SOL    HW112908   1.559   0.859   5.238
 4003SOL    HW212909   1.589   0.786   5.380
 4004SOL     OW12910   0.810   3.219   4.086
 4004SOL    HW112911   0.900   3.176   4.083
 4004SOL    HW212912   0.808   3.289   4.158
 4005SOL     OW12913   4.903   2.647   0.235
 4005SOL    HW112914   4.983   2.630   0.292
 4005SOL    HW212915   4.926   2.713   0.164
 4006SOL     OW12916   6.499   5.709   2.433
 4006SOL    HW112917   6.546   5.696   2.345
 4006SOL    HW212918   6.551   5.663   2.505
 4007SOL     OW12919   6.861   0.449   2.645
 4007SOL    HW112920   6.836   0.454   2.549
 4007SOL    HW212921   6.886   0.540   2.678
 4008SOL     OW12922   2.672   1.328   0.670
 4008SOL    HW112923   2.687   1.231   0.690
 4008SOL    HW212924   2.747   1.363   0.615
 4009SOL     OW12925   4.638   2.125   1.048
 4009SOL    HW112926   4.601   2.171   1.128
 4009SOL    HW212927   4.705   2.184   1.003
 4010SOL     OW12928   2.027   5.799   1.418
 4010SOL    HW112929   1.943   5.844   1.388
 4010SOL    HW212930   2.064   5.847   1.497
 4011SOL     OW12931   5.338   6.264   6.051
 4011SOL    HW112932   5.300   6.303   6.135
 4011SOL    HW212933   5.311   6.321   5.973
 4012SOL     OW12934   5.027   6.499   2.459
 4012SOL    HW112935   4.966   6.557   2.405
 4012SOL    HW212936   5.027   6.407   2.421
 4013SOL     OW12937   0.210   1.229   5.861
 4013SOL    HW112938   0.198   1.319   5.819
 4013SOL    HW212939   0.213   1.159   5.790
 4014SOL     OW12940   2.996   4.939   2.496
 4014SOL    HW112941   2.905   4.901   2.511
 4014SOL    HW212942   2.990   5.038   2.482
 4015SOL     OW12943   4.441   5.302   6.023
 4015SOL    HW112944   4.387   5.233   5.976
 4015SOL    HW212945   4.412   5.393   5.993
 4016SOL     OW12946   4.985   5.229   5.188
 4016SOL    HW112947   5.051   5.255   5.258
 4016SOL    HW212948   4.935   5.310   5.158
 4017SOL     OW12949   1.100   4.877   5.843
 4017SOL    HW112950   1.000   4.880   5.837
 4017SOL    HW212951   1.136   4.811   5.777
 4018SOL     OW12952   3.997   5.694   0.985
 4018SOL    HW112953   4.051   5.772   0.953
 4018SOL    HW212954   3.931   5.668   0.915
 4019SOL     OW12955   5.536   4.389   2.465
 4019SOL    HW112956   5.437   4.397   2.456
 4019SOL    HW212957   5.564   4.420   2.556
 4020SOL     OW12958   0.139   5.302   4.566
 4020SOL    HW112959   0.097   5.321   4.654
 4020SOL    HW212960   0.217   5.363   4.552
 4021SOL     OW12961   4.570   3.908   5.899
 4021SOL    HW112962   4.665   3.878   5.894
 4021SOL    HW212963   4.522   3.880   5.816
 4022SOL     OW12964   2.365   0.060   1.662
 4022SOL    HW112965   2.437   0.109   1.614
 4022SOL    HW212966   2.342   7.000   1.612
 4023SOL     OW12967   0.335   1.225   4.484
 4023SOL    HW112968   0.323   1.307   4.540
 4023SOL    HW212969   0.382   1.250   4.399
 4024SOL     OW12970   0.698   6.418   4.590
 4024SOL    HW112971   0.757   6.409   4.670
 4024SOL    HW212972   0.754   6.427   4.508
 4025SOL     OW12973   0.046   5.435   3.212
 4025SOL    HW112974   6.986   5.381   3.203
 4025SOL    HW212975   0.116   5.398   3.151
 4026SOL     OW12976   0.126   0.136   4.041
 4026SOL    HW112977   0.205   0.178   4.086
 4026SOL    HW212978   0.116   0.042   4.072
 4027SOL     OW12979   3.228   4.610   5.783
 4027SOL    HW112980   3.265   4.657   5.703
 4027SOL    HW212981   3.227   4.511   5.767
 4028SOL     OW12982   5.050   1.382   3.419
 4028SOL    HW112983   5.129   1.345   3.368
 4028SOL    HW212984   5.001   1.447   3.361
 4029SOL     OW12985   1.675   6.334   0.026
 4029SOL    HW112986   1.696   6.290   0.113
 4029SOL    HW212987   1.753   6.391   7.022
 4030SOL     OW12988   6.962   1.159   2.643
 4030SOL    HW112989   7.021   1.228   2.600
 4030SOL    HW212990   6.928   1.194   2.730
 4031SOL     OW12991   6.232   5.805   0.033
 4031SOL    HW112992   6.138   5.775   0.018
 4031SOL    HW212993   6.259   5.868   6.984
 4032SOL     OW12994   4.802   0.721   2.437
 4032SOL    HW112995   4.817   0.820   2.442
 4032SOL    HW212996   4.748   0.692   2.516
 4033SOL     OW12997   1.892   2.511   2.323
 4033SOL    HW112998   1.794   2.521   2.342
 4033SOL    HW212999   1.929   2.598   2.291
 4034SOL     OW13000   0.283   3.048   5.742
 4034SOL    HW113001   0.331   2.960   5.739
 4034SOL    HW213002   0.208   3.047   5.676
 4035SOL     OW13003   4.409   2.364   1.681
 4035SOL    HW113004   4.499   2.361   1.724
 4035SOL    HW213005   4.344   2.314   1.738
 4036SOL     OW13006   2.904   5.433   3.158
 4036SOL    HW113007   2.846   5.441   3.077
 4036SOL    HW213008   2.998   5.414   3.129
 4037SOL     OW13009   2.954   1.832   5.822
 4037SOL    HW113010   2.861   1.796   5.825
 4037SOL    HW213011   3.005   1.787   5.748
 4038SOL     OW13012   3.645   4.444   5.954
 4038SOL    HW113013   3.567   4.384   5.971
 4038SOL    HW213014   3.613   4.530   5.915
 4039SOL     OW13015   5.894   4.889   1.198
 4039SOL    HW113016   5.805   4.926   1.226
 4039SOL    HW213017   5.952   4.880   1.279
 4040SOL     OW13018   3.196   6.415   4.864
 4040SOL    HW113019   3.207   6.513   4.877
 4040SOL    HW213020   3.146   6.397   4.779
 4041SOL     OW13021   2.325   6.633   1.091
 4041SOL    HW113022   2.288   6.575   1.018
 4041SOL    HW213023   2.252   6.654   1.156
 4042SOL     OW13024   6.598   1.141   2.968
 4042SOL    HW113025   6.540   1.072   3.010
 4042SOL    HW213026   6.621   1.211   3.036
 4043SOL     OW13027   6.215   3.546   6.864
 4043SOL    HW113028   6.247   3.598   6.943
 4043SOL    HW213029   6.123   3.511   6.882
 4044SOL     OW13030   4.622   4.845   3.242
 4044SOL    HW113031   4.613   4.889   3.152
 4044SOL    HW213032   4.558   4.887   3.306
 4045SOL     OW13033   4.873   1.026   5.485
 4045SOL    HW113034   4.829   0.944   5.520
 4045SOL    HW213035   4.838   1.047   5.394
 4046SOL     OW13036   6.119   1.751   2.793
 4046SOL    HW113037   6.206   1.785   2.756
 4046SOL    HW213038   6.134   1.714   2.885
 4047SOL     OW13039   2.824   3.038   6.792
 4047SOL    HW113040   2.772   3.032   6.707
 4047SOL    HW213041   2.908   2.984   6.784
 4048SOL     OW13042   4.532   1.892   2.283
 4048SOL    HW113043   4.611   1.915   2.226
 4048SOL    HW213044   4.527   1.793   2.294
 4049SOL     OW13045   4.178   4.636   0.000
 4049SOL    HW113046   4.163   4.734   7.009
 4049SOL    HW213047   4.092   4.592   0.025
 4050SOL     OW13048   1.286   5.625   2.417
 4050SOL    HW113049   1.342   5.543   2.404
 4050SOL    HW213050   1.211   5.625   2.352
 4051SOL     OW13051   5.475   1.121   4.594
 4051SOL    HW113052   5.436   1.038   4.634
 4051SOL    HW213053   5.521   1.174   4.665
 4052SOL     OW13054   6.442   2.013   3.132
 4052SOL    HW113055   6.346   2.004   3.160
 4052SOL    HW213056   6.471   1.930   3.084
 4053SOL     OW13057   1.583   5.241   4.625
 4053SOL    HW113058   1.547   5.150   4.645
 4053SOL    HW213059   1.607   5.247   4.528
 4054SOL     OW13060   3.985   4.182   0.964
 4054SOL    HW113061   3.937   4.202   0.878
 4054SOL    HW213062   3.918   4.171   1.038
 4055SOL     OW13063   0.980   4.613   0.944
 4055SOL    HW113064   0.894   4.562   0.954
 4055SOL    HW213065   1.039   4.565   0.879
 4056SOL     OW13066   5.159   3.401   0.558
 4056SOL    HW113067   5.231   3.331   0.563
 4056SOL    HW213068   5.070   3.358   0.570
 4057SOL     OW13069   0.302   3.991   0.119
 4057SOL    HW113070   0.206   3.998   0.092
 4057SOL    HW213071   0.352   3.938   0.051
 4058SOL     OW13072   2.883   0.257   6.124
 4058SOL    HW113073   2.811   0.188   6.122
 4058SOL    HW213074   2.937   0.251   6.040
 4059SOL     OW13075   0.494   1.779   3.925
 4059SOL    HW113076   0.506   1.841   3.848
 4059SOL    HW213077   0.573   1.786   3.986
 4060SOL     OW13078   5.984   6.070   5.084
 4060SOL    HW113079   5.913   5.999   5.075
 4060SOL    HW213080   6.044   6.067   5.004
 4061SOL     OW13081   1.565   5.211   0.770
 4061SOL    HW113082   1.508   5.209   0.852
 4061SOL    HW213083   1.569   5.305   0.735
 4062SOL     OW13084   1.633   2.388   1.235
 4062SOL    HW113085   1.641   2.481   1.270
 4062SOL    HW213086   1.713   2.367   1.178
 4063SOL     OW13087   4.597   0.664   7.022
 4063SOL    HW113088   4.551   0.745   0.036
 4063SOL    HW213089   4.664   0.694   6.954
 4064SOL     OW13090   2.074   1.759   5.555
 4064SOL    HW113091   2.050   1.851   5.586
 4064SOL    HW213092   1.991   1.706   5.538
 4065SOL     OW13093   2.790   6.734   1.103
 4065SOL    HW113094   2.806   6.709   1.198
 4065SOL    HW213095   2.706   6.691   1.070
 4066SOL     OW13096   0.315   4.053   3.642
 4066SOL    HW113097   0.218   4.041   3.623
 4066SOL    HW213098   0.367   4.049   3.556
 4067SOL     OW13099   5.157   4.900   0.588
 4067SOL    HW113100   5.219   4.937   0.657
 4067SOL    HW213101   5.063   4.928   0.609
 4068SOL     OW13102   2.335   2.712   5.132
 4068SOL    HW113103   2.338   2.667   5.042
 4068SOL    HW213104   2.378   2.801   5.126
 4069SOL     OW13105   4.628   6.821   6.524
 4069SOL    HW113106   4.652   6.890   6.455
 4069SOL    HW213107   4.620   6.865   6.613
 4070SOL     OW13108   1.101   2.771   3.733
 4070SOL    HW113109   1.015   2.728   3.759
 4070SOL    HW213110   1.151   2.711   3.670
 4071SOL     OW13111   1.404   0.495   3.761
 4071SOL    HW113112   1.453   0.504   3.848
 4071SOL    HW213113   1.336   0.422   3.769
 4072SOL     OW13114   2.381   6.049   2.707
 4072SOL    HW113115   2.403   6.062   2.804
 4072SOL    HW213116   2.423   5.964   2.675
 4073SOL     OW13117   3.134   4.531   0.209
 4073SOL    HW113118   3.113   4.603   0.275
 4073SOL    HW213119   3.171   4.572   0.126
 4074SOL     OW13120   1.343   5.163   2.775
 4074SOL    HW113121   1.246   5.186   2.777
 4074SOL    HW213122   1.359   5.078   2.825
 4075SOL     OW13123   6.484   1.023   1.249
 4075SOL    HW113124   6.413   1.013   1.178
 4075SOL    HW213125   6.573   1.004   1.209
 4076SOL     OW13126   2.473   4.151   5.392
 4076SOL    HW113127   2.449   4.094   5.313
 4076SOL    HW213128   2.523   4.096   5.459
 4077SOL     OW13129   2.325   0.925   1.720
 4077SOL    HW113130   2.256   0.923   1.648
 4077SOL    HW213131   2.308   0.852   1.786
 4078SOL     OW13132   2.907   4.900   2.781
 4078SOL    HW113133   3.003   4.912   2.806
 4078SOL    HW213134   2.900   4.842   2.700
 4079SOL     OW13135   1.061   2.423   4.393
 4079SOL    HW113136   1.066   2.412   4.492
 4079SOL    HW213137   1.050   2.334   4.350
 4080SOL     OW13138   6.093   1.619   4.832
 4080SOL    HW113139   5.996   1.599   4.815
 4080SOL    HW213140   6.139   1.535   4.859
 4081SOL     OW13141   1.623   3.509   4.073
 4081SOL    HW113142   1.546   3.535   4.015
 4081SOL    HW213143   1.589   3.464   4.156
 4082SOL     OW13144   1.152   3.553   1.038
 4082SOL    HW113145   1.137   3.579   0.942
 4082SOL    HW213146   1.228   3.605   1.076
 4083SOL     OW13147   5.792   2.269   4.504
 4083SOL    HW113148   5.694   2.271   4.523
 4083SOL    HW213149   5.826   2.175   4.516
 4084SOL     OW13150   0.986   1.662   4.124
 4084SOL    HW113151   0.997   1.571   4.164
 4084SOL    HW213152   1.049   1.673   4.047
 4085SOL     OW13153   3.380   6.382   0.194
 4085SOL    HW113154   3.326   6.460   0.226
 4085SOL    HW213155   3.340   6.345   0.110
 4086SOL     OW13156   1.548   4.750   0.681
 4086SOL    HW113157   1.512   4.807   0.754
 4086SOL    HW213158   1.485   4.674   0.664
 4087SOL     OW13159   1.626   1.369   3.024
 4087SOL    HW113160   1.672   1.407   3.104
 4087SOL    HW213161   1.536   1.333   3.051
 4088SOL     OW13162   6.459   1.572   0.928
 4088SOL    HW113163   6.518   1.635   0.978
 4088SOL    HW213164   6.368   1.613   0.916
 4089SOL     OW13165   0.984   0.966   4.929
 4089SOL    HW113166   0.986   0.919   5.016
 4089SOL    HW213167   0.929   0.915   4.864
 4090SOL     OW13168   1.752   3.954   5.647
 4090SOL    HW113169   1.725   4.029   5.587
 4090SOL    HW213170   1.852   3.955   5.659
 4091SOL     OW13171   4.531   5.885   0.324
 4091SOL    HW113172   4.608   5.905   0.385
 4091SOL    HW213173   4.528   5.952   0.251
 4092SOL     OW13174   0.010   2.924   4.850
 4092SOL    HW113175   0.043   2.873   4.930
 4092SOL    HW213176   6.982   3.003   4.882
 4093SOL     OW13177   5.768   0.791   3.800
 4093SOL    HW113178   5.739   0.747   3.885
 4093SOL    HW213179   5.715   0.755   3.723
 4094SOL     OW13180   2.226   4.197   4.854
 4094SOL    HW113181   2.242   4.287   4.894
 4094SOL    HW213182   2.249   4.126   4.921
 4095SOL     OW13183   1.101   3.524   6.090
 4095SOL    HW113184   1.005   3.540   6.064
 4095SOL    HW213185   1.114   3.426   6.108
 4096SOL     OW13186   3.992   4.732   1.250
 4096SOL    HW113187   4.077   4.781   1.234
 4096SOL    HW213188   3.974   4.670   1.173
 4097SOL     OW13189   3.431   3.959   5.460
 4097SOL    HW113190   3.508   3.900   5.485
 4097SOL    HW213191   3.349   3.903   5.450
 4098SOL     OW13192   0.263   1.793   3.226
 4098SOL    HW113193   0.171   1.816   3.257
 4098SOL    HW213194   0.271   1.814   3.128
 4099SOL     OW13195   4.149   5.941   1.908
 4099SOL    HW113196   4.193   5.874   1.968
 4099SOL    HW213197   4.149   6.030   1.953
 4100SOL     OW13198   3.854   5.957   3.451
 4100SOL    HW113199   3.872   5.996   3.542
 4100SOL    HW213200   3.756   5.968   3.430
 4101SOL     OW13201   5.659   1.483   6.138
 4101SOL    HW113202   5.560   1.497   6.144
 4101SOL    HW213203   5.684   1.404   6.193
 4102SOL     OW13204   6.036   1.385   0.399
 4102SOL    HW113205   5.996   1.388   0.491
 4102SOL    HW213206   5.984   1.320   0.342
 4103SOL     OW13207   0.510   0.220   2.589
 4103SOL    HW113208   0.451   0.265   2.522
 4103SOL    HW213209   0.457   0.152   2.639
 4104SOL     OW13210   1.391   4.834   2.494
 4104SOL    HW113211   1.402   4.925   2.454
 4104SOL    HW213212   1.318   4.837   2.562
 4105SOL     OW13213   4.619   4.675   0.192
 4105SOL    HW113214   4.626   4.766   0.233
 4105SOL    HW213215   4.551   4.676   0.120
 4106SOL     OW13216   6.699   3.751   4.804
 4106SOL    HW113217   6.660   3.736   4.713
 4106SOL    HW213218   6.767   3.681   4.823
 4107SOL     OW13219   7.024   0.504   0.994
 4107SOL    HW113220   6.946   0.561   0.966
 4107SOL    HW213221   0.047   0.546   1.071
 4108SOL     OW13222   6.224   3.827   6.047
 4108SOL    HW113223   6.248   3.770   6.125
 4108SOL    HW213224   6.224   3.772   5.963
 4109SOL     OW13225   3.351   5.936   3.482
 4109SOL    HW113226   3.312   5.874   3.415
 4109SOL    HW213227   3.278   5.979   3.535
 4110SOL     OW13228   4.893   3.661   6.189
 4110SOL    HW113229   4.938   3.714   6.117
 4110SOL    HW213230   4.812   3.616   6.152
 4111SOL     OW13231   4.138   3.336   6.996
 4111SOL    HW113232   4.222   3.327   6.942
 4111SOL    HW213233   4.142   3.419   0.027
 4112SOL     OW13234   3.208   1.314   4.153
 4112SOL    HW113235   3.246   1.361   4.233
 4112SOL    HW213236   3.108   1.320   4.156
 4113SOL     OW13237   3.680   4.961   4.607
 4113SOL    HW113238   3.685   4.939   4.510
 4113SOL    HW213239   3.589   4.996   4.628
 4114SOL     OW13240   2.740   1.889   2.532
 4114SOL    HW113241   2.743   1.989   2.540
 4114SOL    HW213242   2.763   1.848   2.620
 4115SOL     OW13243   5.034   4.942   1.624
 4115SOL    HW113244   4.968   5.003   1.668
 4115SOL    HW213245   5.123   4.949   1.671
 4116SOL     OW13246   3.321   1.924   1.699
 4116SOL    HW113247   3.366   1.979   1.769
 4116SOL    HW213248   3.386   1.901   1.627
 4117SOL     OW13249   1.146   5.477   1.117
 4117SOL    HW113250   1.091   5.508   1.040
 4117SOL    HW213251   1.125   5.533   1.198
 4118SOL     OW13252   1.869   6.526   0.300
 4118SOL    HW113253   1.908   6.537   0.209
 4118SOL    HW213254   1.876   6.430   0.328
 4119SOL     OW13255   3.621   0.892   4.047
 4119SOL    HW113256   3.609   0.802   4.088
 4119SOL    HW213257   3.686   0.945   4.102
 4120SOL     OW13258   3.316   0.541   1.924
 4120SOL    HW113259   3.282   0.551   2.018
 4120SOL    HW213260   3.324   0.632   1.883
 4121SOL     OW13261   6.502   3.244   4.757
 4121SOL    HW113262   6.506   3.327   4.812
 4121SOL    HW213263   6.438   3.179   4.798
 4122SOL     OW13264   1.387   5.732   6.163
 4122SOL    HW113265   1.372   5.740   6.262
 4122SOL    HW213266   1.316   5.782   6.114
 4123SOL     OW13267   4.923   4.025   6.560
 4123SOL    HW113268   4.950   4.105   6.506
 4123SOL    HW213269   4.891   3.953   6.498
 4124SOL     OW13270   5.252   0.006   4.026
 4124SOL    HW113271   5.322   6.971   4.067
 4124SOL    HW213272   5.295   0.084   3.982
 4125SOL     OW13273   4.583   1.171   0.687
 4125SOL    HW113274   4.486   1.174   0.709
 4125SOL    HW213275   4.613   1.076   0.680
 4126SOL     OW13276   2.205   3.997   4.310
 4126SOL    HW113277   2.238   3.975   4.402
 4126SOL    HW213278   2.238   4.087   4.283
 4127SOL     OW13279   6.283   3.290   5.637
 4127SOL    HW113280   6.216   3.270   5.565
 4127SOL    HW213281   6.237   3.328   5.717
 4128SOL     OW13282   0.901   2.407   2.688
 4128SOL    HW113283   0.952   2.328   2.652
 4128SOL    HW213284   0.809   2.378   2.714
 4129SOL     OW13285   5.722   2.372   5.971
 4129SOL    HW113286   5.814   2.345   6.001
 4129SOL    HW213287   5.655   2.340   6.038
 4130SOL     OW13288   5.899   4.274   0.832
 4130SOL    HW113289   5.879   4.266   0.735
 4130SOL    HW213290   5.966   4.205   0.858
 4131SOL     OW13291   6.729   4.676   3.834
 4131SOL    HW113292   6.667   4.627   3.772
 4131SOL    HW213293   6.820   4.681   3.791
 4132SOL     OW13294   5.249   2.489   3.385
 4132SOL    HW113295   5.283   2.579   3.359
 4132SOL    HW213296   5.149   2.488   3.382
 4133SOL     OW13297   3.008   1.038   1.185
 4133SOL    HW113298   3.069   1.081   1.118
 4133SOL    HW213299   3.049   1.044   1.276
 4134SOL     OW13300   1.069   1.674   0.048
 4134SOL    HW113301   1.060   1.576   0.029
 4134SOL    HW213302   1.119   1.686   0.134
 4135SOL     OW13303   1.565   0.925   1.801
 4135SOL    HW113304   1.600   0.881   1.884
 4135SOL    HW213305   1.479   0.971   1.821
 4136SOL     OW13306   0.329   2.118   3.833
 4136SOL    HW113307   0.296   2.034   3.877
 4136SOL    HW213308   0.410   2.151   3.882
 4137SOL     OW13309   3.068   4.369   6.506
 4137SOL    HW113310   3.113   4.280   6.504
 4137SOL    HW213311   3.132   4.440   6.476
 4138SOL     OW13312   4.031   4.770   3.480
 4138SOL    HW113313   4.130   4.758   3.487
 4138SOL    HW213314   3.995   4.710   3.409
 4139SOL     OW13315   2.095   2.046   6.953
 4139SOL    HW113316   2.127   2.121   6.895
 4139SOL    HW213317   2.008   2.070   6.995
 4140SOL     OW13318   5.148   1.289   5.001
 4140SOL    HW113319   5.191   1.379   4.996
 4140SOL    HW213320   5.076   1.291   5.071
 4141SOL     OW13321   5.473   5.661   0.271
 4141SOL    HW113322   5.505   5.597   0.340
 4141SOL    HW213323   5.501   5.754   0.295
 4142SOL     OW13324   0.108   4.274   1.499
 4142SOL    HW113325   0.106   4.214   1.579
 4142SOL    HW213326   0.059   4.358   1.519
 4143SOL     OW13327   6.781   3.011   1.111
 4143SOL    HW113328   6.785   2.985   1.015
 4143SOL    HW213329   6.847   2.957   1.163
 4144SOL     OW13330   4.797   1.014   2.499
 4144SOL    HW113331   4.734   1.011   2.422
 4144SOL    HW213332   4.746   1.038   2.582
 4145SOL     OW13333   1.689   6.636   2.293
 4145SOL    HW113334   1.613   6.571   2.298
 4145SOL    HW213335   1.753   6.607   2.222
 4146SOL     OW13336   4.883   6.631   0.228
 4146SOL    HW113337   4.808   6.574   0.262
 4146SOL    HW213338   4.965   6.575   0.219
 4147SOL     OW13339   3.920   1.730   5.522
 4147SOL    HW113340   3.949   1.811   5.472
 4147SOL    HW213341   3.999   1.683   5.560
 4148SOL     OW13342   6.433   0.753   3.443
 4148SOL    HW113343   6.475   0.666   3.468
 4148SOL    HW213344   6.459   0.823   3.510
 4149SOL     OW13345   6.002   3.905   2.364
 4149SOL    HW113346   5.999   4.004   2.347
 4149SOL    HW213347   5.980   3.856   2.280
 4150SOL     OW13348   5.662   0.376   6.831
 4150SOL    HW113349   5.710   0.349   6.747
 4150SOL    HW213350   5.563   0.379   6.812
 4151SOL     OW13351   0.531   5.220   0.923
 4151SOL    HW113352   0.537   5.319   0.918
 4151SOL    HW213353   0.465   5.194   0.993
 4152SOL     OW13354   4.037   4.513   1.646
 4152SOL    HW113355   3.953   4.477   1.687
 4152SOL    HW213356   4.103   4.438   1.636
 4153SOL     OW13357   6.176   4.810   6.008
 4153SOL    HW113358   6.226   4.860   6.078
 4153SOL    HW213359   6.194   4.850   5.918
 4154SOL     OW13360   5.617   2.625   5.901
 4154SOL    HW113361   5.658   2.545   5.944
 4154SOL    HW213362   5.596   2.603   5.805
 4155SOL     OW13363   1.140   3.169   1.590
 4155SOL    HW113364   1.143   3.269   1.582
 4155SOL    HW213365   1.228   3.136   1.624
 4156SOL     OW13366   5.890   6.836   5.586
 4156SOL    HW113367   5.932   6.797   5.504
 4156SOL    HW213368   5.850   6.763   5.641
 4157SOL     OW13369   3.297   0.528   4.761
 4157SOL    HW113370   3.379   0.511   4.706
 4157SOL    HW213371   3.229   0.577   4.706
 4158SOL     OW13372   0.850   6.484   3.819
 4158SOL    HW113373   0.909   6.442   3.888
 4158SOL    HW213374   0.759   6.443   3.823
 4159SOL     OW13375   0.950   2.956   5.180
 4159SOL    HW113376   0.898   3.029   5.223
 4159SOL    HW213377   1.023   2.995   5.124
 4160SOL     OW13378   0.674   0.798   1.494
 4160SOL    HW113379   0.730   0.727   1.452
 4160SOL    HW213380   0.682   0.791   1.594
 4161SOL     OW13381   6.271   1.705   0.490
 4161SOL    HW113382   6.212   1.749   0.558
 4161SOL    HW213383   6.220   1.694   0.404
 4162SOL     OW13384   5.851   0.056   5.236
 4162SOL    HW113385   5.844   0.156   5.233
 4162SOL    HW213386   5.945   0.028   5.218
 4163SOL     OW13387   5.564   1.106   4.341
 4163SOL    HW113388   5.485   1.086   4.282
 4163SOL    HW213389   5.532   1.127   4.433
 4164SOL     OW13390   1.818   0.183   6.492
 4164SOL    HW113391   1.800   0.194   6.394
 4164SOL    HW213392   1.864   0.095   6.508
 4165SOL     OW13393   3.997   6.663   1.881
 4165SOL    HW113394   3.969   6.630   1.971
 4165SOL    HW213395   3.926   6.723   1.843
 4166SOL     OW13396   5.542   2.804   0.817
 4166SOL    HW113397   5.561   2.706   0.809
 4166SOL    HW213398   5.456   2.817   0.867
 4167SOL     OW13399   2.519   2.921   1.336
 4167SOL    HW113400   2.570   2.997   1.294
 4167SOL    HW213401   2.422   2.944   1.338
 4168SOL     OW13402   1.396   5.498   1.297
 4168SOL    HW113403   1.371   5.501   1.394
 4168SOL    HW213404   1.399   5.591   1.260
 4169SOL     OW13405   5.583   3.159   4.216
 4169SOL    HW113406   5.517   3.174   4.142
 4169SOL    HW213407   5.551   3.084   4.274
 4170SOL     OW13408   4.381   3.023   5.641
 4170SOL    HW113409   4.373   3.046   5.544
 4170SOL    HW213410   4.472   3.046   5.673
 4171SOL     OW13411   5.450   3.475   1.840
 4171SOL    HW113412   5.378   3.532   1.881
 4171SOL    HW213413   5.534   3.528   1.835
 4172SOL     OW13414   0.835   2.153   0.268
 4172SOL    HW113415   0.778   2.223   0.311
 4172SOL    HW213416   0.792   2.124   0.181
 4173SOL     OW13417   5.210   3.407   4.911
 4173SOL    HW113418   5.131   3.447   4.958
 4173SOL    HW213419   5.204   3.307   4.916
 4174SOL     OW13420   4.291   0.733   4.423
 4174SOL    HW113421   4.355   0.796   4.380
 4174SOL    HW213422   4.244   0.681   4.352
 4175SOL     OW13423   3.296   0.336   2.710
 4175SOL    HW113424   3.225   0.284   2.662
 4175SOL    HW213425   3.325   0.287   2.792
 4176SOL     OW13426   5.507   6.308   3.151
 4176SOL    HW113427   5.539   6.291   3.058
 4176SOL    HW213428   5.440   6.382   3.150
 4177SOL     OW13429   0.216   6.178   3.135
 4177SOL    HW113430   0.249   6.167   3.042
 4177SOL    HW213431   0.140   6.115   3.151
 4178SOL     OW13432   3.692   2.130   5.577
 4178SOL    HW113433   3.759   2.073   5.623
 4178SOL    HW213434   3.601   2.089   5.584
 4179SOL     OW13435   5.501   3.360   5.495
 4179SOL    HW113436   5.541   3.273   5.524
 4179SOL    HW213437   5.547   3.394   5.414
 4180SOL     OW13438   4.206   3.840   1.811
 4180SOL    HW113439   4.239   3.923   1.766
 4180SOL    HW213440   4.162   3.864   1.898
 4181SOL     OW13441   0.716   1.121   0.544
 4181SOL    HW113442   0.731   1.218   0.561
 4181SOL    HW213443   0.670   1.109   0.456
 4182SOL     OW13444   5.264   0.547   2.715
 4182SOL    HW113445   5.335   0.550   2.785
 4182SOL    HW213446   5.261   0.635   2.667
 4183SOL     OW13447   1.389   1.583   1.416
 4183SOL    HW113448   1.303   1.540   1.391
 4183SOL    HW213449   1.402   1.577   1.515
 4184SOL     OW13450   4.191   5.390   0.082
 4184SOL    HW113451   4.212   5.485   0.061
 4184SOL    HW213452   4.173   5.340   7.021
 4185SOL     OW13453   0.048   0.499   4.066
 4185SOL    HW113454   0.097   0.501   3.979
 4185SOL    HW213455   0.110   0.470   4.139
 4186SOL     OW13456   2.792   4.076   0.984
 4186SOL    HW113457   2.729   4.016   1.033
 4186SOL    HW213458   2.783   4.170   1.018
 4187SOL     OW13459   4.017   4.011   6.694
 4187SOL    HW113460   4.029   4.061   6.608
 4187SOL    HW213461   4.099   4.019   6.749
 4188SOL     OW13462   4.827   6.708   4.544
 4188SOL    HW113463   4.924   6.686   4.534
 4188SOL    HW213464   4.777   6.628   4.576
 4189SOL     OW13465   2.010   2.062   3.898
 4189SOL    HW113466   2.101   2.023   3.905
 4189SOL    HW213467   1.942   1.989   3.887
 4190SOL     OW13468   2.880   0.752   0.953
 4190SOL    HW113469   2.977   0.765   0.972
 4190SOL    HW213470   2.826   0.815   1.009
 4191SOL     OW13471   6.717   1.496   2.151
 4191SOL    HW113472   6.800   1.499   2.206
 4191SOL    HW213473   6.671   1.408   2.165
 4192SOL     OW13474   6.332   1.382   3.413
 4192SOL    HW113475   6.424   1.420   3.416
 4192SOL    HW213476   6.304   1.354   3.505
 4193SOL     OW13477   1.461   6.825   2.272
 4193SOL    HW113478   1.454   6.828   2.172
 4193SOL    HW213479   1.554   6.797   2.298
 4194SOL     OW13480   0.865   0.864   4.417
 4194SOL    HW113481   0.855   0.798   4.343
 4194SOL    HW213482   0.960   0.894   4.423
 4195SOL     OW13483   4.447   0.611   1.557
 4195SOL    HW113484   4.390   0.635   1.635
 4195SOL    HW213485   4.531   0.665   1.560
 4196SOL     OW13486   4.774   2.347   3.471
 4196SOL    HW113487   4.714   2.367   3.549
 4196SOL    HW213488   4.725   2.292   3.404
 4197SOL     OW13489   4.647   4.259   3.872
 4197SOL    HW113490   4.628   4.297   3.963
 4197SOL    HW213491   4.743   4.232   3.866
 4198SOL     OW13492   6.183   3.581   6.603
 4198SOL    HW113493   6.254   3.536   6.549
 4198SOL    HW213494   6.203   3.568   6.701
 4199SOL     OW13495   3.203   3.931   5.674
 4199SOL    HW113496   3.183   4.014   5.726
 4199SOL    HW213497   3.202   3.852   5.736
 4200SOL     OW13498   2.166   0.247   6.503
 4200SOL    HW113499   2.172   0.150   6.526
 4200SOL    HW213500   2.116   0.295   6.576
 4201SOL     OW13501   5.767   6.051   4.158
 4201SOL    HW113502   5.759   5.952   4.147
 4201SOL    HW213503   5.759   6.095   4.069
 4202SOL     OW13504   5.384   4.420   4.462
 4202SOL    HW113505   5.374   4.322   4.483
 4202SOL    HW213506   5.477   4.450   4.487
 4203SOL     OW13507   5.284   5.856   3.632
 4203SOL    HW113508   5.296   5.874   3.535
 4203SOL    HW213509   5.350   5.787   3.662
 4204SOL     OW13510   3.640   3.364   1.458
 4204SOL    HW113511   3.684   3.444   1.419
 4204SOL    HW213512   3.542   3.380   1.467
 4205SOL     OW13513   2.729   4.984   3.395
 4205SOL    HW113514   2.795   4.913   3.371
 4205SOL    HW213515   2.677   5.009   3.313
 4206SOL     OW13516   5.600   0.131   4.228
 4206SOL    HW113517   5.640   0.040   4.221
 4206SOL    HW213518   5.506   0.124   4.263
 4207SOL     OW13519   1.044   1.092   1.674
 4207SOL    HW113520   1.104   1.029   1.625
 4207SOL    HW213521   1.094   1.175   1.697
 4208SOL     OW13522   0.570   3.492   0.984
 4208SOL    HW113523   0.658   3.539   0.971
 4208SOL    HW213524   0.500   3.559   1.009
 4209SOL     OW13525   2.978   0.357   4.997
 4209SOL    HW113526   3.072   0.348   4.966
 4209SOL    HW213527   2.930   0.422   4.938
 4210SOL     OW13528   4.947   2.707   0.828
 4210SOL    HW113529   4.937   2.807   0.834
 4210SOL    HW213530   4.928   2.677   0.735
 4211SOL     OW13531   4.570   4.494   3.362
 4211SOL    HW113532   4.514   4.518   3.282
 4211SOL    HW213533   4.536   4.543   3.442
 4212SOL     OW13534   6.065   0.060   2.885
 4212SOL    HW113535   6.015   7.009   2.927
 4212SOL    HW213536   6.061   0.141   2.943
 4213SOL     OW13537   1.438   0.578   2.539
 4213SOL    HW113538   1.372   0.626   2.481
 4213SOL    HW213539   1.400   0.490   2.567
 4214SOL     OW13540   1.374   3.326   4.921
 4214SOL    HW113541   1.404   3.396   4.986
 4214SOL    HW213542   1.362   3.368   4.831
 4215SOL     OW13543   0.937   5.487   4.743
 4215SOL    HW113544   1.020   5.536   4.717
 4215SOL    HW213545   0.871   5.491   4.668
 4216SOL     OW13546   1.541   2.973   5.649
 4216SOL    HW113547   1.517   3.069   5.668
 4216SOL    HW213548   1.457   2.919   5.642
 4217SOL     OW13549   0.060   0.620   3.264
 4217SOL    HW113550   0.050   0.521   3.263
 4217SOL    HW213551   6.994   0.663   3.254
 4218SOL     OW13552   3.789   6.800   2.277
 4218SOL    HW113553   3.876   6.752   2.275
 4218SOL    HW213554   3.805   6.899   2.287
 4219SOL     OW13555   4.548   6.437   3.336
 4219SOL    HW113556   4.522   6.341   3.336
 4219SOL    HW213557   4.477   6.492   3.293
 4220SOL     OW13558   0.278   3.312   2.961
 4220SOL    HW113559   0.251   3.365   3.041
 4220SOL    HW213560   0.252   3.216   2.975
 4221SOL     OW13561   5.237   5.840   5.654
 4221SOL    HW113562   5.161   5.894   5.690
 4221SOL    HW213563   5.224   5.826   5.555
 4222SOL     OW13564   4.472   2.637   0.573
 4222SOL    HW113565   4.508   2.708   0.633
 4222SOL    HW213566   4.377   2.617   0.597
 4223SOL     OW13567   3.689   4.022   3.023
 4223SOL    HW113568   3.732   3.956   2.961
 4223SOL    HW213569   3.643   4.093   2.970
 4224SOL     OW13570   4.310   2.257   4.854
 4224SOL    HW113571   4.313   2.315   4.935
 4224SOL    HW213572   4.215   2.246   4.824
 4225SOL     OW13573   5.595   0.453   4.833
 4225SOL    HW113574   5.524   0.502   4.784
 4225SOL    HW213575   5.587   0.355   4.814
 4226SOL     OW13576   1.695   1.521   3.622
 4226SOL    HW113577   1.762   1.589   3.652
 4226SOL    HW213578   1.606   1.542   3.662
 4227SOL     OW13579   6.046   4.176   0.529
 4227SOL    HW113580   6.089   4.093   0.497
 4227SOL    HW213581   6.078   4.254   0.475
 4228SOL     OW13582   6.315   5.480   2.549
 4228SOL    HW113583   6.237   5.519   2.599
 4228SOL    HW213584   6.380   5.553   2.528
 4229SOL     OW13585   5.079   4.694   5.731
 4229SOL    HW113586   5.170   4.654   5.720
 4229SOL    HW213587   5.023   4.634   5.789
 4230SOL     OW13588   2.973   6.925   4.742
 4230SOL    HW113589   2.971   6.894   4.838
 4230SOL    HW213590   3.050   6.987   4.729
 4231SOL     OW13591   4.264   6.712   5.348
 4231SOL    HW113592   4.299   6.686   5.438
 4231SOL    HW213593   4.274   6.811   5.336
 4232SOL     OW13594   1.978   4.259   1.949
 4232SOL    HW113595   1.947   4.350   1.977
 4232SOL    HW213596   2.011   4.209   2.030
 4233SOL     OW13597   5.890   6.681   1.008
 4233SOL    HW113598   5.876   6.723   0.919
 4233SOL    HW213599   5.824   6.607   1.021
 4234SOL     OW13600   2.919   4.039   5.538
 4234SOL    HW113601   2.941   3.942   5.554
 4234SOL    HW213602   3.004   4.091   5.534
 4235SOL     OW13603   6.607   3.618   5.597
 4235SOL    HW113604   6.566   3.529   5.616
 4235SOL    HW213605   6.707   3.609   5.596
 4236SOL     OW13606   1.385   3.596   4.485
 4236SOL    HW113607   1.435   3.681   4.469
 4236SOL    HW213608   1.321   3.610   4.561
 4237SOL     OW13609   5.318   3.692   4.903
 4237SOL    HW113610   5.251   3.670   4.974
 4237SOL    HW213611   5.276   3.683   4.813
 4238SOL     OW13612   4.322   5.150   4.041
 4238SOL    HW113613   4.296   5.173   4.135
 4238SOL    HW213614   4.257   5.084   4.004
 4239SOL     OW13615   4.844   5.436   5.829
 4239SOL    HW113616   4.783   5.358   5.844
 4239SOL    HW213617   4.799   5.520   5.859
 4240SOL     OW13618   2.884   4.955   6.551
 4240SOL    HW113619   2.844   4.920   6.635
 4240SOL    HW213620   2.859   4.895   6.475
 4241SOL     OW13621   3.652   0.824   6.685
 4241SOL    HW113622   3.751   0.813   6.698
 4241SOL    HW213623   3.635   0.890   6.611
 4242SOL     OW13624   1.632   0.393   2.460
 4242SOL    HW113625   1.577   0.320   2.420
 4242SOL    HW213626   1.573   0.452   2.515
 4243SOL     OW13627   1.644   2.781   3.026
 4243SOL    HW113628   1.699   2.803   2.946
 4243SOL    HW213629   1.652   2.683   3.046
 4244SOL     OW13630   3.491   6.254   1.759
 4244SOL    HW113631   3.511   6.271   1.855
 4244SOL    HW213632   3.499   6.340   1.708
 4245SOL     OW13633   6.726   3.520   1.481
 4245SOL    HW113634   6.675   3.521   1.567
 4245SOL    HW213635   6.758   3.427   1.462
 4246SOL     OW13636   4.532   1.967   3.788
 4246SOL    HW113637   4.534   2.025   3.707
 4246SOL    HW213638   4.571   1.877   3.765
 4247SOL     OW13639   1.663   4.832   6.435
 4247SOL    HW113640   1.739   4.768   6.431
 4247SOL    HW213641   1.590   4.801   6.374
 4248SOL     OW13642   1.524   0.677   3.571
 4248SOL    HW113643   1.518   0.610   3.645
 4248SOL    HW213644   1.483   0.764   3.601
 4249SOL     OW13645   6.051   6.751   5.359
 4249SOL    HW113646   6.118   6.825   5.369
 4249SOL    HW213647   6.097   6.668   5.327
 4250SOL     OW13648   6.787   5.297   4.036
 4250SOL    HW113649   6.729   5.335   4.109
 4250SOL    HW213650   6.750   5.322   3.947
 4251SOL     OW13651   6.218   2.544   5.138
 4251SOL    HW113652   6.201   2.477   5.210
 4251SOL    HW213653   6.309   2.584   5.150
 4252SOL     OW13654   0.109   6.632   6.961
 4252SOL    HW113655   0.032   6.573   6.938
 4252SOL    HW213656   0.089   6.725   6.930
 4253SOL     OW13657   4.984   5.639   2.854
 4253SOL    HW113658   4.912   5.570   2.856
 4253SOL    HW213659   5.042   5.629   2.935
 4254SOL     OW13660   1.849   2.932   6.351
 4254SOL    HW113661   1.776   2.864   6.347
 4254SOL    HW213662   1.826   3.009   6.290
 4255SOL     OW13663   1.260   3.234   3.562
 4255SOL    HW113664   1.324   3.207   3.491
 4255SOL    HW213665   1.202   3.155   3.586
 4256SOL     OW13666   0.689   6.350   1.669
 4256SOL    HW113667   0.672   6.356   1.768
 4256SOL    HW213668   0.761   6.415   1.644
 4257SOL     OW13669   6.419   0.266   4.248
 4257SOL    HW113670   6.375   0.185   4.210
 4257SOL    HW213671   6.360   0.307   4.318
 4258SOL     OW13672   3.116   5.802   0.734
 4258SOL    HW113673   3.141   5.883   0.681
 4258SOL    HW213674   3.074   5.734   0.674
 4259SOL     OW13675   1.013   0.255   1.415
 4259SOL    HW113676   0.968   0.186   1.358
 4259SOL    HW213677   1.065   0.210   1.488
 4260SOL     OW13678   5.138   1.324   4.660
 4260SOL    HW113679   5.216   1.363   4.708
 4260SOL    HW213680   5.170   1.261   4.589
 4261SOL     OW13681   2.636   5.919   4.232
 4261SOL    HW113682   2.627   6.014   4.261
 4261SOL    HW213683   2.572   5.902   4.157
 4262SOL     OW13684   2.549   4.024   6.628
 4262SOL    HW113685   2.482   3.953   6.606
 4262SOL    HW213686   2.618   3.987   6.690
 4263SOL     OW13687   2.115   1.428   3.486
 4263SOL    HW113688   2.133   1.360   3.558
 4263SOL    HW213689   2.097   1.381   3.400
 4264SOL     OW13690   5.159   1.500   5.244
 4264SOL    HW113691   5.146   1.559   5.324
 4264SOL    HW213692   5.252   1.465   5.242
 4265SOL     OW13693   2.319   7.007   6.240
 4265SOL    HW113694   2.360   6.984   6.328
 4265SOL    HW213695   2.366   0.062   6.200
 4266SOL     OW13696   1.911   5.622   1.686
 4266SOL    HW113697   2.010   5.622   1.669
 4266SOL    HW213698   1.886   5.537   1.733
 4267SOL     OW13699   1.467   4.226   4.715
 4267SOL    HW113700   1.509   4.173   4.642
 4267SOL    HW213701   1.523   4.306   4.736
 4268SOL     OW13702   1.540   4.231   6.628
 4268SOL    HW113703   1.473   4.233   6.703
 4268SOL    HW213704   1.528   4.147   6.575
 4269SOL     OW13705   2.716   1.244   4.990
 4269SOL    HW113706   2.743   1.295   5.071
 4269SOL    HW213707   2.641   1.181   5.013
 4270SOL     OW13708   3.436   3.406   0.798
 4270SOL    HW113709   3.530   3.378   0.778
 4270SOL    HW213710   3.387   3.329   0.839
 4271SOL     OW13711   6.897   0.698   2.101
 4271SOL    HW113712   6.916   0.794   2.121
 4271SOL    HW213713   6.884   0.687   2.002
 4272SOL     OW13714   0.244   0.981   6.774
 4272SOL    HW113715   0.334   0.985   6.817
 4272SOL    HW213716   0.253   0.944   6.681
 4273SOL     OW13717   3.154   6.068   4.797
 4273SOL    HW113718   3.070   6.101   4.840
 4273SOL    HW213719   3.233   6.117   4.834
 4274SOL     OW13720   0.047   1.484   2.055
 4274SOL    HW113721   0.055   1.551   1.982
 4274SOL    HW213722   0.007   1.400   2.019
 4275SOL     OW13723   0.172   2.369   3.556
 4275SOL    HW113724   0.213   2.279   3.547
 4275SOL    HW213725   0.132   2.396   3.468
 4276SOL     OW13726   2.401   6.233   3.717
 4276SOL    HW113727   2.408   6.331   3.740
 4276SOL    HW213728   2.423   6.221   3.621
 4277SOL     OW13729   6.369   5.758   2.885
 4277SOL    HW113730   6.454   5.708   2.871
 4277SOL    HW213731   6.318   5.717   2.961
 4278SOL     OW13732   1.001   6.684   2.054
 4278SOL    HW113733   0.960   6.698   2.144
 4278SOL    HW213734   1.025   6.772   2.014
 4279SOL     OW13735   1.442   1.691   3.690
 4279SOL    HW113736   1.510   1.759   3.718
 4279SOL    HW213737   1.380   1.731   3.622
 4280SOL     OW13738   1.885   6.461   6.623
 4280SOL    HW113739   1.889   6.475   6.524
 4280SOL    HW213740   1.800   6.499   6.659
 4281SOL     OW13741   5.369   5.660   3.379
 4281SOL    HW113742   5.461   5.693   3.401
 4281SOL    HW213743   5.311   5.738   3.354
 4282SOL     OW13744   4.264   4.767   1.170
 4282SOL    HW113745   4.340   4.738   1.229
 4282SOL    HW213746   4.294   4.845   1.114
 4283SOL     OW13747   4.706   1.342   4.380
 4283SOL    HW113748   4.742   1.339   4.473
 4283SOL    HW213749   4.606   1.340   4.382
 4284SOL     OW13750   4.816   5.213   6.395
 4284SOL    HW113751   4.761   5.131   6.376
 4284SOL    HW213752   4.775   5.292   6.351
 4285SOL     OW13753   3.614   1.028   5.492
 4285SOL    HW113754   3.542   1.078   5.444
 4285SOL    HW213755   3.583   0.936   5.513
 4286SOL     OW13756   6.204   0.294   6.471
 4286SOL    HW113757   6.268   0.347   6.415
 4286SOL    HW213758   6.214   0.197   6.451
 4287SOL     OW13759   3.570   0.552   0.879
 4287SOL    HW113760   3.509   0.528   0.803
 4287SOL    HW213761   3.661   0.572   0.844
 4288SOL     OW13762   0.113   6.428   2.466
 4288SOL    HW113763   0.048   6.369   2.418
 4288SOL    HW213764   0.064   6.506   2.504
 4289SOL     OW13765   0.393   4.314   4.496
 4289SOL    HW113766   0.398   4.408   4.461
 4289SOL    HW213767   0.474   4.264   4.465
 4290SOL     OW13768   0.789   1.262   3.497
 4290SOL    HW113769   0.868   1.299   3.546
 4290SOL    HW213770   0.730   1.213   3.562
 4291SOL     OW13771   4.555   3.605   5.726
 4291SOL    HW113772   4.620   3.666   5.680
 4291SOL    HW213773   4.499   3.559   5.657
 4292SOL     OW13774   6.026   1.999   1.806
 4292SOL    HW113775   6.026   2.071   1.876
 4292SOL    HW213776   6.028   2.042   1.715
 4293SOL     OW13777   3.890   3.573   0.409
 4293SOL    HW113778   3.863   3.503   0.342
 4293SOL    HW213779   3.808   3.616   0.446
 4294SOL     OW13780   2.333   2.076   6.464
 4294SOL    HW113781   2.391   2.154   6.440
 4294SOL    HW213782   2.250   2.078   6.408
 4295SOL     OW13783   4.022   5.844   2.735
 4295SOL    HW113784   4.120   5.863   2.722
 4295SOL    HW213785   4.009   5.746   2.753
 4296SOL     OW13786   3.015   6.458   3.212
 4296SOL    HW113787   2.936   6.459   3.150
 4296SOL    HW213788   3.090   6.510   3.171
 4297SOL     OW13789   5.344   5.185   0.602
 4297SOL    HW113790   5.423   5.148   0.553
 4297SOL    HW213791   5.320   5.125   0.678
 4298SOL     OW13792   1.799   0.165   0.872
 4298SOL    HW113793   1.821   0.116   0.788
 4298SOL    HW213794   1.846   0.253   0.872
 4299SOL     OW13795   0.521   2.790   6.828
 4299SOL    HW113796   0.487   2.815   6.919
 4299SOL    HW213797   0.507   2.866   6.765
 4300SOL     OW13798   2.856   0.805   1.482
 4300SOL    HW113799   2.955   0.811   1.467
 4300SOL    HW213800   2.822   0.891   1.520
 4301SOL     OW13801   2.475   6.382   0.391
 4301SOL    HW113802   2.420   6.429   0.460
 4301SOL    HW213803   2.507   6.294   0.427
 4302SOL     OW13804   2.168   5.310   5.931
 4302SOL    HW113805   2.131   5.257   5.854
 4302SOL    HW213806   2.213   5.247   5.995
 4303SOL     OW13807   5.736   5.547   3.276
 4303SOL    HW113808   5.687   5.468   3.241
 4303SOL    HW213809   5.728   5.623   3.211
 4304SOL     OW13810   3.418   3.842   1.557
 4304SOL    HW113811   3.485   3.822   1.486
 4304SOL    HW213812   3.420   3.769   1.626
 4305SOL     OW13813   1.209   6.063   5.640
 4305SOL    HW113814   1.137   6.133   5.629
 4305SOL    HW213815   1.195   5.991   5.572
 4306SOL     OW13816   5.253   4.410   4.988
 4306SOL    HW113817   5.164   4.410   4.944
 4306SOL    HW213818   5.319   4.458   4.930
 4307SOL     OW13819   0.283   0.964   6.163
 4307SOL    HW113820   0.372   0.955   6.118
 4307SOL    HW213821   0.296   0.970   6.262
 4308SOL     OW13822   4.854   6.059   6.484
 4308SOL    HW113823   4.825   6.151   6.456
 4308SOL    HW213824   4.774   6.006   6.511
 4309SOL     OW13825   0.621   1.736   0.536
 4309SOL    HW113826   0.673   1.798   0.477
 4309SOL    HW213827   0.523   1.753   0.523
 4310SOL     OW13828   6.961   2.187   2.236
 4310SOL    HW113829   6.977   2.230   2.148
 4310SOL    HW213830   6.937   2.090   2.223
 4311SOL     OW13831   0.460   6.938   1.714
 4311SOL    HW113832   0.521   6.860   1.704
 4311SOL    HW213833   0.475   6.980   1.804
 4312SOL     OW13834   6.819   5.047   2.486
 4312SOL    HW113835   6.778   5.138   2.488
 4312SOL    HW213836   6.757   4.983   2.440
 4313SOL     OW13837   0.143   3.081   6.614
 4313SOL    HW113838   0.143   3.000   6.556
 4313SOL    HW213839   0.194   3.062   6.698
 4314SOL     OW13840   0.608   1.265   6.068
 4314SOL    HW113841   0.538   1.279   6.139
 4314SOL    HW213842   0.581   1.314   5.985
 4315SOL     OW13843   2.572   1.227   4.596
 4315SOL    HW113844   2.509   1.188   4.664
 4315SOL    HW213845   2.539   1.317   4.568
 4316SOL     OW13846   5.235   5.976   1.088
 4316SOL    HW113847   5.152   6.030   1.077
 4316SOL    HW213848   5.227   5.917   1.169
 4317SOL     OW13849   4.551   1.057   5.709
 4317SOL    HW113850   4.466   1.009   5.728
 4317SOL    HW213851   4.625   1.018   5.764
 4318SOL     OW13852   0.822   6.987   4.161
 4318SOL    HW113853   0.753   6.940   4.106
 4318SOL    HW213854   0.910   6.983   4.115
 4319SOL     OW13855   1.405   4.214   2.825
 4319SOL    HW113856   1.356   4.259   2.749
 4319SOL    HW213857   1.503   4.217   2.807
 4320SOL     OW13858   3.586   6.969   1.139
 4320SOL    HW113859   3.498   6.948   1.096
 4320SOL    HW213860   3.648   7.008   1.071
 4321SOL     OW13861   6.708   6.887   3.007
 4321SOL    HW113862   6.770   6.964   3.021
 4321SOL    HW213863   6.618   6.910   3.043
 4322SOL     OW13864   1.731   3.061   4.886
 4322SOL    HW113865   1.782   3.003   4.949
 4322SOL    HW213866   1.738   3.157   4.915
 4323SOL     OW13867   4.419   4.981   0.176
 4323SOL    HW113868   4.333   4.931   0.170
 4323SOL    HW213869   4.404   5.077   0.153
 4324SOL     OW13870   0.892   4.530   5.962
 4324SOL    HW113871   0.799   4.498   5.944
 4324SOL    HW213872   0.889   4.606   6.027
 4325SOL     OW13873   1.996   0.576   2.947
 4325SOL    HW113874   2.045   0.491   2.968
 4325SOL    HW213875   1.933   0.598   3.022
 4326SOL     OW13876   5.463   1.699   2.004
 4326SOL    HW113877   5.411   1.645   1.938
 4326SOL    HW213878   5.403   1.763   2.050
 4327SOL     OW13879   2.774   6.244   3.620
 4327SOL    HW113880   2.707   6.290   3.560
 4327SOL    HW213881   2.864   6.248   3.577
 4328SOL     OW13882   6.732   0.204   4.436
 4328SOL    HW113883   6.763   0.111   4.416
 4328SOL    HW213884   6.718   0.254   4.350
 4329SOL     OW13885   6.790   1.905   6.798
 4329SOL    HW113886   6.879   1.904   6.752
 4329SOL    HW213887   6.798   1.949   6.887
 4330SOL     OW13888   3.245   5.075   4.443
 4330SOL    HW113889   3.180   5.152   4.443
 4330SOL    HW213890   3.194   4.989   4.441
 4331SOL     OW13891   5.840   1.514   2.253
 4331SOL    HW113892   5.758   1.572   2.256
 4331SOL    HW213893   5.909   1.552   2.315
 4332SOL     OW13894   0.930   5.130   2.186
 4332SOL    HW113895   0.953   5.070   2.109
 4332SOL    HW213896   0.865   5.083   2.246
 4333SOL     OW13897   4.820   2.207   5.751
 4333SOL    HW113898   4.771   2.273   5.694
 4333SOL    HW213899   4.801   2.226   5.847
 4334SOL     OW13900   6.902   2.899   4.295
 4334SOL    HW113901   6.824   2.936   4.245
 4334SOL    HW213902   6.974   2.873   4.230
 4335SOL     OW13903   2.790   3.748   1.318
 4335SOL    HW113904   2.766   3.675   1.254
 4335SOL    HW213905   2.871   3.720   1.370
 4336SOL     OW13906   2.537   5.887   5.552
 4336SOL    HW113907   2.492   5.967   5.592
 4336SOL    HW213908   2.579   5.912   5.465
 4337SOL     OW13909   0.876   5.063   3.951
 4337SOL    HW113910   0.812   5.028   3.883
 4337SOL    HW213911   0.854   5.024   4.041
 4338SOL     OW13912   3.697   1.739   5.693
 4338SOL    HW113913   3.673   1.824   5.741
 4338SOL    HW213914   3.787   1.748   5.652
 4339SOL     OW13915   4.058   4.159   6.056
 4339SOL    HW113916   3.959   4.173   6.052
 4339SOL    HW213917   4.082   4.074   6.009
 4340SOL     OW13918   6.306   4.136   1.285
 4340SOL    HW113919   6.215   4.118   1.322
 4340SOL    HW213920   6.344   4.052   1.247
 4341SOL     OW13921   6.353   6.539   2.292
 4341SOL    HW113922   6.273   6.582   2.251
 4341SOL    HW213923   6.390   6.470   2.230
 4342SOL     OW13924   4.821   4.121   2.426
 4342SOL    HW113925   4.888   4.194   2.438
 4342SOL    HW213926   4.765   4.140   2.345
 4343SOL     OW13927   3.968   6.453   5.960
 4343SOL    HW113928   3.965   6.541   6.006
 4343SOL    HW213929   4.013   6.463   5.871
 4344SOL     OW13930   0.107   3.617   3.423
 4344SOL    HW113931   0.128   3.539   3.482
 4344SOL    HW213932   0.037   3.674   3.466
 4345SOL     OW13933   3.191   3.009   2.633
 4345SOL    HW113934   3.113   3.044   2.685
 4345SOL    HW213935   3.176   3.024   2.536
 4346SOL     OW13936   1.351   3.123   2.741
 4346SOL    HW113937   1.375   3.082   2.828
 4346SOL    HW213938   1.399   3.210   2.730
 4347SOL     OW13939   6.599   5.846   0.400
 4347SOL    HW113940   6.610   5.776   0.471
 4347SOL    HW213941   6.549   5.807   0.323
 4348SOL     OW13942   5.596   4.859   4.023
 4348SOL    HW113943   5.670   4.926   4.027
 4348SOL    HW213944   5.560   4.842   4.115
 4349SOL     OW13945   6.977   3.347   4.264
 4349SOL    HW113946   0.024   3.415   4.241
 4349SOL    HW213947   7.002   3.301   4.349
 4350SOL     OW13948   3.796   1.582   4.774
 4350SOL    HW113949   3.820   1.576   4.677
 4350SOL    HW213950   3.862   1.638   4.822
 4351SOL     OW13951   1.129   6.036   0.766
 4351SOL    HW113952   1.103   6.019   0.671
 4351SOL    HW213953   1.198   6.109   0.769
 4352SOL     OW13954   3.465   4.654   1.433
 4352SOL    HW113955   3.427   4.623   1.346
 4352SOL    HW213956   3.426   4.599   1.507
 4353SOL     OW13957   2.848   2.697   1.270
 4353SOL    HW113958   2.765   2.705   1.214
 4353SOL    HW213959   2.865   2.783   1.318
 4354SOL     OW13960   6.229   0.006   3.254
 4354SOL    HW113961   6.191   6.989   3.337
 4354SOL    HW213962   6.154   0.038   3.196
 4355SOL     OW13963   2.141   5.798   2.842
 4355SOL    HW113964   2.220   5.791   2.782
 4355SOL    HW213965   2.169   5.835   2.930
 4356SOL     OW13966   5.749   2.557   5.292
 4356SOL    HW113967   5.766   2.570   5.194
 4356SOL    HW213968   5.672   2.615   5.319
 4357SOL     OW13969   5.643   0.493   2.109
 4357SOL    HW113970   5.720   0.515   2.050
 4357SOL    HW213971   5.629   0.394   2.111
 4358SOL     OW13972   3.032   0.244   0.067
 4358SOL    HW113973   3.048   0.156   0.022
 4358SOL    HW213974   3.040   0.232   0.166
 4359SOL     OW13975   2.581   2.161   0.475
 4359SOL    HW113976   2.631   2.116   0.401
 4359SOL    HW213977   2.489   2.185   0.443
 4360SOL     OW13978   1.827   4.340   4.175
 4360SOL    HW113979   1.848   4.260   4.118
 4360SOL    HW213980   1.899   4.352   4.243
 4361SOL     OW13981   6.691   1.753   0.597
 4361SOL    HW113982   6.621   1.685   0.574
 4361SOL    HW213983   6.758   1.759   0.523
 4362SOL     OW13984   1.062   5.297   3.514
 4362SOL    HW113985   1.061   5.222   3.581
 4362SOL    HW213986   1.049   5.259   3.422
 4363SOL     OW13987   4.169   0.852   2.298
 4363SOL    HW113988   4.139   0.811   2.384
 4363SOL    HW213989   4.092   0.856   2.234
 4364SOL     OW13990   4.130   3.564   2.191
 4364SOL    HW113991   4.030   3.570   2.200
 4364SOL    HW213992   4.169   3.529   2.276
 4365SOL     OW13993   2.430   1.864   1.076
 4365SOL    HW113994   2.418   1.918   1.160
 4365SOL    HW213995   2.511   1.896   1.027
 4366SOL     OW13996   4.665   6.559   4.747
 4366SOL    HW113997   4.696   6.625   4.816
 4366SOL    HW213998   4.565   6.558   4.747
 4367SOL     OW13999   2.944   5.908   3.289
 4367SOL    HW114000   2.937   5.833   3.223
 4367SOL    HW214001   2.945   5.995   3.240
 4368SOL     OW14002   4.755   4.138   3.582
 4368SOL    HW114003   4.704   4.151   3.667
 4368SOL    HW214004   4.702   4.175   3.506
 4369SOL     OW14005   5.013   4.521   3.376
 4369SOL    HW114006   5.097   4.567   3.345
 4369SOL    HW214007   4.933   4.568   3.338
 4370SOL     OW14008   3.781   4.447   1.726
 4370SOL    HW114009   3.734   4.359   1.734
 4370SOL    HW214010   3.718   4.520   1.750
 4371SOL     OW14011   2.636   1.572   1.176
 4371SOL    HW114012   2.714   1.593   1.118
 4371SOL    HW214013   2.658   1.593   1.271
 4372SOL     OW14014   1.761   3.308   4.960
 4372SOL    HW114015   1.670   3.304   4.919
 4372SOL    HW214016   1.752   3.319   5.059
 4373SOL     OW14017   3.630   1.210   6.278
 4373SOL    HW114018   3.577   1.275   6.224
 4373SOL    HW214019   3.726   1.216   6.254
 4374SOL     OW14020   2.505   0.238   1.521
 4374SOL    HW114021   2.478   0.222   1.426
 4374SOL    HW214022   2.596   0.279   1.523
 4375SOL     OW14023   4.303   1.791   4.309
 4375SOL    HW114024   4.294   1.693   4.331
 4375SOL    HW214025   4.307   1.843   4.394
 4376SOL     OW14026   1.905   6.197   6.793
 4376SOL    HW114027   1.969   6.228   6.863
 4376SOL    HW214028   1.875   6.276   6.738
 4377SOL     OW14029   5.515   6.906   6.349
 4377SOL    HW114030   5.592   6.969   6.337
 4377SOL    HW214031   5.532   6.846   6.426
 4378SOL     OW14032   2.897   5.675   2.072
 4378SOL    HW114033   2.814   5.729   2.065
 4378SOL    HW214034   2.874   5.579   2.087
 4379SOL     OW14035   1.372   0.312   1.614
 4379SOL    HW114036   1.373   0.382   1.685
 4379SOL    HW214037   1.465   0.297   1.580
 4380SOL     OW14038   2.054   4.882   4.468
 4380SOL    HW114039   1.997   4.804   4.443
 4380SOL    HW214040   1.997   4.964   4.472
 4381SOL     OW14041   4.680   6.198   5.404
 4381SOL    HW114042   4.608   6.167   5.342
 4381SOL    HW214043   4.639   6.229   5.489
 4382SOL     OW14044   4.996   3.776   3.288
 4382SOL    HW114045   5.091   3.802   3.274
 4382SOL    HW214046   4.943   3.856   3.318
 4383SOL     OW14047   1.027   2.270   0.048
 4383SOL    HW114048   0.967   2.192   0.063
 4383SOL    HW214049   0.998   2.346   0.106
 4384SOL     OW14050   3.471   6.601   1.032
 4384SOL    HW114051   3.405   6.530   1.007
 4384SOL    HW214052   3.443   6.644   1.118
 4385SOL     OW14053   6.839   1.507   2.599
 4385SOL    HW114054   6.845   1.593   2.649
 4385SOL    HW214055   6.929   1.481   2.565
 4386SOL     OW14056   1.281   3.894   6.643
 4386SOL    HW114057   1.185   3.885   6.616
 4386SOL    HW214058   1.330   3.951   6.578
 4387SOL     OW14059   7.021   3.160   2.124
 4387SOL    HW114060   0.009   3.116   2.213
 4387SOL    HW214061   6.966   3.243   2.134
 4388SOL     OW14062   2.687   1.365   5.235
 4388SOL    HW114063   2.682   1.304   5.313
 4388SOL    HW214064   2.597   1.372   5.191
 4389SOL     OW14065   5.144   2.298   2.218
 4389SOL    HW114066   5.232   2.310   2.264
 4389SOL    HW214067   5.155   2.238   2.139
 4390SOL     OW14068   4.468   2.569   1.917
 4390SOL    HW114069   4.545   2.624   1.885
 4390SOL    HW214070   4.393   2.574   1.851
 4391SOL     OW14071   0.921   5.984   0.932
 4391SOL    HW114072   0.863   5.914   0.892
 4391SOL    HW214073   0.998   6.003   0.870
 4392SOL     OW14074   5.583   3.502   4.554
 4392SOL    HW114075   5.507   3.447   4.590
 4392SOL    HW214076   5.549   3.559   4.479
 4393SOL     OW14077   4.632   6.109   3.901
 4393SOL    HW114078   4.629   6.009   3.895
 4393SOL    HW214079   4.717   6.137   3.945
 4394SOL     OW14080   4.802   0.967   2.127
 4394SOL    HW114081   4.866   1.037   2.160
 4394SOL    HW214082   4.848   0.878   2.124
 4395SOL     OW14083   4.783   1.614   1.653
 4395SOL    HW114084   4.822   1.682   1.590
 4395SOL    HW214085   4.770   1.528   1.605
 4396SOL     OW14086   1.524   0.921   3.809
 4396SOL    HW114087   1.516   0.983   3.886
 4396SOL    HW214088   1.544   0.829   3.842
 4397SOL     OW14089   6.671   0.508   6.324
 4397SOL    HW114090   6.727   0.568   6.267
 4397SOL    HW214091   6.640   0.558   6.405
 4398SOL     OW14092   6.555   4.530   4.221
 4398SOL    HW114093   6.455   4.533   4.221
 4398SOL    HW214094   6.589   4.532   4.127
 4399SOL     OW14095   2.616   1.551   1.782
 4399SOL    HW114096   2.699   1.585   1.738
 4399SOL    HW214097   2.574   1.481   1.723
 4400SOL     OW14098   3.422   5.896   4.331
 4400SOL    HW114099   3.354   5.926   4.398
 4400SOL    HW214100   3.475   5.975   4.300
 4401SOL     OW14101   5.314   6.698   4.215
 4401SOL    HW114102   5.223   6.710   4.175
 4401SOL    HW214103   5.306   6.652   4.303
 4402SOL     OW14104   6.859   0.634   3.556
 4402SOL    HW114105   6.824   0.697   3.625
 4402SOL    HW214106   6.925   0.572   3.598
 4403SOL     OW14107   0.681   6.669   2.752
 4403SOL    HW114108   0.658   6.627   2.839
 4403SOL    HW214109   0.764   6.724   2.762
 4404SOL     OW14110   1.591   4.251   3.569
 4404SOL    HW114111   1.656   4.324   3.588
 4404SOL    HW214112   1.612   4.210   3.481
 4405SOL     OW14113   3.622   4.793   5.942
 4405SOL    HW114114   3.534   4.774   5.985
 4405SOL    HW214115   3.696   4.762   6.002
 4406SOL     OW14116   5.521   3.733   1.555
 4406SOL    HW114117   5.560   3.813   1.510
 4406SOL    HW214118   5.458   3.687   1.493
 4407SOL     OW14119   6.868   6.469   6.950
 4407SOL    HW114120   6.807   6.391   6.961
 4407SOL    HW214121   6.843   6.541   7.015
 4408SOL     OW14122   4.923   6.176   0.295
 4408SOL    HW114123   4.844   6.182   0.357
 4408SOL    HW214124   4.949   6.080   0.283
 4409SOL     OW14125   3.118   1.598   2.077
 4409SOL    HW114126   3.199   1.541   2.086
 4409SOL    HW214127   3.045   1.546   2.031
 4410SOL     OW14128   2.746   5.454   2.095
 4410SOL    HW114129   2.669   5.396   2.071
 4410SOL    HW214130   2.809   5.403   2.154
 4411SOL     OW14131   3.909   3.324   2.362
 4411SOL    HW114132   3.920   3.226   2.379
 4411SOL    HW214133   3.882   3.369   2.447
 4412SOL     OW14134   3.481   2.113   6.503
 4412SOL    HW114135   3.451   2.095   6.597
 4412SOL    HW214136   3.578   2.136   6.503
 4413SOL     OW14137   3.834   6.010   4.223
 4413SOL    HW114138   3.902   6.023   4.151
 4413SOL    HW214139   3.746   6.048   4.193
 4414SOL     OW14140   3.761   5.370   2.148
 4414SOL    HW114141   3.700   5.418   2.211
 4414SOL    HW214142   3.716   5.286   2.116
 4415SOL     OW14143   4.534   2.387   0.509
 4415SOL    HW114144   4.614   2.342   0.548
 4415SOL    HW214145   4.515   2.471   0.559
 4416SOL     OW14146   3.904   1.079   3.449
 4416SOL    HW114147   3.963   1.069   3.530
 4416SOL    HW214148   3.841   1.155   3.464
 4417SOL     OW14149   0.415   0.455   1.152
 4417SOL    HW114150   0.402   0.443   1.054
 4417SOL    HW214151   0.332   0.495   1.192
 4418SOL     OW14152   3.813   0.042   3.400
 4418SOL    HW114153   3.776   0.131   3.426
 4418SOL    HW214154   3.746   7.017   3.345
 4419SOL     OW14155   0.009   5.186   0.387
 4419SOL    HW114156   6.990   5.096   0.377
 4419SOL    HW214157   6.964   5.254   0.412
 4420SOL     OW14158   4.461   1.125   6.518
 4420SOL    HW114159   4.549   1.165   6.490
 4420SOL    HW214160   4.410   1.097   6.437
 4421SOL     OW14161   1.955   1.829   3.325
 4421SOL    HW114162   1.929   1.741   3.364
 4421SOL    HW214163   2.055   1.834   3.319
 4422SOL     OW14164   2.206   3.726   5.976
 4422SOL    HW114165   2.181   3.708   5.881
 4422SOL    HW214166   2.214   3.640   6.026
 4423SOL     OW14167   0.364   1.351   6.558
 4423SOL    HW114168   0.282   1.298   6.582
 4423SOL    HW214169   0.341   1.448   6.554
 4424SOL     OW14170   0.463   6.071   3.656
 4424SOL    HW114171   0.414   6.131   3.593
 4424SOL    HW214172   0.527   6.014   3.605
 4425SOL     OW14173   4.615   4.352   0.152
 4425SOL    HW114174   4.682   4.405   0.100
 4425SOL    HW214175   4.653   4.332   0.243
 4426SOL     OW14176   1.115   0.455   5.507
 4426SOL    HW114177   1.192   0.421   5.562
 4426SOL    HW214178   1.141   0.540   5.462
 4427SOL     OW14179   1.202   6.801   3.605
 4427SOL    HW114180   1.181   6.722   3.548
 4427SOL    HW214181   1.219   6.771   3.699
 4428SOL     OW14182   2.736   5.927   3.487
 4428SOL    HW114183   2.798   5.908   3.411
 4428SOL    HW214184   2.755   5.863   3.562
 4429SOL     OW14185   4.274   7.024   3.072
 4429SOL    HW114186   4.191   0.055   3.069
 4429SOL    HW214187   4.299   7.006   3.167
 4430SOL     OW14188   1.593   0.806   1.551
 4430SOL    HW114189   1.662   0.865   1.510
 4430SOL    HW214190   1.563   0.844   1.638
 4431SOL     OW14191   1.817   2.163   3.055
 4431SOL    HW114192   1.731   2.130   3.015
 4431SOL    HW214193   1.811   2.158   3.154
 4432SOL     OW14194   2.915   3.220   3.120
 4432SOL    HW114195   2.831   3.168   3.130
 4432SOL    HW214196   2.963   3.190   3.037
 4433SOL     OW14197   6.816   0.720   3.293
 4433SOL    HW114198   6.726   0.743   3.255
 4433SOL    HW214199   6.804   0.682   3.385
 4434SOL     OW14200   5.005   2.111   4.170
 4434SOL    HW114201   5.083   2.088   4.112
 4434SOL    HW214202   5.026   2.193   4.224
 4435SOL     OW14203   3.692   2.950   2.145
 4435SOL    HW114204   3.611   2.893   2.130
 4435SOL    HW214205   3.664   3.043   2.168
 4436SOL     OW14206   5.051   0.778   0.013
 4436SOL    HW114207   5.006   0.697   6.999
 4436SOL    HW214208   5.084   0.759   0.105
 4437SOL     OW14209   3.577   0.167   4.606
 4437SOL    HW114210   3.657   0.154   4.547
 4437SOL    HW214211   3.564   0.265   4.622
 4438SOL     OW14212   3.822   3.904   6.139
 4438SOL    HW114213   3.867   3.840   6.077
 4438SOL    HW214214   3.809   3.992   6.092
 4439SOL     OW14215   2.637   5.292   2.387
 4439SOL    HW114216   2.625   5.301   2.288
 4439SOL    HW214217   2.634   5.195   2.412
 4440SOL     OW14218   0.047   0.583   6.339
 4440SOL    HW114219   6.992   0.605   6.395
 4440SOL    HW214220   0.025   0.505   6.279
 4441SOL     OW14221   5.523   2.463   3.016
 4441SOL    HW114222   5.450   2.397   3.036
 4441SOL    HW214223   5.602   2.415   2.977
 4442SOL     OW14224   2.195   6.415   2.161
 4442SOL    HW114225   2.238   6.501   2.135
 4442SOL    HW214226   2.256   6.363   2.221
 4443SOL     OW14227   2.510   1.445   5.564
 4443SOL    HW114228   2.525   1.525   5.622
 4443SOL    HW214229   2.470   1.473   5.477
 4444SOL     OW14230   5.045   0.777   2.742
 4444SOL    HW114231   5.061   0.729   2.828
 4444SOL    HW214232   4.999   0.716   2.678
 4445SOL     OW14233   1.757   1.643   6.450
 4445SOL    HW114234   1.761   1.570   6.518
 4445SOL    HW214235   1.793   1.728   6.490
 4446SOL     OW14236   6.382   5.848   4.137
 4446SOL    HW114237   6.378   5.899   4.051
 4446SOL    HW214238   6.388   5.912   4.213
 4447SOL     OW14239   4.895   3.395   4.893
 4447SOL    HW114240   4.869   3.301   4.915
 4447SOL    HW214241   4.829   3.458   4.935
 4448SOL     OW14242   2.927   2.939   6.158
 4448SOL    HW114243   2.828   2.937   6.151
 4448SOL    HW214244   2.967   2.953   6.068
 4449SOL     OW14245   0.840   1.385   4.859
 4449SOL    HW114246   0.808   1.294   4.830
 4449SOL    HW214247   0.780   1.455   4.821
 4450SOL     OW14248   3.779   3.902   3.424
 4450SOL    HW114249   3.713   3.945   3.362
 4450SOL    HW214250   3.764   3.935   3.517
 4451SOL     OW14251   6.522   4.366   2.121
 4451SOL    HW114252   6.588   4.435   2.091
 4451SOL    HW214253   6.481   4.323   2.041
 4452SOL     OW14254   6.303   5.315   6.172
 4452SOL    HW114255   6.282   5.350   6.263
 4452SOL    HW214256   6.399   5.285   6.169
 4453SOL     OW14257   5.158   2.162   1.313
 4453SOL    HW114258   5.128   2.172   1.408
 4453SOL    HW214259   5.138   2.069   1.281
 4454SOL     OW14260   5.115   3.235   1.496
 4454SOL    HW114261   5.057   3.198   1.569
 4454SOL    HW214262   5.126   3.165   1.425
 4455SOL     OW14263   4.393   1.579   1.698
 4455SOL    HW114264   4.397   1.489   1.655
 4455SOL    HW214265   4.468   1.588   1.764
 4456SOL     OW14266   0.942   5.319   3.172
 4456SOL    HW114267   0.893   5.331   3.085
 4456SOL    HW214268   0.888   5.361   3.245
 4457SOL     OW14269   5.158   1.996   6.386
 4457SOL    HW114270   5.095   1.961   6.455
 4457SOL    HW214271   5.113   1.997   6.297
 4458SOL     OW14272   3.823   1.809   6.395
 4458SOL    HW114273   3.826   1.727   6.337
 4458SOL    HW214274   3.790   1.784   6.486
 4459SOL     OW14275   5.106   6.176   5.521
 4459SOL    HW114276   5.016   6.133   5.525
 4459SOL    HW214277   5.096   6.275   5.526
 4460SOL     OW14278   1.973   1.543   6.299
 4460SOL    HW114279   1.966   1.444   6.306
 4460SOL    HW214280   1.891   1.585   6.340
 4461SOL     OW14281   2.185   0.236   2.267
 4461SOL    HW114282   2.275   0.228   2.225
 4461SOL    HW214283   2.137   0.148   2.259
 4462SOL     OW14284   6.780   5.988   1.333
 4462SOL    HW114285   6.760   6.016   1.427
 4462SOL    HW214286   6.829   6.061   1.285
 4463SOL     OW14287   1.526   3.422   6.039
 4463SOL    HW114288   1.525   3.419   6.139
 4463SOL    HW214289   1.452   3.366   6.002
 4464SOL     OW14290   5.999   3.063   6.497
 4464SOL    HW114291   6.025   3.129   6.567
 4464SOL    HW214292   5.912   3.090   6.456
 4465SOL     OW14293   1.443   6.017   2.175
 4465SOL    HW114294   1.436   5.978   2.083
 4465SOL    HW214295   1.518   5.972   2.224
 4466SOL     OW14296   0.354   2.373   4.138
 4466SOL    HW114297   0.371   2.276   4.151
 4466SOL    HW214298   0.281   2.385   4.071
 4467SOL     OW14299   0.907   0.008   3.136
 4467SOL    HW114300   0.817   6.991   3.149
 4467SOL    HW214301   0.971   6.962   3.105
 4468SOL     OW14302   1.227   2.710   0.138
 4468SOL    HW114303   1.293   2.757   0.197
 4468SOL    HW214304   1.173   2.777   0.087
 4469SOL     OW14305   4.757   0.103   6.930
 4469SOL    HW114306   4.747   0.175   6.998
 4469SOL    HW214307   4.828   0.039   6.960
 4470SOL     OW14308   4.765   5.106   1.122
 4470SOL    HW114309   4.804   5.046   1.191
 4470SOL    HW214310   4.717   5.182   1.166
 4471SOL     OW14311   6.680   3.501   0.307
 4471SOL    HW114312   6.775   3.528   0.291
 4471SOL    HW214313   6.619   3.556   0.249
 4472SOL     OW14314   1.972   4.969   1.463
 4472SOL    HW114315   1.950   5.044   1.525
 4472SOL    HW214316   2.068   4.942   1.476
 4473SOL     OW14317   0.439   0.037   5.443
 4473SOL    HW114318   0.530   0.001   5.424
 4473SOL    HW214319   0.373   6.987   5.443
 4474SOL     OW14320   5.654   1.062   3.835
 4474SOL    HW114321   5.724   1.000   3.868
 4474SOL    HW214322   5.574   1.009   3.805
 4475SOL     OW14323   1.882   3.712   0.143
 4475SOL    HW114324   1.935   3.755   0.070
 4475SOL    HW214325   1.785   3.725   0.126
 4476SOL     OW14326   4.575   6.525   1.995
 4476SOL    HW114327   4.531   6.525   1.905
 4476SOL    HW214328   4.527   6.462   2.056
 4477SOL     OW14329   1.459   0.951   0.288
 4477SOL    HW114330   1.531   1.010   0.325
 4477SOL    HW214331   1.377   0.960   0.344
 4478SOL     OW14332   1.508   5.310   2.281
 4478SOL    HW114333   1.486   5.228   2.334
 4478SOL    HW214334   1.466   5.304   2.191
 4479SOL     OW14335   0.352   6.821   5.229
 4479SOL    HW114336   0.281   6.769   5.276
 4479SOL    HW214337   0.350   6.799   5.131
 4480SOL     OW14338   0.770   4.402   3.572
 4480SOL    HW114339   0.738   4.347   3.650
 4480SOL    HW214340   0.868   4.418   3.580
 4481SOL     OW14341   1.119   6.962   4.140
 4481SOL    HW114342   1.176   6.971   4.221
 4481SOL    HW214343   1.112   0.027   4.094
 4482SOL     OW14344   0.237   4.211   4.082
 4482SOL    HW114345   0.235   4.156   4.165
 4482SOL    HW214346   0.144   4.220   4.046
 4483SOL     OW14347   5.689   2.488   2.193
 4483SOL    HW114348   5.698   2.394   2.225
 4483SOL    HW214349   5.659   2.547   2.268
 4484SOL     OW14350   4.114   2.598   5.579
 4484SOL    HW114351   4.048   2.637   5.643
 4484SOL    HW214352   4.072   2.589   5.488
 4485SOL     OW14353   4.854   1.462   6.716
 4485SOL    HW114354   4.885   1.467   6.622
 4485SOL    HW214355   4.834   1.366   6.740
 4486SOL     OW14356   6.015   2.043   4.233
 4486SOL    HW114357   6.110   2.072   4.226
 4486SOL    HW214358   5.959   2.096   4.169
 4487SOL     OW14359   3.167   3.256   6.176
 4487SOL    HW114360   3.238   3.322   6.202
 4487SOL    HW214361   3.081   3.305   6.157
 4488SOL     OW14362   0.477   1.616   5.122
 4488SOL    HW114363   0.442   1.524   5.143
 4488SOL    HW214364   0.459   1.677   5.199
 4489SOL     OW14365   6.533   0.504   3.451
 4489SOL    HW114366   6.603   0.468   3.390
 4489SOL    HW214367   6.534   0.453   3.537
 4490SOL     OW14368   6.808   2.580   3.622
 4490SOL    HW114369   6.867   2.552   3.698
 4490SOL    HW214370   6.822   2.520   3.544
 4491SOL     OW14371   1.518   3.014   2.937
 4491SOL    HW114372   1.529   3.096   2.993
 4491SOL    HW214373   1.520   2.933   2.995
 4492SOL     OW14374   4.132   3.492   6.370
 4492SOL    HW114375   4.230   3.484   6.387
 4492SOL    HW214376   4.082   3.469   6.453
 4493SOL     OW14377   6.197   5.627   3.779
 4493SOL    HW114378   6.210   5.540   3.730
 4493SOL    HW214379   6.238   5.701   3.725
 4494SOL     OW14380   6.004   3.817   3.794
 4494SOL    HW114381   5.972   3.784   3.883
 4494SOL    HW214382   6.034   3.739   3.738
 4495SOL     OW14383   4.637   6.120   1.279
 4495SOL    HW114384   4.714   6.159   1.228
 4495SOL    HW214385   4.557   6.114   1.219
 4496SOL     OW14386   4.997   4.424   5.369
 4496SOL    HW114387   5.079   4.374   5.340
 4496SOL    HW214388   4.987   4.415   5.468
 4497SOL     OW14389   6.477   5.010   0.630
 4497SOL    HW114390   6.485   5.030   0.728
 4497SOL    HW214391   6.448   4.915   0.618
 4498SOL     OW14392   0.240   4.217   6.817
 4498SOL    HW114393   0.298   4.138   6.839
 4498SOL    HW214394   0.297   4.296   6.797
 4499SOL     OW14395   6.922   3.168   6.715
 4499SOL    HW114396   7.009   3.131   6.682
 4499SOL    HW214397   6.936   3.217   6.801
 4500SOL     OW14398   3.634   3.606   4.724
 4500SOL    HW114399   3.574   3.667   4.776
 4500SOL    HW214400   3.705   3.569   4.784
 4501SOL     OW14401   0.652   4.337   4.748
 4501SOL    HW114402   0.745   4.319   4.781
 4501SOL    HW214403   0.587   4.283   4.801
 4502SOL     OW14404   0.212   3.429   0.348
 4502SOL    HW114405   0.310   3.437   0.366
 4502SOL    HW214406   0.196   3.365   0.273
 4503SOL     OW14407   1.496   2.117   3.275
 4503SOL    HW114408   1.424   2.181   3.249
 4503SOL    HW214409   1.506   2.047   3.204
 4504SOL     OW14410   5.028   2.526   4.792
 4504SOL    HW114411   4.965   2.548   4.867
 4504SOL    HW214412   5.023   2.598   4.723
 4505SOL     OW14413   1.650   4.990   6.128
 4505SOL    HW114414   1.686   4.923   6.063
 4505SOL    HW214415   1.560   4.959   6.161
 4506SOL     OW14416   3.865   0.362   5.402
 4506SOL    HW114417   3.817   0.321   5.480
 4506SOL    HW214418   3.851   0.306   5.321
 4507SOL     OW14419   6.692   4.443   1.017
 4507SOL    HW114420   6.757   4.374   0.984
 4507SOL    HW214421   6.699   4.525   0.959
 4508SOL     OW14422   1.835   3.991   0.590
 4508SOL    HW114423   1.784   3.909   0.615
 4508SOL    HW214424   1.857   4.043   0.673
 4509SOL     OW14425   1.387   2.017   3.607
 4509SOL    HW114426   1.444   2.083   3.656
 4509SOL    HW214427   1.315   1.982   3.667
 4510SOL     OW14428   3.939   6.566   4.991
 4510SOL    HW114429   4.012   6.545   4.926
 4510SOL    HW214430   3.974   6.625   5.063
 4511SOL     OW14431   5.960   2.646   0.211
 4511SOL    HW114432   6.059   2.656   0.199
 4511SOL    HW214433   5.937   2.655   0.308
 4512SOL     OW14434   3.108   4.985   0.288
 4512SOL    HW114435   3.093   5.077   0.322
 4512SOL    HW214436   3.143   4.989   0.194
 4513SOL     OW14437   5.137   0.817   1.820
 4513SOL    HW114438   5.225   0.775   1.844
 4513SOL    HW214439   5.081   0.749   1.771
 4514SOL     OW14440   3.456   1.554   5.019
 4514SOL    HW114441   3.433   1.647   5.047
 4514SOL    HW214442   3.381   1.492   5.040
 4515SOL     OW14443   0.620   5.033   1.266
 4515SOL    HW114444   0.608   5.045   1.167
 4515SOL    HW214445   0.700   4.976   1.283
 4516SOL     OW14446   1.052   0.383   4.981
 4516SOL    HW114447   1.033   0.473   4.941
 4516SOL    HW214448   0.969   0.328   4.981
 4517SOL     OW14449   3.558   6.846   5.125
 4517SOL    HW114450   3.559   6.746   5.132
 4517SOL    HW214451   3.505   6.884   5.201
 4518SOL     OW14452   0.986   1.629   4.547
 4518SOL    HW114453   0.910   1.689   4.521
 4518SOL    HW214454   1.066   1.650   4.490
 4519SOL     OW14455   5.975   2.347   4.203
 4519SOL    HW114456   6.037   2.354   4.281
 4519SOL    HW214457   5.881   2.351   4.235
 4520SOL     OW14458   7.024   4.256   2.932
 4520SOL    HW114459   0.002   4.158   2.913
 4520SOL    HW214460   6.930   4.283   2.955
 4521SOL     OW14461   6.140   1.930   6.334
 4521SOL    HW114462   6.072   1.921   6.408
 4521SOL    HW214463   6.122   1.861   6.265
 4522SOL     OW14464   5.986   0.707   3.959
 4522SOL    HW114465   5.927   0.635   3.996
 4522SOL    HW214466   5.930   0.783   3.928
 4523SOL     OW14467   3.686   3.664   0.128
 4523SOL    HW114468   3.655   3.718   0.050
 4523SOL    HW214469   3.711   3.572   0.098
 4524SOL     OW14470   5.951   0.271   4.989
 4524SOL    HW114471   5.926   0.315   4.902
 4524SOL    HW214472   5.893   0.307   5.062
 4525SOL     OW14473   6.452   1.753   5.443
 4525SOL    HW114474   6.449   1.662   5.483
 4525SOL    HW214475   6.393   1.815   5.496
 4526SOL     OW14476   3.873   0.595   1.097
 4526SOL    HW114477   3.776   0.577   1.115
 4526SOL    HW214478   3.882   0.655   1.018
 4527SOL     OW14479   4.263   1.178   3.097
 4527SOL    HW114480   4.164   1.173   3.098
 4527SOL    HW214481   4.297   1.178   3.191
 4528SOL     OW14482   6.239   0.673   6.465
 4528SOL    HW114483   6.182   0.619   6.403
 4528SOL    HW214484   6.225   0.642   6.559
 4529SOL     OW14485   3.763   6.301   3.237
 4529SOL    HW114486   3.681   6.258   3.199
 4529SOL    HW214487   3.801   6.366   3.171
 4530SOL     OW14488   0.520   3.299   5.356
 4530SOL    HW114489   0.541   3.376   5.416
 4530SOL    HW214490   0.552   3.214   5.398
 4531SOL     OW14491   0.301   3.569   3.773
 4531SOL    HW114492   0.389   3.601   3.739
 4531SOL    HW214493   0.245   3.536   3.696
 4532SOL     OW14494   6.060   2.035   0.827
 4532SOL    HW114495   6.114   2.041   0.911
 4532SOL    HW214496   5.987   2.104   0.828
 4533SOL     OW14497   2.567   5.953   2.921
 4533SOL    HW114498   2.518   5.866   2.926
 4533SOL    HW214499   2.625   5.955   2.840
 4534SOL     OW14500   6.033   4.040   5.743
 4534SOL    HW114501   5.997   4.089   5.664
 4534SOL    HW214502   6.003   4.087   5.827
 4535SOL     OW14503   4.936   2.876   1.942
 4535SOL    HW114504   5.005   2.903   2.010
 4535SOL    HW214505   4.846   2.911   1.970
 4536SOL     OW14506   6.758   1.296   4.307
 4536SOL    HW114507   6.784   1.208   4.266
 4536SOL    HW214508   6.667   1.289   4.346
 4537SOL     OW14509   3.933   2.928   5.985
 4537SOL    HW114510   3.970   2.861   5.920
 4537SOL    HW214511   3.888   2.880   6.060
 4538SOL     OW14512   3.111   1.024   2.831
 4538SOL    HW114513   3.146   0.989   2.744
 4538SOL    HW214514   3.106   1.123   2.828
 4539SOL     OW14515   1.521   1.647   2.345
 4539SOL    HW114516   1.482   1.558   2.370
 4539SOL    HW214517   1.536   1.651   2.246
 4540SOL     OW14518   3.280   2.937   4.306
 4540SOL    HW114519   3.305   2.897   4.218
 4540SOL    HW214520   3.356   2.929   4.370
 4541SOL     OW14521   5.377   1.419   1.080
 4541SOL    HW114522   5.281   1.428   1.056
 4541SOL    HW214523   5.434   1.441   1.001
 4542SOL     OW14524   4.436   0.964   3.929
 4542SOL    HW114525   4.490   1.008   3.857
 4542SOL    HW214526   4.378   0.893   3.889
 4543SOL     OW14527   4.950   1.933   1.700
 4543SOL    HW114528   4.939   1.916   1.602
 4543SOL    HW214529   4.862   1.957   1.740
 4544SOL     OW14530   3.589   5.004   6.495
 4544SOL    HW114531   3.607   5.070   6.568
 4544SOL    HW214532   3.659   5.013   6.424
 4545SOL     OW14533   4.473   2.385   5.508
 4545SOL    HW114534   4.388   2.425   5.472
 4545SOL    HW214535   4.511   2.323   5.439
 4546SOL     OW14536   1.482   6.589   6.055
 4546SOL    HW114537   1.435   6.676   6.039
 4546SOL    HW214538   1.515   6.552   5.968
 4547SOL     OW14539   4.653   2.315   1.773
 4547SOL    HW114540   4.696   2.242   1.719
 4547SOL    HW214541   4.631   2.281   1.864
 4548SOL     OW14542   1.124   3.461   3.640
 4548SOL    HW114543   1.168   3.378   3.605
 4548SOL    HW214544   1.156   3.479   3.733
 4549SOL     OW14545   5.549   2.556   2.682
 4549SOL    HW114546   5.464   2.567   2.631
 4549SOL    HW214547   5.540   2.479   2.745
 4550SOL     OW14548   1.169   6.130   4.318
 4550SOL    HW114549   1.220   6.211   4.346
 4550SOL    HW214550   1.145   6.076   4.399
 4551SOL     OW14551   0.692   2.749   5.763
 4551SOL    HW114552   0.721   2.768   5.857
 4551SOL    HW214553   0.651   2.832   5.724
 4552SOL     OW14554   6.886   3.388   4.600
 4552SOL    HW114555   6.819   3.360   4.532
 4552SOL    HW214556   6.958   3.319   4.606
 4553SOL     OW14557   4.738   4.608   0.476
 4553SOL    HW114558   4.729   4.707   0.488
 4553SOL    HW214559   4.647   4.568   0.462
 4554SOL     OW14560   5.337   6.796   2.897
 4554SOL    HW114561   5.331   6.895   2.906
 4554SOL    HW214562   5.430   6.771   2.871
 4555SOL     OW14563   5.055   1.638   0.048
 4555SOL    HW114564   5.096   1.729   0.043
 4555SOL    HW214565   5.078   1.586   6.990
 4556SOL     OW14566   4.810   1.195   4.151
 4556SOL    HW114567   4.799   1.266   4.220
 4556SOL    HW214568   4.833   1.109   4.196
 4557SOL     OW14569   5.140   0.398   5.600
 4557SOL    HW114570   5.131   0.387   5.501
 4557SOL    HW214571   5.051   0.390   5.643
 4558SOL     OW14572   6.298   2.813   6.131
 4558SOL    HW114573   6.348   2.742   6.082
 4558SOL    HW214574   6.332   2.818   6.225
 4559SOL     OW14575   1.188   6.883   1.129
 4559SOL    HW114576   1.156   6.816   1.196
 4559SOL    HW214577   1.178   6.975   1.167
 4560SOL     OW14578   4.713   2.755   2.634
 4560SOL    HW114579   4.715   2.715   2.542
 4560SOL    HW214580   4.760   2.843   2.633
 4561SOL     OW14581   2.894   0.000   6.737
 4561SOL    HW114582   2.902   6.935   6.692
 4561SOL    HW214583   2.798   0.020   6.756
 4562SOL     OW14584   2.763   5.129   6.055
 4562SOL    HW114585   2.799   5.192   5.987
 4562SOL    HW214586   2.806   5.147   6.144
 4563SOL     OW14587   5.871   2.086   6.423
 4563SOL    HW114588   5.879   2.183   6.447
 4563SOL    HW214589   5.826   2.079   6.334
 4564SOL     OW14590   1.422   5.901   0.116
 4564SOL    HW114591   1.357   5.829   0.092
 4564SOL    HW214592   1.377   5.990   0.113
 4565SOL     OW14593   2.130   0.369   4.774
 4565SOL    HW114594   2.230   0.370   4.779
 4565SOL    HW214595   2.092   0.361   4.866
 4566SOL     OW14596   0.220   2.195   0.063
 4566SOL    HW114597   0.313   2.164   0.046
 4566SOL    HW214598   0.173   2.208   7.000
 4567SOL     OW14599   6.808   1.410   0.628
 4567SOL    HW114600   6.730   1.395   0.689
 4567SOL    HW214601   6.858   1.491   0.656
 4568SOL     OW14602   3.400   4.744   5.365
 4568SOL    HW114603   3.328   4.678   5.387
 4568SOL    HW214604   3.383   4.783   5.274
 4569SOL     OW14605   0.361   2.050   4.685
 4569SOL    HW114606   0.315   2.138   4.696
 4569SOL    HW214607   0.399   2.022   4.773
 4570SOL     OW14608   0.162   5.060   4.395
 4570SOL    HW114609   0.171   5.115   4.478
 4570SOL    HW214610   0.122   5.116   4.322
 4571SOL     OW14611   3.417   2.874   4.709
 4571SOL    HW114612   3.346   2.878   4.780
 4571SOL    HW214613   3.507   2.877   4.752
 4572SOL     OW14614   1.778   6.204   1.182
 4572SOL    HW114615   1.746   6.250   1.265
 4572SOL    HW214616   1.796   6.272   1.111
 4573SOL     OW14617   5.463   0.039   0.810
 4573SOL    HW114618   5.495   0.128   0.843
 4573SOL    HW214619   5.494   6.991   0.873
 4574SOL     OW14620   0.684   4.151   2.453
 4574SOL    HW114621   0.747   4.120   2.524
 4574SOL    HW214622   0.693   4.092   2.372
 4575SOL     OW14623   6.350   0.150   2.697
 4575SOL    HW114624   6.275   0.172   2.635
 4575SOL    HW214625   6.325   0.071   2.753
 4576SOL     OW14626   2.964   5.751   5.296
 4576SOL    HW114627   2.928   5.813   5.226
 4576SOL    HW214628   3.061   5.732   5.277
 4577SOL     OW14629   0.806   2.622   3.697
 4577SOL    HW114630   0.786   2.524   3.710
 4577SOL    HW214631   0.854   2.634   3.610
 4578SOL     OW14632   6.951   3.927   3.947
 4578SOL    HW114633   6.978   3.969   4.034
 4578SOL    HW214634   7.024   3.866   3.916
 4579SOL     OW14635   5.219   1.839   4.012
 4579SOL    HW114636   5.258   1.929   4.030
 4579SOL    HW214637   5.134   1.849   3.960
 4580SOL     OW14638   6.891   5.496   0.688
 4580SOL    HW114639   6.879   5.460   0.595
 4580SOL    HW214640   6.878   5.422   0.754
 4581SOL     OW14641   3.655   5.740   2.955
 4581SOL    HW114642   3.577   5.715   2.898
 4581SOL    HW214643   3.707   5.812   2.909
 4582SOL     OW14644   4.416   6.808   2.351
 4582SOL    HW114645   4.488   6.762   2.299
 4582SOL    HW214646   4.360   6.739   2.397
 4583SOL     OW14647   4.879   1.837   5.181
 4583SOL    HW114648   4.965   1.888   5.187
 4583SOL    HW214649   4.892   1.755   5.126
 4584SOL     OW14650   0.621   5.109   5.261
 4584SOL    HW114651   0.527   5.131   5.237
 4584SOL    HW214652   0.648   5.162   5.341
 4585SOL     OW14653   4.124   6.590   2.755
 4585SOL    HW114654   4.108   6.604   2.853
 4585SOL    HW214655   4.036   6.584   2.708
 4586SOL     OW14656   3.426   5.430   1.963
 4586SOL    HW114657   3.337   5.410   2.005
 4586SOL    HW214658   3.469   5.506   2.012
 4587SOL     OW14659   2.200   4.453   1.173
 4587SOL    HW114660   2.193   4.353   1.178
 4587SOL    HW214661   2.178   4.492   1.262
 4588SOL     OW14662   4.415   3.734   5.284
 4588SOL    HW114663   4.330   3.707   5.239
 4588SOL    HW214664   4.493   3.695   5.234
 4589SOL     OW14665   6.813   1.855   4.394
 4589SOL    HW114666   6.893   1.796   4.407
 4589SOL    HW214667   6.824   1.938   4.450
 4590SOL     OW14668   5.019   5.762   2.622
 4590SOL    HW114669   5.007   5.721   2.713
 4590SOL    HW214670   4.938   5.743   2.567
 4591SOL     OW14671   5.559   5.819   5.184
 4591SOL    HW114672   5.514   5.898   5.142
 4591SOL    HW214673   5.490   5.753   5.214
 4592SOL     OW14674   3.879   2.011   6.223
 4592SOL    HW114675   3.802   2.074   6.230
 4592SOL    HW214676   3.865   1.934   6.286
 4593SOL     OW14677   3.675   6.070   2.501
 4593SOL    HW114678   3.685   6.163   2.464
 4593SOL    HW214679   3.745   6.011   2.461
 4594SOL     OW14680   2.575   0.987   2.440
 4594SOL    HW114681   2.634   1.064   2.461
 4594SOL    HW214682   2.596   0.953   2.348
 4595SOL     OW14683   4.356   2.233   5.683
 4595SOL    HW114684   4.291   2.282   5.740
 4595SOL    HW214685   4.402   2.297   5.621
 4596SOL     OW14686   5.938   0.108   1.481
 4596SOL    HW114687   6.014   0.172   1.493
 4596SOL    HW214688   5.868   0.150   1.423
 4597SOL     OW14689   6.540   4.668   7.006
 4597SOL    HW114690   6.528   4.764   6.981
 4597SOL    HW214691   6.478   4.612   6.952
 4598SOL     OW14692   3.219   4.892   0.053
 4598SOL    HW114693   3.218   4.922   6.982
 4598SOL    HW214694   3.220   4.792   0.057
 4599SOL     OW14695   1.285   4.674   0.517
 4599SOL    HW114696   1.361   4.721   0.473
 4599SOL    HW214697   1.233   4.739   0.573
 4600SOL     OW14698   3.166   5.305   1.312
 4600SOL    HW114699   3.116   5.392   1.302
 4600SOL    HW214700   3.128   5.238   1.249
 4601SOL     OW14701   1.870   6.152   5.156
 4601SOL    HW114702   1.840   6.237   5.113
 4601SOL    HW214703   1.840   6.150   5.252
 4602SOL     OW14704   1.707   0.761   1.134
 4602SOL    HW114705   1.803   0.772   1.157
 4602SOL    HW214706   1.662   0.702   1.201
 4603SOL     OW14707   3.416   0.009   2.119
 4603SOL    HW114708   3.453   6.958   2.063
 4603SOL    HW214709   3.434   7.013   2.216
 4604SOL     OW14710   3.251   6.772   2.502
 4604SOL    HW114711   3.285   6.718   2.425
 4604SOL    HW214712   3.169   6.729   2.540
 4605SOL     OW14713   5.044   0.402   5.346
 4605SOL    HW114714   5.075   0.315   5.310
 4605SOL    HW214715   5.089   0.477   5.298
 4606SOL     OW14716   6.884   6.315   5.447
 4606SOL    HW114717   6.837   6.227   5.441
 4606SOL    HW214718   6.822   6.383   5.485
 4607SOL     OW14719   2.634   2.272   1.204
 4607SOL    HW114720   2.695   2.195   1.185
 4607SOL    HW214721   2.671   2.328   1.277
 4608SOL     OW14722   1.502   3.485   5.590
 4608SOL    HW114723   1.561   3.543   5.646
 4608SOL    HW214724   1.484   3.399   5.637
 4609SOL     OW14725   4.410   6.674   6.129
 4609SOL    HW114726   4.334   6.737   6.116
 4609SOL    HW214727   4.432   6.667   6.226
 4610SOL     OW14728   0.607   3.117   6.321
 4610SOL    HW114729   0.514   3.121   6.284
 4610SOL    HW214730   0.615   3.036   6.380
 4611SOL     OW14731   1.270   3.662   0.358
 4611SOL    HW114732   1.296   3.601   0.283
 4611SOL    HW214733   1.326   3.745   0.355
 4612SOL     OW14734   2.106   0.182   6.110
 4612SOL    HW114735   2.106   0.260   6.173
 4612SOL    HW214736   2.129   0.099   6.160
 4613SOL     OW14737   3.146   5.596   1.960
 4613SOL    HW114738   3.197   5.649   1.892
 4613SOL    HW214739   3.052   5.629   1.964
 4614SOL     OW14740   1.843   5.641   0.484
 4614SOL    HW114741   1.832   5.561   0.543
 4614SOL    HW214742   1.803   5.622   0.394
 4615SOL     OW14743   0.083   2.459   0.459
 4615SOL    HW114744   0.117   2.448   0.366
 4615SOL    HW214745   0.157   2.440   0.524
 4616SOL     OW14746   5.764   0.864   6.814
 4616SOL    HW114747   5.797   0.950   6.853
 4616SOL    HW214748   5.834   0.825   6.755
 4617SOL     OW14749   0.080   2.838   1.943
 4617SOL    HW114750   0.112   2.933   1.942
 4617SOL    HW214751   7.009   2.835   1.974
 4618SOL     OW14752   0.988   1.894   5.976
 4618SOL    HW114753   0.916   1.861   6.038
 4618SOL    HW214754   0.947   1.954   5.908
 4619SOL     OW14755   3.150   0.889   3.725
 4619SOL    HW114756   3.190   0.875   3.816
 4619SOL    HW214757   3.184   0.818   3.663
 4620SOL     OW14758   2.346   3.879   6.553
 4620SOL    HW114759   2.255   3.905   6.520
 4620SOL    HW214760   2.408   3.868   6.476
 4621SOL     OW14761   0.247   5.763   6.023
 4621SOL    HW114762   0.345   5.770   6.006
 4621SOL    HW214763   0.209   5.854   6.037
 4622SOL     OW14764   2.390   3.470   1.200
 4622SOL    HW114765   2.362   3.528   1.123
 4622SOL    HW214766   2.417   3.529   1.277
 4623SOL     OW14767   5.837   4.325   1.951
 4623SOL    HW114768   5.754   4.375   1.929
 4623SOL    HW214769   5.914   4.389   1.957
 4624SOL     OW14770   4.726   0.036   5.429
 4624SOL    HW114771   4.820   0.002   5.431
 4624SOL    HW214772   4.668   6.995   5.379
 4625SOL     OW14773   0.615   3.086   6.689
 4625SOL    HW114774   0.698   3.140   6.680
 4625SOL    HW214775   0.551   3.133   6.750
 4626SOL     OW14776   6.130   5.130   1.871
 4626SOL    HW114777   6.109   5.211   1.816
 4626SOL    HW214778   6.046   5.079   1.887
 4627SOL     OW14779   2.442   0.589   6.645
 4627SOL    HW114780   2.413   0.521   6.577
 4627SOL    HW214781   2.456   0.544   6.733
 4628SOL     OW14782   0.080   4.021   1.946
 4628SOL    HW114783   0.016   4.049   1.875
 4628SOL    HW214784   0.152   4.089   1.955
 4629SOL     OW14785   2.916   4.968   5.526
 4629SOL    HW114786   2.830   4.920   5.508
 4629SOL    HW214787   2.956   4.933   5.610
 4630SOL     OW14788   1.907   0.039   2.764
 4630SOL    HW114789   1.904   6.966   2.790
 4630SOL    HW214790   1.912   0.095   2.847
 4631SOL     OW14791   2.513   0.089   2.414
 4631SOL    HW114792   2.597   0.108   2.365
 4631SOL    HW214793   2.496   0.161   2.481
 4632SOL     OW14794   4.932   5.141   4.005
 4632SOL    HW114795   4.979   5.056   3.982
 4632SOL    HW214796   4.898   5.184   3.922
 4633SOL     OW14797   6.251   1.983   5.203
 4633SOL    HW114798   6.238   1.919   5.127
 4633SOL    HW214799   6.266   1.931   5.288
 4634SOL     OW14800   2.967   4.540   0.797
 4634SOL    HW114801   2.890   4.480   0.819
 4634SOL    HW214802   2.991   4.595   0.878
 4635SOL     OW14803   5.621   4.212   1.495
 4635SOL    HW114804   5.566   4.152   1.553
 4635SOL    HW214805   5.579   4.217   1.404
 4636SOL     OW14806   1.975   5.667   0.896
 4636SOL    HW114807   1.912   5.590   0.906
 4636SOL    HW214808   2.034   5.672   0.977
 4637SOL     OW14809   1.345   1.201   5.600
 4637SOL    HW114810   1.305   1.134   5.663
 4637SOL    HW214811   1.445   1.196   5.606
 4638SOL     OW14812   5.220   3.504   5.826
 4638SOL    HW114813   5.133   3.461   5.804
 4638SOL    HW214814   5.209   3.604   5.827
 4639SOL     OW14815   6.862   3.679   5.488
 4639SOL    HW114816   6.874   3.779   5.488
 4639SOL    HW214817   6.905   3.641   5.406
 4640SOL     OW14818   5.744   4.232   2.603
 4640SOL    HW114819   5.751   4.141   2.563
 4640SOL    HW214820   5.821   4.288   2.572
 4641SOL     OW14821   2.345   4.537   5.726
 4641SOL    HW114822   2.372   4.621   5.773
 4641SOL    HW214823   2.421   4.503   5.671
 4642SOL     OW14824   5.847   6.189   4.370
 4642SOL    HW114825   5.851   6.135   4.285
 4642SOL    HW214826   5.875   6.131   4.446
 4643SOL     OW14827   3.967   2.892   1.373
 4643SOL    HW114828   3.894   2.870   1.309
 4643SOL    HW214829   3.931   2.950   1.446
 4644SOL     OW14830   2.162   5.056   4.948
 4644SOL    HW114831   2.200   4.984   4.890
 4644SOL    HW214832   2.235   5.119   4.974
 4645SOL     OW14833   1.828   5.954   4.801
 4645SOL    HW114834   1.909   5.947   4.860
 4645SOL    HW214835   1.746   5.953   4.857
 4646SOL     OW14836   3.742   0.466   1.630
 4646SOL    HW114837   3.706   0.416   1.552
 4646SOL    HW214838   3.674   0.467   1.704
 4647SOL     OW14839   6.469   0.132   4.985
 4647SOL    HW114840   6.434   0.065   4.919
 4647SOL    HW214841   6.480   0.088   5.074
 4648SOL     OW14842   2.060   5.665   2.520
 4648SOL    HW114843   2.140   5.721   2.539
 4648SOL    HW214844   2.001   5.662   2.600
 4649SOL     OW14845   5.154   0.245   5.818
 4649SOL    HW114846   5.065   0.201   5.813
 4649SOL    HW214847   5.169   0.299   5.735
 4650SOL     OW14848   6.806   4.859   1.994
 4650SOL    HW114849   6.741   4.930   2.021
 4650SOL    HW214850   6.847   4.883   1.907
 4651SOL     OW14851   0.324   2.176   1.145
 4651SOL    HW114852   0.273   2.117   1.207
 4651SOL    HW214853   0.261   2.221   1.082
 4652SOL     OW14854   0.181   6.011   6.121
 4652SOL    HW114855   0.124   6.085   6.157
 4652SOL    HW214856   0.275   6.023   6.153
 4653SOL     OW14857   0.469   5.699   6.778
 4653SOL    HW114858   0.488   5.647   6.862
 4653SOL    HW214859   0.386   5.754   6.791
 4654SOL     OW14860   1.077   1.317   6.752
 4654SOL    HW114861   1.060   1.347   6.846
 4654SOL    HW214862   1.090   1.218   6.750
 4655SOL     OW14863   0.272   5.151   3.432
 4655SOL    HW114864   0.319   5.074   3.476
 4655SOL    HW214865   0.182   5.164   3.473
 4656SOL     OW14866   1.803   6.766   3.095
 4656SOL    HW114867   1.715   6.729   3.066
 4656SOL    HW214868   1.796   6.800   3.189
 4657SOL     OW14869   6.182   6.935   0.063
 4657SOL    HW114870   6.149   6.935   0.158
 4657SOL    HW214871   6.209   0.003   0.037
 4658SOL     OW14872   5.403   0.710   3.168
 4658SOL    HW114873   5.397   0.739   3.264
 4658SOL    HW214874   5.434   0.615   3.164
 4659SOL     OW14875   2.053   2.433   4.371
 4659SOL    HW114876   2.129   2.368   4.374
 4659SOL    HW214877   1.966   2.383   4.367
 4660SOL     OW14878   0.008   0.696   5.780
 4660SOL    HW114879   0.071   0.644   5.838
 4660SOL    HW214880   6.939   0.661   5.792
 4661SOL     OW14881   4.081   3.816   3.460
 4661SOL    HW114882   3.991   3.805   3.417
 4661SOL    HW214883   4.151   3.823   3.389
 4662SOL     OW14884   4.859   0.707   4.790
 4662SOL    HW114885   4.764   0.682   4.772
 4662SOL    HW214886   4.866   0.746   4.882
 4663SOL     OW14887   0.345   1.800   2.677
 4663SOL    HW114888   0.387   1.765   2.594
 4663SOL    HW214889   0.338   1.900   2.672
 4664SOL     OW14890   3.164   2.505   0.032
 4664SOL    HW114891   3.121   2.470   0.115
 4664SOL    HW214892   3.187   2.428   6.996
 4665SOL     OW14893   5.716   0.546   0.203
 4665SOL    HW114894   5.795   0.546   0.264
 4665SOL    HW214895   5.746   0.565   0.109
 4666SOL     OW14896   1.789   1.113   0.559
 4666SOL    HW114897   1.695   1.096   0.532
 4666SOL    HW214898   1.794   1.122   0.659
 4667SOL     OW14899   0.539   5.562   5.656
 4667SOL    HW114900   0.568   5.559   5.560
 4667SOL    HW214901   0.444   5.534   5.663
 4668SOL     OW14902   5.689   1.613   4.256
 4668SOL    HW114903   5.764   1.559   4.219
 4668SOL    HW214904   5.617   1.621   4.187
 4669SOL     OW14905   2.667   0.448   0.739
 4669SOL    HW114906   2.717   0.436   0.653
 4669SOL    HW214907   2.731   0.441   0.816
 4670SOL     OW14908   2.127   1.570   4.287
 4670SOL    HW114909   2.123   1.659   4.241
 4670SOL    HW214910   2.097   1.581   4.382
 4671SOL     OW14911   5.846   3.640   1.540
 4671SOL    HW114912   5.791   3.569   1.497
 4671SOL    HW214913   5.814   3.730   1.509
 4672SOL     OW14914   2.436   3.694   5.682
 4672SOL    HW114915   2.340   3.682   5.710
 4672SOL    HW214916   2.468   3.612   5.635
 4673SOL     OW14917   3.678   0.511   2.722
 4673SOL    HW114918   3.715   0.577   2.787
 4673SOL    HW214919   3.722   0.524   2.633
 4674SOL     OW14920   4.379   6.389   6.242
 4674SOL    HW114921   4.438   6.386   6.161
 4674SOL    HW214922   4.417   6.452   6.309
 4675SOL     OW14923   1.405   4.052   6.455
 4675SOL    HW114924   1.395   4.023   6.360
 4675SOL    HW214925   1.331   4.116   6.478
 4676SOL     OW14926   0.741   5.034   4.190
 4676SOL    HW114927   0.799   5.028   4.271
 4676SOL    HW214928   0.648   5.007   4.214
 4677SOL     OW14929   1.397   3.486   0.207
 4677SOL    HW114930   1.411   3.520   0.114
 4677SOL    HW214931   1.445   3.399   0.218
 4678SOL     OW14932   2.386   4.371   2.216
 4678SOL    HW114933   2.439   4.354   2.299
 4678SOL    HW214934   2.445   4.415   2.148
 4679SOL     OW14935   4.906   6.977   1.398
 4679SOL    HW114936   5.001   6.949   1.384
 4679SOL    HW214937   4.904   0.049   1.426
 4680SOL     OW14938   1.665   0.878   0.900
 4680SOL    HW114939   1.652   0.830   0.987
 4680SOL    HW214940   1.629   0.822   0.826
 4681SOL     OW14941   4.721   5.511   1.619
 4681SOL    HW114942   4.739   5.422   1.660
 4681SOL    HW214943   4.778   5.523   1.538
 4682SOL     OW14944   3.664   3.918   7.002
 4682SOL    HW114945   3.600   3.992   6.983
 4682SOL    HW214946   3.740   3.953   0.032
 4683SOL     OW14947   6.544   4.574   3.615
 4683SOL    HW114948   6.574   4.484   3.581
 4683SOL    HW214949   6.553   4.642   3.542
 4684SOL     OW14950   5.531   0.026   0.134
 4684SOL    HW114951   5.580   0.091   0.075
 4684SOL    HW214952   5.536   0.056   0.229
 4685SOL     OW14953   3.185   3.846   5.410
 4685SOL    HW114954   3.089   3.843   5.381
 4685SOL    HW214955   3.189   3.862   5.508
 4686SOL     OW14956   3.326   5.317   0.282
 4686SOL    HW114957   3.357   5.412   0.276
 4686SOL    HW214958   3.334   5.274   0.192
 4687SOL     OW14959   3.253   0.800   2.890
 4687SOL    HW114960   3.169   0.844   2.858
 4687SOL    HW214961   3.261   0.710   2.845
 4688SOL     OW14962   5.901   2.932   5.727
 4688SOL    HW114963   5.882   3.017   5.776
 4688SOL    HW214964   5.831   2.918   5.656
 4689SOL     OW14965   5.457   0.877   2.014
 4689SOL    HW114966   5.535   0.938   2.026
 4689SOL    HW214967   5.392   0.889   2.089
 4690SOL     OW14968   2.322   2.171   0.344
 4690SOL    HW114969   2.307   2.262   0.383
 4690SOL    HW214970   2.256   2.107   0.385
 4691SOL     OW14971   6.923   4.311   1.774
 4691SOL    HW114972   6.935   4.216   1.744
 4691SOL    HW214973   6.836   4.345   1.740
 4692SOL     OW14974   5.484   3.572   2.174
 4692SOL    HW114975   5.515   3.479   2.153
 4692SOL    HW214976   5.408   3.568   2.239
 4693SOL     OW14977   1.853   1.322   3.738
 4693SOL    HW114978   1.841   1.237   3.687
 4693SOL    HW214979   1.795   1.393   3.699
 4694SOL     OW14980   2.169   0.870   0.514
 4694SOL    HW114981   2.127   0.945   0.566
 4694SOL    HW214982   2.100   0.801   0.494
 4695SOL     OW14983   1.265   6.046   1.747
 4695SOL    HW114984   1.185   6.056   1.688
 4695SOL    HW214985   1.310   6.135   1.755
 4696SOL     OW14986   1.852   5.509   5.914
 4696SOL    HW114987   1.920   5.564   5.865
 4696SOL    HW214988   1.795   5.569   5.971
 4697SOL     OW14989   4.105   4.829   0.907
 4697SOL    HW114990   4.147   4.782   0.985
 4697SOL    HW214991   4.014   4.860   0.933
 4698SOL     OW14992   5.429   1.090   3.461
 4698SOL    HW114993   5.457   1.033   3.538
 4698SOL    HW214994   5.509   1.137   3.423
 4699SOL     OW14995   1.343   0.112   2.732
 4699SOL    HW114996   1.282   0.060   2.671
 4699SOL    HW214997   1.432   0.067   2.736
 4700SOL     OW14998   6.206   2.151   2.384
 4700SOL    HW114999   6.184   2.108   2.472
 4700SOL    HW215000   6.125   2.152   2.326
 4701SOL     OW15001   3.043   2.361   1.634
 4701SOL    HW115002   2.987   2.392   1.710
 4701SOL    HW215003   3.033   2.262   1.623
 4702SOL     OW15004   5.575   4.644   6.796
 4702SOL    HW115005   5.581   4.741   6.817
 4702SOL    HW215006   5.626   4.592   6.864
 4703SOL     OW15007   0.578   5.135   3.495
 4703SOL    HW115008   0.612   5.187   3.573
 4703SOL    HW215009   0.494   5.087   3.521
 4704SOL     OW15010   1.188   4.902   5.166
 4704SOL    HW115011   1.135   4.818   5.177
 4704SOL    HW215012   1.127   4.981   5.165
 4705SOL     OW15013   3.659   2.354   1.667
 4705SOL    HW115014   3.713   2.337   1.750
 4705SOL    HW215015   3.587   2.286   1.659
 4706SOL     OW15016   2.058   1.095   0.625
 4706SOL    HW115017   1.980   1.097   0.562
 4706SOL    HW215018   2.051   1.171   0.689
 4707SOL     OW15019   1.401   6.420   1.588
 4707SOL    HW115020   1.384   6.490   1.658
 4707SOL    HW215021   1.347   6.440   1.507
 4708SOL     OW15022   1.049   2.687   4.762
 4708SOL    HW115023   0.972   2.659   4.705
 4708SOL    HW215024   1.121   2.619   4.757
 4709SOL     OW15025   4.816   3.844   5.183
 4709SOL    HW115026   4.809   3.907   5.105
 4709SOL    HW215027   4.806   3.750   5.149
 4710SOL     OW15028   6.532   6.238   4.624
 4710SOL    HW115029   6.624   6.216   4.592
 4710SOL    HW215030   6.489   6.300   4.559
 4711SOL     OW15031   5.658   3.402   3.009
 4711SOL    HW115032   5.563   3.431   2.996
 4711SOL    HW215033   5.678   3.392   3.106
 4712SOL     OW15034   4.639   4.151   5.567
 4712SOL    HW115035   4.599   4.235   5.603
 4712SOL    HW215036   4.692   4.172   5.485
 4713SOL     OW15037   6.235   4.412   1.270
 4713SOL    HW115038   6.248   4.313   1.264
 4713SOL    HW215039   6.293   4.457   1.202
 4714SOL     OW15040   5.393   1.379   6.636
 4714SOL    HW115041   5.380   1.362   6.734
 4714SOL    HW215042   5.314   1.427   6.599
 4715SOL     OW15043   6.202   1.072   2.306
 4715SOL    HW115044   6.275   1.098   2.368
 4715SOL    HW215045   6.170   0.980   2.328
 4716SOL     OW15046   3.916   4.897   6.044
 4716SOL    HW115047   4.009   4.934   6.052
 4716SOL    HW215048   3.870   4.942   5.967
 4717SOL     OW15049   2.566   5.300   5.465
 4717SOL    HW115050   2.570   5.283   5.367
 4717SOL    HW215051   2.472   5.293   5.497
 4718SOL     OW15052   4.843   3.829   0.927
 4718SOL    HW115053   4.785   3.909   0.941
 4718SOL    HW215054   4.862   3.819   0.829
 4719SOL     OW15055   0.153   3.770   3.862
 4719SOL    HW115056   0.202   3.848   3.902
 4719SOL    HW215057   0.218   3.710   3.815
 4720SOL     OW15058   2.371   3.580   7.022
 4720SOL    HW115059   2.304   3.596   6.949
 4720SOL    HW215060   2.459   3.618   6.994
 4721SOL     OW15061   6.095   2.974   3.280
 4721SOL    HW115062   6.082   2.938   3.373
 4721SOL    HW215063   6.092   2.899   3.215
 4722SOL     OW15064   1.146   4.859   0.307
 4722SOL    HW115065   1.063   4.830   0.258
 4722SOL    HW215066   1.136   4.953   0.338
 4723SOL     OW15067   4.204   4.008   6.885
 4723SOL    HW115068   4.227   4.077   6.953
 4723SOL    HW215069   4.190   3.919   6.930
 4724SOL     OW15070   0.446   6.488   4.732
 4724SOL    HW115071   0.430   6.437   4.817
 4724SOL    HW215072   0.541   6.476   4.703
 4725SOL     OW15073   4.783   5.890   0.439
 4725SOL    HW115074   4.858   5.827   0.462
 4725SOL    HW215075   4.813   5.984   0.454
 4726SOL     OW15076   1.128   3.167   5.883
 4726SOL    HW115077   1.079   3.208   5.960
 4726SOL    HW215078   1.115   3.222   5.801
 4727SOL     OW15079   0.240   5.663   1.268
 4727SOL    HW115080   0.271   5.640   1.176
 4727SOL    HW215081   0.200   5.582   1.311
 4728SOL     OW15082   6.447   1.904   4.796
 4728SOL    HW115083   6.454   1.931   4.700
 4728SOL    HW215084   6.424   1.807   4.801
 4729SOL     OW15085   5.801   1.620   1.876
 4729SOL    HW115086   5.766   1.530   1.903
 4729SOL    HW215087   5.860   1.655   1.949
 4730SOL     OW15088   3.206   6.934   4.518
 4730SOL    HW115089   3.187   6.840   4.544
 4730SOL    HW215090   3.302   6.955   4.535
 4731SOL     OW15091   3.353   6.895   0.309
 4731SOL    HW115092   3.417   6.911   0.234
 4731SOL    HW215093   3.401   6.859   0.388
 4732SOL     OW15094   0.708   4.791   4.457
 4732SOL    HW115095   0.769   4.866   4.431
 4732SOL    HW215096   0.703   4.785   4.556
 4733SOL     OW15097   1.696   3.640   3.664
 4733SOL    HW115098   1.787   3.600   3.679
 4733SOL    HW215099   1.646   3.583   3.599
 4734SOL     OW15100   4.735   3.039   0.269
 4734SOL    HW115101   4.722   3.130   0.230
 4734SOL    HW215102   4.647   3.005   0.302
 4735SOL     OW15103   6.929   0.385   5.163
 4735SOL    HW115104   6.859   0.327   5.206
 4735SOL    HW215105   7.016   0.336   5.162
 4736SOL     OW15106   6.517   2.357   3.843
 4736SOL    HW115107   6.503   2.436   3.784
 4736SOL    HW215108   6.525   2.386   3.938
 4737SOL     OW15109   2.153   5.062   0.362
 4737SOL    HW115110   2.082   5.055   0.431
 4737SOL    HW215111   2.120   5.114   0.284
 4738SOL     OW15112   1.804   6.711   3.890
 4738SOL    HW115113   1.890   6.673   3.924
 4738SOL    HW215114   1.798   6.807   3.914
 4739SOL     OW15115   5.599   3.404   3.509
 4739SOL    HW115116   5.535   3.479   3.493
 4739SOL    HW215117   5.549   3.324   3.542
 4740SOL     OW15118   0.878   0.985   2.031
 4740SOL    HW115119   0.820   0.975   2.112
 4740SOL    HW215120   0.820   0.998   1.951
 4741SOL     OW15121   4.200   4.300   1.636
 4741SOL    HW115122   4.212   4.212   1.590
 4741SOL    HW215123   4.274   4.314   1.702
 4742SOL     OW15124   2.697   6.067   2.089
 4742SOL    HW115125   2.741   6.101   2.006
 4742SOL    HW215126   2.741   6.107   2.169
 4743SOL     OW15127   2.589   2.581   0.048
 4743SOL    HW115128   2.660   2.646   0.022
 4743SOL    HW215129   2.586   2.573   0.148
 4744SOL     OW15130   1.890   3.044   5.454
 4744SOL    HW115131   1.806   2.993   5.434
 4744SOL    HW215132   1.872   3.142   5.447
 4745SOL     OW15133   2.930   5.793   4.722
 4745SOL    HW115134   2.939   5.871   4.661
 4745SOL    HW215135   2.837   5.758   4.719
 4746SOL     OW15136   6.260   0.660   0.223
 4746SOL    HW115137   6.248   0.720   0.144
 4746SOL    HW215138   6.323   0.703   0.288
 4747SOL     OW15139   6.211   2.495   1.569
 4747SOL    HW115140   6.206   2.445   1.482
 4747SOL    HW215141   6.118   2.517   1.600
 4748SOL     OW15142   1.624   0.592   1.312
 4748SOL    HW115143   1.565   0.632   1.382
 4748SOL    HW215144   1.572   0.523   1.260
 4749SOL     OW15145   1.500   0.001   6.579
 4749SOL    HW115146   1.482   6.972   6.662
 4749SOL    HW215147   1.582   0.056   6.592
 4750SOL     OW15148   0.139   1.037   4.522
 4750SOL    HW115149   0.214   1.089   4.481
 4750SOL    HW215150   0.146   1.042   4.622
 4751SOL     OW15151   1.034   3.849   6.517
 4751SOL    HW115152   0.955   3.817   6.464
 4751SOL    HW215153   1.030   3.949   6.525
 4752SOL     OW15154   2.770   5.999   1.607
 4752SOL    HW115155   2.766   6.052   1.691
 4752SOL    HW215156   2.825   5.917   1.621
 4753SOL     OW15157   6.777   6.981   5.135
 4753SOL    HW115158   6.769   0.055   5.119
 4753SOL    HW215159   6.874   6.954   5.130
 4754SOL     OW15160   0.752   7.009   5.434
 4754SOL    HW115161   0.778   0.082   5.430
 4754SOL    HW215162   0.795   6.967   5.514
 4755SOL     OW15163   2.660   2.068   0.187
 4755SOL    HW115164   2.568   2.099   0.164
 4755SOL    HW215165   2.690   1.999   0.121
 4756SOL     OW15166   5.329   2.851   1.246
 4756SOL    HW115167   5.259   2.906   1.292
 4756SOL    HW215168   5.413   2.904   1.237
 4757SOL     OW15169   2.186   2.032   0.931
 4757SOL    HW115170   2.272   2.075   0.960
 4757SOL    HW215171   2.183   1.938   0.963
 4758SOL     OW15172   5.019   4.653   5.196
 4758SOL    HW115173   5.105   4.672   5.148
 4758SOL    HW215174   5.028   4.570   5.250
 4759SOL     OW15175   5.733   5.052   5.483
 4759SOL    HW115176   5.667   4.993   5.530
 4759SOL    HW215177   5.734   5.030   5.385
 4760SOL     OW15178   1.427   2.149   0.858
 4760SOL    HW115179   1.371   2.149   0.941
 4760SOL    HW215180   1.383   2.092   0.788
 4761SOL     OW15181   0.828   6.121   5.899
 4761SOL    HW115182   0.909   6.164   5.938
 4761SOL    HW215183   0.752   6.129   5.964
 4762SOL     OW15184   3.056   6.047   2.690
 4762SOL    HW115185   3.047   6.015   2.784
 4762SOL    HW215186   3.152   6.055   2.666
 4763SOL     OW15187   5.575   5.539   4.254
 4763SOL    HW115188   5.666   5.498   4.252
 4763SOL    HW215189   5.522   5.508   4.175
 4764SOL     OW15190   3.769   3.344   4.238
 4764SOL    HW115191   3.726   3.434   4.241
 4764SOL    HW215192   3.701   3.273   4.256
 4765SOL     OW15193   5.901   5.278   4.988
 4765SOL    HW115194   5.828   5.330   5.032
 4765SOL    HW215195   5.973   5.341   4.958
 4766SOL     OW15196   2.987   0.681   3.052
 4766SOL    HW115197   3.080   0.672   3.089
 4766SOL    HW215198   2.924   0.626   3.108
 4767SOL     OW15199   4.191   5.574   6.348
 4767SOL    HW115200   4.110   5.615   6.304
 4767SOL    HW215201   4.251   5.647   6.381
 4768SOL     OW15202   0.033   0.790   5.088
 4768SOL    HW115203   7.003   0.732   5.028
 4768SOL    HW215204   0.058   0.740   5.171
 4769SOL     OW15205   3.426   0.139   1.415
 4769SOL    HW115206   3.512   0.188   1.427
 4769SOL    HW215207   3.430   0.052   1.463
 4770SOL     OW15208   2.581   0.198   3.563
 4770SOL    HW115209   2.517   0.234   3.631
 4770SOL    HW215210   2.534   0.188   3.475
 4771SOL     OW15211   4.142   4.083   5.694
 4771SOL    HW115212   4.127   4.175   5.659
 4771SOL    HW215213   4.168   4.022   5.620
 4772SOL     OW15214   2.328   2.485   1.436
 4772SOL    HW115215   2.388   2.505   1.359
 4772SOL    HW215216   2.290   2.571   1.471
 4773SOL     OW15217   6.644   6.180   3.969
 4773SOL    HW115218   6.610   6.234   4.045
 4773SOL    HW215219   6.733   6.141   3.992
 4774SOL     OW15220   0.737   4.454   1.304
 4774SOL    HW115221   0.818   4.417   1.258
 4774SOL    HW215222   0.721   4.402   1.388
 4775SOL     OW15223   3.574   1.311   1.539
 4775SOL    HW115224   3.592   1.400   1.581
 4775SOL    HW215225   3.605   1.239   1.600
 4776SOL     OW15226   3.336   5.666   1.782
 4776SOL    HW115227   3.353   5.591   1.846
 4776SOL    HW215228   3.409   5.668   1.713
 4777SOL     OW15229   3.023   4.310   1.184
 4777SOL    HW115230   2.968   4.393   1.199
 4777SOL    HW215231   3.055   4.308   1.089
 4778SOL     OW15232   4.847   3.950   2.088
 4778SOL    HW115233   4.931   3.929   2.038
 4778SOL    HW215234   4.822   3.872   2.145
 4779SOL     OW15235   5.059   0.364   2.810
 4779SOL    HW115236   5.136   0.385   2.750
 4779SOL    HW215237   5.074   0.406   2.899
 4780SOL     OW15238   1.571   6.447   6.308
 4780SOL    HW115239   1.504   6.391   6.358
 4780SOL    HW215240   1.532   6.473   6.219
 4781SOL     OW15241   2.046   5.670   2.229
 4781SOL    HW115242   2.052   5.658   2.328
 4781SOL    HW215243   1.978   5.740   2.208
 4782SOL     OW15244   5.837   6.119   6.388
 4782SOL    HW115245   5.739   6.115   6.368
 4782SOL    HW215246   5.887   6.065   6.320
 4783SOL     OW15247   6.254   4.608   1.480
 4783SOL    HW115248   6.187   4.577   1.548
 4783SOL    HW215249   6.242   4.558   1.395
 4784SOL     OW15250   5.610   4.666   5.046
 4784SOL    HW115251   5.674   4.593   5.023
 4784SOL    HW215252   5.632   4.704   5.136
 4785SOL     OW15253   6.511   0.790   0.671
 4785SOL    HW115254   6.546   0.793   0.764
 4785SOL    HW215255   6.494   0.695   0.645
 4786SOL     OW15256   1.626   3.169   2.114
 4786SOL    HW115257   1.696   3.209   2.174
 4786SOL    HW215258   1.535   3.198   2.144
 4787SOL     OW15259   3.612   2.117   2.299
 4787SOL    HW115260   3.695   2.124   2.354
 4787SOL    HW215261   3.627   2.158   2.209
 4788SOL     OW15262   1.375   5.372   3.915
 4788SOL    HW115263   1.322   5.325   3.985
 4788SOL    HW215264   1.339   5.464   3.902
 4789SOL     OW15265   6.066   0.824   0.806
 4789SOL    HW115266   6.097   0.749   0.747
 4789SOL    HW215267   6.141   0.890   0.818
 4790SOL     OW15268   5.313   1.052   6.808
 4790SOL    HW115269   5.406   1.080   6.832
 4790SOL    HW215270   5.298   0.957   6.837
 4791SOL     OW15271   4.675   6.795   2.562
 4791SOL    HW115272   4.644   6.885   2.533
 4791SOL    HW215273   4.775   6.794   2.567
 4792SOL     OW15274   2.525   2.333   1.888
 4792SOL    HW115275   2.585   2.362   1.962
 4792SOL    HW215276   2.432   2.323   1.922
 4793SOL     OW15277   1.046   6.737   5.917
 4793SOL    HW115278   1.098   6.698   5.842
 4793SOL    HW215279   1.001   6.663   5.968
 4794SOL     OW15280   3.033   0.949   1.810
 4794SOL    HW115281   3.050   1.031   1.865
 4794SOL    HW215282   3.121   0.907   1.785
 4795SOL     OW15283   6.445   3.513   4.063
 4795SOL    HW115284   6.351   3.525   4.096
 4795SOL    HW215285   6.505   3.578   4.110
 4796SOL     OW15286   6.004   3.888   1.191
 4796SOL    HW115287   6.071   3.875   1.264
 4796SOL    HW215288   6.037   3.958   1.127
 4797SOL     OW15289   0.366   5.226   5.212
 4797SOL    HW115290   0.364   5.326   5.217
 4797SOL    HW215291   0.278   5.193   5.176
 4798SOL     OW15292   6.805   3.856   4.474
 4798SOL    HW115293   6.866   3.783   4.503
 4798SOL    HW215294   6.710   3.829   4.489
 4799SOL     OW15295   3.514   1.617   4.722
 4799SOL    HW115296   3.613   1.627   4.729
 4799SOL    HW215297   3.476   1.595   4.812
 4800SOL     OW15298   2.033   1.721   4.518
 4800SOL    HW115299   1.980   1.683   4.594
 4800SOL    HW215300   1.983   1.797   4.477
 4801SOL     OW15301   0.991   3.071   0.725
 4801SOL    HW115302   0.947   3.020   0.651
 4801SOL    HW215303   0.966   3.168   0.718
 4802SOL     OW15304   2.669   0.505   2.275
 4802SOL    HW115305   2.693   0.588   2.325
 4802SOL    HW215306   2.746   0.478   2.217
 4803SOL     OW15307   0.861   6.877   0.407
 4803SOL    HW115308   0.873   6.810   0.481
 4803SOL    HW215309   0.822   6.961   0.445
 4804SOL     OW15310   4.165   5.285   6.811
 4804SOL    HW115311   4.248   5.269   6.864
 4804SOL    HW215312   4.185   5.350   6.737
 4805SOL     OW15313   0.456   1.989   0.958
 4805SOL    HW115314   0.393   2.031   1.023
 4805SOL    HW215315   0.550   2.007   0.986
 4806SOL     OW15316   0.651   2.618   3.021
 4806SOL    HW115317   0.604   2.705   3.003
 4806SOL    HW215318   0.583   2.546   3.036
 4807SOL     OW15319   6.936   6.439   0.935
 4807SOL    HW115320   6.906   6.485   1.019
 4807SOL    HW215321   6.877   6.467   0.859
 4808SOL     OW15322   4.752   3.235   1.113
 4808SOL    HW115323   4.780   3.206   1.204
 4808SOL    HW215324   4.790   3.326   1.094
 4809SOL     OW15325   3.987   5.841   6.865
 4809SOL    HW115326   4.046   5.917   6.896
 4809SOL    HW215327   3.928   5.873   6.791
 4810SOL     OW15328   0.642   0.442   1.361
 4810SOL    HW115329   0.556   0.453   1.311
 4810SOL    HW215330   0.711   0.504   1.322
 4811SOL     OW15331   4.394   6.178   2.341
 4811SOL    HW115332   4.351   6.194   2.430
 4811SOL    HW215333   4.487   6.215   2.342
 4812SOL     OW15334   6.614   5.699   4.554
 4812SOL    HW115335   6.519   5.684   4.526
 4812SOL    HW215336   6.664   5.613   4.546
 4813SOL     OW15337   6.071   2.728   3.164
 4813SOL    HW115338   6.078   2.696   3.070
 4813SOL    HW215339   5.996   2.681   3.210
 4814SOL     OW15340   0.115   3.118   1.876
 4814SOL    HW115341   0.177   3.183   1.831
 4814SOL    HW215342   0.108   3.141   1.973
 4815SOL     OW15343   4.016   6.272   1.792
 4815SOL    HW115344   4.004   6.230   1.882
 4815SOL    HW215345   4.113   6.278   1.770
 4816SOL     OW15346   5.598   5.298   3.205
 4816SOL    HW115347   5.580   5.282   3.108
 4816SOL    HW215348   5.514   5.327   3.251
 4817SOL     OW15349   7.003   1.357   6.796
 4817SOL    HW115350   0.065   1.346   6.746
 4817SOL    HW215351   7.000   1.292   6.872
 4818SOL     OW15352   0.969   0.469   4.492
 4818SOL    HW115353   0.928   0.489   4.403
 4818SOL    HW215354   0.927   0.387   4.530
 4819SOL     OW15355   1.891   3.240   0.541
 4819SOL    HW115356   1.957   3.217   0.469
 4819SOL    HW215357   1.939   3.254   0.627
 4820SOL     OW15358   0.026   3.129   2.430
 4820SOL    HW115359   6.985   3.137   2.506
 4820SOL    HW215360   0.089   3.207   2.431
 4821SOL     OW15361   6.983   5.687   2.854
 4821SOL    HW115362   7.003   5.697   2.757
 4821SOL    HW215363   6.979   5.776   2.897
 4822SOL     OW15364   1.922   4.008   4.514
 4822SOL    HW115365   2.002   4.050   4.556
 4822SOL    HW215366   1.942   3.913   4.491
 4823SOL     OW15367   1.967   3.304   1.174
 4823SOL    HW115368   1.869   3.296   1.193
 4823SOL    HW215369   2.009   3.213   1.178
 4824SOL     OW15370   6.188   1.348   5.899
 4824SOL    HW115371   6.213   1.392   5.986
 4824SOL    HW215372   6.223   1.255   5.899
 4825SOL     OW15373   1.818   6.914   4.216
 4825SOL    HW115374   1.856   6.824   4.193
 4825SOL    HW215375   1.877   6.959   4.284
 4826SOL     OW15376   3.982   0.574   1.562
 4826SOL    HW115377   4.028   0.613   1.642
 4826SOL    HW215378   3.891   0.540   1.590
 4827SOL     OW15379   6.857   1.853   0.793
 4827SOL    HW115380   6.789   1.789   0.758
 4827SOL    HW215381   6.940   1.847   0.737
 4828SOL     OW15382   4.846   0.943   4.267
 4828SOL    HW115383   4.863   0.846   4.284
 4828SOL    HW215384   4.812   0.986   4.350
 4829SOL     OW15385   4.443   6.936   4.675
 4829SOL    HW115386   4.499   6.900   4.750
 4829SOL    HW215387   4.377   6.866   4.647
 4830SOL     OW15388   2.910   6.090   2.951
 4830SOL    HW115389   2.918   6.116   3.048
 4830SOL    HW215390   2.845   6.151   2.906
 4831SOL     OW15391   3.060   4.723   5.227
 4831SOL    HW115392   3.002   4.647   5.195
 4831SOL    HW215393   3.018   4.766   5.306
 4832SOL     OW15394   3.508   3.469   4.507
 4832SOL    HW115395   3.561   3.488   4.425
 4832SOL    HW215396   3.553   3.509   4.586
 4833SOL     OW15397   6.219   3.659   4.395
 4833SOL    HW115398   6.205   3.756   4.413
 4833SOL    HW215399   6.241   3.612   4.480
 4834SOL     OW15400   0.972   5.127   1.508
 4834SOL    HW115401   0.877   5.159   1.505
 4834SOL    HW215402   1.023   5.183   1.575
 4835SOL     OW15403   6.924   2.313   5.379
 4835SOL    HW115404   6.914   2.405   5.341
 4835SOL    HW215405   6.845   2.258   5.353
 4836SOL     OW15406   4.937   1.268   5.887
 4836SOL    HW115407   4.880   1.229   5.959
 4836SOL    HW215408   5.012   1.205   5.866
 4837SOL     OW15409   0.298   3.989   3.914
 4837SOL    HW115410   0.279   4.049   3.836
 4837SOL    HW215411   0.318   4.043   3.995
 4838SOL     OW15412   2.730   3.895   6.229
 4838SOL    HW115413   2.759   3.937   6.143
 4838SOL    HW215414   2.803   3.903   6.297
 4839SOL     OW15415   2.563   1.507   0.853
 4839SOL    HW115416   2.542   1.447   0.929
 4839SOL    HW215417   2.596   1.453   0.775
 4840SOL     OW15418   5.942   4.156   4.229
 4840SOL    HW115419   6.005   4.186   4.157
 4840SOL    HW215420   5.936   4.056   4.229
 4841SOL     OW15421   3.446   6.444   3.143
 4841SOL    HW115422   3.424   6.346   3.139
 4841SOL    HW215423   3.425   6.479   3.234
 4842SOL     OW15424   3.502   5.340   3.197
 4842SOL    HW115425   3.474   5.434   3.219
 4842SOL    HW215426   3.590   5.320   3.240
 4843SOL     OW15427   0.391   2.230   0.735
 4843SOL    HW115428   0.305   2.190   0.766
 4843SOL    HW215429   0.373   2.308   0.674
 4844SOL     OW15430   2.031   5.290   5.660
 4844SOL    HW115431   1.943   5.283   5.707
 4844SOL    HW215432   2.016   5.326   5.567
 4845SOL     OW15433   4.946   3.757   4.868
 4845SOL    HW115434   4.973   3.720   4.778
 4845SOL    HW215435   4.905   3.684   4.923
 4846SOL     OW15436   6.551   3.732   4.527
 4846SOL    HW115437   6.471   3.783   4.493
 4846SOL    HW215438   6.524   3.637   4.544
 4847SOL     OW15439   2.824   6.192   6.096
 4847SOL    HW115440   2.922   6.212   6.097
 4847SOL    HW215441   2.780   6.240   6.173
 4848SOL     OW15442   3.626   0.897   4.358
 4848SOL    HW115443   3.584   0.908   4.268
 4848SOL    HW215444   3.718   0.936   4.356
 4849SOL     OW15445   2.265   6.872   1.529
 4849SOL    HW115446   2.230   6.906   1.441
 4849SOL    HW215447   2.239   6.775   1.539
 4850SOL     OW15448   4.067   0.146   0.799
 4850SOL    HW115449   3.998   0.218   0.791
 4850SOL    HW215450   4.043   0.085   0.875
 4851SOL     OW15451   3.838   4.560   6.679
 4851SOL    HW115452   3.755   4.529   6.634
 4851SOL    HW215453   3.821   4.647   6.726
 4852SOL     OW15454   5.387   5.051   5.175
 4852SOL    HW115455   5.397   5.092   5.265
 4852SOL    HW215456   5.366   5.123   5.108
 4853SOL     OW15457   4.025   6.758   2.505
 4853SOL    HW115458   4.064   6.849   2.487
 4853SOL    HW215459   3.933   6.769   2.542
 4854SOL     OW15460   5.096   6.869   1.660
 4854SOL    HW115461   5.107   6.781   1.614
 4854SOL    HW215462   5.184   6.917   1.660
 4855SOL     OW15463   5.342   4.856   5.986
 4855SOL    HW115464   5.416   4.790   5.995
 4855SOL    HW215465   5.321   4.871   5.890
 4856SOL     OW15466   0.733   3.657   2.703
 4856SOL    HW115467   0.818   3.606   2.716
 4856SOL    HW215468   0.675   3.608   2.637
 4857SOL     OW15469   2.254   2.474   5.278
 4857SOL    HW115470   2.249   2.567   5.243
 4857SOL    HW215471   2.337   2.463   5.332
 4858SOL     OW15472   1.035   6.159   4.917
 4858SOL    HW115473   1.083   6.088   4.865
 4858SOL    HW215474   1.098   6.202   4.982
 4859SOL     OW15475   0.274   6.393   2.704
 4859SOL    HW115476   0.319   6.314   2.663
 4859SOL    HW215477   0.223   6.443   2.634
 4860SOL     OW15478   4.644   5.250   1.328
 4860SOL    HW115479   4.661   5.348   1.315
 4860SOL    HW215480   4.714   5.212   1.389
 4861SOL     OW15481   0.282   3.912   6.165
 4861SOL    HW115482   0.361   3.944   6.113
 4861SOL    HW215483   0.264   3.816   6.142
 4862SOL     OW15484   2.264   5.540   5.005
 4862SOL    HW115485   2.287   5.581   4.917
 4862SOL    HW215486   2.273   5.609   5.077
 4863SOL     OW15487   4.922   2.411   2.698
 4863SOL    HW115488   4.906   2.312   2.700
 4863SOL    HW215489   4.933   2.445   2.791
 4864SOL     OW15490   1.553   1.120   1.084
 4864SOL    HW115491   1.635   1.064   1.078
 4864SOL    HW215492   1.548   1.163   1.175
 4865SOL     OW15493   3.951   5.878   5.249
 4865SOL    HW115494   3.908   5.897   5.338
 4865SOL    HW215495   3.955   5.780   5.234
 4866SOL     OW15496   0.261   4.451   2.055
 4866SOL    HW115497   0.205   4.454   2.137
 4866SOL    HW215498   0.358   4.456   2.080
 4867SOL     OW15499   4.815   5.457   3.518
 4867SOL    HW115500   4.822   5.537   3.578
 4867SOL    HW215501   4.724   5.416   3.528
 4868SOL     OW15502   1.358   6.631   1.755
 4868SOL    HW115503   1.282   6.573   1.784
 4868SOL    HW215504   1.431   6.628   1.824
 4869SOL     OW15505   6.380   1.425   1.166
 4869SOL    HW115506   6.416   1.438   1.073
 4869SOL    HW215507   6.456   1.408   1.229
 4870SOL     OW15508   6.694   0.443   1.156
 4870SOL    HW115509   6.732   0.425   1.065
 4870SOL    HW215510   6.738   0.381   1.222
 4871SOL     OW15511   0.867   3.392   4.287
 4871SOL    HW115512   0.877   3.467   4.221
 4871SOL    HW215513   0.954   3.378   4.335
 4872SOL     OW15514   0.939   0.388   3.901
 4872SOL    HW115515   1.017   0.409   3.842
 4872SOL    HW215516   0.936   0.453   3.977
 4873SOL     OW15517   1.146   5.944   4.770
 4873SOL    HW115518   1.242   5.918   4.775
 4873SOL    HW215519   1.121   5.962   4.675
 4874SOL     OW15520   5.221   3.226   3.600
 4874SOL    HW115521   5.125   3.211   3.575
 4874SOL    HW215522   5.279   3.159   3.554
 4875SOL     OW15523   6.015   2.873   6.859
 4875SOL    HW115524   6.109   2.890   6.887
 4875SOL    HW215525   6.014   2.827   6.771
 4876SOL     OW15526   0.355   1.657   6.844
 4876SOL    HW115527   0.450   1.630   6.855
 4876SOL    HW215528   0.331   1.657   6.747
 4877SOL     OW15529   6.449   1.883   0.927
 4877SOL    HW115530   6.498   1.836   1.001
 4877SOL    HW215531   6.373   1.826   0.896
 4878SOL     OW15532   6.320   2.029   1.762
 4878SOL    HW115533   6.288   2.124   1.764
 4878SOL    HW215534   6.253   1.971   1.808
 4879SOL     OW15535   4.394   6.100   3.088
 4879SOL    HW115536   4.309   6.060   3.121
 4879SOL    HW215537   4.379   6.144   3.000
 4880SOL     OW15538   6.185   2.403   6.567
 4880SOL    HW115539   6.206   2.318   6.519
 4880SOL    HW215540   6.086   2.416   6.573
 4881SOL     OW15541   2.706   5.711   6.708
 4881SOL    HW115542   2.688   5.793   6.763
 4881SOL    HW215543   2.702   5.630   6.767
 4882SOL     OW15544   5.094   0.489   6.225
 4882SOL    HW115545   5.139   0.481   6.314
 4882SOL    HW215546   5.121   0.412   6.167
 4883SOL     OW15547   6.364   5.849   0.772
 4883SOL    HW115548   6.391   5.943   0.795
 4883SOL    HW215549   6.422   5.785   0.822
 4884SOL     OW15550   3.652   6.562   1.985
 4884SOL    HW115551   3.668   6.597   1.893
 4884SOL    HW215552   3.606   6.632   2.039
 4885SOL     OW15553   2.210   6.986   2.654
 4885SOL    HW115554   2.126   6.964   2.703
 4885SOL    HW215555   2.225   0.061   2.657
 4886SOL     OW15556   6.332   0.643   6.157
 4886SOL    HW115557   6.303   0.696   6.237
 4886SOL    HW215558   6.345   0.705   6.079
 4887SOL     OW15559   0.507   2.168   5.095
 4887SOL    HW115560   0.586   2.223   5.068
 4887SOL    HW215561   0.433   2.228   5.125
 4888SOL     OW15562   2.966   5.442   1.756
 4888SOL    HW115563   2.957   5.456   1.854
 4888SOL    HW215564   3.029   5.511   1.719
 4889SOL     OW15565   1.345   2.849   6.740
 4889SOL    HW115566   1.408   2.776   6.711
 4889SOL    HW215567   1.391   2.909   6.805
 4890SOL     OW15568   1.255   0.282   4.801
 4890SOL    HW115569   1.257   0.304   4.703
 4890SOL    HW215570   1.167   0.310   4.839
 4891SOL     OW15571   1.184   3.665   0.791
 4891SOL    HW115572   1.161   3.755   0.829
 4891SOL    HW215573   1.283   3.658   0.781
 4892SOL     OW15574   1.816   5.964   1.338
 4892SOL    HW115575   1.827   5.949   1.240
 4892SOL    HW215576   1.759   6.045   1.352
 4893SOL     OW15577   0.900   3.464   6.343
 4893SOL    HW115578   0.997   3.452   6.365
 4893SOL    HW215579   0.890   3.531   6.270
 4894SOL     OW15580   1.917   1.589   3.401
 4894SOL    HW115581   1.999   1.532   3.410
 4894SOL    HW215582   1.841   1.548   3.452
 4895SOL     OW15583   6.039   4.150   6.971
 4895SOL    HW115584   6.118   4.168   0.005
 4895SOL    HW215585   6.008   4.056   6.985
 4896SOL     OW15586   4.446   5.653   3.454
 4896SOL    HW115587   4.444   5.620   3.548
 4896SOL    HW215588   4.504   5.593   3.399
 4897SOL     OW15589   2.665   5.768   5.869
 4897SOL    HW115590   2.603   5.722   5.805
 4897SOL    HW215591   2.632   5.860   5.887
 4898SOL     OW15592   5.833   2.420   4.986
 4898SOL    HW115593   5.895   2.350   4.949
 4898SOL    HW215594   5.747   2.419   4.935
 4899SOL     OW15595   5.345   4.183   4.733
 4899SOL    HW115596   5.249   4.200   4.756
 4899SOL    HW215597   5.403   4.246   4.784
 4900SOL     OW15598   0.972   6.647   5.039
 4900SOL    HW115599   0.883   6.667   4.997
 4900SOL    HW215600   0.978   6.692   5.128
 4901SOL     OW15601   1.031   6.290   2.962
 4901SOL    HW115602   1.117   6.314   2.918
 4901SOL    HW215603   1.029   6.192   2.980
 4902SOL     OW15604   3.016   4.752   1.838
 4902SOL    HW115605   3.114   4.737   1.854
 4902SOL    HW215606   2.966   4.667   1.856
 4903SOL     OW15607   5.391   6.020   5.957
 4903SOL    HW115608   5.453   6.007   5.879
 4903SOL    HW215609   5.384   6.117   5.978
 4904SOL     OW15610   3.598   5.991   3.362
 4904SOL    HW115611   3.509   6.003   3.407
 4904SOL    HW215612   3.613   6.067   3.299
 4905SOL     OW15613   6.368   3.302   3.435
 4905SOL    HW115614   6.351   3.203   3.436
 4905SOL    HW215615   6.411   3.328   3.349
 4906SOL     OW15616   5.506   0.819   1.551
 4906SOL    HW115617   5.454   0.736   1.571
 4906SOL    HW215618   5.445   0.888   1.512
 4907SOL     OW15619   2.408   1.533   2.224
 4907SOL    HW115620   2.476   1.545   2.152
 4907SOL    HW215621   2.454   1.533   2.313
 4908SOL     OW15622   3.587   5.747   6.892
 4908SOL    HW115623   3.598   5.787   6.983
 4908SOL    HW215624   3.504   5.782   6.850
 4909SOL     OW15625   6.387   6.937   5.595
 4909SOL    HW115626   6.347   6.932   5.503
 4909SOL    HW215627   6.330   6.886   5.659
 4910SOL     OW15628   6.422   0.420   6.300
 4910SOL    HW115629   6.398   0.503   6.250
 4910SOL    HW215630   6.521   0.417   6.315
 4911SOL     OW15631   0.488   2.890   6.060
 4911SOL    HW115632   0.584   2.910   6.042
 4911SOL    HW215633   0.449   2.963   6.116
 4912SOL     OW15634   2.623   2.401   2.173
 4912SOL    HW115635   2.717   2.387   2.141
 4912SOL    HW215636   2.613   2.360   2.264
 4913SOL     OW15637   2.941   3.273   2.449
 4913SOL    HW115638   2.936   3.287   2.548
 4913SOL    HW215639   3.037   3.272   2.420
 4914SOL     OW15640   1.394   6.280   3.218
 4914SOL    HW115641   1.350   6.248   3.302
 4914SOL    HW215642   1.341   6.251   3.139
 4915SOL     OW15643   3.199   6.184   3.330
 4915SOL    HW115644   3.245   6.130   3.259
 4915SOL    HW215645   3.103   6.197   3.306
 4916SOL     OW15646   2.150   1.790   2.539
 4916SOL    HW115647   2.231   1.758   2.588
 4916SOL    HW215648   2.078   1.721   2.544
 4917SOL     OW15649   2.265   5.149   7.008
 4917SOL    HW115650   2.237   5.221   6.943
 4917SOL    HW215651   2.332   5.186   0.048
 4918SOL     OW15652   2.281   0.225   2.687
 4918SOL    HW115653   2.231   0.267   2.612
 4918SOL    HW215654   2.362   0.279   2.707
 4919SOL     OW15655   2.637   3.164   1.536
 4919SOL    HW115656   2.590   3.076   1.528
 4919SOL    HW215657   2.583   3.226   1.593
 4920SOL     OW15658   4.279   0.863   0.337
 4920SOL    HW115659   4.326   0.777   0.318
 4920SOL    HW215660   4.180   0.849   0.332
 4921SOL     OW15661   1.477   4.619   1.948
 4921SOL    HW115662   1.418   4.595   2.025
 4921SOL    HW215663   1.532   4.699   1.972
 4922SOL     OW15664   0.941   2.841   5.691
 4922SOL    HW115665   0.853   2.797   5.707
 4922SOL    HW215666   0.989   2.853   5.778
 4923SOL     OW15667   3.488   1.927   0.671
 4923SOL    HW115668   3.428   2.007   0.674
 4923SOL    HW215669   3.518   1.905   0.764
 4924SOL     OW15670   0.386   3.734   4.590
 4924SOL    HW115671   0.413   3.695   4.502
 4924SOL    HW215672   0.290   3.762   4.586
 4925SOL     OW15673   5.061   5.631   6.316
 4925SOL    HW115674   5.077   5.543   6.271
 4925SOL    HW215675   4.996   5.618   6.391
 4926SOL     OW15676   3.989   2.576   1.669
 4926SOL    HW115677   4.060   2.634   1.630
 4926SOL    HW215678   3.957   2.511   1.600
 4927SOL     OW15679   3.781   3.791   2.896
 4927SOL    HW115680   3.814   3.742   2.977
 4927SOL    HW215681   3.859   3.824   2.843
 4928SOL     OW15682   0.153   6.507   0.832
 4928SOL    HW115683   0.056   6.504   0.853
 4928SOL    HW215684   0.186   6.414   0.812
 4929SOL     OW15685   0.980   4.782   4.038
 4929SOL    HW115686   1.007   4.834   3.957
 4929SOL    HW215687   1.058   4.772   4.100
 4930SOL     OW15688   6.923   2.138   0.743
 4930SOL    HW115689   6.867   2.062   0.777
 4930SOL    HW215690   6.881   2.224   0.768
 4931SOL     OW15691   0.201   0.544   1.294
 4931SOL    HW115692   0.170   0.585   1.380
 4931SOL    HW215693   0.176   0.447   1.292
 4932SOL     OW15694   4.021   2.159   0.884
 4932SOL    HW115695   4.112   2.134   0.852
 4932SOL    HW215696   4.026   2.247   0.931
 4933SOL     OW15697   2.992   0.720   5.290
 4933SOL    HW115698   2.993   0.655   5.365
 4933SOL    HW215699   2.898   0.742   5.265
 4934SOL     OW15700   1.446   6.229   5.189
 4934SOL    HW115701   1.440   6.130   5.176
 4934SOL    HW215702   1.518   6.250   5.255
 4935SOL     OW15703   1.529   1.006   0.588
 4935SOL    HW115704   1.521   0.907   0.602
 4935SOL    HW215705   1.484   1.054   0.663
 4936SOL     OW15706   4.162   5.996   0.612
 4936SOL    HW115707   4.233   5.936   0.648
 4936SOL    HW215708   4.179   6.014   0.515
 4937SOL     OW15709   1.086   3.001   6.162
 4937SOL    HW115710   1.130   2.952   6.238
 4937SOL    HW215711   1.044   3.085   6.197
 4938SOL     OW15712   3.199   4.866   1.474
 4938SOL    HW115713   3.198   4.773   1.510
 4938SOL    HW215714   3.235   4.928   1.544
 4939SOL     OW15715   1.129   1.627   1.994
 4939SOL    HW115716   1.073   1.675   2.061
 4939SOL    HW215717   1.129   1.678   1.907
 4940SOL     OW15718   7.002   2.059   5.105
 4940SOL    HW115719   6.947   2.019   5.178
 4940SOL    HW215720   0.036   1.987   5.065
 4941SOL     OW15721   4.413   1.817   5.617
 4941SOL    HW115722   4.432   1.719   5.615
 4941SOL    HW215723   4.494   1.866   5.651
 4942SOL     OW15724   0.436   1.372   3.095
 4942SOL    HW115725   0.442   1.359   3.194
 4942SOL    HW215726   0.443   1.469   3.073
 4943SOL     OW15727   4.976   3.100   6.671
 4943SOL    HW115728   5.019   3.179   6.714
 4943SOL    HW215729   4.964   3.117   6.573
 4944SOL     OW15730   0.857   5.028   0.132
 4944SOL    HW115731   0.788   5.016   0.204
 4944SOL    HW215732   0.894   5.121   0.137
 4945SOL     OW15733   2.075   0.616   5.205
 4945SOL    HW115734   2.169   0.648   5.211
 4945SOL    HW215735   2.066   0.527   5.249
 4946SOL     OW15736   3.091   5.178   6.980
 4946SOL    HW115737   3.078   5.173   6.881
 4946SOL    HW215738   3.184   5.209   7.000
 4947SOL     OW15739   1.245   0.791   1.799
 4947SOL    HW115740   1.299   0.716   1.837
 4947SOL    HW215741   1.208   0.847   1.873
 4948SOL     OW15742   1.667   2.226   1.619
 4948SOL    HW115743   1.634   2.250   1.710
 4948SOL    HW215744   1.751   2.172   1.627
 4949SOL     OW15745   0.007   4.617   6.765
 4949SOL    HW115746   0.056   4.683   6.708
 4949SOL    HW215747   0.009   4.527   6.721
 4950SOL     OW15748   3.470   4.232   5.879
 4950SOL    HW115749   3.475   4.143   5.924
 4950SOL    HW215750   3.461   4.218   5.780
 4951SOL     OW15751   5.339   5.402   3.326
 4951SOL    HW115752   5.269   5.384   3.257
 4951SOL    HW215753   5.332   5.497   3.356
 4952SOL     OW15754   0.610   0.177   6.369
 4952SOL    HW115755   0.590   0.255   6.309
 4952SOL    HW215756   0.539   0.170   6.439
 4953SOL     OW15757   1.048   2.130   4.709
 4953SOL    HW115758   1.057   2.227   4.689
 4953SOL    HW215759   0.961   2.096   4.672
 4954SOL     OW15760   3.174   3.951   4.524
 4954SOL    HW115761   3.147   3.857   4.542
 4954SOL    HW215762   3.246   3.978   4.589
 4955SOL     OW15763   3.904   5.440   5.369
 4955SOL    HW115764   3.804   5.451   5.368
 4955SOL    HW215765   3.944   5.488   5.291
 4956SOL     OW15766   2.866   0.133   5.134
 4956SOL    HW115767   2.772   0.151   5.103
 4956SOL    HW215768   2.930   0.188   5.080
 4957SOL     OW15769   6.131   4.626   6.511
 4957SOL    HW115770   6.128   4.687   6.432
 4957SOL    HW215771   6.097   4.536   6.486
 4958SOL     OW15772   3.914   6.394   0.369
 4958SOL    HW115773   3.819   6.377   0.341
 4958SOL    HW215774   3.918   6.400   0.469
 4959SOL     OW15775   0.386   2.107   3.066
 4959SOL    HW115776   0.331   2.025   3.047
 4959SOL    HW215777   0.483   2.084   3.057
 4960SOL     OW15778   4.449   4.582   4.111
 4960SOL    HW115779   4.450   4.648   4.187
 4960SOL    HW215780   4.501   4.619   4.034
 4961SOL     OW15781   3.309   1.832   1.058
 4961SOL    HW115782   3.318   1.777   1.141
 4961SOL    HW215783   3.400   1.851   1.021
 4962SOL     OW15784   1.285   4.195   0.935
 4962SOL    HW115785   1.340   4.278   0.947
 4962SOL    HW215786   1.265   4.156   1.024
 4963SOL     OW15787   0.847   3.804   6.306
 4963SOL    HW115788   0.860   3.903   6.316
 4963SOL    HW215789   0.858   3.779   6.210
 4964SOL     OW15790   2.629   6.396   4.711
 4964SOL    HW115791   2.538   6.359   4.696
 4964SOL    HW215792   2.633   6.490   4.677
 4965SOL     OW15793   1.313   5.992   3.192
 4965SOL    HW115794   1.315   5.910   3.249
 4965SOL    HW215795   1.383   6.056   3.223
 4966SOL     OW15796   3.051   6.687   4.307
 4966SOL    HW115797   2.980   6.667   4.239
 4966SOL    HW215798   3.008   6.714   4.393
 4967SOL     OW15799   4.410   4.813   4.951
 4967SOL    HW115800   4.501   4.853   4.958
 4967SOL    HW215801   4.417   4.714   4.953
 4968SOL     OW15802   6.733   2.387   3.177
 4968SOL    HW115803   6.641   2.358   3.155
 4968SOL    HW215804   6.747   2.481   3.145
 4969SOL     OW15805   0.638   6.329   3.811
 4969SOL    HW115806   0.659   6.257   3.744
 4969SOL    HW215807   0.608   6.287   3.897
 4970SOL     OW15808   0.896   1.758   1.285
 4970SOL    HW115809   0.936   1.809   1.209
 4970SOL    HW215810   0.805   1.726   1.260
 4971SOL     OW15811   6.921   6.093   2.643
 4971SOL    HW115812   6.967   6.129   2.561
 4971SOL    HW215813   6.930   6.159   2.718
 4972SOL     OW15814   0.687   4.577   0.900
 4972SOL    HW115815   0.673   4.645   0.973
 4972SOL    HW215816   0.700   4.624   0.813
 4973SOL     OW15817   6.624   1.377   0.842
 4973SOL    HW115818   6.550   1.444   0.847
 4973SOL    HW215819   6.687   1.393   0.918
 4974SOL     OW15820   3.579   6.158   5.051
 4974SOL    HW115821   3.626   6.246   5.063
 4974SOL    HW215822   3.503   6.169   4.986
 4975SOL     OW15823   5.018   4.771   0.844
 4975SOL    HW115824   5.051   4.710   0.772
 4975SOL    HW215825   4.975   4.718   0.916
 4976SOL     OW15826   1.942   6.806   2.852
 4976SOL    HW115827   1.916   6.804   2.948
 4976SOL    HW215828   1.944   6.713   2.816
 4977SOL     OW15829   1.608   4.539   5.894
 4977SOL    HW115830   1.675   4.544   5.821
 4977SOL    HW215831   1.516   4.543   5.855
 4978SOL     OW15832   5.000   4.867   4.859
 4978SOL    HW115833   4.920   4.808   4.874
 4978SOL    HW215834   5.040   4.847   4.769
 4979SOL     OW15835   2.726   6.782   5.987
 4979SOL    HW115836   2.765   6.708   6.042
 4979SOL    HW215837   2.658   6.744   5.924
 4980SOL     OW15838   5.308   3.679   3.754
 4980SOL    HW115839   5.268   3.753   3.808
 4980SOL    HW215840   5.275   3.685   3.660
 4981SOL     OW15841   3.224   4.869   2.642
 4981SOL    HW115842   3.129   4.895   2.625
 4981SOL    HW215843   3.279   4.885   2.560
 4982SOL     OW15844   4.149   1.627   5.698
 4982SOL    HW115845   4.216   1.683   5.747
 4982SOL    HW215846   4.186   1.601   5.609
 4983SOL     OW15847   5.683   5.734   3.089
 4983SOL    HW115848   5.605   5.795   3.100
 4983SOL    HW215849   5.754   5.780   3.035
 4984SOL     OW15850   4.830   4.129   3.127
 4984SOL    HW115851   4.873   4.114   3.038
 4984SOL    HW215852   4.888   4.093   3.199
 4985SOL     OW15853   5.294   6.784   2.500
 4985SOL    HW115854   5.235   6.856   2.538
 4985SOL    HW215855   5.368   6.765   2.565
 4986SOL     OW15856   0.882   5.464   2.102
 4986SOL    HW115857   0.899   5.560   2.123
 4986SOL    HW215858   0.934   5.406   2.165
 4987SOL     OW15859   0.999   0.987   2.505
 4987SOL    HW115860   1.083   1.034   2.479
 4987SOL    HW215861   0.972   0.924   2.431
 4988SOL     OW15862   6.194   6.496   3.452
 4988SOL    HW115863   6.200   6.397   3.456
 4988SOL    HW215864   6.241   6.535   3.531
 4989SOL     OW15865   4.770   0.179   3.321
 4989SOL    HW115866   4.749   0.144   3.412
 4989SOL    HW215867   4.792   0.103   3.260
 4990SOL     OW15868   4.680   2.523   4.613
 4990SOL    HW115869   4.602   2.489   4.560
 4990SOL    HW215870   4.717   2.449   4.669
 4991SOL     OW15871   1.511   4.870   5.593
 4991SOL    HW115872   1.568   4.951   5.577
 4991SOL    HW215873   1.456   4.884   5.675
 4992SOL     OW15874   0.485   2.914   3.801
 4992SOL    HW115875   0.419   2.850   3.842
 4992SOL    HW215876   0.543   2.952   3.873
 4993SOL     OW15877   3.020   6.430   3.966
 4993SOL    HW115878   2.998   6.364   4.037
 4993SOL    HW215879   3.100   6.398   3.915
 4994SOL     OW15880   3.465   4.387   5.393
 4994SOL    HW115881   3.377   4.428   5.370
 4994SOL    HW215882   3.536   4.457   5.394
 4995SOL     OW15883   0.592   0.130   5.777
 4995SOL    HW115884   0.532   0.050   5.769
 4995SOL    HW215885   0.687   0.101   5.768
 4996SOL     OW15886   6.865   1.510   4.184
 4996SOL    HW115887   6.964   1.517   4.184
 4996SOL    HW215888   6.837   1.428   4.235
 4997SOL     OW15889   3.902   1.781   1.295
 4997SOL    HW115890   3.962   1.792   1.374
 4997SOL    HW215891   3.862   1.869   1.270
 4998SOL     OW15892   0.447   3.564   3.229
 4998SOL    HW115893   0.435   3.641   3.292
 4998SOL    HW215894   0.392   3.578   3.148
 4999SOL     OW15895   0.665   3.444   4.495
 4999SOL    HW115896   0.723   3.445   4.414
 4999SOL    HW215897   0.640   3.349   4.516
 5000SOL     OW15898   3.248   5.462   2.836
 5000SOL    HW115899   3.346   5.442   2.837
 5000SOL    HW215900   3.221   5.501   2.924
 5001SOL     OW15901   0.446   5.788   3.348
 5001SOL    HW115902   0.514   5.736   3.297
 5001SOL    HW215903   0.462   5.776   3.446
 5002SOL     OW15904   0.762   3.344   3.509
 5002SOL    HW115905   0.679   3.351   3.563
 5002SOL    HW215906   0.798   3.250   3.514
 5003SOL     OW15907   4.128   0.818   3.616
 5003SOL    HW115908   4.068   0.750   3.574
 5003SOL    HW215909   4.200   0.771   3.667
 5004SOL     OW15910   2.705   5.306   6.667
 5004SOL    HW115911   2.634   5.271   6.729
 5004SOL    HW215912   2.770   5.361   6.719
 5005SOL     OW15913   3.056   2.401   0.270
 5005SOL    HW115914   3.104   2.395   0.358
 5005SOL    HW215915   2.970   2.350   0.276
 5006SOL     OW15916   4.435   1.340   1.573
 5006SOL    HW115917   4.398   1.254   1.608
 5006SOL    HW215918   4.533   1.330   1.554
 5007SOL     OW15919   5.940   6.416   1.758
 5007SOL    HW115920   5.846   6.385   1.748
 5007SOL    HW215921   5.944   6.492   1.822
 5008SOL     OW15922   5.409   6.670   2.289
 5008SOL    HW115923   5.360   6.717   2.363
 5008SOL    HW215924   5.377   6.576   2.283
 5009SOL     OW15925   6.574   2.215   1.336
 5009SOL    HW115926   6.610   2.134   1.382
 5009SOL    HW215927   6.598   2.297   1.389
 5010SOL     OW15928   3.625   3.797   1.085
 5010SOL    HW115929   3.636   3.698   1.079
 5010SOL    HW215930   3.582   3.831   1.002
 5011SOL     OW15931   2.411   3.310   6.630
 5011SOL    HW115932   2.477   3.289   6.558
 5011SOL    HW215933   2.446   3.278   6.718
 5012SOL     OW15934   6.311   1.930   5.586
 5012SOL    HW115935   6.289   2.026   5.570
 5012SOL    HW215936   6.387   1.923   5.651
 5013SOL     OW15937   5.551   6.916   5.790
 5013SOL    HW115938   5.470   6.955   5.833
 5013SOL    HW215939   5.525   6.873   5.704
 5014SOL     OW15940   6.378   3.444   1.892
 5014SOL    HW115941   6.397   3.480   1.984
 5014SOL    HW215942   6.384   3.344   1.894
 5015SOL     OW15943   5.627   6.396   3.857
 5015SOL    HW115944   5.634   6.454   3.775
 5015SOL    HW215945   5.647   6.301   3.832
 5016SOL     OW15946   2.171   3.598   5.734
 5016SOL    HW115947   2.181   3.656   5.653
 5016SOL    HW215948   2.089   3.542   5.725
 5017SOL     OW15949   0.244   3.303   1.729
 5017SOL    HW115950   0.271   3.378   1.790
 5017SOL    HW215951   0.325   3.249   1.705
 5018SOL     OW15952   0.706   0.219   1.223
 5018SOL    HW115953   0.667   0.284   1.288
 5018SOL    HW215954   0.633   0.159   1.188
 5019SOL     OW15955   1.389   5.024   5.316
 5019SOL    HW115956   1.331   4.951   5.279
 5019SOL    HW215957   1.451   4.987   5.385
 5020SOL     OW15958   2.298   6.543   4.340
 5020SOL    HW115959   2.269   6.466   4.283
 5020SOL    HW215960   2.242   6.546   4.423
 5021SOL     OW15961   1.575   1.424   0.784
 5021SOL    HW115962   1.604   1.345   0.730
 5021SOL    HW215963   1.632   1.431   0.866
 5022SOL     OW15964   6.719   3.106   1.472
 5022SOL    HW115965   6.783   3.174   1.507
 5022SOL    HW215966   6.768   3.038   1.418
 5023SOL     OW15967   6.880   4.373   2.491
 5023SOL    HW115968   6.859   4.386   2.588
 5023SOL    HW215969   6.970   4.331   2.482
 5024SOL     OW15970   4.542   3.562   1.422
 5024SOL    HW115971   4.596   3.580   1.504
 5024SOL    HW215972   4.480   3.485   1.439
 5025SOL     OW15973   3.950   1.176   3.963
 5025SOL    HW115974   4.046   1.166   3.937
 5025SOL    HW215975   3.924   1.272   3.957
 5026SOL     OW15976   4.093   0.072   4.797
 5026SOL    HW115977   4.000   0.101   4.818
 5026SOL    HW215978   4.094   6.998   4.777
 5027SOL     OW15979   5.259   6.958   0.095
 5027SOL    HW115980   5.355   6.987   0.092
 5027SOL    HW215981   5.216   6.981   0.008
 5028SOL     OW15982   6.994   1.742   2.978
 5028SOL    HW115983   6.994   1.788   3.067
 5028SOL    HW215984   0.035   1.666   2.980
 5029SOL     OW15985   6.212   1.676   3.042
 5029SOL    HW115986   6.169   1.588   3.060
 5029SOL    HW215987   6.241   1.718   3.128
 5030SOL     OW15988   0.190   4.746   6.544
 5030SOL    HW115989   0.196   4.845   6.527
 5030SOL    HW215990   0.249   4.722   6.621
 5031SOL     OW15991   6.905   6.817   6.618
 5031SOL    HW115992   6.872   6.734   6.573
 5031SOL    HW215993   6.848   6.895   6.590
 5032SOL     OW15994   2.706   3.281   5.474
 5032SOL    HW115995   2.700   3.343   5.396
 5032SOL    HW215996   2.714   3.186   5.442
 5033SOL     OW15997   2.104   0.910   0.141
 5033SOL    HW115998   2.038   0.861   0.198
 5033SOL    HW215999   2.056   0.954   0.066
 5034SOL     OW16000   4.274   6.491   4.031
 5034SOL    HW116001   4.235   6.437   3.957
 5034SOL    HW216002   4.204   6.552   4.069
 5035SOL     OW16003   1.909   3.917   3.862
 5035SOL    HW116004   1.812   3.918   3.836
 5035SOL    HW216005   1.960   3.981   3.804
 5036SOL     OW16006   6.583   2.483   5.402
 5036SOL    HW116007   6.635   2.475   5.488
 5036SOL    HW216008   6.488   2.504   5.422
 5037SOL     OW16009   4.319   4.191   1.163
 5037SOL    HW116010   4.358   4.126   1.228
 5037SOL    HW216011   4.328   4.154   1.070
 5038SOL     OW16012   3.639   3.843   4.048
 5038SOL    HW116013   3.588   3.799   3.974
 5038SOL    HW216014   3.708   3.779   4.083
 5039SOL     OW16015   0.489   3.459   6.661
 5039SOL    HW116016   0.529   3.442   6.571
 5039SOL    HW216017   0.561   3.457   6.731
 5040SOL     OW16018   0.370   6.523   6.237
 5040SOL    HW116019   0.464   6.526   6.272
 5040SOL    HW216020   0.369   6.475   6.150
 5041SOL     OW16021   6.938   3.455   2.170
 5041SOL    HW116022   6.947   3.503   2.083
 5041SOL    HW216023   6.925   3.521   2.244
 5042SOL     OW16024   0.526   2.610   6.202
 5042SOL    HW116025   0.444   2.657   6.169
 5042SOL    HW216026   0.547   2.533   6.141
 5043SOL     OW16027   3.714   6.514   1.087
 5043SOL    HW116028   3.632   6.546   1.041
 5043SOL    HW216029   3.737   6.422   1.056
 5044SOL     OW16030   6.071   5.140   0.978
 5044SOL    HW116031   6.135   5.091   1.037
 5044SOL    HW216032   6.120   5.213   0.929
 5045SOL     OW16033   6.438   3.435   6.482
 5045SOL    HW116034   6.441   3.475   6.390
 5045SOL    HW216035   6.467   3.504   6.549
 5046SOL     OW16036   3.573   3.227   3.407
 5046SOL    HW116037   3.595   3.131   3.424
 5046SOL    HW216038   3.570   3.244   3.308
 5047SOL     OW16039   0.997   3.463   3.151
 5047SOL    HW116040   0.929   3.396   3.181
 5047SOL    HW216041   0.998   3.541   3.213
 5048SOL     OW16042   1.819   1.400   5.868
 5048SOL    HW116043   1.733   1.432   5.908
 5048SOL    HW216044   1.892   1.464   5.890
 5049SOL     OW16045   5.695   0.883   6.213
 5049SOL    HW116046   5.749   0.964   6.236
 5049SOL    HW216047   5.728   0.844   6.127
 5050SOL     OW16048   1.438   0.465   1.150
 5050SOL    HW116049   1.394   0.548   1.117
 5050SOL    HW216050   1.435   0.395   1.079
 5051SOL     OW16051   3.806   5.160   1.234
 5051SOL    HW116052   3.862   5.120   1.161
 5051SOL    HW216053   3.779   5.088   1.298
 5052SOL     OW16054   2.647   1.066   5.723
 5052SOL    HW116055   2.703   1.100   5.799
 5052SOL    HW216056   2.591   0.989   5.755
 5053SOL     OW16057   0.368   0.209   2.234
 5053SOL    HW116058   0.310   0.230   2.154
 5053SOL    HW216059   0.372   0.289   2.293
 5054SOL     OW16060   3.959   4.924   4.405
 5054SOL    HW116061   3.964   4.993   4.478
 5054SOL    HW216062   3.864   4.912   4.377
 5055SOL     OW16063   6.270   3.035   6.387
 5055SOL    HW116064   6.335   3.075   6.452
 5055SOL    HW216065   6.177   3.044   6.423
 5056SOL     OW16066   5.281   4.006   4.994
 5056SOL    HW116067   5.232   3.975   4.912
 5056SOL    HW216068   5.226   4.074   5.042
 5057SOL     OW16069   1.089   6.548   2.763
 5057SOL    HW116070   1.001   6.542   2.810
 5057SOL    HW216071   1.144   6.467   2.783
 5058SOL     OW16072   3.043   4.873   5.739
 5058SOL    HW116073   3.132   4.830   5.723
 5058SOL    HW216074   3.056   4.955   5.795
 5059SOL     OW16075   0.953   0.566   2.124
 5059SOL    HW116076   0.952   0.502   2.200
 5059SOL    HW216077   0.859   0.583   2.094
 5060SOL     OW16078   6.604   2.195   5.632
 5060SOL    HW116079   6.621   2.107   5.676
 5060SOL    HW216080   6.623   2.268   5.697
 5061SOL     OW16081   5.643   4.159   0.162
 5061SOL    HW116082   5.565   4.209   0.126
 5061SOL    HW216083   5.722   4.221   0.169
 5062SOL     OW16084   0.516   0.026   1.106
 5062SOL    HW116085   0.432   6.995   1.114
 5062SOL    HW216086   0.595   6.994   1.131
 5063SOL     OW16087   1.120   6.519   1.869
 5063SOL    HW116088   1.089   6.587   1.935
 5063SOL    HW216089   1.124   6.429   1.913
 5064SOL     OW16090   4.714   3.300   6.789
 5064SOL    HW116091   4.664   3.291   6.703
 5064SOL    HW216092   4.706   3.215   6.841
 5065SOL     OW16093   2.201   6.457   5.771
 5065SOL    HW116094   2.123   6.503   5.729
 5065SOL    HW216095   2.259   6.418   5.700
 5066SOL     OW16096   5.622   4.925   1.277
 5066SOL    HW116097   5.551   4.855   1.265
 5066SOL    HW216098   5.581   5.015   1.268
 5067SOL     OW16099   5.300   1.077   0.309
 5067SOL    HW116100   5.248   1.052   0.390
 5067SOL    HW216101   5.395   1.096   0.335
 5068SOL     OW16102   2.854   5.257   1.089
 5068SOL    HW116103   2.812   5.345   1.111
 5068SOL    HW216104   2.842   5.195   1.166
 5069SOL     OW16105   0.822   4.281   3.326
 5069SOL    HW116106   0.776   4.280   3.415
 5069SOL    HW216107   0.856   4.190   3.305
 5070SOL     OW16108   5.373   2.991   3.570
 5070SOL    HW116109   5.395   3.005   3.666
 5070SOL    HW216110   5.316   2.910   3.559
 5071SOL     OW16111   4.546   1.372   6.850
 5071SOL    HW116112   4.590   1.459   6.874
 5071SOL    HW216113   4.612   1.298   6.861
 5072SOL     OW16114   1.611   4.128   1.398
 5072SOL    HW116115   1.641   4.127   1.493
 5072SOL    HW216116   1.512   4.142   1.394
 5073SOL     OW16117   4.157   1.291   3.477
 5073SOL    HW116118   4.103   1.235   3.541
 5073SOL    HW216119   4.099   1.361   3.437
 5074SOL     OW16120   2.933   3.961   6.385
 5074SOL    HW116121   3.016   3.905   6.386
 5074SOL    HW216122   2.953   4.049   6.341
 5075SOL     OW16123   0.358   5.502   4.586
 5075SOL    HW116124   0.386   5.500   4.491
 5075SOL    HW216125   0.426   5.455   4.642
 5076SOL     OW16126   3.239   0.037   1.235
 5076SOL    HW116127   3.266   6.977   1.188
 5076SOL    HW216128   3.315   0.069   1.292
 5077SOL     OW16129   6.967   2.037   2.644
 5077SOL    HW116130   6.932   2.124   2.610
 5077SOL    HW216131   0.018   2.054   2.708
 5078SOL     OW16132   1.114   1.609   3.887
 5078SOL    HW116133   1.178   1.551   3.837
 5078SOL    HW216134   1.024   1.605   3.843
 5079SOL     OW16135   3.579   5.462   5.115
 5079SOL    HW116136   3.647   5.426   5.051
 5079SOL    HW216137   3.601   5.433   5.208
 5080SOL     OW16138   5.762   6.811   5.921
 5080SOL    HW116139   5.699   6.870   5.871
 5080SOL    HW216140   5.841   6.865   5.951
 5081SOL     OW16141   3.436   3.386   3.644
 5081SOL    HW116142   3.470   3.468   3.597
 5081SOL    HW216143   3.425   3.312   3.577
 5082SOL     OW16144   5.993   5.865   4.881
 5082SOL    HW116145   6.067   5.846   4.816
 5082SOL    HW216146   6.005   5.807   4.962
 5083SOL     OW16147   2.120   5.948   1.979
 5083SOL    HW116148   2.198   5.894   2.009
 5083SOL    HW216149   2.037   5.913   2.023
 5084SOL     OW16150   1.722   5.834   3.801
 5084SOL    HW116151   1.801   5.892   3.782
 5084SOL    HW216152   1.741   5.779   3.883
 5085SOL     OW16153   6.386   2.534   6.314
 5085SOL    HW116154   6.416   2.629   6.304
 5085SOL    HW216155   6.307   2.530   6.376
 5086SOL     OW16156   6.576   5.245   3.394
 5086SOL    HW116157   6.568   5.335   3.437
 5086SOL    HW216158   6.617   5.254   3.304
 5087SOL     OW16159   0.215   5.612   5.780
 5087SOL    HW116160   0.130   5.583   5.736
 5087SOL    HW216161   0.199   5.623   5.878
 5088SOL     OW16162   5.728   0.233   6.581
 5088SOL    HW116163   5.676   0.154   6.614
 5088SOL    HW216164   5.684   0.270   6.499
 5089SOL     OW16165   5.481   3.676   3.350
 5089SOL    HW116166   5.413   3.609   3.322
 5089SOL    HW216167   5.563   3.666   3.293
 5090SOL     OW16168   1.416   4.916   0.879
 5090SOL    HW116169   1.435   4.908   0.977
 5090SOL    HW216170   1.408   5.012   0.855
 5091SOL     OW16171   1.410   5.879   2.885
 5091SOL    HW116172   1.401   5.957   2.948
 5091SOL    HW216173   1.386   5.795   2.934
 5092SOL     OW16174   3.748   2.748   1.630
 5092SOL    HW116175   3.712   2.822   1.686
 5092SOL    HW216176   3.814   2.695   1.682
 5093SOL     OW16177   0.657   2.383   1.433
 5093SOL    HW116178   0.618   2.372   1.341
 5093SOL    HW216179   0.635   2.475   1.466
 5094SOL     OW16180   0.083   0.313   6.231
 5094SOL    HW116181   0.039   0.255   6.300
 5094SOL    HW216182   0.074   0.270   6.141
 5095SOL     OW16183   2.490   6.791   5.420
 5095SOL    HW116184   2.395   6.809   5.396
 5095SOL    HW216185   2.542   6.877   5.418
 5096SOL     OW16186   4.415   5.126   1.234
 5096SOL    HW116187   4.498   5.179   1.250
 5096SOL    HW216188   4.424   5.037   1.280
 5097SOL     OW16189   1.151   0.532   6.239
 5097SOL    HW116190   1.173   0.450   6.292
 5097SOL    HW216191   1.053   0.532   6.218
 5098SOL     OW16192   0.320   1.832   2.956
 5098SOL    HW116193   0.282   1.878   2.875
 5098SOL    HW216194   0.399   1.777   2.929
 5099SOL     OW16195   1.067   0.300   5.267
 5099SOL    HW116196   1.073   0.337   5.174
 5099SOL    HW216197   1.051   0.375   5.331
 5100SOL     OW16198   4.977   6.931   5.945
 5100SOL    HW116199   4.974   7.012   6.003
 5100SOL    HW216200   5.060   6.934   5.888
 5101SOL     OW16201   4.081   6.154   0.294
 5101SOL    HW116202   4.175   6.150   0.329
 5101SOL    HW216203   4.051   6.249   0.292
 5102SOL     OW16204   3.502   6.578   5.130
 5102SOL    HW116205   3.549   6.508   5.076
 5102SOL    HW216206   3.463   6.535   5.212
 5103SOL     OW16207   1.142   0.903   4.409
 5103SOL    HW116208   1.218   0.895   4.474
 5103SOL    HW216209   1.146   0.827   4.344
 5104SOL     OW16210   1.264   0.086   1.288
 5104SOL    HW116211   1.338   0.063   1.352
 5104SOL    HW216212   1.186   0.121   1.340
 5105SOL     OW16213   2.868   3.791   6.627
 5105SOL    HW116214   2.858   3.691   6.628
 5105SOL    HW216215   2.895   3.820   6.536
 5106SOL     OW16216   3.321   0.271   2.101
 5106SOL    HW116217   3.270   0.281   2.016
 5106SOL    HW216218   3.382   0.192   2.095
 5107SOL     OW16219   1.628   6.790   5.668
 5107SOL    HW116220   1.658   6.885   5.677
 5107SOL    HW216221   1.529   6.788   5.654
 5108SOL     OW16222   3.178   3.562   4.075
 5108SOL    HW116223   3.181   3.635   4.006
 5108SOL    HW216224   3.198   3.474   4.031
 5109SOL     OW16225   6.879   1.352   1.314
 5109SOL    HW116226   6.916   1.261   1.333
 5109SOL    HW216227   6.887   1.409   1.395
 5110SOL     OW16228   2.039   5.686   5.783
 5110SOL    HW116229   2.054   5.740   5.701
 5110SOL    HW216230   2.083   5.730   5.861
 5111SOL     OW16231   1.350   1.124   0.749
 5111SOL    HW116232   1.302   1.053   0.801
 5111SOL    HW216233   1.382   1.195   0.812
 5112SOL     OW16234   0.277   6.365   3.796
 5112SOL    HW116235   0.255   6.301   3.723
 5112SOL    HW216236   0.192   6.404   3.833
 5113SOL     OW16237   1.216   6.874   6.835
 5113SOL    HW116238   1.228   6.876   6.736
 5113SOL    HW216239   1.118   6.871   6.856
 5114SOL     OW16240   4.142   4.908   0.137
 5114SOL    HW116241   4.115   4.839   0.205
 5114SOL    HW216242   4.090   4.992   0.151
 5115SOL     OW16243   1.856   3.522   5.513
 5115SOL    HW116244   1.762   3.542   5.542
 5115SOL    HW216245   1.894   3.602   5.466
 5116SOL     OW16246   0.111   3.813   1.025
 5116SOL    HW116247   0.209   3.821   1.040
 5116SOL    HW216248   0.094   3.744   0.955
 5117SOL     OW16249   2.398   4.452   4.342
 5117SOL    HW116250   2.417   4.413   4.432
 5117SOL    HW216251   2.474   4.512   4.315
 5118SOL     OW16252   4.505   6.284   0.842
 5118SOL    HW116253   4.478   6.372   0.881
 5118SOL    HW216254   4.604   6.284   0.827
 5119SOL     OW16255   5.780   6.877   2.137
 5119SOL    HW116256   5.866   6.839   2.171
 5119SOL    HW216257   5.737   6.932   2.209
 5120SOL     OW16258   5.009   1.517   2.557
 5120SOL    HW116259   4.937   1.563   2.506
 5120SOL    HW216260   5.011   1.420   2.533
 5121SOL     OW16261   0.382   4.077   5.337
 5121SOL    HW116262   0.397   4.159   5.392
 5121SOL    HW216263   0.284   4.062   5.325
 5122SOL     OW16264   1.635   6.536   3.778
 5122SOL    HW116265   1.698   6.610   3.800
 5122SOL    HW216266   1.674   6.479   3.706
 5123SOL     OW16267   5.416   4.573   2.222
 5123SOL    HW116268   5.386   4.617   2.307
 5123SOL    HW216269   5.395   4.633   2.144
 5124SOL     OW16270   2.801   6.048   6.997
 5124SOL    HW116271   2.878   5.988   7.020
 5124SOL    HW216272   2.824   6.143   7.019
 5125SOL     OW16273   6.917   2.547   5.851
 5125SOL    HW116274   6.999   2.547   5.907
 5125SOL    HW216275   6.860   2.469   5.875
 5126SOL     OW16276   5.149   3.328   6.093
 5126SOL    HW116277   5.207   3.375   6.026
 5126SOL    HW216278   5.106   3.396   6.153
 5127SOL     OW16279   5.823   2.524   6.306
 5127SOL    HW116280   5.880   2.499   6.227
 5127SOL    HW216281   5.813   2.623   6.310
 5128SOL     OW16282   0.965   0.825   6.880
 5128SOL    HW116283   1.054   0.791   6.910
 5128SOL    HW216284   0.893   0.770   6.922
 5129SOL     OW16285   4.157   2.206   2.366
 5129SOL    HW116286   4.192   2.113   2.378
 5129SOL    HW216287   4.083   2.223   2.430
 5130SOL     OW16288   0.970   6.360   4.737
 5130SOL    HW116289   1.005   6.276   4.778
 5130SOL    HW216290   0.895   6.396   4.792
 5131SOL     OW16291   3.332   4.901   3.433
 5131SOL    HW116292   3.363   4.829   3.371
 5131SOL    HW216293   3.403   4.920   3.501
 5132SOL     OW16294   3.174   1.154   6.885
 5132SOL    HW116295   3.258   1.100   6.880
 5132SOL    HW216296   3.114   1.130   6.809
 5133SOL     OW16297   5.078   4.274   6.710
 5133SOL    HW116298   4.987   4.317   6.708
 5133SOL    HW216299   5.133   4.317   6.781
 5134SOL     OW16300   6.289   6.233   1.007
 5134SOL    HW116301   6.356   6.287   1.058
 5134SOL    HW216302   6.200   6.279   1.010
 5135SOL     OW16303   6.678   2.890   2.914
 5135SOL    HW116304   6.654   2.885   2.817
 5135SOL    HW216305   6.597   2.914   2.967
 5136SOL     OW16306   1.342   1.237   5.956
 5136SOL    HW116307   1.272   1.244   6.027
 5136SOL    HW216308   1.300   1.250   5.866
 5137SOL     OW16309   6.269   1.025   4.494
 5137SOL    HW116310   6.182   1.063   4.464
 5137SOL    HW216311   6.259   0.984   4.584
 5138SOL     OW16312   3.036   3.268   3.873
 5138SOL    HW116313   3.130   3.292   3.898
 5138SOL    HW216314   2.982   3.256   3.956
 5139SOL     OW16315   2.655   0.479   5.964
 5139SOL    HW116316   2.653   0.579   5.973
 5139SOL    HW216317   2.733   0.443   6.015
 5140SOL     OW16318   3.764   3.356   6.738
 5140SOL    HW116319   3.827   3.279   6.733
 5140SOL    HW216320   3.800   3.433   6.684
 5141SOL     OW16321   6.899   3.012   1.840
 5141SOL    HW116322   6.916   2.916   1.863
 5141SOL    HW216323   6.981   3.066   1.856
 5142SOL     OW16324   0.111   0.230   2.448
 5142SOL    HW116325   0.144   0.312   2.401
 5142SOL    HW216326   0.096   0.251   2.544
 5143SOL     OW16327   6.950   6.679   2.543
 5143SOL    HW116328   6.910   6.747   2.482
 5143SOL    HW216329   6.888   6.601   2.552
 5144SOL     OW16330   2.316   2.995   5.388
 5144SOL    HW116331   2.384   3.002   5.315
 5144SOL    HW216332   2.266   2.909   5.379
 5145SOL     OW16333   2.378   5.198   6.406
 5145SOL    HW116334   2.358   5.100   6.402
 5145SOL    HW216335   2.390   5.225   6.502
 5146SOL     OW16336   5.396   5.722   6.631
 5146SOL    HW116337   5.388   5.806   6.577
 5146SOL    HW216338   5.402   5.644   6.569
 5147SOL     OW16339   4.469   2.504   3.240
 5147SOL    HW116340   4.514   2.496   3.151
 5147SOL    HW216341   4.521   2.566   3.299
 5148SOL     OW16342   0.945   0.222   6.247
 5148SOL    HW116343   0.893   0.265   6.173
 5148SOL    HW216344   0.891   0.148   6.287
 5149SOL     OW16345   4.799   4.997   4.216
 5149SOL    HW116346   4.844   5.034   4.135
 5149SOL    HW216347   4.700   5.009   4.208
 5150SOL     OW16348   0.065   6.499   3.906
 5150SOL    HW116349   0.037   6.560   3.832
 5150SOL    HW216350   0.050   6.544   3.994
 5151SOL     OW16351   6.067   5.645   2.585
 5151SOL    HW116352   5.989   5.684   2.634
 5151SOL    HW216353   6.138   5.715   2.575
 5152SOL     OW16354   1.873   1.078   0.254
 5152SOL    HW116355   1.792   1.130   0.227
 5152SOL    HW216356   1.885   1.086   0.353
 5153SOL     OW16357   1.017   1.772   0.643
 5153SOL    HW116358   0.996   1.861   0.603
 5153SOL    HW216359   0.979   1.767   0.736
 5154SOL     OW16360   6.806   2.894   0.839
 5154SOL    HW116361   6.824   2.953   0.760
 5154SOL    HW216362   6.747   2.819   0.811
 5155SOL     OW16363   1.769   1.457   0.199
 5155SOL    HW116364   1.822   1.493   0.122
 5155SOL    HW216365   1.785   1.515   0.280
 5156SOL     OW16366   5.316   6.174   5.273
 5156SOL    HW116367   5.413   6.175   5.296
 5156SOL    HW216368   5.263   6.153   5.355
 5157SOL     OW16369   3.371   0.081   1.825
 5157SOL    HW116370   3.363   7.015   1.866
 5157SOL    HW216371   3.283   0.129   1.829
 5158SOL     OW16372   1.558   2.000   1.415
 5158SOL    HW116373   1.526   2.091   1.442
 5158SOL    HW216374   1.561   1.941   1.495
 5159SOL     OW16375   6.506   2.938   5.772
 5159SOL    HW116376   6.468   2.993   5.846
 5159SOL    HW216377   6.464   2.964   5.686
 5160SOL     OW16378   6.155   7.009   3.690
 5160SOL    HW116379   6.189   6.978   3.600
 5160SOL    HW216380   6.168   0.084   3.697
 5161SOL     OW16381   1.788   3.367   0.318
 5161SOL    HW116382   1.852   3.444   0.312
 5161SOL    HW216383   1.786   3.332   0.412
 5162SOL     OW16384   6.497   0.284   3.858
 5162SOL    HW116385   6.537   0.238   3.938
 5162SOL    HW216386   6.543   0.253   3.775
 5163SOL     OW16387   2.958   0.561   1.993
 5163SOL    HW116388   3.018   0.636   1.967
 5163SOL    HW216389   2.863   0.586   1.974
 5164SOL     OW16390   2.937   3.581   6.894
 5164SOL    HW116391   2.892   3.550   6.810
 5164SOL    HW216392   2.995   3.508   6.929
 5165SOL     OW16393   1.834   4.286   6.507
 5165SOL    HW116394   1.752   4.231   6.523
 5165SOL    HW216395   1.911   4.245   6.555
 5166SOL     OW16396   1.092   5.243   0.841
 5166SOL    HW116397   1.002   5.212   0.812
 5166SOL    HW216398   1.107   5.219   0.937
 5167SOL     OW16399   5.541   3.373   5.218
 5167SOL    HW116400   5.498   3.286   5.193
 5167SOL    HW216401   5.471   3.444   5.226
 5168SOL     OW16402   4.448   2.120   2.757
 5168SOL    HW116403   4.503   2.071   2.688
 5168SOL    HW216404   4.457   2.073   2.845
 5169SOL     OW16405   3.974   5.861   4.429
 5169SOL    HW116406   3.910   5.925   4.384
 5169SOL    HW216407   4.059   5.909   4.451
 5170SOL     OW16408   1.854   3.218   6.741
 5170SOL    HW116409   1.897   3.134   6.707
 5170SOL    HW216410   1.907   3.297   6.711
 5171SOL     OW16411   1.913   5.939   6.020
 5171SOL    HW116412   1.966   5.862   6.056
 5171SOL    HW216413   1.815   5.921   6.032
 5172SOL     OW16414   6.023   5.550   5.269
 5172SOL    HW116415   5.989   5.565   5.176
 5172SOL    HW216416   5.961   5.488   5.318
 5173SOL     OW16417   4.186   4.762   5.892
 5173SOL    HW116418   4.270   4.799   5.851
 5173SOL    HW216419   4.136   4.711   5.823
 5174SOL     OW16420   1.988   6.447   3.879
 5174SOL    HW116421   2.038   6.379   3.825
 5174SOL    HW216422   1.901   6.408   3.910
 5175SOL     OW16423   3.181   3.121   6.957
 5175SOL    HW116424   3.152   3.217   6.949
 5175SOL    HW216425   3.104   3.065   6.988
 5176SOL     OW16426   5.912   6.387   6.715
 5176SOL    HW116427   6.008   6.380   6.688
 5176SOL    HW216428   5.861   6.437   6.644
 5177SOL     OW16429   6.343   7.001   0.342
 5177SOL    HW116430   6.381   6.909   0.332
 5177SOL    HW216431   6.282   7.003   0.421
 5178SOL     OW16432   1.084   4.196   1.387
 5178SOL    HW116433   1.070   4.098   1.374
 5178SOL    HW216434   1.028   4.228   1.463
 5179SOL     OW16435   5.162   6.137   2.477
 5179SOL    HW116436   5.242   6.079   2.459
 5179SOL    HW216437   5.108   6.097   2.551
 5180SOL     OW16438   2.144   6.176   2.828
 5180SOL    HW116439   2.105   6.115   2.896
 5180SOL    HW216440   2.236   6.145   2.803
 5181SOL     OW16441   6.961   0.052   6.202
 5181SOL    HW116442   6.938   0.016   6.112
 5181SOL    HW216443   6.891   0.117   6.231
 5182SOL     OW16444   2.978   6.542   3.475
 5182SOL    HW116445   2.884   6.510   3.493
 5182SOL    HW216446   3.012   6.499   3.392
 5183SOL     OW16447   4.242   1.834   3.702
 5183SOL    HW116448   4.278   1.859   3.612
 5183SOL    HW216449   4.210   1.916   3.749
 5184SOL     OW16450   2.902   1.266   3.740
 5184SOL    HW116451   2.814   1.231   3.709
 5184SOL    HW216452   2.939   1.330   3.673
 5185SOL     OW16453   6.614   0.357   1.616
 5185SOL    HW116454   6.663   0.271   1.602
 5185SOL    HW216455   6.554   0.374   1.538
 5186SOL     OW16456   6.685   3.869   6.736
 5186SOL    HW116457   6.672   3.953   6.682
 5186SOL    HW216458   6.664   3.790   6.679
 5187SOL     OW16459   1.129   4.455   4.838
 5187SOL    HW116460   1.144   4.475   4.935
 5187SOL    HW216461   1.205   4.493   4.784
 5188SOL     OW16462   5.635   0.043   2.767
 5188SOL    HW116463   5.661   6.979   2.807
 5188SOL    HW216464   5.593   0.027   2.677
 5189SOL     OW16465   5.325   0.014   6.184
 5189SOL    HW116466   5.237   0.010   6.231
 5189SOL    HW216467   5.398   7.008   6.246
 5190SOL     OW16468   1.906   4.335   0.273
 5190SOL    HW116469   1.994   4.379   0.258
 5190SOL    HW216470   1.874   4.354   0.365
 5191SOL     OW16471   2.756   4.956   1.632
 5191SOL    HW116472   2.809   5.027   1.586
 5191SOL    HW216473   2.668   4.994   1.663
 5192SOL     OW16474   1.864   5.069   2.464
 5192SOL    HW116475   1.848   5.163   2.433
 5192SOL    HW216476   1.918   5.070   2.548
 5193SOL     OW16477   5.493   0.671   5.534
 5193SOL    HW116478   5.530   0.578   5.526
 5193SOL    HW216479   5.394   0.665   5.548
 5194SOL     OW16480   5.142   1.107   6.243
 5194SOL    HW116481   5.112   1.198   6.273
 5194SOL    HW216482   5.241   1.108   6.228
 5195SOL     OW16483   0.286   0.888   5.040
 5195SOL    HW116484   0.364   0.834   5.070
 5195SOL    HW216485   0.202   0.835   5.055
 5196SOL     OW16486   6.050   6.678   3.253
 5196SOL    HW116487   6.076   6.584   3.275
 5196SOL    HW216488   5.964   6.678   3.203
 5197SOL     OW16489   0.900   3.335   4.734
 5197SOL    HW116490   0.948   3.414   4.772
 5197SOL    HW216491   0.825   3.365   4.676
 5198SOL     OW16492   5.683   5.418   3.527
 5198SOL    HW116493   5.769   5.406   3.575
 5198SOL    HW216494   5.698   5.475   3.446
 5199SOL     OW16495   0.612   4.594   1.968
 5199SOL    HW116496   0.599   4.691   1.948
 5199SOL    HW216497   0.635   4.545   1.884
 5200SOL     OW16498   7.011   3.647   4.447
 5200SOL    HW116499   0.058   3.687   4.505
 5200SOL    HW216500   6.967   3.571   4.495
 5201SOL     OW16501   0.891   4.969   4.428
 5201SOL    HW116502   0.932   4.887   4.467
 5201SOL    HW216503   0.962   5.036   4.409
 5202SOL     OW16504   0.967   4.948   1.947
 5202SOL    HW116505   0.868   4.952   1.929
 5202SOL    HW216506   1.004   4.865   1.906
 5203SOL     OW16507   0.557   3.126   0.159
 5203SOL    HW116508   0.655   3.138   0.147
 5203SOL    HW216509   0.521   3.065   0.089
 5204SOL     OW16510   4.920   4.001   0.049
 5204SOL    HW116511   4.959   4.060   0.120
 5204SOL    HW216512   4.897   4.056   6.992
 5205SOL     OW16513   1.647   7.019   1.187
 5205SOL    HW116514   1.669   6.925   1.160
 5205SOL    HW216515   1.552   0.015   1.166
 5206SOL     OW16516   0.251   4.278   4.923
 5206SOL    HW116517   0.338   4.229   4.910
 5206SOL    HW216518   0.237   4.341   4.846
 5207SOL     OW16519   1.730   4.637   4.130
 5207SOL    HW116520   1.719   4.541   4.102
 5207SOL    HW216521   1.641   4.673   4.159
 5208SOL     OW16522   4.417   1.211   0.030
 5208SOL    HW116523   4.325   1.205   0.068
 5208SOL    HW216524   4.414   1.258   6.966
 5209SOL     OW16525   5.490   5.921   3.097
 5209SOL    HW116526   5.398   5.881   3.092
 5209SOL    HW216527   5.495   6.002   3.038
 5210SOL     OW16528   4.286   4.657   3.408
 5210SOL    HW116529   4.358   4.659   3.477
 5210SOL    HW216530   4.316   4.603   3.329
 5211SOL     OW16531   3.689   3.702   2.492
 5211SOL    HW116532   3.620   3.630   2.494
 5211SOL    HW216533   3.643   3.791   2.494
 5212SOL     OW16534   0.811   1.501   0.182
 5212SOL    HW116535   0.733   1.482   0.241
 5212SOL    HW216536   0.893   1.517   0.238
 5213SOL     OW16537   3.987   2.004   6.545
 5213SOL    HW116538   4.072   1.951   6.548
 5213SOL    HW216539   3.919   1.955   6.491
 5214SOL     OW16540   5.745   1.777   6.370
 5214SOL    HW116541   5.705   1.867   6.388
 5214SOL    HW216542   5.787   1.777   6.279
 5215SOL     OW16543   5.253   5.333   2.519
 5215SOL    HW116544   5.282   5.349   2.613
 5215SOL    HW216545   5.159   5.366   2.507
 5216SOL     OW16546   4.810   5.878   0.811
 5216SOL    HW116547   4.778   5.806   0.750
 5216SOL    HW216548   4.748   5.884   0.890
 5217SOL     OW16549   2.835   4.767   3.952
 5217SOL    HW116550   2.740   4.787   3.975
 5217SOL    HW216551   2.847   4.771   3.853
 5218SOL     OW16552   1.610   0.014   4.528
 5218SOL    HW116553   1.687   0.062   4.485
 5218SOL    HW216554   1.626   6.939   4.524
 5219SOL     OW16555   2.364   5.565   0.257
 5219SOL    HW116556   2.314   5.605   0.180
 5219SOL    HW216557   2.356   5.624   0.336
 5220SOL     OW16558   0.548   6.496   2.595
 5220SOL    HW116559   0.499   6.469   2.678
 5220SOL    HW216560   0.613   6.569   2.618
 5221SOL     OW16561   4.971   1.290   5.221
 5221SOL    HW116562   4.899   1.290   5.153
 5221SOL    HW216563   4.996   1.385   5.244
 5222SOL     OW16564   1.291   0.362   2.547
 5222SOL    HW116565   1.326   0.322   2.462
 5222SOL    HW216566   1.306   0.299   2.623
 5223SOL     OW16567   5.166   6.959   1.346
 5223SOL    HW116568   5.168   0.033   1.363
 5223SOL    HW216569   5.242   6.915   1.393
 5224SOL     OW16570   5.631   1.446   2.736
 5224SOL    HW116571   5.657   1.391   2.657
 5224SOL    HW216572   5.602   1.386   2.810
 5225SOL     OW16573   5.484   5.972   5.699
 5225SOL    HW116574   5.463   6.060   5.657
 5225SOL    HW216575   5.414   5.905   5.671
 5226SOL     OW16576   1.341   6.586   4.259
 5226SOL    HW116577   1.265   6.647   4.283
 5226SOL    HW216578   1.381   6.615   4.172
 5227SOL     OW16579   6.013   4.812   3.105
 5227SOL    HW116580   5.923   4.831   3.145
 5227SOL    HW216581   6.082   4.813   3.177
 5228SOL     OW16582   5.764   1.084   1.128
 5228SOL    HW116583   5.701   1.024   1.177
 5228SOL    HW216584   5.855   1.043   1.127
 5229SOL     OW16585   0.916   4.289   4.862
 5229SOL    HW116586   0.947   4.212   4.805
 5229SOL    HW216587   0.981   4.365   4.852
 5230SOL     OW16588   0.957   6.603   6.893
 5230SOL    HW116589   0.994   6.516   6.925
 5230SOL    HW216590   0.949   6.667   6.969
 5231SOL     OW16591   3.831   3.256   3.815
 5231SOL    HW116592   3.924   3.280   3.790
 5231SOL    HW216593   3.817   3.158   3.803
 5232SOL     OW16594   4.725   2.892   6.109
 5232SOL    HW116595   4.742   2.896   6.208
 5232SOL    HW216596   4.629   2.910   6.092
 5233SOL     OW16597   0.628   0.611   2.392
 5233SOL    HW116598   0.681   0.660   2.323
 5233SOL    HW216599   0.684   0.536   2.430
 5234SOL     OW16600   3.583   6.487   1.343
 5234SOL    HW116601   3.489   6.499   1.311
 5234SOL    HW216602   3.646   6.507   1.268
 5235SOL     OW16603   0.702   3.396   1.323
 5235SOL    HW116604   0.787   3.347   1.304
 5235SOL    HW216605   0.650   3.407   1.238
 5236SOL     OW16606   5.188   2.909   0.824
 5236SOL    HW116607   5.236   2.856   0.894
 5236SOL    HW216608   5.095   2.930   0.856
 5237SOL     OW16609   2.523   1.805   4.754
 5237SOL    HW116610   2.488   1.778   4.664
 5237SOL    HW216611   2.616   1.841   4.745
 5238SOL     OW16612   1.849   4.242   1.067
 5238SOL    HW116613   1.788   4.294   1.007
 5238SOL    HW216614   1.800   4.216   1.151
 5239SOL     OW16615   2.994   3.590   5.060
 5239SOL    HW116616   2.960   3.529   4.988
 5239SOL    HW216617   2.936   3.671   5.065
 5240SOL     OW16618   3.241   2.086   4.916
 5240SOL    HW116619   3.220   2.172   4.962
 5240SOL    HW216620   3.217   2.009   4.975
 5241SOL     OW16621   2.122   5.479   6.140
 5241SOL    HW116622   2.200   5.438   6.188
 5241SOL    HW216623   2.096   5.421   6.062
 5242SOL     OW16624   5.393   1.223   6.195
 5242SOL    HW116625   5.418   1.242   6.290
 5242SOL    HW216626   5.378   1.310   6.147
 5243SOL     OW16627   1.066   4.637   1.220
 5243SOL    HW116628   1.058   4.620   1.122
 5243SOL    HW216629   1.053   4.552   1.271
 5244SOL     OW16630   5.627   3.966   6.442
 5244SOL    HW116631   5.676   3.990   6.358
 5244SOL    HW216632   5.587   4.047   6.483
 5245SOL     OW16633   5.431   4.037   6.865
 5245SOL    HW116634   5.466   3.974   6.934
 5245SOL    HW216635   5.335   4.015   6.846
 5246SOL     OW16636   0.986   3.044   2.798
 5246SOL    HW116637   0.914   3.019   2.863
 5246SOL    HW216638   1.065   3.081   2.848
 5247SOL     OW16639   0.645   5.147   1.516
 5247SOL    HW116640   0.589   5.201   1.578
 5247SOL    HW216641   0.586   5.093   1.456
 5248SOL     OW16642   4.624   0.937   6.645
 5248SOL    HW116643   4.626   0.877   6.566
 5248SOL    HW216644   4.534   0.980   6.652
 5249SOL     OW16645   1.309   5.480   5.087
 5249SOL    HW116646   1.340   5.416   5.157
 5249SOL    HW216647   1.214   5.460   5.063
 5250SOL     OW16648   0.519   0.923   6.012
 5250SOL    HW116649   0.548   0.938   5.918
 5250SOL    HW216650   0.593   0.948   6.074
 5251SOL     OW16651   6.936   2.920   1.315
 5251SOL    HW116652   6.937   2.830   1.271
 5251SOL    HW216653   6.977   2.913   1.405
 5252SOL     OW16654   3.939   5.716   0.403
 5252SOL    HW116655   3.887   5.671   0.331
 5252SOL    HW216656   3.918   5.674   0.491
 5253SOL     OW16657   5.594   3.169   3.690
 5253SOL    HW116658   5.690   3.141   3.686
 5253SOL    HW216659   5.536   3.087   3.696
 5254SOL     OW16660   4.700   1.158   3.902
 5254SOL    HW116661   4.626   1.225   3.912
 5254SOL    HW216662   4.754   1.155   3.987
 5255SOL     OW16663   3.530   6.648   4.550
 5255SOL    HW116664   3.535   6.553   4.518
 5255SOL    HW216665   3.478   6.652   4.635
 5256SOL     OW16666   5.894   6.649   3.594
 5256SOL    HW116667   5.949   6.610   3.520
 5256SOL    HW216668   5.954   6.693   3.661
 5257SOL     OW16669   3.344   1.236   1.422
 5257SOL    HW116670   3.277   1.307   1.443
 5257SOL    HW216671   3.431   1.257   1.468
 5258SOL     OW16672   6.378   2.514   1.972
 5258SOL    HW116673   6.468   2.523   2.015
 5258SOL    HW216674   6.351   2.602   1.933
 5259SOL     OW16675   4.582   4.979   2.637
 5259SOL    HW116676   4.641   4.900   2.647
 5259SOL    HW216677   4.612   5.034   2.559
 5260SOL     OW16678   5.364   3.375   1.542
 5260SOL    HW116679   5.352   3.466   1.582
 5260SOL    HW216680   5.275   3.331   1.531
 5261SOL     OW16681   1.893   2.624   4.576
 5261SOL    HW116682   1.945   2.554   4.527
 5261SOL    HW216683   1.950   2.706   4.588
 5262SOL     OW16684   2.675   6.550   2.303
 5262SOL    HW116685   2.671   6.617   2.377
 5262SOL    HW216686   2.597   6.488   2.309
 5263SOL     OW16687   0.920   6.257   0.281
 5263SOL    HW116688   0.893   6.249   0.377
 5263SOL    HW216689   0.879   6.340   0.242
 5264SOL     OW16690   0.566   2.640   0.818
 5264SOL    HW116691   0.544   2.601   0.729
 5264SOL    HW216692   0.646   2.593   0.857
 5265SOL     OW16693   5.023   5.033   2.017
 5265SOL    HW116694   5.022   4.939   2.052
 5265SOL    HW216695   4.977   5.036   1.928
 5266SOL     OW16696   1.871   6.814   1.027
 5266SOL    HW116697   1.835   6.809   0.933
 5266SOL    HW216698   1.901   6.907   1.046
 5267SOL     OW16699   5.272   4.685   4.585
 5267SOL    HW116700   5.185   4.735   4.588
 5267SOL    HW216701   5.265   4.608   4.522
 5268SOL     OW16702   6.052   4.709   4.037
 5268SOL    HW116703   6.104   4.748   3.960
 5268SOL    HW216704   6.030   4.781   4.102
 5269SOL     OW16705   1.598   5.818   4.371
 5269SOL    HW116706   1.667   5.888   4.357
 5269SOL    HW216707   1.590   5.762   4.288
 5270SOL     OW16708   6.603   2.607   2.454
 5270SOL    HW116709   6.543   2.637   2.380
 5270SOL    HW216710   6.581   2.658   2.537
 5271SOL     OW16711   4.707   4.921   4.937
 5271SOL    HW116712   4.769   4.956   5.007
 5271SOL    HW216713   4.718   4.975   4.853
 5272SOL     OW16714   1.516   1.091   4.515
 5272SOL    HW116715   1.451   1.029   4.558
 5272SOL    HW216716   1.609   1.062   4.537
 5273SOL     OW16717   0.606   0.998   3.987
 5273SOL    HW116718   0.654   0.987   3.900
 5273SOL    HW216719   0.656   1.061   4.046
 5274SOL     OW16720   6.635   5.073   3.771
 5274SOL    HW116721   6.627   5.168   3.803
 5274SOL    HW216722   6.679   5.018   3.842
 5275SOL     OW16723   2.335   0.028   6.872
 5275SOL    HW116724   2.268   0.085   6.922
 5275SOL    HW216725   2.304   6.957   6.873
 5276SOL     OW16726   0.234   6.555   1.169
 5276SOL    HW116727   0.219   6.640   1.118
 5276SOL    HW216728   0.183   6.480   1.125
 5277SOL     OW16729   1.110   1.946   2.819
 5277SOL    HW116730   1.205   1.958   2.791
 5277SOL    HW216731   1.053   1.937   2.738
 5278SOL     OW16732   1.384   4.962   5.815
 5278SOL    HW116733   1.419   5.056   5.814
 5278SOL    HW216734   1.286   4.964   5.836
 5279SOL     OW16735   2.222   5.847   6.331
 5279SOL    HW116736   2.254   5.764   6.377
 5279SOL    HW216737   2.301   5.901   6.302
 5280SOL     OW16738   4.068   6.236   4.964
 5280SOL    HW116739   4.120   6.299   5.021
 5280SOL    HW216740   3.985   6.209   5.012
 5281SOL     OW16741   2.470   0.693   4.782
 5281SOL    HW116742   2.379   0.660   4.757
 5281SOL    HW216743   2.513   0.736   4.702
 5282SOL     OW16744   1.490   6.997   1.528
 5282SOL    HW116745   1.508   0.060   1.575
 5282SOL    HW216746   1.574   6.944   1.521
 5283SOL     OW16747   0.819   0.887   4.707
 5283SOL    HW116748   0.742   0.846   4.757
 5283SOL    HW216749   0.822   0.850   4.614
 5284SOL     OW16750   4.540   2.631   1.150
 5284SOL    HW116751   4.514   2.575   1.228
 5284SOL    HW216752   4.482   2.713   1.147
 5285SOL     OW16753   1.329   2.095   4.452
 5285SOL    HW116754   1.336   2.135   4.543
 5285SOL    HW216755   1.234   2.098   4.421
 5286SOL     OW16756   6.205   3.501   0.850
 5286SOL    HW116757   6.144   3.502   0.929
 5286SOL    HW216758   6.151   3.510   0.766
 5287SOL     OW16759   2.301   5.505   1.393
 5287SOL    HW116760   2.229   5.501   1.323
 5287SOL    HW216761   2.381   5.453   1.361
 5288SOL     OW16762   3.749   0.355   1.948
 5288SOL    HW116763   3.746   0.356   2.048
 5288SOL    HW216764   3.844   0.350   1.918
 5289SOL     OW16765   2.227   4.903   6.670
 5289SOL    HW116766   2.273   4.814   6.661
 5289SOL    HW216767   2.211   4.941   6.579
 5290SOL     OW16768   1.657   2.913   5.407
 5290SOL    HW116769   1.608   2.909   5.494
 5290SOL    HW216770   1.654   2.823   5.363
 5291SOL     OW16771   2.882   4.821   4.814
 5291SOL    HW116772   2.853   4.809   4.719
 5291SOL    HW216773   2.846   4.745   4.870
 5292SOL     OW16774   6.815   4.149   5.954
 5292SOL    HW116775   6.724   4.114   5.934
 5292SOL    HW216776   6.823   4.169   6.051
 5293SOL     OW16777   2.042   5.895   4.631
 5293SOL    HW116778   1.955   5.863   4.668
 5293SOL    HW216779   2.059   5.852   4.543
 5294SOL     OW16780   3.606   0.668   5.043
 5294SOL    HW116781   3.542   0.608   5.090
 5294SOL    HW216782   3.684   0.615   5.010
 5295SOL     OW16783   2.717   1.470   2.222
 5295SOL    HW116784   2.706   1.554   2.170
 5295SOL    HW216785   2.756   1.491   2.312
 5296SOL     OW16786   4.833   4.920   1.332
 5296SOL    HW116787   4.872   4.845   1.278
 5296SOL    HW216788   4.793   4.882   1.416
 5297SOL     OW16789   2.438   4.919   0.687
 5297SOL    HW116790   2.534   4.935   0.713
 5297SOL    HW216791   2.395   4.860   0.755
 5298SOL     OW16792   2.305   0.728   0.710
 5298SOL    HW116793   2.261   0.782   0.638
 5298SOL    HW216794   2.400   0.711   0.686
 5299SOL     OW16795   2.919   1.890   0.507
 5299SOL    HW116796   2.951   1.879   0.414
 5299SOL    HW216797   2.843   1.828   0.525
 5300SOL     OW16798   2.155   4.410   0.173
 5300SOL    HW116799   2.224   4.351   0.215
 5300SOL    HW216800   2.127   4.371   0.085
 5301SOL     OW16801   5.206   0.676   5.592
 5301SOL    HW116802   5.130   0.683   5.528
 5301SOL    HW216803   5.212   0.583   5.628
 5302SOL     OW16804   5.552   5.897   3.376
 5302SOL    HW116805   5.501   5.978   3.402
 5302SOL    HW216806   5.559   5.892   3.276
 5303SOL     OW16807   0.173   5.097   5.807
 5303SOL    HW116808   0.258   5.149   5.818
 5303SOL    HW216809   0.095   5.158   5.816
 5304SOL     OW16810   6.871   0.567   1.565
 5304SOL    HW116811   6.883   0.604   1.473
 5304SOL    HW216812   6.805   0.492   1.562
 5305SOL     OW16813   1.418   4.952   2.937
 5305SOL    HW116814   1.327   4.919   2.961
 5305SOL    HW216815   1.478   4.946   3.016
 5306SOL     OW16816   6.863   3.660   5.861
 5306SOL    HW116817   6.773   3.702   5.849
 5306SOL    HW216818   6.852   3.565   5.888
 5307SOL     OW16819   5.621   2.442   1.547
 5307SOL    HW116820   5.670   2.427   1.633
 5307SOL    HW216821   5.566   2.525   1.553
 5308SOL     OW16822   1.343   4.481   2.899
 5308SOL    HW116823   1.384   4.404   2.948
 5308SOL    HW216824   1.277   4.447   2.833
 5309SOL     OW16825   5.752   6.458   2.748
 5309SOL    HW116826   5.688   6.436   2.674
 5309SOL    HW216827   5.777   6.555   2.743
 5310SOL     OW16828   6.177   3.028   2.848
 5310SOL    HW116829   6.194   3.067   2.757
 5310SOL    HW216830   6.081   3.044   2.873
 5311SOL     OW16831   5.965   0.185   0.718
 5311SOL    HW116832   5.940   0.131   0.637
 5311SOL    HW216833   5.989   0.278   0.690
 5312SOL     OW16834   6.812   6.507   0.712
 5312SOL    HW116835   6.872   6.563   0.655
 5312SOL    HW216836   6.827   6.410   0.691
 5313SOL     OW16837   0.356   4.957   5.406
 5313SOL    HW116838   0.360   5.005   5.318
 5313SOL    HW216839   0.267   4.974   5.448
 5314SOL     OW16840   6.373   0.596   1.492
 5314SOL    HW116841   6.352   0.524   1.426
 5314SOL    HW216842   6.459   0.641   1.466
 5315SOL     OW16843   4.252   1.393   3.808
 5315SOL    HW116844   4.165   1.441   3.810
 5315SOL    HW216845   4.313   1.435   3.740
 5316SOL     OW16846   0.634   2.698   5.190
 5316SOL    HW116847   0.610   2.601   5.190
 5316SOL    HW216848   0.687   2.719   5.108
 5317SOL     OW16849   6.810   1.883   6.073
 5317SOL    HW116850   6.796   1.841   5.984
 5317SOL    HW216851   6.859   1.818   6.133
 5318SOL     OW16852   6.706   2.757   0.039
 5318SOL    HW116853   6.738   2.676   7.015
 5318SOL    HW216854   6.675   2.731   0.130
 5319SOL     OW16855   4.178   6.696   1.273
 5319SOL    HW116856   4.237   6.739   1.205
 5319SOL    HW216857   4.150   6.765   1.341
 5320SOL     OW16858   3.378   5.785   1.114
 5320SOL    HW116859   3.304   5.819   1.055
 5320SOL    HW216860   3.411   5.859   1.172
 5321SOL     OW16861   1.701   4.298   5.020
 5321SOL    HW116862   1.798   4.323   5.026
 5321SOL    HW216863   1.645   4.379   5.036
 5322SOL     OW16864   5.556   6.842   1.794
 5322SOL    HW116865   5.542   6.762   1.736
 5322SOL    HW216866   5.561   6.814   1.889
 5323SOL     OW16867   4.700   1.495   5.214
 5323SOL    HW116868   4.659   1.566   5.272
 5323SOL    HW216869   4.694   1.524   5.118
 5324SOL     OW16870   2.320   1.805   0.527
 5324SOL    HW116871   2.268   1.864   0.466
 5324SOL    HW216872   2.352   1.725   0.476
 5325SOL     OW16873   2.646   2.141   4.991
 5325SOL    HW116874   2.659   2.191   5.076
 5325SOL    HW216875   2.549   2.120   4.979
 5326SOL     OW16876   6.095   6.607   2.700
 5326SOL    HW116877   6.167   6.640   2.760
 5326SOL    HW216878   6.136   6.554   2.625
 5327SOL     OW16879   5.561   2.716   4.906
 5327SOL    HW116880   5.491   2.710   4.835
 5327SOL    HW216881   5.643   2.668   4.876
 5328SOL     OW16882   4.522   4.477   6.778
 5328SOL    HW116883   4.502   4.506   6.684
 5328SOL    HW216884   4.462   4.401   6.803
 5329SOL     OW16885   1.342   6.608   6.630
 5329SOL    HW116886   1.252   6.652   6.631
 5329SOL    HW216887   1.395   6.641   6.553
 5330SOL     OW16888   2.688   3.700   0.562
 5330SOL    HW116889   2.753   3.769   0.596
 5330SOL    HW216890   2.649   3.651   0.640
 5331SOL     OW16891   6.571   0.813   6.765
 5331SOL    HW116892   6.628   0.887   6.731
 5331SOL    HW216893   6.561   0.743   6.694
 5332SOL     OW16894   1.133   4.808   2.326
 5332SOL    HW116895   1.197   4.732   2.326
 5332SOL    HW216896   1.169   4.882   2.269
 5333SOL     OW16897   0.809   6.420   4.299
 5333SOL    HW116898   0.826   6.517   4.313
 5333SOL    HW216899   0.726   6.408   4.244
 5334SOL     OW16900   2.913   0.210   4.421
 5334SOL    HW116901   2.881   0.285   4.363
 5334SOL    HW216902   3.008   0.188   4.399
 5335SOL     OW16903   6.550   5.667   1.010
 5335SOL    HW116904   6.516   5.622   0.928
 5335SOL    HW216905   6.476   5.718   1.053
 5336SOL     OW16906   1.695   4.174   2.124
 5336SOL    HW116907   1.630   4.114   2.170
 5336SOL    HW216908   1.769   4.119   2.084
 5337SOL     OW16909   4.536   4.520   1.168
 5337SOL    HW116910   4.575   4.456   1.234
 5337SOL    HW216911   4.535   4.478   1.077
 5338SOL     OW16912   6.615   2.172   6.508
 5338SOL    HW116913   6.614   2.270   6.486
 5338SOL    HW216914   6.548   2.153   6.580
 5339SOL     OW16915   6.401   2.146   3.736
 5339SOL    HW116916   6.456   2.222   3.771
 5339SOL    HW216917   6.309   2.180   3.712
 5340SOL     OW16918   5.270   2.696   6.538
 5340SOL    HW116919   5.363   2.731   6.545
 5340SOL    HW216920   5.252   2.667   6.444
 5341SOL     OW16921   4.874   0.566   6.835
 5341SOL    HW116922   4.834   0.513   6.909
 5341SOL    HW216923   4.829   0.655   6.829
 5342SOL     OW16924   4.097   1.266   5.771
 5342SOL    HW116925   4.022   1.328   5.797
 5342SOL    HW216926   4.067   1.208   5.695
 5343SOL     OW16927   4.101   3.687   2.474
 5343SOL    HW116928   4.075   3.675   2.570
 5343SOL    HW216929   4.019   3.684   2.417
 5344SOL     OW16930   1.954   2.744   2.905
 5344SOL    HW116931   1.944   2.645   2.891
 5344SOL    HW216932   2.002   2.760   2.991
 5345SOL     OW16933   4.378   6.792   1.125
 5345SOL    HW116934   4.380   6.860   1.053
 5345SOL    HW216935   4.449   6.813   1.193
 5346SOL     OW16936   2.921   6.181   3.244
 5346SOL    HW116937   2.843   6.185   3.307
 5346SOL    HW216938   2.943   6.273   3.213
 5347SOL     OW16939   6.991   2.155   1.220
 5347SOL    HW116940   0.033   2.214   1.267
 5347SOL    HW216941   6.967   2.078   1.279
 5348SOL     OW16942   1.169   1.058   6.742
 5348SOL    HW116943   1.189   1.084   6.836
 5348SOL    HW216944   1.200   0.964   6.726
 5349SOL     OW16945   6.774   0.813   1.319
 5349SOL    HW116946   6.870   0.816   1.290
 5349SOL    HW216947   6.762   0.870   1.400
 5350SOL     OW16948   2.332   1.265   6.449
 5350SOL    HW116949   2.409   1.296   6.504
 5350SOL    HW216950   2.295   1.342   6.397
 5351SOL     OW16951   4.482   6.559   1.522
 5351SOL    HW116952   4.401   6.544   1.579
 5351SOL    HW216953   4.547   6.618   1.571
 5352SOL     OW16954   3.087   5.949   3.565
 5352SOL    HW116955   3.038   5.916   3.646
 5352SOL    HW216956   3.023   5.963   3.490
 5353SOL     OW16957   5.712   5.563   5.415
 5353SOL    HW116958   5.689   5.635   5.479
 5353SOL    HW216959   5.792   5.513   5.448
 5354SOL     OW16960   1.160   3.897   1.654
 5354SOL    HW116961   1.230   3.947   1.705
 5354SOL    HW216962   1.086   3.870   1.716
 5355SOL     OW16963   4.127   1.832   4.125
 5355SOL    HW116964   4.210   1.815   4.178
 5355SOL    HW216965   4.152   1.873   4.037
 5356SOL     OW16966   6.615   3.864   1.519
 5356SOL    HW116967   6.516   3.862   1.532
 5356SOL    HW216968   6.639   3.814   1.436
 5357SOL     OW16969   3.987   0.116   0.300
 5357SOL    HW116970   4.035   0.036   0.263
 5357SOL    HW216971   3.981   0.187   0.230
 5358SOL     OW16972   4.937   3.253   0.583
 5358SOL    HW116973   4.929   3.163   0.540
 5358SOL    HW216974   4.902   3.249   0.677
 5359SOL     OW16975   1.852   1.617   0.438
 5359SOL    HW116976   1.919   1.559   0.483
 5359SOL    HW216977   1.899   1.688   0.386
 5360SOL     OW16978   3.626   6.527   6.626
 5360SOL    HW116979   3.627   6.623   6.599
 5360SOL    HW216980   3.675   6.517   6.713
 5361SOL     OW16981   1.776   0.778   5.540
 5361SOL    HW116982   1.682   0.810   5.543
 5361SOL    HW216983   1.823   0.819   5.462
 5362SOL     OW16984   4.843   5.242   3.091
 5362SOL    HW116985   4.757   5.208   3.129
 5362SOL    HW216986   4.825   5.323   3.035
 5363SOL     OW16987   0.546   4.920   6.596
 5363SOL    HW116988   0.460   4.959   6.565
 5363SOL    HW216989   0.613   4.923   6.522
 5364SOL     OW16990   6.939   6.681   0.356
 5364SOL    HW116991   6.984   6.594   0.337
 5364SOL    HW216992   6.920   6.688   0.454
 5365SOL     OW16993   4.779   1.974   5.391
 5365SOL    HW116994   4.749   1.927   5.473
 5365SOL    HW216995   4.805   1.907   5.321
 5366SOL     OW16996   4.309   3.615   0.623
 5366SOL    HW116997   4.395   3.573   0.650
 5366SOL    HW216998   4.238   3.544   0.616
 5367SOL     OW16999   0.502   4.856   1.858
 5367SOL    HW117000   0.503   4.853   1.758
 5367SOL    HW217001   0.418   4.813   1.892
 5368SOL     OW17002   5.706   2.053   3.335
 5368SOL    HW117003   5.715   1.962   3.376
 5368SOL    HW217004   5.708   2.044   3.235
 5369SOL     OW17005   2.110   4.324   2.885
 5369SOL    HW117006   2.187   4.387   2.874
 5369SOL    HW217007   2.051   4.329   2.805
 5370SOL     OW17008   3.703   2.641   1.168
 5370SOL    HW117009   3.749   2.553   1.172
 5370SOL    HW217010   3.691   2.677   1.260
 5371SOL     OW17011   1.445   4.151   4.965
 5371SOL    HW117012   1.531   4.176   5.009
 5371SOL    HW217013   1.449   4.174   4.868
 5372SOL     OW17014   2.608   5.395   3.064
 5372SOL    HW117015   2.586   5.302   3.037
 5372SOL    HW217016   2.583   5.409   3.160
 5373SOL     OW17017   3.376   4.971   3.968
 5373SOL    HW117018   3.441   4.896   3.982
 5373SOL    HW217019   3.308   4.970   4.041
 5374SOL     OW17020   2.442   2.341   6.440
 5374SOL    HW117021   2.476   2.360   6.533
 5374SOL    HW217022   2.511   2.367   6.373
 5375SOL     OW17023   1.646   4.066   4.510
 5375SOL    HW117024   1.745   4.064   4.522
 5375SOL    HW217025   1.621   4.141   4.449
 5376SOL     OW17026   1.665   3.557   1.410
 5376SOL    HW117027   1.672   3.529   1.314
 5376SOL    HW217028   1.755   3.550   1.453
 5377SOL     OW17029   0.135   0.739   1.481
 5377SOL    HW117030   0.221   0.713   1.523
 5377SOL    HW217031   0.100   0.822   1.525
 5378SOL     OW17032   5.828   0.785   0.364
 5378SOL    HW117033   5.757   0.785   0.293
 5378SOL    HW217034   5.908   0.735   0.331
 5379SOL     OW17035   0.225   5.640   2.678
 5379SOL    HW117036   0.141   5.648   2.624
 5379SOL    HW217037   0.254   5.731   2.709
 5380SOL     OW17038   2.919   0.409   3.155
 5380SOL    HW117039   2.961   0.330   3.110
 5380SOL    HW217040   2.945   0.409   3.252
 5381SOL     OW17041   5.990   4.001   1.703
 5381SOL    HW117042   5.914   3.992   1.768
 5381SOL    HW217043   6.037   3.913   1.694
 5382SOL     OW17044   2.723   1.108   1.135
 5382SOL    HW117045   2.821   1.103   1.155
 5382SOL    HW217046   2.696   1.029   1.080
 5383SOL     OW17047   2.417   2.002   4.929
 5383SOL    HW117048   2.413   1.958   5.018
 5383SOL    HW217049   2.430   1.932   4.858
 5384SOL     OW17050   6.263   0.072   4.128
 5384SOL    HW117051   6.179   0.064   4.181
 5384SOL    HW217052   6.244   0.051   4.032
 5385SOL     OW17053   3.498   3.915   2.505
 5385SOL    HW117054   3.503   3.997   2.448
 5385SOL    HW217055   3.534   3.935   2.596
 5386SOL     OW17056   5.535   6.408   4.490
 5386SOL    HW117057   5.558   6.311   4.489
 5386SOL    HW217058   5.520   6.438   4.585
 5387SOL     OW17059   2.891   5.301   2.256
 5387SOL    HW117060   2.890   5.201   2.259
 5387SOL    HW217061   2.908   5.338   2.347
 5388SOL     OW17062   5.307   6.206   2.746
 5388SOL    HW117063   5.343   6.115   2.727
 5388SOL    HW217064   5.315   6.263   2.664
 5389SOL     OW17065   4.511   1.618   1.161
 5389SOL    HW117066   4.501   1.535   1.215
 5389SOL    HW217067   4.470   1.605   1.071
 5390SOL     OW17068   6.162   5.206   5.702
 5390SOL    HW117069   6.208   5.259   5.631
 5390SOL    HW217070   6.107   5.267   5.759
 5391SOL     OW17071   2.483   3.069   0.610
 5391SOL    HW117072   2.475   3.050   0.708
 5391SOL    HW217073   2.568   3.030   0.576
 5392SOL     OW17074   6.240   3.327   2.335
 5392SOL    HW117075   6.263   3.297   2.427
 5392SOL    HW217076   6.306   3.289   2.270
 5393SOL     OW17077   6.765   6.650   0.159
 5393SOL    HW117078   6.715   6.723   0.112
 5393SOL    HW217079   6.836   6.691   0.216
 5394SOL     OW17080   0.895   3.764   5.728
 5394SOL    HW117081   0.844   3.678   5.735
 5394SOL    HW217082   0.870   3.810   5.643
 5395SOL     OW17083   3.801   0.584   0.754
 5395SOL    HW117084   3.847   0.673   0.758
 5395SOL    HW217085   3.859   0.519   0.706
 5396SOL     OW17086   5.735   3.638   2.243
 5396SOL    HW117087   5.655   3.630   2.183
 5396SOL    HW217088   5.783   3.723   2.224
 5397SOL     OW17089   7.022   3.597   1.641
 5397SOL    HW117090   6.963   3.524   1.676
 5397SOL    HW217091   0.094   3.574   1.656
 5398SOL     OW17092   3.057   2.660   1.702
 5398SOL    HW117093   3.057   2.607   1.618
 5398SOL    HW217094   3.017   2.605   1.776
 5399SOL     OW17095   1.738   6.325   1.714
 5399SOL    HW117096   1.827   6.286   1.739
 5399SOL    HW217097   1.699   6.273   1.639
 5400SOL     OW17098   3.046   4.726   0.384
 5400SOL    HW117099   3.072   4.815   0.348
 5400SOL    HW217100   3.030   4.733   0.483
 5401SOL     OW17101   6.172   2.919   2.142
 5401SOL    HW117102   6.255   2.878   2.179
 5401SOL    HW217103   6.197   2.991   2.078
 5402SOL     OW17104   1.344   6.255   2.039
 5402SOL    HW117105   1.407   6.206   2.099
 5402SOL    HW217106   1.379   6.255   1.946
 5403SOL     OW17107   0.034   3.704   6.558
 5403SOL    HW117108   0.062   3.613   6.529
 5403SOL    HW217109   6.994   3.742   6.490
 5404SOL     OW17110   1.446   2.960   4.097
 5404SOL    HW117111   1.381   2.961   4.021
 5404SOL    HW217112   1.539   2.956   4.061
 5405SOL     OW17113   6.607   5.242   5.656
 5405SOL    HW117114   6.618   5.177   5.581
 5405SOL    HW217115   6.563   5.195   5.733
 5406SOL     OW17116   1.533   0.875   6.681
 5406SOL    HW117117   1.475   0.928   6.620
 5406SOL    HW217118   1.590   0.937   6.735
 5407SOL     OW17119   3.802   3.197   0.415
 5407SOL    HW117120   3.805   3.237   0.506
 5407SOL    HW217121   3.793   3.097   0.423
 5408SOL     OW17122   2.596   0.843   0.047
 5408SOL    HW117123   2.595   0.899   0.130
 5408SOL    HW217124   2.505   0.807   0.030
 5409SOL     OW17125   4.174   0.661   3.117
 5409SOL    HW117126   4.156   0.573   3.161
 5409SOL    HW217127   4.214   0.645   3.026
 5410SOL     OW17128   2.824   1.943   1.755
 5410SOL    HW117129   2.834   1.901   1.845
 5410SOL    HW217130   2.846   2.041   1.761
 5411SOL     OW17131   0.559   5.584   5.392
 5411SOL    HW117132   0.510   5.551   5.312
 5411SOL    HW217133   0.585   5.680   5.378
 5412SOL     OW17134   5.797   2.928   0.850
 5412SOL    HW117135   5.851   2.855   0.810
 5412SOL    HW217136   5.705   2.894   0.872
 5413SOL     OW17137   2.608   1.625   2.035
 5413SOL    HW117138   2.620   1.586   1.944
 5413SOL    HW217139   2.653   1.714   2.040
 5414SOL     OW17140   4.161   1.580   5.089
 5414SOL    HW117141   4.151   1.558   4.992
 5414SOL    HW217142   4.078   1.556   5.138
 5415SOL     OW17143   6.298   5.503   2.013
 5415SOL    HW117144   6.327   5.445   1.938
 5415SOL    HW217145   6.343   5.474   2.098
 5416SOL     OW17146   4.164   4.914   4.868
 5416SOL    HW117147   4.137   4.877   4.779
 5416SOL    HW217148   4.245   4.865   4.900
 5417SOL     OW17149   3.481   6.941   4.495
 5417SOL    HW117150   3.552   7.010   4.513
 5417SOL    HW217151   3.517   6.850   4.518
 5418SOL     OW17152   3.922   0.247   2.943
 5418SOL    HW117153   3.904   0.315   2.872
 5418SOL    HW217154   3.920   0.156   2.903
 5419SOL     OW17155   3.553   5.279   6.322
 5419SOL    HW117156   3.462   5.241   6.314
 5419SOL    HW217157   3.621   5.213   6.289
 5420SOL     OW17158   1.870   1.930   2.468
 5420SOL    HW117159   1.828   1.890   2.549
 5420SOL    HW217160   1.948   1.874   2.440
 5421SOL     OW17161   1.949   4.032   2.164
 5421SOL    HW117162   1.941   3.948   2.217
 5421SOL    HW217163   2.017   4.091   2.206
 5422SOL     OW17164   2.391   3.856   1.270
 5422SOL    HW117165   2.376   3.954   1.286
 5422SOL    HW217166   2.303   3.808   1.271
 5423SOL     OW17167   5.989   2.813   6.600
 5423SOL    HW117168   5.987   2.748   6.525
 5423SOL    HW217169   6.003   2.906   6.564
 5424SOL     OW17170   4.906   3.485   4.358
 5424SOL    HW117171   4.839   3.517   4.292
 5424SOL    HW217172   4.887   3.389   4.381
 5425SOL     OW17173   4.928   0.882   5.031
 5425SOL    HW117174   5.024   0.911   5.038
 5425SOL    HW217175   4.869   0.962   5.027
 5426SOL     OW17176   6.063   6.946   4.995
 5426SOL    HW117177   6.101   0.009   5.026
 5426SOL    HW217178   5.969   6.960   4.964
 5427SOL     OW17179   4.474   6.016   6.486
 5427SOL    HW117180   4.466   6.095   6.547
 5427SOL    HW217181   4.438   6.040   6.396
 5428SOL     OW17182   1.055   0.511   0.892
 5428SOL    HW117183   0.958   0.513   0.866
 5428SOL    HW217184   1.074   0.425   0.939
 5429SOL     OW17185   0.809   2.126   6.741
 5429SOL    HW117186   0.847   2.046   6.694
 5429SOL    HW217187   0.879   2.197   6.748
 5430SOL     OW17188   1.437   2.569   6.188
 5430SOL    HW117189   1.339   2.567   6.211
 5430SOL    HW217190   1.481   2.487   6.223
 5431SOL     OW17191   4.066   6.181   6.220
 5431SOL    HW117192   4.023   6.136   6.142
 5431SOL    HW217193   4.145   6.234   6.188
 5432SOL     OW17194   4.731   6.570   0.621
 5432SOL    HW117195   4.634   6.580   0.642
 5432SOL    HW217196   4.783   6.560   0.707
 5433SOL     OW17197   0.321   1.748   4.682
 5433SOL    HW117198   0.288   1.841   4.666
 5433SOL    HW217199   0.385   1.748   4.760
 5434SOL     OW17200   2.849   0.263   6.570
 5434SOL    HW117201   2.875   0.183   6.625
 5434SOL    HW217202   2.825   0.338   6.631
 5435SOL     OW17203   4.398   0.312   1.859
 5435SOL    HW117204   4.410   0.276   1.952
 5435SOL    HW217205   4.329   0.257   1.811
 5436SOL     OW17206   4.689   4.325   2.958
 5436SOL    HW117207   4.760   4.289   3.017
 5436SOL    HW217208   4.700   4.289   2.865
 5437SOL     OW17209   2.841   3.980   0.055
 5437SOL    HW117210   2.819   4.026   0.141
 5437SOL    HW217211   2.870   4.047   7.011
 5438SOL     OW17212   5.721   2.199   1.425
 5438SOL    HW117213   5.636   2.148   1.415
 5438SOL    HW217214   5.702   2.291   1.461
 5439SOL     OW17215   0.904   2.846   1.328
 5439SOL    HW117216   0.874   2.811   1.239
 5439SOL    HW217217   0.916   2.769   1.391
 5440SOL     OW17218   0.979   2.095   1.238
 5440SOL    HW117219   0.892   2.078   1.284
 5440SOL    HW217220   0.966   2.158   1.162
 5441SOL     OW17221   3.362   1.820   3.646
 5441SOL    HW117222   3.272   1.778   3.633
 5441SOL    HW217223   3.355   1.919   3.633
 5442SOL     OW17224   3.614   0.567   1.852
 5442SOL    HW117225   3.670   0.501   1.901
 5442SOL    HW217226   3.519   0.538   1.853
 5443SOL     OW17227   3.098   6.807   5.713
 5443SOL    HW117228   3.151   6.741   5.766
 5443SOL    HW217229   3.156   6.884   5.688
 5444SOL     OW17230   0.056   6.925   4.166
 5444SOL    HW117231   0.108   6.967   4.240
 5444SOL    HW217232   6.983   6.923   4.190
 5445SOL     OW17233   5.899   3.531   2.444
 5445SOL    HW117234   5.874   3.587   2.365
 5445SOL    HW217235   5.920   3.591   2.521
 5446SOL     OW17236   6.180   5.704   5.472
 5446SOL    HW117237   6.159   5.659   5.385
 5446SOL    HW217238   6.269   5.749   5.465
 5447SOL     OW17239   3.951   2.352   0.157
 5447SOL    HW117240   3.863   2.322   0.119
 5447SOL    HW217241   4.012   2.273   0.167
 5448SOL     OW17242   5.393   2.357   5.128
 5448SOL    HW117243   5.449   2.281   5.162
 5448SOL    HW217244   5.299   2.325   5.112
 5449SOL     OW17245   0.722   3.802   6.939
 5449SOL    HW117246   0.629   3.791   6.976
 5449SOL    HW217247   0.721   3.784   6.841
 5450SOL     OW17248   2.176   0.313   1.561
 5450SOL    HW117249   2.175   0.260   1.646
 5450SOL    HW217250   2.266   0.304   1.517
 5451SOL     OW17251   0.935   5.666   3.168
 5451SOL    HW117252   0.852   5.703   3.211
 5451SOL    HW217253   1.015   5.712   3.204
 5452SOL     OW17254   2.393   4.214   6.768
 5452SOL    HW117255   2.315   4.163   6.804
 5452SOL    HW217256   2.461   4.150   6.731
 5453SOL     OW17257   5.748   4.794   0.421
 5453SOL    HW117258   5.678   4.823   0.486
 5453SOL    HW217259   5.808   4.872   0.401
 5454SOL     OW17260   6.953   4.669   0.163
 5454SOL    HW117261   6.927   4.650   0.257
 5454SOL    HW217262   6.894   4.618   0.101
 5455SOL     OW17263   6.573   3.101   0.881
 5455SOL    HW117264   6.492   3.159   0.869
 5455SOL    HW217265   6.575   3.067   0.975
 5456SOL     OW17266   3.038   0.004   6.976
 5456SOL    HW117267   3.033   6.935   7.013
 5456SOL    HW217268   2.991   0.006   6.888
 5457SOL     OW17269   5.975   3.055   1.066
 5457SOL    HW117270   5.933   3.056   1.157
 5457SOL    HW217271   5.913   3.011   1.001
 5458SOL     OW17272   2.025   4.139   6.658
 5458SOL    HW117273   2.095   4.170   6.723
 5458SOL    HW217274   1.984   4.054   6.691
 5459SOL     OW17275   1.679   4.465   6.864
 5459SOL    HW117276   1.641   4.469   6.771
 5459SOL    HW217277   1.605   4.443   6.928
 5460SOL     OW17278   2.766   0.381   1.008
 5460SOL    HW117279   2.785   0.302   1.067
 5460SOL    HW217280   2.775   0.465   1.062
 5461SOL     OW17281   4.556   0.078   5.046
 5461SOL    HW117282   4.602   0.006   5.097
 5461SOL    HW217283   4.507   0.039   4.968
 5462SOL     OW17284   1.454   0.297   0.661
 5462SOL    HW117285   1.478   0.209   0.703
 5462SOL    HW217286   1.452   0.367   0.732
 5463SOL     OW17287   6.535   2.791   0.840
 5463SOL    HW117288   6.465   2.784   0.912
 5463SOL    HW217289   6.518   2.874   0.786
 5464SOL     OW17290   2.385   0.349   4.483
 5464SOL    HW117291   2.366   0.440   4.445
 5464SOL    HW217292   2.467   0.353   4.540
 5465SOL     OW17293   2.962   0.358   4.653
 5465SOL    HW117294   2.967   0.322   4.560
 5465SOL    HW217295   2.961   0.283   4.719
 5466SOL     OW17296   4.748   4.144   4.283
 5466SOL    HW117297   4.734   4.086   4.364
 5466SOL    HW217298   4.765   4.085   4.203
 5467SOL     OW17299   5.426   1.615   2.806
 5467SOL    HW117300   5.352   1.547   2.801
 5467SOL    HW217301   5.511   1.574   2.774
 5468SOL     OW17302   4.435   2.171   4.597
 5468SOL    HW117303   4.377   2.190   4.518
 5468SOL    HW217304   4.411   2.233   4.672
 5469SOL     OW17305   3.657   4.670   6.228
 5469SOL    HW117306   3.561   4.688   6.250
 5469SOL    HW217307   3.672   4.571   6.224
 5470SOL     OW17308   1.882   5.018   3.904
 5470SOL    HW117309   1.846   4.987   3.991
 5470SOL    HW217310   1.974   4.982   3.891
 5471SOL     OW17311   7.020   5.898   1.741
 5471SOL    HW117312   0.032   5.951   1.818
 5471SOL    HW217313   0.065   5.833   1.711
 5472SOL     OW17314   4.122   4.552   6.046
 5472SOL    HW117315   4.073   4.509   5.971
 5472SOL    HW217316   4.149   4.645   6.020
 5473SOL     OW17317   1.452   3.324   3.783
 5473SOL    HW117318   1.442   3.421   3.758
 5473SOL    HW217319   1.412   3.267   3.712
 5474SOL     OW17320   1.690   5.386   4.138
 5474SOL    HW117321   1.657   5.383   4.044
 5474SOL    HW217322   1.676   5.477   4.176
 5475SOL     OW17323   3.062   2.291   1.312
 5475SOL    HW117324   3.086   2.279   1.408
 5475SOL    HW217325   2.997   2.221   1.284
 5476SOL     OW17326   1.258   2.833   6.436
 5476SOL    HW117327   1.348   2.863   6.405
 5476SOL    HW217328   1.265   2.797   6.529
 5477SOL     OW17329   2.072   3.058   3.022
 5477SOL    HW117330   2.084   2.972   3.071
 5477SOL    HW217331   2.111   3.132   3.075
 5478SOL     OW17332   5.635   5.746   5.586
 5478SOL    HW117333   5.606   5.840   5.603
 5478SOL    HW217334   5.579   5.684   5.640
 5479SOL     OW17335   4.890   0.678   4.369
 5479SOL    HW117336   4.939   0.717   4.447
 5479SOL    HW217337   4.822   0.613   4.402
 5480SOL     OW17338   0.871   3.656   4.545
 5480SOL    HW117339   0.811   3.589   4.502
 5480SOL    HW217340   0.959   3.613   4.567
 5481SOL     OW17341   3.744   0.069   4.069
 5481SOL    HW117342   3.678   0.096   4.139
 5481SOL    HW217343   3.695   0.033   3.989
 5482SOL     OW17344   2.439   4.808   1.437
 5482SOL    HW117345   2.537   4.829   1.427
 5482SOL    HW217346   2.429   4.733   1.502
 5483SOL     OW17347   0.047   2.549   6.346
 5483SOL    HW117348   0.097   2.508   6.422
 5483SOL    HW217349   0.110   2.568   6.271
 5484SOL     OW17350   4.562   0.964   4.758
 5484SOL    HW117351   4.524   0.910   4.833
 5484SOL    HW217352   4.493   0.975   4.687
 5485SOL     OW17353   3.194   0.222   5.745
 5485SOL    HW117354   3.229   0.206   5.837
 5485SOL    HW217355   3.109   0.275   5.750
 5486SOL     OW17356   3.067   6.417   5.525
 5486SOL    HW117357   3.019   6.410   5.612
 5486SOL    HW217358   3.108   6.329   5.502
 5487SOL     OW17359   3.382   5.115   5.584
 5487SOL    HW117360   3.328   5.172   5.646
 5487SOL    HW217361   3.458   5.075   5.635
 5488SOL     OW17362   6.219   1.724   0.942
 5488SOL    HW117363   6.178   1.661   0.876
 5488SOL    HW217364   6.165   1.726   1.026
 5489SOL     OW17365   6.423   4.082   3.099
 5489SOL    HW117366   6.445   3.996   3.053
 5489SOL    HW217367   6.362   4.137   3.041
 5490SOL     OW17368   1.452   6.633   2.897
 5490SOL    HW117369   1.480   6.649   2.803
 5490SOL    HW217370   1.410   6.716   2.934
 5491SOL     OW17371   6.511   4.317   0.732
 5491SOL    HW117372   6.594   4.349   0.686
 5491SOL    HW217373   6.535   4.268   0.815
 5492SOL     OW17374   0.121   1.722   5.643
 5492SOL    HW117375   0.145   1.811   5.681
 5492SOL    HW217376   0.056   1.734   5.567
 5493SOL     OW17377   3.654   3.779   1.387
 5493SOL    HW117378   3.744   3.740   1.403
 5493SOL    HW217379   3.635   3.780   1.288
 5494SOL     OW17380   6.364   4.128   5.288
 5494SOL    HW117381   6.383   4.176   5.374
 5494SOL    HW217382   6.335   4.035   5.308
 5495SOL     OW17383   5.679   0.445   0.708
 5495SOL    HW117384   5.643   0.531   0.743
 5495SOL    HW217385   5.622   0.369   0.740
 5496SOL     OW17386   3.652   0.663   4.182
 5496SOL    HW117387   3.601   0.632   4.263
 5496SOL    HW217388   3.743   0.623   4.183
 5497SOL     OW17389   1.200   0.184   5.909
 5497SOL    HW117390   1.144   0.255   5.950
 5497SOL    HW217391   1.178   0.096   5.951
 5498SOL     OW17392   0.785   5.307   1.869
 5498SOL    HW117393   0.757   5.211   1.872
 5498SOL    HW217394   0.826   5.332   1.957
 5499SOL     OW17395   1.659   0.537   4.832
 5499SOL    HW117396   1.587   0.505   4.895
 5499SOL    HW217397   1.727   0.588   4.883
 5500SOL     OW17398   2.883   1.035   0.738
 5500SOL    HW117399   2.909   0.939   0.735
 5500SOL    HW217400   2.783   1.043   0.735
 5501SOL     OW17401   3.815   3.577   6.550
 5501SOL    HW117402   3.805   3.499   6.488
 5501SOL    HW217403   3.726   3.620   6.565
 5502SOL     OW17404   4.505   2.558   6.521
 5502SOL    HW117405   4.471   2.561   6.615
 5502SOL    HW217406   4.596   2.515   6.520
 5503SOL     OW17407   6.593   4.178   0.946
 5503SOL    HW117408   6.625   4.098   0.997
 5503SOL    HW217409   6.592   4.258   1.007
 5504SOL     OW17410   3.382   1.918   6.312
 5504SOL    HW117411   3.297   1.896   6.360
 5504SOL    HW217412   3.429   1.993   6.360
 5505SOL     OW17413   2.586   4.944   3.987
 5505SOL    HW117414   2.612   5.007   3.914
 5505SOL    HW217415   2.508   4.890   3.957
 5506SOL     OW17416   0.619   3.373   6.007
 5506SOL    HW117417   0.547   3.420   6.059
 5506SOL    HW217418   0.586   3.283   5.980
 5507SOL     OW17419   2.526   6.649   7.007
 5507SOL    HW117420   2.463   6.701   6.948
 5507SOL    HW217421   2.487   6.644   0.075
 5508SOL     OW17422   0.068   0.954   6.440
 5508SOL    HW117423   0.133   0.888   6.477
 5508SOL    HW217424   7.000   0.914   6.441
 5509SOL     OW17425   0.205   5.102   0.826
 5509SOL    HW117426   0.138   5.029   0.812
 5509SOL    HW217427   0.241   5.132   0.738
 5510SOL     OW17428   3.915   5.308   6.919
 5510SOL    HW117429   3.895   5.405   6.935
 5510SOL    HW217430   3.991   5.301   6.854
 5511SOL     OW17431   0.947   1.879   5.419
 5511SOL    HW117432   0.941   1.942   5.496
 5511SOL    HW217433   0.933   1.929   5.333
 5512SOL     OW17434   3.016   0.725   2.289
 5512SOL    HW117435   3.003   0.648   2.227
 5512SOL    HW217436   3.102   0.771   2.268
 5513SOL     OW17437   3.879   4.089   0.073
 5513SOL    HW117438   3.860   4.135   0.159
 5513SOL    HW217439   3.958   4.130   0.029
 5514SOL     OW17440   3.308   1.053   0.266
 5514SOL    HW117441   3.281   0.975   0.322
 5514SOL    HW217442   3.255   1.053   0.181
 5515SOL     OW17443   2.821   6.037   2.543
 5515SOL    HW117444   2.906   6.073   2.582
 5515SOL    HW217445   2.775   5.979   2.610
 5516SOL     OW17446   2.437   2.443   5.475
 5516SOL    HW117447   2.404   2.373   5.538
 5516SOL    HW217448   2.427   2.533   5.518
 5517SOL     OW17449   1.397   3.130   3.251
 5517SOL    HW117450   1.428   3.225   3.244
 5517SOL    HW217451   1.476   3.072   3.273
 5518SOL     OW17452   4.263   4.681   6.420
 5518SOL    HW117453   4.175   4.635   6.431
 5518SOL    HW217454   4.320   4.663   6.500
 5519SOL     OW17455   4.810   2.857   3.477
 5519SOL    HW117456   4.796   2.932   3.542
 5519SOL    HW217457   4.822   2.894   3.385
 5520SOL     OW17458   4.657   6.710   1.645
 5520SOL    HW117459   4.729   6.702   1.576
 5520SOL    HW217460   4.685   6.776   1.715
 5521SOL     OW17461   5.583   5.636   1.904
 5521SOL    HW117462   5.546   5.569   1.969
 5521SOL    HW217463   5.509   5.668   1.844
 5522SOL     OW17464   6.091   5.623   1.024
 5522SOL    HW117465   6.122   5.712   1.059
 5522SOL    HW217466   6.007   5.597   1.072
 5523SOL     OW17467   5.706   1.373   1.894
 5523SOL    HW117468   5.628   1.332   1.939
 5523SOL    HW217469   5.696   1.365   1.795
 5524SOL     OW17470   3.003   1.710   4.277
 5524SOL    HW117471   2.949   1.787   4.309
 5524SOL    HW217472   3.019   1.646   4.352
 5525SOL     OW17473   6.307   1.343   1.559
 5525SOL    HW117474   6.359   1.428   1.560
 5525SOL    HW217475   6.209   1.363   1.563
 5526SOL     OW17476   4.953   4.601   3.830
 5526SOL    HW117477   4.928   4.558   3.744
 5526SOL    HW217478   4.893   4.567   3.903
 5527SOL     OW17479   5.774   1.466   3.557
 5527SOL    HW117480   5.873   1.454   3.562
 5527SOL    HW217481   5.754   1.562   3.536
 5528SOL     OW17482   1.009   1.347   0.560
 5528SOL    HW117483   1.030   1.427   0.504
 5528SOL    HW217484   1.079   1.277   0.546
 5529SOL     OW17485   3.465   0.365   2.303
 5529SOL    HW117486   3.411   0.434   2.352
 5529SOL    HW217487   3.417   0.340   2.218
 5530SOL     OW17488   6.588   2.116   0.862
 5530SOL    HW117489   6.628   2.134   0.952
 5530SOL    HW217490   6.548   2.024   0.862
 5531SOL     OW17491   2.102   3.753   1.241
 5531SOL    HW117492   2.053   3.803   1.312
 5531SOL    HW217493   2.080   3.656   1.246
 5532SOL     OW17494   1.606   3.206   0.527
 5532SOL    HW117495   1.697   3.224   0.563
 5532SOL    HW217496   1.561   3.292   0.503
 5533SOL     OW17497   3.705   1.803   2.663
 5533SOL    HW117498   3.797   1.764   2.675
 5533SOL    HW217499   3.637   1.731   2.674
 5534SOL     OW17500   1.403   0.627   4.700
 5534SOL    HW117501   1.348   0.545   4.722
 5534SOL    HW217502   1.459   0.650   4.779
 5535SOL     OW17503   0.483   1.815   3.626
 5535SOL    HW117504   0.400   1.766   3.654
 5535SOL    HW217505   0.469   1.852   3.534
 5536SOL     OW17506   4.059   6.229   4.068
 5536SOL    HW117507   4.099   6.139   4.085
 5536SOL    HW217508   4.111   6.277   3.997
 5537SOL     OW17509   2.735   1.310   3.238
 5537SOL    HW117510   2.750   1.406   3.217
 5537SOL    HW217511   2.822   1.261   3.240
 5538SOL     OW17512   4.204   5.182   4.854
 5538SOL    HW117513   4.195   5.204   4.757
 5538SOL    HW217514   4.212   5.082   4.864
 5539SOL     OW17515   2.784   4.429   0.603
 5539SOL    HW117516   2.684   4.423   0.592
 5539SOL    HW217517   2.826   4.442   0.513
 5540SOL     OW17518   5.316   5.114   1.507
 5540SOL    HW117519   5.266   5.198   1.526
 5540SOL    HW217520   5.379   5.130   1.430
 5541SOL     OW17521   4.457   1.548   5.640
 5541SOL    HW117522   4.528   1.479   5.625
 5541SOL    HW217523   4.368   1.503   5.647
 5542SOL     OW17524   5.189   4.602   6.205
 5542SOL    HW117525   5.279   4.639   6.229
 5542SOL    HW217526   5.155   4.545   6.280
 5543SOL     OW17527   0.095   1.963   6.410
 5543SOL    HW117528   0.152   2.045   6.407
 5543SOL    HW217529   7.022   1.989   6.407
 5544SOL     OW17530   5.813   1.076   7.002
 5544SOL    HW117531   5.870   1.130   0.040
 5544SOL    HW217532   5.746   1.024   0.032
 5545SOL     OW17533   2.686   2.533   1.766
 5545SOL    HW117534   2.774   2.497   1.798
 5545SOL    HW217535   2.613   2.469   1.789
 5546SOL     OW17536   2.660   4.843   5.480
 5546SOL    HW117537   2.630   4.754   5.515
 5546SOL    HW217538   2.655   4.843   5.380
 5547SOL     OW17539   3.753   6.223   4.785
 5547SOL    HW117540   3.653   6.220   4.787
 5547SOL    HW217541   3.787   6.157   4.718
 5548SOL     OW17542   0.079   2.915   5.515
 5548SOL    HW117543   0.008   2.886   5.451
 5548SOL    HW217544   0.133   2.988   5.473
 5549SOL     OW17545   3.517   4.395   6.850
 5549SOL    HW117546   3.454   4.470   6.827
 5549SOL    HW217547   3.601   4.433   6.889
 5550SOL     OW17548   3.498   6.917   2.526
 5550SOL    HW117549   3.507   7.016   2.538
 5550SOL    HW217550   3.404   6.895   2.501
 5551SOL     OW17551   0.639   1.262   3.265
 5551SOL    HW117552   0.716   1.245   3.327
 5551SOL    HW217553   0.670   1.257   3.171
 5552SOL     OW17554   0.710   2.999   0.653
 5552SOL    HW117555   0.688   2.919   0.597
 5552SOL    HW217556   0.752   3.070   0.596
 5553SOL     OW17557   5.433   6.415   6.952
 5553SOL    HW117558   5.337   6.386   6.952
 5553SOL    HW217559   5.438   6.513   6.969
 5554SOL     OW17560   2.835   1.608   4.866
 5554SOL    HW117561   2.761   1.551   4.830
 5554SOL    HW217562   2.814   1.704   4.848
 5555SOL     OW17563   0.429   6.353   2.098
 5555SOL    HW117564   0.375   6.382   2.019
 5555SOL    HW217565   0.398   6.403   2.179
 5556SOL     OW17566   0.696   1.051   4.277
 5556SOL    HW117567   0.768   1.100   4.228
 5556SOL    HW217568   0.732   1.019   4.365
 5557SOL     OW17569   2.613   0.607   3.544
 5557SOL    HW117570   2.614   0.703   3.518
 5557SOL    HW217571   2.545   0.558   3.489
 5558SOL     OW17572   5.401   2.455   4.602
 5558SOL    HW117573   5.348   2.454   4.517
 5558SOL    HW217574   5.348   2.412   4.675
 5559SOL     OW17575   2.434   0.292   1.053
 5559SOL    HW117576   2.456   0.326   0.961
 5559SOL    HW217577   2.414   0.370   1.113
 5560SOL     OW17578   0.131   0.745   4.561
 5560SOL    HW117579   0.151   0.746   4.659
 5560SOL    HW217580   0.129   0.839   4.526
 5561SOL     OW17581   1.437   3.894   3.191
 5561SOL    HW117582   1.372   3.843   3.134
 5561SOL    HW217583   1.510   3.930   3.133
 5562SOL     OW17584   2.684   2.827   6.055
 5562SOL    HW117585   2.647   2.735   6.063
 5562SOL    HW217586   2.611   2.894   6.069
 5563SOL     OW17587   4.340   4.055   1.681
 5563SOL    HW117588   4.293   4.075   1.595
 5563SOL    HW217589   4.363   4.140   1.727
 5564SOL     OW17590   6.305   3.960   1.585
 5564SOL    HW117591   6.336   4.054   1.596
 5564SOL    HW217592   6.295   3.917   1.675
 5565SOL     OW17593   3.051   2.928   5.401
 5565SOL    HW117594   3.088   2.836   5.387
 5565SOL    HW217595   3.110   2.978   5.463
 5566SOL     OW17596   2.003   4.999   0.625
 5566SOL    HW117597   2.021   4.901   0.638
 5566SOL    HW217598   1.905   5.014   0.621
 5567SOL     OW17599   1.807   5.866   3.371
 5567SOL    HW117600   1.819   5.786   3.430
 5567SOL    HW217601   1.757   5.840   3.289
 5568SOL     OW17602   4.081   2.058   1.178
 5568SOL    HW117603   4.047   2.021   1.091
 5568SOL    HW217604   4.172   2.096   1.164
 5569SOL     OW17605   5.367   2.437   6.946
 5569SOL    HW117606   5.293   2.477   6.892
 5569SOL    HW217607   5.430   2.509   6.976
 5570SOL     OW17608   0.239   3.777   5.822
 5570SOL    HW117609   0.151   3.820   5.840
 5570SOL    HW217610   0.268   3.797   5.728
 5571SOL     OW17611   6.756   4.759   6.528
 5571SOL    HW117612   6.673   4.713   6.557
 5571SOL    HW217613   6.825   4.691   6.502
 5572SOL     OW17614   5.438   2.681   5.157
 5572SOL    HW117615   5.455   2.711   5.064
 5572SOL    HW217616   5.383   2.597   5.156
 5573SOL     OW17617   0.853   3.788   0.351
 5573SOL    HW117618   0.907   3.710   0.382
 5573SOL    HW217619   0.765   3.757   0.317
 5574SOL     OW17620   0.393   5.800   4.519
 5574SOL    HW117621   0.400   5.701   4.530
 5574SOL    HW217622   0.353   5.821   4.429
 5575SOL     OW17623   1.213   0.918   1.564
 5575SOL    HW117624   1.235   0.871   1.649
 5575SOL    HW217625   1.216   0.854   1.487
 5576SOL     OW17626   6.321   5.680   0.429
 5576SOL    HW117627   6.346   5.720   0.340
 5576SOL    HW217628   6.403   5.644   0.473
 5577SOL     OW17629   2.162   3.801   5.149
 5577SOL    HW117630   2.173   3.886   5.098
 5577SOL    HW217631   2.245   3.783   5.202
 5578SOL     OW17632   3.602   1.533   5.849
 5578SOL    HW117633   3.624   1.606   5.785
 5578SOL    HW217634   3.594   1.446   5.800
 5579SOL     OW17635   5.156   4.790   1.385
 5579SOL    HW117636   5.103   4.871   1.409
 5579SOL    HW217637   5.251   4.816   1.368
 5580SOL     OW17638   5.043   0.588   1.367
 5580SOL    HW117639   4.947   0.590   1.338
 5580SOL    HW217640   5.083   0.500   1.344
 5581SOL     OW17641   2.623   2.662   0.894
 5581SOL    HW117642   2.529   2.627   0.895
 5581SOL    HW217643   2.686   2.588   0.920
 5582SOL     OW17644   4.132   3.327   3.419
 5582SOL    HW117645   4.211   3.381   3.388
 5582SOL    HW217646   4.048   3.366   3.381
 5583SOL     OW17647   3.850   0.800   0.544
 5583SOL    HW117648   3.819   0.845   0.628
 5583SOL    HW217649   3.799   0.715   0.531
 5584SOL     OW17650   5.733   3.177   2.846
 5584SOL    HW117651   5.808   3.127   2.890
 5584SOL    HW217652   5.727   3.269   2.885
 5585SOL     OW17653   6.822   6.576   4.460
 5585SOL    HW117654   6.795   6.640   4.388
 5585SOL    HW217655   6.836   6.485   4.421
 5586SOL     OW17656   2.429   1.687   6.587
 5586SOL    HW117657   2.459   1.601   6.547
 5586SOL    HW217658   2.329   1.689   6.589
 5587SOL     OW17659   3.669   6.961   3.772
 5587SOL    HW117660   3.626   0.027   3.763
 5587SOL    HW217661   3.765   6.967   3.747
 5588SOL     OW17662   4.379   0.419   5.782
 5588SOL    HW117663   4.463   0.381   5.819
 5588SOL    HW217664   4.342   0.358   5.712
 5589SOL     OW17665   3.521   3.628   6.548
 5589SOL    HW117666   3.463   3.597   6.472
 5589SOL    HW217667   3.477   3.607   6.635
 5590SOL     OW17668   6.653   6.899   3.582
 5590SOL    HW117669   6.720   6.953   3.532
 5590SOL    HW217670   6.618   6.953   3.659
 5591SOL     OW17671   5.100   0.264   0.026
 5591SOL    HW117672   5.099   0.204   6.970
 5591SOL    HW217673   5.121   0.210   0.108
 5592SOL     OW17674   2.196   1.783   2.063
 5592SOL    HW117675   2.245   1.701   2.092
 5592SOL    HW217676   2.187   1.846   2.141
 5593SOL     OW17677   2.088   3.576   5.013
 5593SOL    HW117678   2.031   3.620   4.944
 5593SOL    HW217679   2.136   3.646   5.066
 5594SOL     OW17680   2.528   1.305   6.629
 5594SOL    HW117681   2.505   1.316   6.725
 5594SOL    HW217682   2.620   1.341   6.612
 5595SOL     OW17683   0.207   1.447   5.667
 5595SOL    HW117684   0.201   1.539   5.627
 5595SOL    HW217685   0.304   1.421   5.676
 5596SOL     OW17686   5.377   2.005   3.115
 5596SOL    HW117687   5.300   1.944   3.134
 5596SOL    HW217688   5.359   2.057   3.031
 5597SOL     OW17689   0.702   1.037   6.188
 5597SOL    HW117690   0.698   1.121   6.134
 5597SOL    HW217691   0.626   1.035   6.254
 5598SOL     OW17692   6.740   2.050   4.205
 5598SOL    HW117693   6.775   2.102   4.127
 5598SOL    HW217694   6.783   1.960   4.208
 5599SOL     OW17695   4.999   2.737   3.062
 5599SOL    HW117696   4.985   2.721   2.964
 5599SOL    HW217697   4.935   2.807   3.094
 5600SOL     OW17698   2.137   2.118   2.132
 5600SOL    HW117699   2.167   2.049   2.197
 5600SOL    HW217700   2.136   2.208   2.176
 5601SOL     OW17701   5.746   3.044   6.070
 5601SOL    HW117702   5.776   2.949   6.068
 5601SOL    HW217703   5.759   3.085   5.980
 5602SOL     OW17704   6.634   2.123   2.416
 5602SOL    HW117705   6.594   2.045   2.464
 5602SOL    HW217706   6.711   2.093   2.360
 5603SOL     OW17707   4.208   1.927   5.935
 5603SOL    HW117708   4.196   1.950   5.839
 5603SOL    HW217709   4.272   1.990   5.978
 5604SOL     OW17710   1.192   6.270   3.568
 5604SOL    HW117711   1.255   6.336   3.608
 5604SOL    HW217712   1.164   6.300   3.477
 5605SOL     OW17713   4.395   7.011   4.295
 5605SOL    HW117714   4.489   7.016   4.329
 5605SOL    HW217715   4.380   6.923   4.250
 5606SOL     OW17716   5.134   2.925   0.517
 5606SOL    HW117717   5.044   2.966   0.504
 5606SOL    HW217718   5.147   2.904   0.614
 5607SOL     OW17719   6.827   2.209   2.986
 5607SOL    HW117720   6.904   2.267   2.958
 5607SOL    HW217721   6.776   2.255   3.059
 5608SOL     OW17722   5.035   0.659   2.973
 5608SOL    HW117723   5.116   0.613   3.011
 5608SOL    HW217724   5.021   0.745   3.021
 5609SOL     OW17725   6.704   0.359   0.561
 5609SOL    HW117726   6.793   0.393   0.531
 5609SOL    HW217727   6.644   0.348   0.482
 5610SOL     OW17728   5.981   5.734   6.976
 5610SOL    HW117729   5.926   5.801   6.926
 5610SOL    HW217730   5.924   5.658   7.005
 5611SOL     OW17731   6.043   4.520   1.933
 5611SOL    HW117732   5.985   4.594   1.968
 5611SOL    HW217733   6.130   4.519   1.982
 5612SOL     OW17734   3.944   1.725   0.131
 5612SOL    HW117735   3.982   1.817   0.141
 5612SOL    HW217736   3.966   1.670   0.211
 5613SOL     OW17737   5.824   5.188   6.004
 5613SOL    HW117738   5.920   5.177   6.032
 5613SOL    HW217739   5.805   5.127   5.927
 5614SOL     OW17740   4.974   3.003   4.067
 5614SOL    HW117741   5.057   3.015   4.013
 5614SOL    HW217742   4.907   2.951   4.015
 5615SOL     OW17743   0.516   2.609   3.332
 5615SOL    HW117744   0.542   2.690   3.384
 5615SOL    HW217745   0.558   2.613   3.242
 5616SOL     OW17746   2.037   3.379   2.405
 5616SOL    HW117747   2.055   3.300   2.464
 5616SOL    HW217748   2.072   3.361   2.313
 5617SOL     OW17749   1.368   4.650   6.516
 5617SOL    HW117750   1.393   4.679   6.423
 5617SOL    HW217751   1.450   4.618   6.564
 5618SOL     OW17752   5.285   6.411   2.131
 5618SOL    HW117753   5.210   6.385   2.191
 5618SOL    HW217754   5.248   6.452   2.047
 5619SOL     OW17755   3.551   3.307   3.871
 5619SOL    HW117756   3.511   3.313   3.780
 5619SOL    HW217757   3.650   3.293   3.863
 5620SOL     OW17758   4.804   4.525   4.068
 5620SOL    HW117759   4.860   4.536   4.150
 5620SOL    HW217760   4.736   4.453   4.084
 5621SOL     OW17761   0.941   2.662   6.619
 5621SOL    HW117762   0.890   2.689   6.700
 5621SOL    HW217763   0.878   2.635   6.546
 5622SOL     OW17764   5.020   5.300   4.392
 5622SOL    HW117765   4.958   5.349   4.331
 5622SOL    HW217766   5.027   5.350   4.479
 5623SOL     OW17767   4.535   5.009   4.166
 5623SOL    HW117768   4.477   5.021   4.086
 5623SOL    HW217769   4.507   4.926   4.215
 5624SOL     OW17770   4.935   4.840   3.347
 5624SOL    HW117771   4.848   4.799   3.376
 5624SOL    HW217772   4.925   4.875   3.254
 5625SOL     OW17773   2.668   6.337   6.275
 5625SOL    HW117774   2.646   6.337   6.373
 5625SOL    HW217775   2.597   6.387   6.225
 5626SOL     OW17776   0.215   4.892   6.947
 5626SOL    HW117777   0.254   4.984   6.957
 5626SOL    HW217778   0.273   4.837   6.887
 5627SOL     OW17779   1.362   5.491   0.020
 5627SOL    HW117780   1.437   5.471   6.981
 5627SOL    HW217781   1.282   5.435   7.020
 5628SOL     OW17782   2.453   3.841   0.525
 5628SOL    HW117783   2.379   3.780   0.498
 5628SOL    HW217784   2.535   3.787   0.545
 5629SOL     OW17785   6.821   3.427   3.138
 5629SOL    HW117786   6.831   3.332   3.109
 5629SOL    HW217787   6.786   3.430   3.232
 5630SOL     OW17788   0.971   3.929   6.932
 5630SOL    HW117789   0.898   3.863   6.917
 5630SOL    HW217790   0.996   3.930   0.005
 5631SOL     OW17791   4.146   1.588   1.788
 5631SOL    HW117792   4.143   1.620   1.883
 5631SOL    HW217793   4.241   1.588   1.757
 5632SOL     OW17794   4.949   0.094   5.643
 5632SOL    HW117795   4.986   0.009   5.681
 5632SOL    HW217796   4.955   0.091   5.543
 5633SOL     OW17797   1.196   5.574   5.501
 5633SOL    HW117798   1.253   5.493   5.513
 5633SOL    HW217799   1.131   5.559   5.427
 5634SOL     OW17800   2.915   0.598   1.653
 5634SOL    HW117801   3.011   0.616   1.674
 5634SOL    HW217802   2.879   0.673   1.598
 5635SOL     OW17803   3.627   0.778   1.681
 5635SOL    HW117804   3.599   0.736   1.595
 5635SOL    HW217805   3.637   0.707   1.751
 5636SOL     OW17806   4.828   0.880   5.857
 5636SOL    HW117807   4.918   0.837   5.842
 5636SOL    HW217808   4.773   0.873   5.774
 5637SOL     OW17809   4.616   0.073   4.492
 5637SOL    HW117810   4.662   7.017   4.453
 5637SOL    HW217811   4.574   0.048   4.579
 5638SOL     OW17812   6.875   5.329   1.166
 5638SOL    HW117813   6.919   5.320   1.077
 5638SOL    HW217814   6.825   5.416   1.170
 5639SOL     OW17815   2.186   0.176   1.851
 5639SOL    HW117816   2.244   0.129   1.785
 5639SOL    HW217817   2.240   0.202   1.932
 5640SOL     OW17818   3.532   6.813   2.998
 5640SOL    HW117819   3.550   6.734   2.940
 5640SOL    HW217820   3.433   6.824   3.009
 5641SOL     OW17821   6.766   4.262   4.132
 5641SOL    HW117822   6.850   4.261   4.185
 5641SOL    HW217823   6.700   4.198   4.173
 5642SOL     OW17824   2.379   3.646   6.694
 5642SOL    HW117825   2.366   3.710   6.618
 5642SOL    HW217826   2.292   3.632   6.741
 5643SOL     OW17827   5.630   1.930   4.249
 5643SOL    HW117828   5.613   1.859   4.180
 5643SOL    HW217829   5.681   1.891   4.326
 5644SOL     OW17830   3.912   0.423   5.006
 5644SOL    HW117831   3.962   0.470   4.933
 5644SOL    HW217832   3.888   0.490   5.077
 5645SOL     OW17833   6.883   5.710   3.828
 5645SOL    HW117834   6.812   5.753   3.884
 5645SOL    HW217835   6.896   5.616   3.857
 5646SOL     OW17836   6.912   6.133   3.971
 5646SOL    HW117837   6.952   6.133   3.879
 5646SOL    HW217838   6.914   6.040   4.008
 5647SOL     OW17839   6.845   5.239   6.478
 5647SOL    HW117840   6.931   5.247   6.426
 5647SOL    HW217841   6.779   5.306   6.443
 5648SOL     OW17842   2.195   1.236   4.900
 5648SOL    HW117843   2.205   1.331   4.931
 5648SOL    HW217844   2.100   1.221   4.872
 5649SOL     OW17845   1.412   0.055   4.910
 5649SOL    HW117846   1.494   0.083   4.859
 5649SOL    HW217847   1.345   0.128   4.908
 5650SOL     OW17848   6.498   4.962   6.751
 5650SOL    HW117849   6.537   5.018   6.678
 5650SOL    HW217850   6.421   4.909   6.715
 5651SOL     OW17851   5.927   1.131   2.764
 5651SOL    HW117852   6.026   1.136   2.768
 5651SOL    HW217853   5.900   1.074   2.686
 5652SOL     OW17854   5.806   3.873   0.473
 5652SOL    HW117855   5.905   3.859   0.476
 5652SOL    HW217856   5.759   3.787   0.492
 5653SOL     OW17857   2.176   6.368   0.015
 5653SOL    HW117858   2.152   6.460   0.045
 5653SOL    HW217859   2.185   6.366   6.939
 5654SOL     OW17860   0.569   6.102   6.078
 5654SOL    HW117861   0.564   6.201   6.091
 5654SOL    HW217862   0.512   6.076   6.000
 5655SOL     OW17863   0.010   4.685   3.040
 5655SOL    HW117864   0.072   4.609   3.058
 5655SOL    HW217865   0.018   4.752   3.115
 5656SOL     OW17866   3.531   5.452   5.912
 5656SOL    HW117867   3.450   5.399   5.939
 5656SOL    HW217868   3.563   5.506   5.990
 5657SOL     OW17869   4.176   5.552   1.956
 5657SOL    HW117870   4.184   5.601   2.043
 5657SOL    HW217871   4.122   5.469   1.970
 5658SOL     OW17872   4.892   6.936   5.049
 5658SOL    HW117873   4.881   6.898   4.957
 5658SOL    HW217874   4.869   6.866   5.117
 5659SOL     OW17875   3.527   4.153   2.848
 5659SOL    HW117876   3.440   4.137   2.894
 5659SOL    HW217877   3.515   4.216   2.772
 5660SOL     OW17878   6.226   6.609   0.850
 5660SOL    HW117879   6.322   6.620   0.827
 5660SOL    HW217880   6.169   6.646   0.777
 5661SOL     OW17881   6.560   5.638   4.963
 5661SOL    HW117882   6.478   5.633   5.020
 5661SOL    HW217883   6.602   5.548   4.957
 5662SOL     OW17884   1.983   3.504   4.015
 5662SOL    HW117885   2.032   3.457   4.088
 5662SOL    HW217886   1.918   3.568   4.055
 5663SOL     OW17887   1.908   3.687   0.419
 5663SOL    HW117888   1.827   3.680   0.477
 5663SOL    HW217889   1.881   3.703   0.324
 5664SOL     OW17890   0.054   5.172   2.362
 5664SOL    HW117891   0.034   5.158   2.266
 5664SOL    HW217892   7.016   5.116   2.418
 5665SOL     OW17893   1.914   1.201   6.097
 5665SOL    HW117894   1.867   1.278   6.054
 5665SOL    HW217895   1.906   1.208   6.197
 5666SOL     OW17896   5.929   5.556   0.230
 5666SOL    HW117897   5.898   5.499   0.305
 5666SOL    HW217898   6.029   5.548   0.221
 5667SOL     OW17899   7.012   6.112   3.701
 5667SOL    HW117900   0.045   6.031   3.713
 5667SOL    HW217901   7.021   6.146   3.607
 5668SOL     OW17902   5.870   2.779   5.949
 5668SOL    HW117903   5.887   2.834   5.867
 5668SOL    HW217904   5.779   2.738   5.943
 5669SOL     OW17905   7.005   3.223   5.517
 5669SOL    HW117906   0.074   3.209   5.483
 5669SOL    HW217907   6.989   3.321   5.532
 5670SOL     OW17908   1.884   3.537   3.022
 5670SOL    HW117909   1.959   3.586   2.978
 5670SOL    HW217910   1.858   3.584   3.107
 5671SOL     OW17911   1.509   1.240   5.173
 5671SOL    HW117912   1.582   1.236   5.240
 5671SOL    HW217913   1.542   1.283   5.089
 5672SOL     OW17914   5.334   4.567   5.650
 5672SOL    HW117915   5.429   4.596   5.663
 5672SOL    HW217916   5.312   4.566   5.552
 5673SOL     OW17917   1.697   0.591   1.734
 5673SOL    HW117918   1.764   0.639   1.790
 5673SOL    HW217919   1.651   0.656   1.673
 5674SOL     OW17920   6.901   3.510   1.178
 5674SOL    HW117921   6.917   3.419   1.217
 5674SOL    HW217922   6.808   3.516   1.142
 5675SOL     OW17923   4.264   1.899   5.362
 5675SOL    HW117924   4.292   1.816   5.314
 5675SOL    HW217925   4.320   1.910   5.444
 5676SOL     OW17926   3.486   6.933   1.612
 5676SOL    HW117927   3.441   6.991   1.680
 5676SOL    HW217928   3.530   6.856   1.659
 5677SOL     OW17929   0.276   0.801   4.206
 5677SOL    HW117930   0.341   0.817   4.281
 5677SOL    HW217931   0.323   0.757   4.130
 5678SOL     OW17932   2.008   4.936   3.507
 5678SOL    HW117933   1.967   4.864   3.564
 5678SOL    HW217934   2.100   4.956   3.541
 5679SOL     OW17935   3.175   6.147   5.472
 5679SOL    HW117936   3.100   6.096   5.513
 5679SOL    HW217937   3.259   6.130   5.523
 5680SOL     OW17938   2.170   6.859   6.047
 5680SOL    HW117939   2.136   6.940   5.999
 5680SOL    HW217940   2.225   6.888   6.126
 5681SOL     OW17941   2.096   3.874   0.491
 5681SOL    HW117942   2.077   3.964   0.452
 5681SOL    HW217943   2.020   3.812   0.471
 5682SOL     OW17944   0.508   3.395   3.645
 5682SOL    HW117945   0.500   3.494   3.650
 5682SOL    HW217946   0.531   3.359   3.736
 5683SOL     OW17947   3.613   3.087   4.992
 5683SOL    HW117948   3.704   3.059   5.024
 5683SOL    HW217949   3.620   3.118   4.897
 5684SOL     OW17950   3.044   3.233   3.382
 5684SOL    HW117951   2.965   3.221   3.321
 5684SOL    HW217952   3.014   3.278   3.466
 5685SOL     OW17953   0.921   5.485   2.436
 5685SOL    HW117954   0.955   5.433   2.514
 5685SOL    HW217955   0.908   5.580   2.463
 5686SOL     OW17956   3.341   5.572   0.086
 5686SOL    HW117957   3.253   5.529   0.070
 5686SOL    HW217958   3.415   5.513   0.053
 5687SOL     OW17959   4.734   5.309   5.484
 5687SOL    HW117960   4.641   5.345   5.493
 5687SOL    HW217961   4.729   5.214   5.452
 5688SOL     OW17962   6.122   2.030   2.623
 5688SOL    HW117963   6.184   1.953   2.611
 5688SOL    HW217964   6.033   2.008   2.583
 5689SOL     OW17965   4.333   2.448   6.311
 5689SOL    HW117966   4.393   2.463   6.389
 5689SOL    HW217967   4.279   2.531   6.294
 5690SOL     OW17968   4.853   6.538   1.854
 5690SOL    HW117969   4.860   6.521   1.755
 5690SOL    HW217970   4.759   6.521   1.884
 5691SOL     OW17971   1.913   0.080   2.507
 5691SOL    HW117972   1.820   0.083   2.468
 5691SOL    HW217973   1.907   0.074   2.607
 5692SOL     OW17974   6.285   2.843   0.389
 5692SOL    HW117975   6.354   2.771   0.394
 5692SOL    HW217976   6.297   2.895   0.304
 5693SOL     OW17977   4.626   2.650   2.896
 5693SOL    HW117978   4.631   2.679   2.801
 5693SOL    HW217979   4.583   2.560   2.902
 5694SOL     OW17980   1.297   1.793   4.590
 5694SOL    HW117981   1.328   1.698   4.584
 5694SOL    HW217982   1.253   1.819   4.504
 5695SOL     OW17983   1.462   3.619   3.863
 5695SOL    HW117984   1.546   3.631   3.811
 5695SOL    HW217985   1.449   3.698   3.924
 5696SOL     OW17986   3.756   0.208   5.638
 5696SOL    HW117987   3.700   0.268   5.695
 5696SOL    HW217988   3.715   0.117   5.635
 5697SOL     OW17989   6.648   3.365   0.031
 5697SOL    HW117990   6.575   3.320   0.084
 5697SOL    HW217991   6.734   3.316   0.045
 5698SOL     OW17992   0.962   4.121   2.239
 5698SOL    HW117993   1.058   4.124   2.212
 5698SOL    HW217994   0.916   4.047   2.189
 5699SOL     OW17995   6.325   1.280   4.799
 5699SOL    HW117996   6.241   1.294   4.748
 5699SOL    HW217997   6.316   1.320   4.890
 5700SOL     OW17998   0.828   5.004   3.559
 5700SOL    HW117999   0.887   5.067   3.610
 5700SOL    HW218000   0.740   5.048   3.540
 5701SOL     OW18001   5.295   5.000   1.759
 5701SOL    HW118002   5.244   5.071   1.809
 5701SOL    HW218003   5.338   5.041   1.678
 5702SOL     OW18004   2.044   0.427   6.702
 5702SOL    HW118005   2.068   0.501   6.639
 5702SOL    HW218006   2.126   0.397   6.751
 5703SOL     OW18007   4.366   4.627   0.732
 5703SOL    HW118008   4.461   4.608   0.758
 5703SOL    HW218009   4.305   4.587   0.800
 5704SOL     OW18010   4.053   5.632   4.031
 5704SOL    HW118011   4.145   5.653   4.062
 5704SOL    HW218012   4.035   5.677   3.943
 5705SOL     OW18013   6.335   1.426   2.363
 5705SOL    HW118014   6.435   1.434   2.367
 5705SOL    HW218015   6.310   1.371   2.284
 5706SOL     OW18016   1.647   1.220   6.697
 5706SOL    HW118017   1.649   1.167   6.782
 5706SOL    HW218018   1.696   1.306   6.710
 5707SOL     OW18019   3.308   2.294   5.979
 5707SOL    HW118020   3.364   2.358   6.032
 5707SOL    HW218021   3.355   2.271   5.894
 5708SOL     OW18022   5.729   0.056   1.925
 5708SOL    HW118023   5.745   7.010   1.994
 5708SOL    HW218024   5.816   0.099   1.901
 5709SOL     OW18025   0.964   0.990   3.071
 5709SOL    HW118026   0.987   0.960   2.979
 5709SOL    HW218027   0.884   0.940   3.104
 5710SOL     OW18028   2.916   4.471   6.127
 5710SOL    HW118029   2.904   4.520   6.040
 5710SOL    HW218030   2.829   4.430   6.153
 5711SOL     OW18031   4.266   1.448   4.126
 5711SOL    HW118032   4.178   1.460   4.172
 5711SOL    HW218033   4.275   1.518   4.055
 5712SOL     OW18034   6.921   5.659   6.763
 5712SOL    HW118035   6.989   5.586   6.757
 5712SOL    HW218036   6.873   5.668   6.676
 5713SOL     OW18037   0.041   1.674   3.450
 5713SOL    HW118038   0.103   1.629   3.514
 5713SOL    HW218039   7.014   1.606   3.398
 5714SOL     OW18040   1.922   0.744   6.788
 5714SOL    HW118041   2.021   0.737   6.784
 5714SOL    HW218042   1.895   0.840   6.779
 5715SOL     OW18043   1.783   0.355   3.320
 5715SOL    HW118044   1.821   0.327   3.408
 5715SOL    HW218045   1.705   0.415   3.335
 5716SOL     OW18046   2.263   3.175   5.594
 5716SOL    HW118047   2.327   3.127   5.535
 5716SOL    HW218048   2.201   3.230   5.538
 5717SOL     OW18049   0.568   4.148   0.321
 5717SOL    HW118050   0.530   4.057   0.301
 5717SOL    HW218051   0.504   4.218   0.289
 5718SOL     OW18052   1.929   4.671   5.471
 5718SOL    HW118053   1.940   4.769   5.489
 5718SOL    HW218054   2.019   4.632   5.450
 5719SOL     OW18055   3.028   0.578   6.587
 5719SOL    HW118056   3.032   0.517   6.509
 5719SOL    HW218057   3.007   0.526   6.670
 5720SOL     OW18058   2.146   4.997   4.184
 5720SOL    HW118059   2.244   5.012   4.171
 5720SOL    HW218060   2.101   5.084   4.204
 5721SOL     OW18061   0.894   4.509   1.862
 5721SOL    HW118062   0.918   4.507   1.959
 5721SOL    HW218063   0.850   4.422   1.837
 5722SOL     OW18064   5.108   0.871   3.643
 5722SOL    HW118065   5.151   0.787   3.678
 5722SOL    HW218066   5.029   0.893   3.701
 5723SOL     OW18067   1.507   4.820   1.187
 5723SOL    HW118068   1.595   4.834   1.232
 5723SOL    HW218069   1.499   4.724   1.159
 5724SOL     OW18070   4.670   1.865   6.983
 5724SOL    HW118071   4.746   1.924   7.008
 5724SOL    HW218072   4.616   1.908   6.911
 5725SOL     OW18073   5.184   5.752   6.078
 5725SOL    HW118074   5.185   5.728   6.175
 5725SOL    HW218075   5.278   5.757   6.044
 5726SOL     OW18076   4.651   3.209   6.033
 5726SOL    HW118077   4.741   3.222   5.991
 5726SOL    HW218078   4.655   3.238   6.129
 5727SOL     OW18079   5.780   1.577   3.884
 5727SOL    HW118080   5.761   1.480   3.903
 5727SOL    HW218081   5.792   1.589   3.785
 5728SOL     OW18082   5.926   0.795   6.373
 5728SOL    HW118083   5.827   0.783   6.361
 5728SOL    HW218084   5.975   0.728   6.317
 5729SOL     OW18085   0.657   2.928   5.306
 5729SOL    HW118086   0.645   2.835   5.273
 5729SOL    HW218087   0.748   2.960   5.283
 5730SOL     OW18088   4.404   5.285   6.911
 5730SOL    HW118089   4.418   5.384   6.912
 5730SOL    HW218090   4.488   5.240   6.879
 5731SOL     OW18091   3.522   1.129   4.596
 5731SOL    HW118092   3.443   1.070   4.614
 5731SOL    HW218093   3.602   1.093   4.644
 5732SOL     OW18094   5.723   4.294   4.011
 5732SOL    HW118095   5.715   4.259   4.104
 5732SOL    HW218096   5.691   4.389   4.008
 5733SOL     OW18097   2.968   0.139   0.748
 5733SOL    HW118098   2.950   0.091   0.663
 5733SOL    HW218099   2.900   0.113   0.817
 5734SOL     OW18100   2.424   5.631   6.408
 5734SOL    HW118101   2.435   5.568   6.332
 5734SOL    HW218102   2.395   5.581   6.490
 5735SOL     OW18103   4.713   0.584   1.881
 5735SOL    HW118104   4.724   0.492   1.842
 5735SOL    HW218105   4.621   0.593   1.920
 5736SOL     OW18106   5.585   3.982   0.375
 5736SOL    HW118107   5.613   4.050   0.307
 5736SOL    HW218108   5.667   3.945   0.420
 5737SOL     OW18109   4.219   5.241   1.066
 5737SOL    HW118110   4.214   5.324   1.121
 5737SOL    HW218111   4.287   5.179   1.106
 5738SOL     OW18112   3.122   0.670   0.616
 5738SOL    HW118113   3.108   0.602   0.544
 5738SOL    HW218114   3.151   0.624   0.700
 5739SOL     OW18115   1.930   0.818   5.767
 5739SOL    HW118116   1.880   0.797   5.683
 5739SOL    HW218117   1.977   0.905   5.757
 5740SOL     OW18118   4.829   3.630   1.844
 5740SOL    HW118119   4.916   3.679   1.837
 5740SOL    HW218120   4.847   3.536   1.874
 5741SOL     OW18121   0.702   3.582   3.910
 5741SOL    HW118122   0.667   3.492   3.884
 5741SOL    HW218123   0.791   3.598   3.866
 5742SOL     OW18124   5.001   0.334   3.266
 5742SOL    HW118125   5.078   0.271   3.268
 5742SOL    HW218126   4.916   0.283   3.247
 5743SOL     OW18127   3.928   4.628   0.232
 5743SOL    HW118128   3.991   4.659   0.303
 5743SOL    HW218129   3.840   4.674   0.243
 5744SOL     OW18130   5.118   6.744   3.084
 5744SOL    HW118131   5.213   6.768   3.063
 5744SOL    HW218132   5.073   6.713   3.000
 5745SOL     OW18133   1.454   2.694   2.068
 5745SOL    HW118134   1.552   2.684   2.049
 5745SOL    HW218135   1.401   2.660   1.991
 5746SOL     OW18136   4.807   0.003   3.117
 5746SOL    HW118137   4.752   0.019   3.035
 5746SOL    HW218138   4.836   6.931   3.118
 5747SOL     OW18139   0.841   6.263   0.824
 5747SOL    HW118140   0.796   6.207   0.894
 5747SOL    HW218141   0.931   6.293   0.857
 5748SOL     OW18142   0.024   5.938   0.644
 5748SOL    HW118143   6.984   5.863   0.663
 5748SOL    HW218144   0.055   5.976   0.731
 5749SOL     OW18145   1.623   5.646   6.391
 5749SOL    HW118146   1.609   5.745   6.396
 5749SOL    HW218147   1.619   5.616   6.296
 5750SOL     OW18148   6.484   3.547   3.788
 5750SOL    HW118149   6.489   3.535   3.887
 5750SOL    HW218150   6.441   3.467   3.747
 5751SOL     OW18151   1.643   3.627   4.951
 5751SOL    HW118152   1.739   3.625   4.923
 5751SOL    HW218153   1.610   3.721   4.948
 5752SOL     OW18154   4.722   0.286   1.038
 5752SOL    HW118155   4.774   0.276   0.953
 5752SOL    HW218156   4.724   0.200   1.088
 5753SOL     OW18157   3.784   4.274   5.156
 5753SOL    HW118158   3.834   4.220   5.089
 5753SOL    HW218159   3.695   4.299   5.120
 5754SOL     OW18160   0.762   5.820   1.675
 5754SOL    HW118161   0.765   5.784   1.768
 5754SOL    HW218162   0.766   5.920   1.678
 5755SOL     OW18163   1.035   2.302   6.781
 5755SOL    HW118164   1.096   2.316   6.859
 5755SOL    HW218165   1.074   2.343   6.699
 5756SOL     OW18166   5.848   5.986   1.261
 5756SOL    HW118167   5.947   5.992   1.270
 5756SOL    HW218168   5.824   5.951   1.171
 5757SOL     OW18169   6.622   0.498   4.535
 5757SOL    HW118170   6.641   0.409   4.494
 5757SOL    HW218171   6.684   0.567   4.496
 5758SOL     OW18172   5.974   6.853   2.997
 5758SOL    HW118173   5.911   6.792   3.046
 5758SOL    HW218174   6.054   6.801   2.968
 5759SOL     OW18175   3.740   0.047   0.955
 5759SOL    HW118176   3.688   0.022   0.873
 5759SOL    HW218177   3.832   0.010   0.949
 5760SOL     OW18178   1.165   3.291   0.644
 5760SOL    HW118179   1.077   3.338   0.653
 5760SOL    HW218180   1.198   3.265   0.735
 5761SOL     OW18181   6.010   0.120   4.332
 5761SOL    HW118182   6.048   0.195   4.387
 5761SOL    HW218183   5.935   0.078   4.381
 5762SOL     OW18184   6.387   5.909   6.767
 5762SOL    HW118185   6.464   5.846   6.763
 5762SOL    HW218186   6.304   5.863   6.736
 5763SOL     OW18187   6.232   6.903   6.794
 5763SOL    HW118188   6.170   6.828   6.771
 5763SOL    HW218189   6.197   6.950   6.875
 5764SOL     OW18190   4.841   6.844   3.691
 5764SOL    HW118191   4.875   6.752   3.709
 5764SOL    HW218192   4.755   6.858   3.739
 5765SOL     OW18193   5.852   5.336   2.039
 5765SOL    HW118194   5.772   5.308   2.092
 5765SOL    HW218195   5.891   5.256   1.993
 5766SOL     OW18196   0.128   1.527   4.160
 5766SOL    HW118197   0.145   1.428   4.161
 5766SOL    HW218198   0.153   1.566   4.249
 5767SOL     OW18199   3.391   6.796   6.923
 5767SOL    HW118200   3.363   6.747   6.841
 5767SOL    HW218201   3.485   6.829   6.912
 5768SOL     OW18202   0.366   0.631   4.507
 5768SOL    HW118203   0.401   0.725   4.502
 5768SOL    HW218204   0.266   0.632   4.506
 5769SOL     OW18205   1.596   4.487   6.575
 5769SOL    HW118206   1.678   4.477   6.518
 5769SOL    HW218207   1.543   4.402   6.571
 5770SOL     OW18208   1.723   4.973   1.819
 5770SOL    HW118209   1.819   4.956   1.799
 5770SOL    HW218210   1.689   5.047   1.761
 5771SOL     OW18211   3.158   5.323   3.255
 5771SOL    HW118212   3.130   5.271   3.174
 5771SOL    HW218213   3.234   5.276   3.299
 5772SOL     OW18214   2.891   0.326   2.117
 5772SOL    HW118215   2.956   0.325   2.193
 5772SOL    HW218216   2.915   0.399   2.054
 5773SOL     OW18217   4.847   1.759   2.472
 5773SOL    HW118218   4.777   1.742   2.541
 5773SOL    HW218219   4.906   1.834   2.502
 5774SOL     OW18220   0.169   6.727   2.276
 5774SOL    HW118221   0.176   6.826   2.293
 5774SOL    HW218222   0.181   6.678   2.363
 5775SOL     OW18223   6.457   5.800   1.957
 5775SOL    HW118224   6.404   5.735   2.012
 5775SOL    HW218225   6.456   5.890   2.000
 5776SOL     OW18226   2.715   0.957   3.822
 5776SOL    HW118227   2.630   0.910   3.844
 5776SOL    HW218228   2.695   1.036   3.764
 5777SOL     OW18229   1.526   6.190   2.946
 5777SOL    HW118230   1.516   6.189   2.847
 5777SOL    HW218231   1.553   6.282   2.976
 5778SOL     OW18232   0.320   1.761   0.577
 5778SOL    HW118233   0.280   1.772   0.668
 5778SOL    HW218234   0.265   1.813   0.511
 5779SOL     OW18235   5.945   1.803   5.891
 5779SOL    HW118236   5.871   1.739   5.868
 5779SOL    HW218237   5.933   1.888   5.840
 5780SOL     OW18238   5.179   6.096   3.748
 5780SOL    HW118239   5.201   6.107   3.845
 5780SOL    HW218240   5.231   6.020   3.710
 5781SOL     OW18241   0.356   4.881   5.058
 5781SOL    HW118242   0.364   4.783   5.076
 5781SOL    HW218243   0.304   4.895   4.974
 5782SOL     OW18244   0.716   0.817   0.444
 5782SOL    HW118245   0.704   0.841   0.348
 5782SOL    HW218246   0.626   0.812   0.489
 5783SOL     OW18247   1.353   1.629   1.144
 5783SOL    HW118248   1.344   1.586   1.234
 5783SOL    HW218249   1.429   1.587   1.094
 5784SOL     OW18250   6.788   6.438   6.276
 5784SOL    HW118251   6.726   6.389   6.214
 5784SOL    HW218252   6.829   6.515   6.227
 5785SOL     OW18253   1.314   1.765   0.622
 5785SOL    HW118254   1.342   1.860   0.607
 5785SOL    HW218255   1.214   1.760   0.625
 5786SOL     OW18256   5.736   4.395   1.053
 5786SOL    HW118257   5.800   4.440   0.991
 5786SOL    HW218258   5.786   4.330   1.110
 5787SOL     OW18259   3.468   1.986   5.851
 5787SOL    HW118260   3.439   2.082   5.846
 5787SOL    HW218261   3.401   1.928   5.806
 5788SOL     OW18262   2.629   1.161   3.684
 5788SOL    HW118263   2.572   1.110   3.618
 5788SOL    HW218264   2.585   1.248   3.706
 5789SOL     OW18265   4.232   4.850   6.192
 5789SOL    HW118266   4.321   4.876   6.154
 5789SOL    HW218267   4.246   4.797   6.275
 5790SOL     OW18268   0.515   2.373   3.451
 5790SOL    HW118269   0.515   2.460   3.402
 5790SOL    HW218270   0.424   2.357   3.490
 5791SOL     OW18271   2.830   0.843   2.655
 5791SOL    HW118272   2.807   0.939   2.668
 5791SOL    HW218273   2.917   0.836   2.605
 5792SOL     OW18274   6.615   2.543   2.766
 5792SOL    HW118275   6.549   2.575   2.835
 5792SOL    HW218276   6.611   2.443   2.759
 5793SOL     OW18277   0.147   0.569   3.791
 5793SOL    HW118278   0.064   0.619   3.815
 5793SOL    HW218279   0.162   0.575   3.692
 5794SOL     OW18280   4.461   3.450   7.024
 5794SOL    HW118281   4.513   3.394   6.960
 5794SOL    HW218282   4.500   3.543   0.002
 5795SOL     OW18283   5.786   4.022   6.222
 5795SOL    HW118284   5.818   3.928   6.234
 5795SOL    HW218285   5.751   4.033   6.129
 5796SOL     OW18286   3.926   1.389   0.259
 5796SOL    HW118287   3.937   1.425   0.166
 5796SOL    HW218288   3.999   1.425   0.318
 5797SOL     OW18289   3.098   2.004   4.710
 5797SOL    HW118290   3.098   1.904   4.718
 5797SOL    HW218291   3.141   2.044   4.791
 5798SOL     OW18292   6.423   4.527   4.707
 5798SOL    HW118293   6.435   4.449   4.645
 5798SOL    HW218294   6.434   4.496   4.802
 5799SOL     OW18295   5.516   0.277   3.777
 5799SOL    HW118296   5.432   0.287   3.831
 5799SOL    HW218297   5.586   0.233   3.833
 5800SOL     OW18298   6.094   4.850   0.617
 5800SOL    HW118299   6.189   4.827   0.638
 5800SOL    HW218300   6.034   4.805   0.683
 5801SOL     OW18301   1.882   1.722   3.738
 5801SOL    HW118302   1.966   1.758   3.697
 5801SOL    HW218303   1.900   1.693   3.831
 5802SOL     OW18304   0.458   3.424   5.697
 5802SOL    HW118305   0.365   3.423   5.660
 5802SOL    HW218306   0.504   3.508   5.670
 5803SOL     OW18307   1.379   4.413   0.510
 5803SOL    HW118308   1.436   4.415   0.428
 5803SOL    HW218309   1.337   4.503   0.525
 5804SOL     OW18310   6.129   4.100   4.700
 5804SOL    HW118311   6.107   4.030   4.632
 5804SOL    HW218312   6.137   4.189   4.655
 5805SOL     OW18313   4.868   3.364   6.419
 5805SOL    HW118314   4.907   3.380   6.509
 5805SOL    HW218315   4.896   3.273   6.386
 5806SOL     OW18316   0.684   6.377   6.948
 5806SOL    HW118317   0.678   6.435   6.866
 5806SOL    HW218318   0.687   6.281   6.920
 5807SOL     OW18319   1.865   3.253   1.570
 5807SOL    HW118320   1.869   3.347   1.537
 5807SOL    HW218321   1.822   3.250   1.660
 5808SOL     OW18322   6.478   3.810   2.610
 5808SOL    HW118323   6.423   3.886   2.645
 5808SOL    HW218324   6.427   3.763   2.537
 5809SOL     OW18325   0.044   3.659   4.188
 5809SOL    HW118326   0.139   3.635   4.166
 5809SOL    HW218327   0.032   3.660   4.288
 5810SOL     OW18328   2.514   2.011   2.096
 5810SOL    HW118329   2.609   1.994   2.123
 5810SOL    HW218330   2.470   2.070   2.163
 5811SOL     OW18331   2.598   1.206   4.065
 5811SOL    HW118332   2.518   1.156   4.031
 5811SOL    HW218333   2.626   1.167   4.153
 5812SOL     OW18334   4.519   0.721   4.054
 5812SOL    HW118335   4.459   0.735   4.132
 5812SOL    HW218336   4.526   0.806   4.002
 5813SOL     OW18337   1.260   0.833   5.533
 5813SOL    HW118338   1.353   0.867   5.519
 5813SOL    HW218339   1.210   0.896   5.591
 5814SOL     OW18340   0.537   5.286   1.288
 5814SOL    HW118341   0.562   5.190   1.276
 5814SOL    HW218342   0.504   5.302   1.381
 5815SOL     OW18343   3.809   1.371   2.994
 5815SOL    HW118344   3.902   1.381   3.030
 5815SOL    HW218345   3.753   1.320   3.059
 5816SOL     OW18346   4.679   0.619   0.295
 5816SOL    HW118347   4.697   0.591   0.201
 5816SOL    HW218348   4.588   0.588   0.323
 5817SOL     OW18349   4.843   3.158   5.041
 5817SOL    HW118350   4.878   3.160   5.134
 5817SOL    HW218351   4.793   3.073   5.026
 5818SOL     OW18352   6.081   6.670   6.292
 5818SOL    HW118353   5.982   6.664   6.293
 5818SOL    HW218354   6.116   6.664   6.386
 5819SOL     OW18355   5.923   0.401   1.643
 5819SOL    HW118356   5.976   0.482   1.618
 5819SOL    HW218357   5.850   0.387   1.575
 5820SOL     OW18358   5.645   6.546   3.618
 5820SOL    HW118359   5.734   6.588   3.602
 5820SOL    HW218360   5.586   6.560   3.538
 5821SOL     OW18361   2.721   1.096   1.828
 5821SOL    HW118362   2.632   1.142   1.818
 5821SOL    HW218363   2.710   0.998   1.810
 5822SOL     OW18364   0.084   1.678   1.860
 5822SOL    HW118365   0.111   1.755   1.803
 5822SOL    HW218366   7.021   1.641   1.828
 5823SOL     OW18367   2.684   1.778   4.165
 5823SOL    HW118368   2.606   1.840   4.151
 5823SOL    HW218369   2.739   1.811   4.241
 5824SOL     OW18370   5.407   7.003   3.582
 5824SOL    HW118371   5.361   6.925   3.626
 5824SOL    HW218372   5.365   0.064   3.613
 5825SOL     OW18373   2.716   0.696   0.450
 5825SOL    HW118374   2.791   0.729   0.507
 5825SOL    HW218375   2.633   0.690   0.505
 5826SOL     OW18376   6.266   6.944   5.358
 5826SOL    HW118377   6.346   6.939   5.299
 5826SOL    HW218378   6.225   0.011   5.352
 5827SOL     OW18379   0.900   5.727   4.943
 5827SOL    HW118380   0.989   5.759   4.976
 5827SOL    HW218381   0.909   5.633   4.908
 5828SOL     OW18382   7.018   3.699   1.972
 5828SOL    HW118383   0.052   3.764   2.021
 5828SOL    HW218384   0.032   3.682   1.881
 5829SOL     OW18385   2.125   1.324   1.590
 5829SOL    HW118386   2.036   1.292   1.557
 5829SOL    HW218387   2.135   1.422   1.569
 5830SOL     OW18388   3.160   1.432   5.993
 5830SOL    HW118389   3.144   1.449   6.090
 5830SOL    HW218390   3.234   1.492   5.960
 5831SOL     OW18391   5.528   6.761   3.468
 5831SOL    HW118392   5.461   6.834   3.458
 5831SOL    HW218393   5.547   6.745   3.565
 5832SOL     OW18394   4.113   3.997   5.233
 5832SOL    HW118395   4.109   4.097   5.232
 5832SOL    HW218396   4.145   3.966   5.323
 5833SOL     OW18397   3.337   3.293   5.117
 5833SOL    HW118398   3.288   3.234   5.053
 5833SOL    HW218399   3.312   3.269   5.210
 5834SOL     OW18400   6.031   1.316   0.945
 5834SOL    HW118401   6.081   1.295   1.029
 5834SOL    HW218402   6.095   1.352   0.877
 5835SOL     OW18403   5.313   2.294   3.549
 5835SOL    HW118404   5.374   2.237   3.495
 5835SOL    HW218405   5.283   2.372   3.494
 5836SOL     OW18406   3.588   5.956   1.952
 5836SOL    HW118407   3.621   6.006   1.872
 5836SOL    HW218408   3.611   5.860   1.943
 5837SOL     OW18409   5.168   4.028   6.792
 5837SOL    HW118410   5.092   3.965   6.774
 5837SOL    HW218411   5.139   4.122   6.775
 5838SOL     OW18412   1.084   1.148   5.206
 5838SOL    HW118413   1.124   1.059   5.186
 5838SOL    HW218414   1.092   1.207   5.126
 5839SOL     OW18415   6.603   3.206   3.157
 5839SOL    HW118416   6.521   3.263   3.153
 5839SOL    HW218417   6.621   3.166   3.067
 5840SOL     OW18418   1.472   5.234   6.786
 5840SOL    HW118419   1.394   5.235   6.724
 5840SOL    HW218420   1.463   5.158   6.850
 5841SOL     OW18421   6.508   2.604   3.717
 5841SOL    HW118422   6.434   2.662   3.750
 5841SOL    HW218423   6.583   2.661   3.682
 5842SOL     OW18424   3.930   2.982   0.656
 5842SOL    HW118425   3.881   2.981   0.744
 5842SOL    HW218426   3.865   2.965   0.582
 5843SOL     OW18427   1.965   4.242   2.645
 5843SOL    HW118428   2.041   4.250   2.581
 5843SOL    HW218429   1.943   4.145   2.657
 5844SOL     OW18430   1.237   6.517   6.331
 5844SOL    HW118431   1.300   6.579   6.379
 5844SOL    HW218432   1.143   6.541   6.354
 5845SOL     OW18433   0.681   2.453   4.364
 5845SOL    HW118434   0.704   2.480   4.271
 5845SOL    HW218435   0.582   2.460   4.378
 5846SOL     OW18436   0.052   2.849   5.876
 5846SOL    HW118437   0.121   2.858   5.805
 5846SOL    HW218438   0.004   2.762   5.865
 5847SOL     OW18439   2.134   2.992   2.333
 5847SOL    HW118440   2.159   3.036   2.247
 5847SOL    HW218441   2.114   3.062   2.402
 5848SOL     OW18442   1.197   4.480   3.414
 5848SOL    HW118443   1.132   4.486   3.339
 5848SOL    HW218444   1.167   4.538   3.489
 5849SOL     OW18445   2.506   0.235   5.493
 5849SOL    HW118446   2.552   0.313   5.536
 5849SOL    HW218447   2.564   0.154   5.503
 5850SOL     OW18448   0.725   4.711   2.198
 5850SOL    HW118449   0.673   4.694   2.282
 5850SOL    HW218450   0.678   4.668   2.121
 5851SOL     OW18451   6.279   4.018   2.042
 5851SOL    HW118452   6.217   4.089   2.076
 5851SOL    HW218453   6.289   3.946   2.111
 5852SOL     OW18454   4.320   6.022   2.740
 5852SOL    HW118455   4.373   5.990   2.661
 5852SOL    HW218456   4.334   6.120   2.752
 5853SOL     OW18457   3.312   4.786   5.609
 5853SOL    HW118458   3.356   4.861   5.658
 5853SOL    HW218459   3.353   4.777   5.519
 5854SOL     OW18460   6.933   1.267   6.050
 5854SOL    HW118461   6.876   1.289   5.971
 5854SOL    HW218462   6.880   1.214   6.117
 5855SOL     OW18463   1.110   1.173   4.415
 5855SOL    HW118464   1.096   1.075   4.429
 5855SOL    HW218465   1.042   1.225   4.466
 5856SOL     OW18466   1.915   4.399   3.819
 5856SOL    HW118467   1.829   4.376   3.864
 5856SOL    HW218468   1.962   4.471   3.870
 5857SOL     OW18469   6.588   2.871   5.395
 5857SOL    HW118470   6.519   2.921   5.448
 5857SOL    HW218471   6.665   2.932   5.375
 5858SOL     OW18472   3.575   1.205   2.825
 5858SOL    HW118473   3.614   1.113   2.818
 5858SOL    HW218474   3.627   1.268   2.766
 5859SOL     OW18475   5.772   6.408   0.827
 5859SOL    HW118476   5.730   6.317   0.820
 5859SOL    HW218477   5.748   6.462   0.747
 5860SOL     OW18478   1.675   4.054   1.646
 5860SOL    HW118479   1.768   4.035   1.677
 5860SOL    HW218480   1.635   3.972   1.606
 5861SOL     OW18481   6.152   2.302   4.393
 5861SOL    HW118482   6.214   2.357   4.450
 5861SOL    HW218483   6.195   2.215   4.373
 5862SOL     OW18484   4.165   4.681   3.017
 5862SOL    HW118485   4.099   4.688   3.091
 5862SOL    HW218486   4.118   4.689   2.929
 5863SOL     OW18487   2.290   1.065   6.820
 5863SOL    HW118488   2.324   0.996   6.756
 5863SOL    HW218489   2.367   1.102   6.873
 5864SOL     OW18490   4.727   4.531   1.621
 5864SOL    HW118491   4.822   4.558   1.605
 5864SOL    HW218492   4.708   4.532   1.720
 5865SOL     OW18493   4.595   1.064   3.202
 5865SOL    HW118494   4.642   1.143   3.163
 5865SOL    HW218495   4.536   1.094   3.277
 5866SOL     OW18496   4.206   0.345   5.992
 5866SOL    HW118497   4.281   0.347   5.927
 5866SOL    HW218498   4.122   0.316   5.945
 5867SOL     OW18499   0.155   2.768   1.688
 5867SOL    HW118500   0.113   2.792   1.775
 5867SOL    HW218501   0.248   2.734   1.703
 5868SOL     OW18502   1.904   6.945   5.403
 5868SOL    HW118503   1.818   6.902   5.375
 5868SOL    HW218504   1.885   7.020   5.466
 5869SOL     OW18505   2.835   4.756   4.241
 5869SOL    HW118506   2.918   4.723   4.288
 5869SOL    HW218507   2.854   4.765   4.144
 5870SOL     OW18508   5.205   5.280   4.753
 5870SOL    HW118509   5.162   5.235   4.831
 5870SOL    HW218510   5.271   5.219   4.710
 5871SOL     OW18511   3.424   3.180   6.830
 5871SOL    HW118512   3.347   3.131   6.868
 5871SOL    HW218513   3.492   3.196   6.901
 5872SOL     OW18514   3.230   6.203   5.854
 5872SOL    HW118515   3.295   6.138   5.894
 5872SOL    HW218516   3.262   6.296   5.871
 5873SOL     OW18517   3.104   3.414   7.000
 5873SOL    HW118518   3.059   3.427   0.064
 5873SOL    HW218519   3.199   3.445   7.006
 5874SOL     OW18520   2.118   3.478   1.278
 5874SOL    HW118521   2.217   3.471   1.267
 5874SOL    HW218522   2.073   3.402   1.230
 5875SOL     OW18523   3.543   1.562   6.920
 5875SOL    HW118524   3.461   1.553   6.976
 5875SOL    HW218525   3.600   1.637   6.955
 5876SOL     OW18526   3.490   4.257   6.204
 5876SOL    HW118527   3.513   4.231   6.298
 5876SOL    HW218528   3.406   4.211   6.176
 5877SOL     OW18529   6.878   0.055   3.035
 5877SOL    HW118530   6.940   0.062   3.113
 5877SOL    HW218531   6.851   0.147   3.006
 5878SOL     OW18532   4.962   4.774   2.879
 5878SOL    HW118533   5.054   4.737   2.862
 5878SOL    HW218534   4.958   4.812   2.971
 5879SOL     OW18535   3.981   3.496   5.941
 5879SOL    HW118536   3.916   3.444   5.997
 5879SOL    HW218537   4.051   3.435   5.905
 5880SOL     OW18538   5.047   2.663   5.476
 5880SOL    HW118539   4.990   2.677   5.557
 5880SOL    HW218540   5.118   2.596   5.496
 5881SOL     OW18541   1.276   5.900   2.513
 5881SOL    HW118542   1.269   5.954   2.430
 5881SOL    HW218543   1.285   5.803   2.490
 5882SOL     OW18544   1.856   5.526   6.213
 5882SOL    HW118545   1.851   5.618   6.251
 5882SOL    HW218546   1.948   5.511   6.176
 5883SOL     OW18547   0.586   4.347   1.014
 5883SOL    HW118548   0.614   4.420   0.950
 5883SOL    HW218549   0.586   4.383   1.107
 5884SOL     OW18550   6.315   1.620   3.677
 5884SOL    HW118551   6.391   1.591   3.618
 5884SOL    HW218552   6.300   1.718   3.667
 5885SOL     OW18553   0.191   5.245   0.208
 5885SOL    HW118554   0.252   5.167   0.195
 5885SOL    HW218555   0.121   5.221   0.276
 5886SOL     OW18556   1.930   4.176   3.544
 5886SOL    HW118557   1.917   4.077   3.540
 5886SOL    HW218558   1.954   4.210   3.453
 5887SOL     OW18559   2.421   2.504   0.820
 5887SOL    HW118560   2.368   2.421   0.838
 5887SOL    HW218561   2.371   2.562   0.756
 5888SOL     OW18562   3.353   6.922   1.000
 5888SOL    HW118563   3.395   6.968   0.922
 5888SOL    HW218564   3.272   6.871   0.969
 5889SOL     OW18565   6.119   0.544   2.084
 5889SOL    HW118566   6.143   0.460   2.035
 5889SOL    HW218567   6.020   0.558   2.079
 5890SOL     OW18568   2.454   6.290   2.246
 5890SOL    HW118569   2.534   6.236   2.271
 5890SOL    HW218570   2.467   6.330   2.155
 5891SOL     OW18571   2.626   3.543   0.789
 5891SOL    HW118572   2.536   3.556   0.833
 5891SOL    HW218573   2.628   3.455   0.742
 5892SOL     OW18574   1.131   3.756   1.411
 5892SOL    HW118575   1.037   3.784   1.391
 5892SOL    HW218576   1.164   3.805   1.492
 5893SOL     OW18577   0.683   6.371   1.947
 5893SOL    HW118578   0.599   6.392   1.998
 5893SOL    HW218579   0.742   6.314   2.004
 5894SOL     OW18580   1.995   5.039   5.937
 5894SOL    HW118581   2.068   5.013   5.873
 5894SOL    HW218582   1.927   4.966   5.942
 5895SOL     OW18583   5.382   3.009   4.650
 5895SOL    HW118584   5.436   3.034   4.730
 5895SOL    HW218585   5.442   2.987   4.574
 5896SOL     OW18586   5.270   2.365   1.805
 5896SOL    HW118587   5.260   2.462   1.783
 5896SOL    HW218588   5.183   2.330   1.839
 5897SOL     OW18589   4.178   2.340   0.473
 5897SOL    HW118590   4.146   2.424   0.431
 5897SOL    HW218591   4.236   2.362   0.552
 5898SOL     OW18592   2.171   1.446   5.642
 5898SOL    HW118593   2.249   1.407   5.691
 5898SOL    HW218594   2.138   1.527   5.690
 5899SOL     OW18595   6.818   5.677   5.996
 5899SOL    HW118596   6.910   5.644   5.977
 5899SOL    HW218597   6.823   5.750   6.065
 5900SOL     OW18598   5.711   6.400   3.342
 5900SOL    HW118599   5.638   6.376   3.278
 5900SOL    HW218600   5.780   6.453   3.294
 5901SOL     OW18601   1.519   0.862   5.651
 5901SOL    HW118602   1.522   0.945   5.707
 5901SOL    HW218603   1.465   0.792   5.697
 5902SOL     OW18604   4.736   3.874   5.631
 5902SOL    HW118605   4.757   3.834   5.542
 5902SOL    HW218606   4.712   3.970   5.620
 5903SOL     OW18607   6.316   2.188   5.541
 5903SOL    HW118608   6.268   2.216   5.624
 5903SOL    HW218609   6.415   2.184   5.559
 5904SOL     OW18610   2.120   4.698   1.972
 5904SOL    HW118611   2.159   4.672   1.884
 5904SOL    HW218612   2.096   4.795   1.971
 5905SOL     OW18613   5.765   1.225   4.199
 5905SOL    HW118614   5.812   1.157   4.143
 5905SOL    HW218615   5.700   1.180   4.260
 5906SOL     OW18616   4.730   0.834   5.585
 5906SOL    HW118617   4.633   0.858   5.573
 5906SOL    HW218618   4.741   0.735   5.577
 5907SOL     OW18619   1.542   3.433   6.309
 5907SOL    HW118620   1.469   3.366   6.304
 5907SOL    HW218621   1.537   3.482   6.397
 5908SOL     OW18622   4.835   2.969   5.871
 5908SOL    HW118623   4.859   3.065   5.878
 5908SOL    HW218624   4.812   2.934   5.962
 5909SOL     OW18625   6.911   4.845   4.238
 5909SOL    HW118626   6.985   4.819   4.177
 5909SOL    HW218627   6.868   4.762   4.275
 5910SOL     OW18628   2.102   4.187   1.213
 5910SOL    HW118629   2.083   4.162   1.308
 5910SOL    HW218630   2.016   4.199   1.164
 5911SOL     OW18631   5.546   6.600   6.216
 5911SOL    HW118632   5.519   6.679   6.271
 5911SOL    HW218633   5.512   6.611   6.123
 5912SOL     OW18634   6.527   3.654   6.622
 5912SOL    HW118635   6.493   3.637   6.714
 5912SOL    HW218636   6.507   3.748   6.596
 5913SOL     OW18637   1.208   1.534   6.006
 5913SOL    HW118638   1.180   1.444   5.973
 5913SOL    HW218639   1.293   1.561   5.962
 5914SOL     OW18640   2.069   6.212   0.806
 5914SOL    HW118641   2.099   6.119   0.829
 5914SOL    HW218642   2.088   6.230   0.710
 5915SOL     OW18643   4.898   3.449   2.570
 5915SOL    HW118644   4.801   3.454   2.549
 5915SOL    HW218645   4.911   3.427   2.667
 5916SOL     OW18646   3.552   0.286   5.819
 5916SOL    HW118647   3.535   0.266   5.915
 5916SOL    HW218648   3.482   0.349   5.785
 5917SOL     OW18649   3.674   2.864   3.057
 5917SOL    HW118650   3.738   2.906   2.993
 5917SOL    HW218651   3.709   2.776   3.088
 5918SOL     OW18652   2.042   3.115   4.377
 5918SOL    HW118653   2.095   3.151   4.453
 5918SOL    HW218654   2.105   3.076   4.309
 5919SOL     OW18655   1.076   3.409   6.712
 5919SOL    HW118656   1.105   3.495   6.754
 5919SOL    HW218657   1.108   3.333   6.769
 5920SOL     OW18658   3.894   6.677   6.728
 5920SOL    HW118659   3.881   6.663   6.826
 5920SOL    HW218660   3.909   6.774   6.710
 5921SOL     OW18661   4.115   5.422   4.925
 5921SOL    HW118662   4.189   5.426   4.992
 5921SOL    HW218663   4.096   5.326   4.902
 5922SOL     OW18664   5.773   4.101   2.074
 5922SOL    HW118665   5.806   4.184   2.028
 5922SOL    HW218666   5.717   4.126   2.153
 5923SOL     OW18667   0.214   6.908   3.809
 5923SOL    HW118668   0.243   6.905   3.905
 5923SOL    HW218669   0.114   6.916   3.804
 5924SOL     OW18670   5.271   2.106   4.045
 5924SOL    HW118671   5.336   2.119   4.121
 5924SOL    HW218672   5.310   2.146   3.962
 5925SOL     OW18673   5.698   6.489   1.325
 5925SOL    HW118674   5.761   6.417   1.355
 5925SOL    HW218675   5.697   6.494   1.226
 5926SOL     OW18676   3.808   5.217   1.622
 5926SOL    HW118677   3.781   5.134   1.574
 5926SOL    HW218678   3.734   5.285   1.617
 5927SOL     OW18679   2.630   5.854   2.673
 5927SOL    HW118680   2.693   5.777   2.687
 5927SOL    HW218681   2.587   5.845   2.583
 5928SOL     OW18682   1.229   6.941   1.932
 5928SOL    HW118683   1.212   6.925   1.835
 5928SOL    HW218684   1.317   6.902   1.958
 5929SOL     OW18685   1.046   7.001   5.992
 5929SOL    HW118686   1.062   6.979   6.089
 5929SOL    HW218687   1.050   6.918   5.938
 5930SOL     OW18688   0.056   1.950   4.722
 5930SOL    HW118689   0.000   2.032   4.714
 5930SOL    HW218690   0.096   1.928   4.633
 5931SOL     OW18691   6.248   5.205   1.353
 5931SOL    HW118692   6.253   5.184   1.450
 5931SOL    HW218693   6.170   5.265   1.335
 5932SOL     OW18694   2.272   6.517   0.554
 5932SOL    HW118695   2.305   6.572   0.631
 5932SOL    HW218696   2.230   6.577   0.485
 5933SOL     OW18697   6.200   3.652   2.738
 5933SOL    HW118698   6.293   3.624   2.759
 5933SOL    HW218699   6.136   3.581   2.766
 5934SOL     OW18700   3.476   3.813   3.112
 5934SOL    HW118701   3.532   3.863   3.046
 5934SOL    HW218702   3.402   3.872   3.145
 5935SOL     OW18703   4.084   3.336   3.727
 5935SOL    HW118704   4.109   3.322   3.631
 5935SOL    HW218705   4.051   3.429   3.741
 5936SOL     OW18706   5.323   5.955   6.455
 5936SOL    HW118707   5.327   6.023   6.528
 5936SOL    HW218708   5.261   5.986   6.384
 5937SOL     OW18709   1.880   3.563   1.001
 5937SOL    HW118710   1.930   3.645   0.971
 5937SOL    HW218711   1.917   3.530   1.087
 5938SOL     OW18712   1.988   4.899   1.805
 5938SOL    HW118713   2.044   4.978   1.831
 5938SOL    HW218714   2.048   4.821   1.786
 5939SOL     OW18715   3.566   0.416   3.201
 5939SOL    HW118716   3.574   0.430   3.300
 5939SOL    HW218717   3.478   0.449   3.170
 5940SOL     OW18718   4.075   5.781   3.339
 5940SOL    HW118719   4.080   5.686   3.308
 5940SOL    HW218720   3.980   5.807   3.355
 5941SOL     OW18721   6.226   4.721   2.319
 5941SOL    HW118722   6.160   4.749   2.389
 5941SOL    HW218723   6.318   4.743   2.351
 5942SOL     OW18724   5.060   1.972   5.424
 5942SOL    HW118725   4.962   1.968   5.406
 5942SOL    HW218726   5.100   1.881   5.410
 5943SOL     OW18727   1.378   6.157   7.021
 5943SOL    HW118728   1.410   6.171   6.927
 5943SOL    HW218729   1.281   6.182   0.004
 5944SOL     OW18730   4.413   1.533   2.581
 5944SOL    HW118731   4.329   1.541   2.634
 5944SOL    HW218732   4.442   1.437   2.578
 5945SOL     OW18733   6.945   4.447   5.221
 5945SOL    HW118734   7.003   4.385   5.168
 5945SOL    HW218735   7.002   4.504   5.280
 5946SOL     OW18736   3.867   3.004   5.092
 5946SOL    HW118737   3.905   3.053   5.014
 5946SOL    HW218738   3.918   2.919   5.106
 5947SOL     OW18739   4.408   3.407   1.755
 5947SOL    HW118740   4.497   3.450   1.737
 5947SOL    HW218741   4.358   3.461   1.823
 5948SOL     OW18742   3.547   4.906   2.194
 5948SOL    HW118743   3.578   4.837   2.129
 5948SOL    HW218744   3.507   4.983   2.144
 5949SOL     OW18745   4.419   4.705   1.953
 5949SOL    HW118746   4.451   4.636   2.018
 5949SOL    HW218747   4.493   4.768   1.932
 5950SOL     OW18748   5.882   2.528   3.554
 5950SOL    HW118749   5.957   2.593   3.537
 5950SOL    HW218750   5.920   2.436   3.561
 5951SOL     OW18751   1.591   5.675   4.143
 5951SOL    HW118752   1.519   5.672   4.074
 5951SOL    HW218753   1.676   5.706   4.101
 5952SOL     OW18754   6.909   6.656   5.166
 5952SOL    HW118755   6.936   6.751   5.147
 5952SOL    HW218756   6.836   6.629   5.103
 5953SOL     OW18757   0.219   3.401   6.172
 5953SOL    HW118758   0.158   3.324   6.192
 5953SOL    HW218759   0.184   3.451   6.093
 5954SOL     OW18760   0.245   5.227   6.833
 5954SOL    HW118761   0.306   5.269   6.901
 5954SOL    HW218762   0.150   5.235   6.865
 5955SOL     OW18763   5.475   5.497   2.397
 5955SOL    HW118764   5.389   5.450   2.419
 5955SOL    HW218765   5.504   5.551   2.476
 5956SOL     OW18766   5.715   2.067   0.077
 5956SOL    HW118767   5.689   2.129   0.004
 5956SOL    HW218768   5.803   2.097   0.116
 5957SOL     OW18769   5.257   6.795   5.984
 5957SOL    HW118770   5.268   6.890   5.957
 5957SOL    HW218771   5.344   6.747   5.976
 5958SOL     OW18772   0.289   5.330   2.099
 5958SOL    HW118773   0.218   5.395   2.124
 5958SOL    HW218774   0.378   5.362   2.133
 5959SOL     OW18775   2.254   1.478   6.296
 5959SOL    HW118776   2.332   1.539   6.279
 5959SOL    HW218777   2.171   1.532   6.308
 5960SOL     OW18778   3.200   0.642   3.567
 5960SOL    HW118779   3.268   0.572   3.587
 5960SOL    HW218780   3.115   0.598   3.538
 5961SOL     OW18781   2.927   0.696   5.935
 5961SOL    HW118782   2.997   0.680   6.004
 5961SOL    HW218783   2.940   0.786   5.894
 5962SOL     OW18784   5.021   5.489   2.543
 5962SOL    HW118785   5.010   5.586   2.565
 5962SOL    HW218786   4.967   5.434   2.607
 5963SOL     OW18787   4.112   3.813   2.092
 5963SOL    HW118788   4.114   3.727   2.145
 5963SOL    HW218789   4.148   3.887   2.149
 5964SOL     OW18790   0.878   4.655   5.385
 5964SOL    HW118791   0.846   4.575   5.437
 5964SOL    HW218792   0.807   4.726   5.386
 5965SOL     OW18793   2.787   2.460   5.780
 5965SOL    HW118794   2.748   2.369   5.794
 5965SOL    HW218795   2.862   2.474   5.845
 5966SOL     OW18796   2.355   6.506   3.766
 5966SOL    HW118797   2.414   6.562   3.824
 5966SOL    HW218798   2.296   6.565   3.711
 5967SOL     OW18799   4.722   6.945   2.026
 5967SOL    HW118800   4.758   6.912   1.939
 5967SOL    HW218801   4.777   7.024   2.057
 5968SOL     OW18802   0.630   2.959   4.757
 5968SOL    HW118803   0.595   2.917   4.841
 5968SOL    HW218804   0.720   3.000   4.774
 5969SOL     OW18805   5.716   3.395   3.262
 5969SOL    HW118806   5.665   3.395   3.348
 5969SOL    HW218807   5.780   3.317   3.261
 5970SOL     OW18808   1.657   2.972   3.255
 5970SOL    HW118809   1.661   2.903   3.183
 5970SOL    HW218810   1.749   2.987   3.292
 5971SOL     OW18811   2.386   6.656   2.332
 5971SOL    HW118812   2.357   6.751   2.341
 5971SOL    HW218813   2.338   6.600   2.400
 5972SOL     OW18814   4.333   6.093   0.382
 5972SOL    HW118815   4.390   6.011   0.377
 5972SOL    HW218816   4.377   6.161   0.441
 5973SOL     OW18817   1.639   4.070   3.769
 5973SOL    HW118818   1.628   4.145   3.703
 5973SOL    HW218819   1.635   4.107   3.862
 5974SOL     OW18820   0.738   4.113   6.900
 5974SOL    HW118821   0.819   4.067   6.935
 5974SOL    HW218822   0.714   4.075   6.810
 5975SOL     OW18823   2.701   2.928   0.920
 5975SOL    HW118824   2.696   2.832   0.893
 5975SOL    HW218825   2.789   2.946   0.964
 5976SOL     OW18826   3.282   3.279   5.394
 5976SOL    HW118827   3.257   3.371   5.425
 5976SOL    HW218828   3.379   3.263   5.413
 5977SOL     OW18829   1.065   3.310   2.702
 5977SOL    HW118830   1.133   3.259   2.650
 5977SOL    HW218831   0.993   3.248   2.734
 5978SOL     OW18832   4.843   5.876   2.008
 5978SOL    HW118833   4.858   5.785   2.046
 5978SOL    HW218834   4.755   5.878   1.960
 5979SOL     OW18835   0.392   0.486   3.928
 5979SOL    HW118836   0.436   0.564   3.971
 5979SOL    HW218837   0.321   0.517   3.865
 5980SOL     OW18838   6.118   4.250   6.715
 5980SOL    HW118839   6.152   4.187   6.785
 5980SOL    HW218840   6.055   4.315   6.756
 5981SOL     OW18841   4.432   0.749   2.317
 5981SOL    HW118842   4.351   0.790   2.273
 5981SOL    HW218843   4.496   0.719   2.247
 5982SOL     OW18844   6.847   2.044   6.374
 5982SOL    HW118845   6.819   2.025   6.280
 5982SOL    HW218846   6.766   2.055   6.431
 5983SOL     OW18847   1.332   1.303   4.485
 5983SOL    HW118848   1.385   1.220   4.504
 5983SOL    HW218849   1.244   1.277   4.446
 5984SOL     OW18850   0.142   7.020   5.259
 5984SOL    HW118851   0.076   7.004   5.331
 5984SOL    HW218852   0.222   6.962   5.273
 5985SOL     OW18853   4.493   2.225   3.949
 5985SOL    HW118854   4.589   2.254   3.953
 5985SOL    HW218855   4.486   2.141   3.894
 5986SOL     OW18856   3.567   3.036   2.507
 5986SOL    HW118857   3.500   3.021   2.434
 5986SOL    HW218858   3.528   3.007   2.595
 5987SOL     OW18859   3.839   0.228   5.173
 5987SOL    HW118860   3.805   0.140   5.138
 5987SOL    HW218861   3.858   0.289   5.096
 5988SOL     OW18862   3.835   0.375   4.009
 5988SOL    HW118863   3.870   0.358   3.917
 5988SOL    HW218864   3.835   0.289   4.061
 5989SOL     OW18865   2.824   1.069   5.938
 5989SOL    HW118866   2.829   1.169   5.941
 5989SOL    HW218867   2.909   1.033   5.899
 5990SOL     OW18868   3.175   4.640   1.612
 5990SOL    HW118869   3.105   4.671   1.676
 5990SOL    HW218870   3.251   4.600   1.664
 5991SOL     OW18871   2.863   5.076   4.430
 5991SOL    HW118872   2.940   5.012   4.434
 5991SOL    HW218873   2.846   5.113   4.521
 5992SOL     OW18874   4.430   0.515   3.884
 5992SOL    HW118875   4.495   0.447   3.852
 5992SOL    HW218876   4.476   0.580   3.944
 5993SOL     OW18877   2.771   5.566   5.324
 5993SOL    HW118878   2.835   5.642   5.315
 5993SOL    HW218879   2.771   5.532   5.418
 5994SOL     OW18880   0.350   1.970   2.138
 5994SOL    HW118881   0.298   2.040   2.187
 5994SOL    HW218882   0.340   1.984   2.039
 5995SOL     OW18883   0.061   4.536   1.637
 5995SOL    HW118884   0.125   4.579   1.701
 5995SOL    HW218885   7.000   4.512   1.685
 5996SOL     OW18886   0.656   5.238   5.766
 5996SOL    HW118887   0.600   5.155   5.757
 5996SOL    HW218888   0.597   5.319   5.757
 5997SOL     OW18889   0.373   6.466   2.365
 5997SOL    HW118890   0.286   6.425   2.394
 5997SOL    HW218891   0.427   6.490   2.446
 5998SOL     OW18892   5.399   1.982   2.541
 5998SOL    HW118893   5.463   1.967   2.466
 5998SOL    HW218894   5.312   1.937   2.520
 5999SOL     OW18895   1.684   1.260   2.623
 5999SOL    HW118896   1.598   1.310   2.624
 5999SOL    HW218897   1.760   1.325   2.620
 6000SOL     OW18898   4.511   5.922   2.023
 6000SOL    HW118899   4.551   6.002   2.068
 6000SOL    HW218900   4.531   5.925   1.926
 6001SOL     OW18901   6.366   2.199   0.167
 6001SOL    HW118902   6.312   2.165   0.244
 6001SOL    HW218903   6.463   2.178   0.183
 6002SOL     OW18904   1.803   0.184   2.126
 6002SOL    HW118905   1.836   0.157   2.035
 6002SOL    HW218906   1.705   0.206   2.121
 6003SOL     OW18907   4.832   3.882   4.050
 6003SOL    HW118908   4.866   3.789   4.059
 6003SOL    HW218909   4.874   3.941   4.120
 6004SOL     OW18910   0.067   3.816   2.540
 6004SOL    HW118911   7.022   3.871   2.588
 6004SOL    HW218912   0.106   3.870   2.466
 6005SOL     OW18913   3.299   5.996   3.128
 6005SOL    HW118914   3.276   5.941   3.208
 6005SOL    HW218915   3.297   5.939   3.047
 6006SOL     OW18916   2.646   6.386   6.972
 6006SOL    HW118917   2.573   6.318   6.960
 6006SOL    HW218918   2.606   6.478   6.972
 6007SOL     OW18919   5.829   2.862   3.450
 6007SOL    HW118920   5.765   2.821   3.515
 6007SOL    HW218921   5.822   2.814   3.363
 6008SOL     OW18922   3.343   4.840   6.386
 6008SOL    HW118923   3.431   4.886   6.395
 6008SOL    HW218924   3.340   4.760   6.446
 6009SOL     OW18925   3.205   2.148   4.251
 6009SOL    HW118926   3.228   2.127   4.346
 6009SOL    HW218927   3.180   2.064   4.203
 6010SOL     OW18928   1.073   3.635   3.403
 6010SOL    HW118929   1.076   3.598   3.496
 6010SOL    HW218930   1.147   3.701   3.391
 6011SOL     OW18931   5.937   3.066   3.032
 6011SOL    HW118932   5.873   2.989   3.035
 6011SOL    HW218933   5.936   3.113   3.120
 6012SOL     OW18934   6.652   3.252   0.424
 6012SOL    HW118935   6.751   3.241   0.431
 6012SOL    HW218936   6.632   3.339   0.379
 6013SOL     OW18937   5.637   1.026   2.141
 6013SOL    HW118938   5.730   1.010   2.172
 6013SOL    HW218939   5.620   1.125   2.134
 6014SOL     OW18940   6.028   0.532   1.130
 6014SOL    HW118941   6.056   0.621   1.165
 6014SOL    HW218942   5.928   0.523   1.135
 6015SOL     OW18943   5.783   1.558   4.812
 6015SOL    HW118944   5.777   1.552   4.912
 6015SOL    HW218945   5.782   1.465   4.773
 6016SOL     OW18946   1.986   6.830   4.938
 6016SOL    HW118947   2.080   6.862   4.953
 6016SOL    HW218948   1.957   6.775   5.017
 6017SOL     OW18949   6.687   4.788   2.705
 6017SOL    HW118950   6.772   4.783   2.757
 6017SOL    HW218951   6.706   4.765   2.609
 6018SOL     OW18952   2.129   4.602   0.950
 6018SOL    HW118953   2.111   4.583   0.853
 6018SOL    HW218954   2.145   4.516   0.998
 6019SOL     OW18955   3.959   0.055   4.253
 6019SOL    HW118956   4.050   0.094   4.245
 6019SOL    HW218957   3.910   0.064   4.166
 6020SOL     OW18958   3.883   0.643   2.828
 6020SOL    HW118959   3.957   0.711   2.830
 6020SOL    HW218960   3.842   0.634   2.918
 6021SOL     OW18961   4.179   1.103   2.674
 6021SOL    HW118962   4.127   1.018   2.678
 6021SOL    HW218963   4.127   1.172   2.623
 6022SOL     OW18964   4.274   1.897   4.571
 6022SOL    HW118965   4.330   1.980   4.581
 6022SOL    HW218966   4.291   1.837   4.650
 6023SOL     OW18967   6.844   1.239   2.380
 6023SOL    HW118968   6.852   1.188   2.466
 6023SOL    HW218969   6.935   1.258   2.344
 6024SOL     OW18970   0.722   4.682   2.593
 6024SOL    HW118971   0.775   4.730   2.523
 6024SOL    HW218972   0.644   4.738   2.620
 6025SOL     OW18973   4.458   2.029   1.582
 6025SOL    HW118974   4.461   1.943   1.531
 6025SOL    HW218975   4.472   2.105   1.519
 6026SOL     OW18976   0.636   4.871   5.396
 6026SOL    HW118977   0.541   4.846   5.413
 6026SOL    HW218978   0.640   4.944   5.327
 6027SOL     OW18979   3.016   3.760   0.271
 6027SOL    HW118980   2.965   3.675   0.259
 6027SOL    HW218981   2.982   3.829   0.207
 6028SOL     OW18982   1.573   3.725   0.027
 6028SOL    HW118983   1.563   3.798   6.983
 6028SOL    HW218984   1.561   3.762   0.119
 6029SOL     OW18985   2.015   5.544   1.346
 6029SOL    HW118986   2.016   5.485   1.426
 6029SOL    HW218987   2.008   5.640   1.375
 6030SOL     OW18988   2.335   0.468   1.249
 6030SOL    HW118989   2.248   0.420   1.257
 6030SOL    HW218990   2.319   0.559   1.209
 6031SOL     OW18991   4.947   0.180   5.087
 6031SOL    HW118992   4.879   0.238   5.043
 6031SOL    HW218993   4.928   0.084   5.065
 6032SOL     OW18994   0.304   3.552   2.828
 6032SOL    HW118995   0.257   3.593   2.907
 6032SOL    HW218996   0.330   3.457   2.851
 6033SOL     OW18997   1.212   0.651   4.237
 6033SOL    HW118998   1.170   0.562   4.221
 6033SOL    HW218999   1.303   0.638   4.276
 6034SOL     OW19000   2.047   3.928   5.653
 6034SOL    HW119001   2.029   3.883   5.565
 6034SOL    HW219002   2.110   4.005   5.638
 6035SOL     OW19003   6.004   1.056   4.418
 6035SOL    HW119004   5.986   1.144   4.373
 6035SOL    HW219005   6.035   0.990   4.350
 6036SOL     OW19006   6.724   0.191   4.957
 6036SOL    HW119007   6.624   0.194   4.967
 6036SOL    HW219008   6.766   0.235   5.036
 6037SOL     OW19009   6.361   5.490   4.764
 6037SOL    HW119010   6.369   5.404   4.715
 6037SOL    HW219011   6.449   5.538   4.764
 6038SOL     OW19012   4.818   3.824   6.391
 6038SOL    HW119013   4.858   3.773   6.315
 6038SOL    HW219014   4.805   3.764   6.469
 6039SOL     OW19015   3.302   4.070   2.949
 6039SOL    HW119016   3.220   4.025   2.913
 6039SOL    HW219017   3.294   4.079   3.048
 6040SOL     OW19018   0.254   1.614   0.218
 6040SOL    HW119019   0.316   1.641   0.144
 6040SOL    HW219020   0.185   1.550   0.183
 6041SOL     OW19021   0.863   2.677   0.348
 6041SOL    HW119022   0.829   2.629   0.429
 6041SOL    HW219023   0.929   2.620   0.300
 6042SOL     OW19024   4.875   5.213   3.660
 6042SOL    HW119025   4.871   5.260   3.572
 6042SOL    HW219026   4.849   5.276   3.733
 6043SOL     OW19027   1.103   4.556   3.665
 6043SOL    HW119028   1.086   4.490   3.739
 6043SOL    HW219029   1.060   4.643   3.688
 6044SOL     OW19030   1.018   0.319   1.763
 6044SOL    HW119031   1.066   0.256   1.701
 6044SOL    HW219032   0.938   0.357   1.717
 6045SOL     OW19033   0.206   4.308   1.832
 6045SOL    HW119034   0.115   4.351   1.830
 6045SOL    HW219035   0.246   4.319   1.923
 6046SOL     OW19036   2.722   2.925   0.485
 6046SOL    HW119037   2.725   2.950   0.388
 6046SOL    HW219038   2.810   2.947   0.528
 6047SOL     OW19039   6.830   6.971   4.391
 6047SOL    HW119040   6.873   6.907   4.454
 6047SOL    HW219041   6.750   6.927   4.348
 6048SOL     OW19042   4.193   6.376   5.158
 6048SOL    HW119043   4.247   6.411   5.235
 6048SOL    HW219044   4.096   6.390   5.176
 6049SOL     OW19045   6.532   5.186   1.031
 6049SOL    HW119046   6.590   5.105   1.020
 6049SOL    HW219047   6.515   5.227   0.941
 6050SOL     OW19048   4.913   4.335   4.974
 6050SOL    HW119049   4.882   4.290   5.057
 6050SOL    HW219050   4.966   4.271   4.919
 6051SOL     OW19051   2.097   1.382   2.753
 6051SOL    HW119052   2.149   1.461   2.784
 6051SOL    HW219053   2.003   1.389   2.788
 6052SOL     OW19054   6.561   1.174   0.354
 6052SOL    HW119055   6.653   1.181   0.392
 6052SOL    HW219056   6.494   1.173   0.428
 6053SOL     OW19057   1.830   0.201   6.063
 6053SOL    HW119058   1.927   0.221   6.076
 6053SOL    HW219059   1.777   0.244   6.137
 6054SOL     OW19060   2.341   4.878   0.181
 6054SOL    HW119061   2.367   4.897   0.276
 6054SOL    HW219062   2.423   4.869   0.125
 6055SOL     OW19063   5.035   0.381   4.475
 6055SOL    HW119064   5.047   0.454   4.408
 6055SOL    HW219065   4.956   0.401   4.533
 6056SOL     OW19066   4.968   2.268   6.418
 6056SOL    HW119067   4.989   2.362   6.392
 6056SOL    HW219068   4.974   2.208   6.338
 6057SOL     OW19069   3.791   1.024   5.211
 6057SOL    HW119070   3.823   0.982   5.296
 6057SOL    HW219071   3.694   1.003   5.198
 6058SOL     OW19072   5.463   2.133   4.251
 6058SOL    HW119073   5.531   2.062   4.233
 6058SOL    HW219074   5.445   2.137   4.349
 6059SOL     OW19075   6.863   4.924   6.256
 6059SOL    HW119076   6.821   4.911   6.346
 6059SOL    HW219077   6.939   4.988   6.263
 6060SOL     OW19078   4.276   6.224   5.654
 6060SOL    HW119079   4.290   6.147   5.716
 6060SOL    HW219080   4.252   6.191   5.563
 6061SOL     OW19081   2.598   1.691   6.145
 6061SOL    HW119082   2.581   1.767   6.208
 6061SOL    HW219083   2.544   1.704   6.062
 6062SOL     OW19084   2.439   6.979   3.998
 6062SOL    HW119085   2.487   0.042   4.010
 6062SOL    HW219086   2.495   6.916   3.944
 6063SOL     OW19087   4.633   0.502   6.297
 6063SOL    HW119088   4.555   0.552   6.334
 6063SOL    HW219089   4.706   0.501   6.365
 6064SOL     OW19090   1.540   5.549   3.468
 6064SOL    HW119091   1.471   5.478   3.450
 6064SOL    HW219092   1.547   5.563   3.567
 6065SOL     OW19093   0.366   0.454   0.887
 6065SOL    HW119094   0.320   0.428   0.802
 6065SOL    HW219095   0.351   0.551   0.905
 6066SOL     OW19096   4.341   2.780   6.959
 6066SOL    HW119097   4.259   2.751   7.009
 6066SOL    HW219098   4.415   2.716   6.978
 6067SOL     OW19099   6.564   1.828   6.903
 6067SOL    HW119100   6.646   1.849   6.849
 6067SOL    HW219101   6.483   1.850   6.849
 6068SOL     OW19102   4.652   2.779   4.712
 6068SOL    HW119103   4.667   2.691   4.667
 6068SOL    HW219104   4.555   2.803   4.706
 6069SOL     OW19105   6.175   4.305   4.519
 6069SOL    HW119106   6.079   4.286   4.500
 6069SOL    HW219107   6.187   4.403   4.537
 6070SOL     OW19108   4.742   2.228   6.010
 6070SOL    HW119109   4.741   2.324   6.038
 6070SOL    HW219110   4.704   2.171   6.082
 6071SOL     OW19111   4.413   5.978   4.996
 6071SOL    HW119112   4.476   5.912   5.037
 6071SOL    HW219113   4.321   5.963   5.032
 6072SOL     OW19114   0.103   1.692   0.984
 6072SOL    HW119115   0.164   1.652   1.053
 6072SOL    HW219116   0.158   1.740   0.916
 6073SOL     OW19117   6.951   2.493   1.006
 6073SOL    HW119118   0.017   2.453   1.022
 6073SOL    HW219119   6.896   2.431   0.951
 6074SOL     OW19120   0.706   0.287   4.731
 6074SOL    HW119121   0.738   0.276   4.825
 6074SOL    HW219122   0.778   0.259   4.667
 6075SOL     OW19123   5.822   4.290   6.795
 6075SOL    HW119124   5.864   4.209   6.837
 6075SOL    HW219125   5.725   4.273   6.780
 6076SOL     OW19126   2.015   6.157   4.284
 6076SOL    HW119127   1.989   6.193   4.374
 6076SOL    HW219128   2.103   6.195   4.257
 6077SOL     OW19129   6.004   6.241   2.187
 6077SOL    HW119130   6.058   6.242   2.103
 6077SOL    HW219131   5.972   6.148   2.205
 6078SOL     OW19132   2.596   4.664   3.593
 6078SOL    HW119133   2.690   4.685   3.616
 6078SOL    HW219134   2.593   4.614   3.507
 6079SOL     OW19135   2.367   1.670   0.089
 6079SOL    HW119136   2.462   1.686   0.114
 6079SOL    HW219137   2.353   1.572   0.074
 6080SOL     OW19138   5.886   2.455   1.989
 6080SOL    HW119139   5.804   2.452   2.047
 6080SOL    HW219140   5.946   2.528   2.020
 6081SOL     OW19141   0.387   3.752   3.439
 6081SOL    HW119142   0.293   3.726   3.418
 6081SOL    HW219143   0.397   3.851   3.427
 6082SOL     OW19144   4.049   1.590   3.874
 6082SOL    HW119145   3.967   1.556   3.919
 6082SOL    HW219146   4.112   1.627   3.942
 6083SOL     OW19147   1.561   6.598   0.537
 6083SOL    HW119148   1.543   6.644   0.624
 6083SOL    HW219149   1.528   6.655   0.462
 6084SOL     OW19150   0.798   4.996   5.592
 6084SOL    HW119151   0.725   4.986   5.525
 6084SOL    HW219152   0.793   5.086   5.635
 6085SOL     OW19153   5.525   4.229   1.244
 6085SOL    HW119154   5.567   4.218   1.154
 6085SOL    HW219155   5.446   4.291   1.237
 6086SOL     OW19156   3.143   1.675   3.623
 6086SOL    HW119157   3.131   1.613   3.700
 6086SOL    HW219158   3.068   1.741   3.620
 6087SOL     OW19159   5.094   6.724   6.943
 6087SOL    HW119160   5.019   6.685   6.890
 6087SOL    HW219161   5.075   6.821   6.961
 6088SOL     OW19162   1.022   0.034   4.852
 6088SOL    HW119163   1.096   6.998   4.821
 6088SOL    HW219164   0.937   0.008   4.806
 6089SOL     OW19165   0.079   3.758   0.150
 6089SOL    HW119166   0.154   3.734   0.211
 6089SOL    HW219167   0.105   3.738   0.056
 6090SOL     OW19168   0.304   5.860   4.801
 6090SOL    HW119169   0.302   5.814   4.713
 6090SOL    HW219170   0.344   5.952   4.791
 6091SOL     OW19171   5.981   2.008   2.226
 6091SOL    HW119172   5.947   2.065   2.151
 6091SOL    HW219173   6.065   1.961   2.197
 6092SOL     OW19174   1.843   2.013   1.726
 6092SOL    HW119175   1.749   1.984   1.706
 6092SOL    HW219176   1.860   2.005   1.824
 6093SOL     OW19177   0.898   3.224   1.002
 6093SOL    HW119178   0.911   3.231   1.100
 6093SOL    HW219179   0.864   3.132   0.979
 6094SOL     OW19180   1.239   0.735   1.350
 6094SOL    HW119181   1.183   0.652   1.343
 6094SOL    HW219182   1.207   0.802   1.283
 6095SOL     OW19183   6.592   3.716   5.852
 6095SOL    HW119184   6.526   3.662   5.904
 6095SOL    HW219185   6.587   3.692   5.756
 6096SOL     OW19186   3.477   1.843   3.009
 6096SOL    HW119187   3.424   1.837   3.094
 6096SOL    HW219188   3.533   1.761   3.000
 6097SOL     OW19189   2.893   2.166   2.216
 6097SOL    HW119190   2.976   2.158   2.270
 6097SOL    HW219191   2.903   2.241   2.150
 6098SOL     OW19192   1.992   2.168   5.808
 6098SOL    HW119193   1.943   2.229   5.869
 6098SOL    HW219194   2.037   2.221   5.736
 6099SOL     OW19195   5.933   5.585   4.998
 6099SOL    HW119196   5.840   5.576   4.961
 6099SOL    HW219197   5.999   5.559   4.927
 6100SOL     OW19198   6.607   3.037   0.100
 6100SOL    HW119199   6.629   2.945   0.068
 6100SOL    HW219200   6.690   3.081   0.134
 6101SOL     OW19201   6.270   1.330   5.073
 6101SOL    HW119202   6.360   1.291   5.093
 6101SOL    HW219203   6.236   1.378   5.154
 6102SOL     OW19204   2.975   0.436   5.431
 6102SOL    HW119205   2.900   0.438   5.366
 6102SOL    HW219206   3.060   0.458   5.385
 6103SOL     OW19207   6.074   6.661   5.987
 6103SOL    HW119208   6.044   6.567   5.971
 6103SOL    HW219209   6.080   6.679   6.085
 6104SOL     OW19210   0.489   2.551   6.680
 6104SOL    HW119211   0.489   2.637   6.731
 6104SOL    HW219212   0.469   2.476   6.743
 6105SOL     OW19213   3.507   6.155   4.288
 6105SOL    HW119214   3.543   6.177   4.197
 6105SOL    HW219215   3.407   6.153   4.284
 6106SOL     OW19216   3.120   5.493   4.983
 6106SOL    HW119217   3.024   5.520   4.983
 6106SOL    HW219218   3.169   5.544   4.913
 6107SOL     OW19219   2.174   4.577   5.423
 6107SOL    HW119220   2.260   4.629   5.413
 6107SOL    HW219221   2.195   4.485   5.454
 6108SOL     OW19222   0.509   2.503   5.013
 6108SOL    HW119223   0.494   2.576   4.947
 6108SOL    HW219224   0.421   2.470   5.047
 6109SOL     OW19225   6.679   4.576   1.295
 6109SOL    HW119226   6.639   4.575   1.203
 6109SOL    HW219227   6.774   4.607   1.290
 6110SOL     OW19228   2.961   1.334   4.603
 6110SOL    HW119229   2.984   1.431   4.593
 6110SOL    HW219230   2.890   1.309   4.537
 6111SOL     OW19231   1.642   4.732   3.119
 6111SOL    HW119232   1.619   4.664   3.189
 6111SOL    HW219233   1.614   4.823   3.151
 6112SOL     OW19234   0.636   1.728   2.213
 6112SOL    HW119235   0.556   1.693   2.163
 6112SOL    HW219236   0.709   1.659   2.211
 6113SOL     OW19237   1.605   6.294   5.618
 6113SOL    HW119238   1.569   6.213   5.664
 6113SOL    HW219239   1.631   6.362   5.687
 6114SOL     OW19240   5.022   5.690   0.513
 6114SOL    HW119241   5.031   5.590   0.516
 6114SOL    HW219242   5.113   5.731   0.509
 6115SOL     OW19243   5.761   5.053   2.421
 6115SOL    HW119244   5.760   5.153   2.421
 6115SOL    HW219245   5.671   5.020   2.391
 6116SOL     OW19246   4.465   0.822   1.785
 6116SOL    HW119247   4.531   0.869   1.843
 6116SOL    HW219248   4.432   0.740   1.832
 6117SOL     OW19249   5.094   0.584   4.799
 6117SOL    HW119250   5.004   0.626   4.783
 6117SOL    HW219251   5.087   0.517   4.873
 6118SOL     OW19252   5.953   0.278   3.256
 6118SOL    HW119253   5.970   0.338   3.335
 6118SOL    HW219254   5.912   0.193   3.287
 6119SOL     OW19255   6.964   5.335   4.340
 6119SOL    HW119256   6.921   5.253   4.301
 6119SOL    HW219257   7.020   5.308   4.419
 6120SOL     OW19258   2.589   1.256   3.025
 6120SOL    HW119259   2.656   1.277   3.096
 6120SOL    HW219260   2.578   1.156   3.018
 6121SOL     OW19261   6.806   2.499   4.485
 6121SOL    HW119262   6.793   2.439   4.565
 6121SOL    HW219263   6.887   2.555   4.498
 6122SOL     OW19264   4.584   5.494   3.281
 6122SOL    HW119265   4.603   5.416   3.340
 6122SOL    HW219266   4.668   5.524   3.237
 6123SOL     OW19267   5.931   1.008   2.115
 6123SOL    HW119268   5.989   1.089   2.110
 6123SOL    HW219269   5.926   0.965   2.025
 6124SOL     OW19270   3.565   0.777   5.559
 6124SOL    HW119271   3.583   0.716   5.482
 6124SOL    HW219272   3.582   0.729   5.645
 6125SOL     OW19273   2.113   5.975   1.619
 6125SOL    HW119274   2.141   6.059   1.573
 6125SOL    HW219275   2.031   5.992   1.674
 6126SOL     OW19276   5.274   5.667   2.723
 6126SOL    HW119277   5.252   5.575   2.756
 6126SOL    HW219278   5.195   5.704   2.673
 6127SOL     OW19279   2.534   5.087   1.731
 6127SOL    HW119280   2.477   5.158   1.690
 6127SOL    HW219281   2.522   5.087   1.830
 6128SOL     OW19282   5.464   1.738   0.637
 6128SOL    HW119283   5.554   1.755   0.598
 6128SOL    HW219284   5.394   1.774   0.576
 6129SOL     OW19285   6.173   5.033   3.683
 6129SOL    HW119286   6.223   5.078   3.609
 6129SOL    HW219287   6.079   5.017   3.655
 6130SOL     OW19288   5.062   3.321   2.413
 6130SOL    HW119289   5.129   3.385   2.375
 6130SOL    HW219290   4.992   3.373   2.462
 6131SOL     OW19291   6.447   1.028   5.235
 6131SOL    HW119292   6.449   0.938   5.279
 6131SOL    HW219293   6.476   1.019   5.140
 6132SOL     OW19294   5.782   2.624   0.807
 6132SOL    HW119295   5.824   2.569   0.735
 6132SOL    HW219296   5.830   2.609   0.894
 6133SOL     OW19297   0.914   4.293   0.733
 6133SOL    HW119298   0.983   4.263   0.668
 6133SOL    HW219299   0.949   4.370   0.786
 6134SOL     OW19300   4.660   3.602   6.063
 6134SOL    HW119301   4.697   3.674   6.005
 6134SOL    HW219302   4.562   3.619   6.079
 6135SOL     OW19303   5.532   0.014   1.119
 6135SOL    HW119304   5.621   6.994   1.124
 6135SOL    HW219305   5.463   6.971   1.093
 6136SOL     OW19306   0.538   1.898   1.355
 6136SOL    HW119307   0.599   1.820   1.341
 6136SOL    HW219308   0.540   1.925   1.452
 6137SOL     OW19309   2.629   7.024   6.307
 6137SOL    HW119310   2.629   0.089   6.263
 6137SOL    HW219311   2.582   0.007   6.395
 6138SOL     OW19312   4.322   0.325   2.832
 6138SOL    HW119313   4.288   0.263   2.761
 6138SOL    HW219314   4.420   0.313   2.843
 6139SOL     OW19315   1.995   4.739   3.959
 6139SOL    HW119316   2.059   4.677   4.004
 6139SOL    HW219317   1.940   4.786   4.027
 6140SOL     OW19318   2.066   6.670   1.203
 6140SOL    HW119319   2.024   6.676   1.293
 6140SOL    HW219320   1.995   6.672   1.133
 6141SOL     OW19321   6.407   6.251   6.250
 6141SOL    HW119322   6.461   6.321   6.296
 6141SOL    HW219323   6.321   6.237   6.300
 6142SOL     OW19324   0.544   4.336   2.054
 6142SOL    HW119325   0.617   4.285   2.099
 6142SOL    HW219326   0.567   4.433   2.051
 6143SOL     OW19327   6.287   5.169   6.418
 6143SOL    HW119328   6.316   5.239   6.483
 6143SOL    HW219329   6.188   5.174   6.404
 6144SOL     OW19330   0.535   4.666   3.869
 6144SOL    HW119331   0.603   4.672   3.942
 6144SOL    HW219332   0.444   4.683   3.906
 6145SOL     OW19333   5.423   6.174   3.378
 6145SOL    HW119334   5.457   6.230   3.303
 6145SOL    HW219335   5.443   6.218   3.465
 6146SOL     OW19336   5.322   0.940   3.024
 6146SOL    HW119337   5.388   0.995   2.972
 6146SOL    HW219338   5.368   0.857   3.057
 6147SOL     OW19339   1.620   3.441   3.437
 6147SOL    HW119340   1.678   3.368   3.403
 6147SOL    HW219341   1.537   3.447   3.381
 6148SOL     OW19342   6.597   6.781   4.820
 6148SOL    HW119343   6.584   6.723   4.741
 6148SOL    HW219344   6.692   6.774   4.852
 6149SOL     OW19345   2.088   6.651   3.701
 6149SOL    HW119346   2.041   6.739   3.702
 6149SOL    HW219347   2.039   6.587   3.760
 6150SOL     OW19348   4.688   5.246   5.917
 6150SOL    HW119349   4.594   5.253   5.951
 6150SOL    HW219350   4.726   5.158   5.943
 6151SOL     OW19351   5.251   2.513   5.567
 6151SOL    HW119352   5.333   2.501   5.510
 6151SOL    HW219353   5.279   2.541   5.659
 6152SOL     OW19354   6.814   4.564   6.965
 6152SOL    HW119355   6.715   4.575   6.975
 6152SOL    HW219356   6.851   4.641   6.913
 6153SOL     OW19357   4.504   3.332   0.996
 6153SOL    HW119358   4.458   3.256   0.949
 6153SOL    HW219359   4.583   3.297   1.047
 6154SOL     OW19360   5.261   3.317   2.746
 6154SOL    HW119361   5.264   3.230   2.696
 6154SOL    HW219362   5.191   3.311   2.818
 6155SOL     OW19363   0.507   4.126   4.850
 6155SOL    HW119364   0.524   4.052   4.785
 6155SOL    HW219365   0.543   4.101   4.940
 6156SOL     OW19366   6.695   0.433   3.248
 6156SOL    HW119367   6.740   0.506   3.197
 6156SOL    HW219368   6.682   0.354   3.188
 6157SOL     OW19369   2.130   1.756   3.594
 6157SOL    HW119370   2.131   1.668   3.547
 6157SOL    HW219371   2.168   1.826   3.533
 6158SOL     OW19372   4.768   0.822   6.859
 6158SOL    HW119373   4.857   0.868   6.855
 6158SOL    HW219374   4.708   0.860   6.788
 6159SOL     OW19375   5.326   3.463   6.669
 6159SOL    HW119376   5.336   3.462   6.569
 6159SOL    HW219377   5.416   3.450   6.711
 6160SOL     OW19378   6.047   5.782   1.605
 6160SOL    HW119379   6.047   5.718   1.681
 6160SOL    HW219380   6.102   5.862   1.628
 6161SOL     OW19381   5.760   0.745   5.971
 6161SOL    HW119382   5.856   0.773   5.974
 6161SOL    HW219383   5.728   0.747   5.876
 6162SOL     OW19384   6.368   5.412   3.980
 6162SOL    HW119385   6.413   5.500   3.989
 6162SOL    HW219386   6.311   5.411   3.898
 6163SOL     OW19387   6.511   4.129   1.901
 6163SOL    HW119388   6.445   4.075   1.954
 6163SOL    HW219389   6.465   4.208   1.862
 6164SOL     OW19390   4.164   2.669   0.406
 6164SOL    HW119391   4.161   2.665   0.506
 6164SOL    HW219392   4.078   2.633   0.370
 6165SOL     OW19393   4.121   6.074   6.939
 6165SOL    HW119394   4.122   6.172   6.922
 6165SOL    HW219395   4.186   6.052   7.011
 6166SOL     OW19396   3.283   1.900   6.042
 6166SOL    HW119397   3.284   1.938   6.134
 6166SOL    HW219398   3.363   1.931   5.991
 6167SOL     OW19399   6.534   4.307   3.542
 6167SOL    HW119400   6.491   4.240   3.481
 6167SOL    HW219401   6.515   4.284   3.637
 6168SOL     OW19402   0.403   2.856   2.559
 6168SOL    HW119403   0.381   2.953   2.560
 6168SOL    HW219404   0.328   2.805   2.517
 6169SOL     OW19405   1.809   4.231   2.378
 6169SOL    HW119406   1.751   4.165   2.426
 6169SOL    HW219407   1.788   4.229   2.280
 6170SOL     OW19408   0.043   3.163   4.466
 6170SOL    HW119409   0.126   3.130   4.421
 6170SOL    HW219410   6.987   3.134   4.414
 6171SOL     OW19411   0.325   0.714   6.296
 6171SOL    HW119412   0.233   0.682   6.321
 6171SOL    HW219413   0.338   0.704   6.197
 6172SOL     OW19414   0.864   3.594   3.669
 6172SOL    HW119415   0.945   3.539   3.652
 6172SOL    HW219416   0.805   3.592   3.588
 6173SOL     OW19417   6.636   6.426   3.519
 6173SOL    HW119418   6.562   6.360   3.535
 6173SOL    HW219419   6.668   6.461   3.607
 6174SOL     OW19420   6.036   4.167   2.300
 6174SOL    HW119421   5.969   4.233   2.334
 6174SOL    HW219422   6.074   4.199   2.214
 6175SOL     OW19423   3.404   2.250   5.731
 6175SOL    HW119424   3.348   2.249   5.648
 6175SOL    HW219425   3.464   2.329   5.729
 6176SOL     OW19426   4.953   4.112   6.061
 6176SOL    HW119427   4.889   4.092   6.135
 6176SOL    HW219428   4.902   4.151   5.984
 6177SOL     OW19429   6.430   1.173   1.751
 6177SOL    HW119430   6.350   1.113   1.752
 6177SOL    HW219431   6.417   1.245   1.683
 6178SOL     OW19432   3.775   4.658   1.462
 6178SOL    HW119433   3.775   4.722   1.385
 6178SOL    HW219434   3.682   4.648   1.496
 6179SOL     OW19435   5.799   5.027   3.873
 6179SOL    HW119436   5.719   5.087   3.867
 6179SOL    HW219437   5.808   4.974   3.789
 6180SOL     OW19438   3.118   4.265   0.176
 6180SOL    HW119439   3.119   4.361   0.203
 6180SOL    HW219440   3.026   4.239   0.147
 6181SOL     OW19441   6.019   5.931   6.540
 6181SOL    HW119442   6.055   5.838   6.542
 6181SOL    HW219443   5.932   5.932   6.492
 6182SOL     OW19444   3.405   2.645   0.502
 6182SOL    HW119445   3.349   2.725   0.480
 6182SOL    HW219446   3.407   2.632   0.601
 6183SOL     OW19447   0.585   0.122   0.579
 6183SOL    HW119448   0.558   0.125   0.675
 6183SOL    HW219449   0.533   0.191   0.528
 6184SOL     OW19450   2.265   0.377   5.468
 6184SOL    HW119451   2.356   0.336   5.460
 6184SOL    HW219452   2.271   0.475   5.449
 6185SOL     OW19453   3.810   2.916   5.513
 6185SOL    HW119454   3.850   2.909   5.422
 6185SOL    HW219455   3.874   2.963   5.574
 6186SOL     OW19456   0.110   1.897   1.683
 6186SOL    HW119457   0.029   1.949   1.708
 6186SOL    HW219458   0.093   1.846   1.599
 6187SOL     OW19459   5.038   1.527   5.869
 6187SOL    HW119460   5.058   1.555   5.963
 6187SOL    HW219461   5.002   1.433   5.870
 6188SOL     OW19462   1.557   1.773   5.000
 6188SOL    HW119463   1.498   1.853   5.009
 6188SOL    HW219464   1.531   1.722   4.918
 6189SOL     OW19465   6.180   6.410   1.296
 6189SOL    HW119466   6.165   6.391   1.393
 6189SOL    HW219467   6.112   6.476   1.263
 6190SOL     OW19468   0.586   3.094   5.049
 6190SOL    HW119469   0.668   3.121   4.999
 6190SOL    HW219470   0.610   3.079   5.145
 6191SOL     OW19471   4.102   3.851   0.084
 6191SOL    HW119472   4.022   3.906   0.060
 6191SOL    HW219473   4.079   3.754   0.080
 6192SOL     OW19474   2.934   1.300   0.569
 6192SOL    HW119475   2.910   1.211   0.607
 6192SOL    HW219476   3.004   1.289   0.499
 6193SOL     OW19477   4.550   5.670   6.751
 6193SOL    HW119478   4.481   5.678   6.822
 6193SOL    HW219479   4.631   5.624   6.788
 6194SOL     OW19480   5.812   6.665   6.283
 6194SOL    HW119481   5.724   6.643   6.242
 6194SOL    HW219482   5.851   6.746   6.239
 6195SOL     OW19483   6.543   6.387   6.452
 6195SOL    HW119484   6.595   6.464   6.415
 6195SOL    HW219485   6.587   6.353   6.535
 6196SOL     OW19486   6.029   3.810   3.000
 6196SOL    HW119487   6.050   3.730   3.057
 6196SOL    HW219488   6.032   3.784   2.903
 6197SOL     OW19489   2.406   5.491   1.913
 6197SOL    HW119490   2.325   5.500   1.970
 6197SOL    HW219491   2.413   5.570   1.852
 6198SOL     OW19492   6.268   1.055   6.990
 6198SOL    HW119493   6.290   1.049   0.064
 6198SOL    HW219494   6.178   1.016   6.974
 6199SOL     OW19495   1.297   0.216   6.579
 6199SOL    HW119496   1.380   0.163   6.591
 6199SOL    HW219497   1.319   0.314   6.582
 6200SOL     OW19498   1.780   1.460   2.121
 6200SOL    HW119499   1.844   1.437   2.047
 6200SOL    HW219500   1.700   1.506   2.082
 6201SOL     OW19501   0.135   4.482   3.705
 6201SOL    HW119502   0.168   4.464   3.798
 6201SOL    HW219503   0.131   4.396   3.654
 6202SOL     OW19504   6.136   1.500   2.558
 6202SOL    HW119505   6.137   1.532   2.653
 6202SOL    HW219506   6.228   1.502   2.521
 6203SOL     OW19507   6.741   0.099   1.541
 6203SOL    HW119508   6.807   0.068   1.608
 6203SOL    HW219509   6.672   0.027   1.526
 6204SOL     OW19510   1.884   0.162   4.904
 6204SOL    HW119511   1.927   0.114   4.827
 6204SOL    HW219512   1.796   0.199   4.876
 6205SOL     OW19513   5.238   4.770   3.338
 6205SOL    HW119514   5.307   4.796   3.406
 6205SOL    HW219515   5.156   4.826   3.351
 6206SOL     OW19516   5.950   1.564   4.561
 6206SOL    HW119517   5.912   1.505   4.489
 6206SOL    HW219518   5.876   1.611   4.608
 6207SOL     OW19519   2.160   4.609   4.540
 6207SOL    HW119520   2.072   4.630   4.583
 6207SOL    HW219521   2.208   4.695   4.520
 6208SOL     OW19522   3.950   3.776   5.941
 6208SOL    HW119523   3.956   3.676   5.941
 6208SOL    HW219524   4.041   3.815   5.936
 6209SOL     OW19525   3.315   2.430   1.588
 6209SOL    HW119526   3.361   2.346   1.558
 6209SOL    HW219527   3.217   2.415   1.591
 6210SOL     OW19528   4.774   2.260   4.018
 6210SOL    HW119529   4.806   2.190   4.082
 6210SOL    HW219530   4.846   2.282   3.952
 6211SOL     OW19531   5.326   4.598   5.388
 6211SOL    HW119532   5.287   4.666   5.326
 6211SOL    HW219533   5.314   4.506   5.349
 6212SOL     OW19534   4.348   5.783   4.778
 6212SOL    HW119535   4.432   5.768   4.830
 6212SOL    HW219536   4.318   5.878   4.790
 6213SOL     OW19537   4.227   5.960   0.158
 6213SOL    HW119538   4.157   6.021   0.197
 6213SOL    HW219539   4.244   5.884   0.221
 6214SOL     OW19540   6.807   5.881   6.169
 6214SOL    HW119541   6.838   5.858   6.261
 6214SOL    HW219542   6.709   5.902   6.171
 6215SOL     OW19543   5.559   2.541   5.651
 6215SOL    HW119544   5.556   2.482   5.570
 6215SOL    HW219545   5.554   2.637   5.622
 6216SOL     OW19546   4.668   1.852   3.490
 6216SOL    HW119547   4.650   1.781   3.558
 6216SOL    HW219548   4.610   1.837   3.410
 6217SOL     OW19549   0.171   4.482   3.115
 6217SOL    HW119550   0.096   4.448   3.172
 6217SOL    HW219551   0.252   4.425   3.129
 6218SOL     OW19552   4.551   6.394   0.205
 6218SOL    HW119553   4.595   6.434   0.125
 6218SOL    HW219554   4.610   6.405   0.285
 6219SOL     OW19555   2.182   1.458   6.014
 6219SOL    HW119556   2.214   1.450   6.108
 6219SOL    HW219557   2.259   1.484   5.955
 6220SOL     OW19558   3.558   6.816   0.463
 6220SOL    HW119559   3.633   6.754   0.485
 6220SOL    HW219560   3.595   6.903   0.431
 6221SOL     OW19561   5.713   5.178   6.905
 6221SOL    HW119562   5.658   5.222   6.833
 6221SOL    HW219563   5.808   5.175   6.876
 6222SOL     OW19564   6.336   1.578   1.822
 6222SOL    HW119565   6.295   1.488   1.837
 6222SOL    HW219566   6.270   1.649   1.844
 6223SOL     OW19567   0.326   4.701   4.056
 6223SOL    HW119568   0.373   4.778   4.099
 6223SOL    HW219569   0.228   4.708   4.073
 6224SOL     OW19570   4.010   0.753   0.217
 6224SOL    HW119571   4.024   0.657   0.242
 6224SOL    HW219572   3.923   0.785   0.254
 6225SOL     OW19573   4.762   6.327   6.488
 6225SOL    HW119574   4.845   6.343   6.543
 6225SOL    HW219575   4.765   6.386   6.407
 6226SOL     OW19576   1.516   1.229   4.871
 6226SOL    HW119577   1.577   1.292   4.824
 6226SOL    HW219578   1.428   1.273   4.887
 6227SOL     OW19579   2.684   4.473   5.342
 6227SOL    HW119580   2.728   4.427   5.419
 6227SOL    HW219581   2.753   4.506   5.279
 6228SOL     OW19582   0.809   3.022   3.216
 6228SOL    HW119583   0.721   2.992   3.255
 6228SOL    HW219584   0.826   2.972   3.131
 6229SOL     OW19585   0.290   3.296   4.085
 6229SOL    HW119586   0.219   3.259   4.025
 6229SOL    HW219587   0.284   3.396   4.086
 6230SOL     OW19588   0.003   0.364   1.858
 6230SOL    HW119589   0.087   0.350   1.806
 6230SOL    HW219590   7.007   0.462   1.863
 6231SOL     OW19591   1.769   5.070   0.019
 6231SOL    HW119592   1.861   5.034   0.005
 6231SOL    HW219593   1.767   5.125   0.103
 6232SOL     OW19594   3.939   0.836   6.587
 6232SOL    HW119595   3.925   0.864   6.492
 6232SOL    HW219596   3.928   0.915   6.647
 6233SOL     OW19597   6.703   3.138   1.996
 6233SOL    HW119598   6.716   3.234   1.973
 6233SOL    HW219599   6.782   3.085   1.964
 6234SOL     OW19600   4.777   6.046   4.524
 6234SOL    HW119601   4.733   6.060   4.613
 6234SOL    HW219602   4.850   5.978   4.533
 6235SOL     OW19603   0.080   0.339   2.702
 6235SOL    HW119604   7.004   0.341   2.706
 6235SOL    HW219605   0.117   0.406   2.765
 6236SOL     OW19606   0.034   6.104   1.500
 6236SOL    HW119607   7.019   6.055   1.578
 6236SOL    HW219608   0.118   6.059   1.470
 6237SOL     OW19609   3.087   1.795   0.891
 6237SOL    HW119610   3.116   1.772   0.798
 6237SOL    HW219611   3.167   1.810   0.949
 6238SOL     OW19612   2.167   0.653   4.038
 6238SOL    HW119613   2.078   0.636   4.081
 6238SOL    HW219614   2.165   0.742   3.993
 6239SOL     OW19615   4.420   1.340   4.333
 6239SOL    HW119616   4.350   1.368   4.268
 6239SOL    HW219617   4.450   1.247   4.313
 6240SOL     OW19618   3.860   2.963   3.960
 6240SOL    HW119619   3.851   2.947   3.861
 6240SOL    HW219620   3.786   2.916   4.008
 6241SOL     OW19621   2.991   0.461   3.400
 6241SOL    HW119622   2.932   0.536   3.430
 6241SOL    HW219623   2.988   0.387   3.468
 6242SOL     OW19624   2.496   2.164   3.311
 6242SOL    HW119625   2.537   2.153   3.220
 6242SOL    HW219626   2.543   2.237   3.360
 6243SOL     OW19627   4.757   1.884   6.364
 6243SOL    HW119628   4.787   1.806   6.308
 6243SOL    HW219629   4.838   1.928   6.404
 6244SOL     OW19630   5.290   3.487   2.383
 6244SOL    HW119631   5.353   3.444   2.447
 6244SOL    HW219632   5.293   3.586   2.396
 6245SOL     OW19633   0.081   4.375   2.262
 6245SOL    HW119634   0.024   4.401   2.185
 6245SOL    HW219635   0.068   4.277   2.281
 6246SOL     OW19636   6.671   0.103   4.013
 6246SOL    HW119637   6.761   0.090   3.971
 6246SOL    HW219638   6.605   0.041   3.969
 6247SOL     OW19639   6.325   6.525   4.056
 6247SOL    HW119640   6.287   6.440   4.092
 6247SOL    HW219641   6.312   6.598   4.123
 6248SOL     OW19642   3.865   2.708   5.691
 6248SOL    HW119643   3.829   2.779   5.630
 6248SOL    HW219644   3.821   2.621   5.670
 6249SOL     OW19645   5.944   2.722   2.136
 6249SOL    HW119646   5.863   2.781   2.136
 6249SOL    HW219647   6.026   2.779   2.137
 6250SOL     OW19648   6.313   0.364   6.933
 6250SOL    HW119649   6.226   0.394   6.893
 6250SOL    HW219650   6.311   0.379   0.008
 6251SOL     OW19651   2.849   0.034   4.008
 6251SOL    HW119652   2.908   0.048   3.928
 6251SOL    HW219653   2.768   7.006   3.982
 6252SOL     OW19654   3.106   5.665   6.425
 6252SOL    HW119655   3.125   5.749   6.374
 6252SOL    HW219656   3.008   5.657   6.442
 6253SOL     OW19657   3.680   5.673   4.645
 6253SOL    HW119658   3.658   5.680   4.548
 6253SOL    HW219659   3.773   5.706   4.660
 6254SOL     OW19660   0.096   0.023   1.311
 6254SOL    HW119661   0.130   0.116   1.324
 6254SOL    HW219662   0.016   0.008   1.370
 6255SOL     OW19663   0.572   1.296   1.331
 6255SOL    HW119664   0.616   1.208   1.349
 6255SOL    HW219665   0.627   1.348   1.265
 6256SOL     OW19666   5.545   6.333   2.251
 6256SOL    HW119667   5.559   6.247   2.202
 6256SOL    HW219668   5.449   6.360   2.245
 6257SOL     OW19669   3.204   3.825   1.108
 6257SOL    HW119670   3.249   3.911   1.134
 6257SOL    HW219671   3.245   3.792   1.022
 6258SOL     OW19672   4.450   5.280   4.975
 6258SOL    HW119673   4.472   5.221   5.052
 6258SOL    HW219674   4.368   5.247   4.929
 6259SOL     OW19675   3.536   0.634   4.415
 6259SOL    HW119676   3.445   0.674   4.414
 6259SOL    HW219677   3.604   0.707   4.417
 6260SOL     OW19678   1.692   1.013   6.931
 6260SOL    HW119679   1.790   1.032   6.928
 6260SOL    HW219680   1.657   1.035   7.021
 6261SOL     OW19681   3.522   6.954   0.761
 6261SOL    HW119682   3.483   6.958   0.669
 6261SOL    HW219683   3.557   6.862   0.778
 6262SOL     OW19684   5.316   0.500   2.319
 6262SOL    HW119685   5.390   0.470   2.380
 6262SOL    HW219686   5.348   0.577   2.264
 6263SOL     OW19687   5.395   6.231   5.640
 6263SOL    HW119688   5.297   6.231   5.622
 6263SOL    HW219689   5.436   6.313   5.600
 6264SOL     OW19690   2.330   6.497   0.207
 6264SOL    HW119691   2.308   6.441   0.127
 6264SOL    HW219692   2.392   6.447   0.267
 6265SOL     OW19693   4.844   0.169   6.414
 6265SOL    HW119694   4.814   0.233   6.344
 6265SOL    HW219695   4.832   0.210   6.505
 6266SOL     OW19696   2.649   4.924   3.140
 6266SOL    HW119697   2.663   4.834   3.181
 6266SOL    HW219698   2.687   4.925   3.047
 6267SOL     OW19699   2.385   6.248   4.746
 6267SOL    HW119700   2.352   6.311   4.816
 6267SOL    HW219701   2.308   6.219   4.688
 6268SOL     OW19702   3.055   1.510   0.745
 6268SOL    HW119703   3.154   1.521   0.748
 6268SOL    HW219704   3.031   1.430   0.690
 6269SOL     OW19705   6.274   4.816   0.155
 6269SOL    HW119706   6.338   4.867   0.098
 6269SOL    HW219707   6.182   4.854   0.144
 6270SOL     OW19708   1.732   6.129   0.595
 6270SOL    HW119709   1.651   6.188   0.591
 6270SOL    HW219710   1.715   6.045   0.544
 6271SOL     OW19711   6.522   3.360   5.572
 6271SOL    HW119712   6.427   3.332   5.582
 6271SOL    HW219713   6.575   3.328   5.651
 6272SOL     OW19714   6.925   0.207   0.209
 6272SOL    HW119715   6.950   0.118   0.247
 6272SOL    HW219716   6.878   0.261   0.279
 6273SOL     OW19717   0.865   6.592   1.530
 6273SOL    HW119718   0.805   6.626   1.458
 6273SOL    HW219719   0.844   6.638   1.616
 6274SOL     OW19720   3.350   5.230   3.657
 6274SOL    HW119721   3.352   5.194   3.563
 6274SOL    HW219722   3.266   5.201   3.702
 6275SOL     OW19723   2.361   5.498   6.613
 6275SOL    HW119724   2.262   5.483   6.617
 6275SOL    HW219725   2.408   5.411   6.631
 6276SOL     OW19726   1.935   5.155   2.730
 6276SOL    HW119727   1.989   5.231   2.765
 6276SOL    HW219728   1.909   5.095   2.806
 6277SOL     OW19729   5.545   3.013   1.308
 6277SOL    HW119730   5.497   2.994   1.394
 6277SOL    HW219731   5.618   3.080   1.326
 6278SOL     OW19732   3.078   2.040   0.046
 6278SOL    HW119733   3.104   1.984   6.991
 6278SOL    HW219734   3.017   2.113   0.015
 6279SOL     OW19735   3.087   6.661   2.112
 6279SOL    HW119736   3.137   6.609   2.042
 6279SOL    HW219737   3.058   6.749   2.074
 6280SOL     OW19738   5.549   2.462   6.338
 6280SOL    HW119739   5.524   2.512   6.420
 6280SOL    HW219740   5.646   2.476   6.318
 6281SOL     OW19741   5.716   4.025   5.914
 6281SOL    HW119742   5.708   4.050   5.818
 6281SOL    HW219743   5.789   3.958   5.925
 6282SOL     OW19744   6.638   3.230   6.047
 6282SOL    HW119745   6.588   3.183   6.119
 6282SOL    HW219746   6.714   3.281   6.087
 6283SOL     OW19747   1.729   6.509   4.773
 6283SOL    HW119748   1.676   6.576   4.826
 6283SOL    HW219749   1.737   6.540   4.678
 6284SOL     OW19750   1.404   3.899   5.146
 6284SOL    HW119751   1.408   3.902   5.246
 6284SOL    HW219752   1.354   3.978   5.112
 6285SOL     OW19753   1.356   3.414   3.289
 6285SOL    HW119754   1.266   3.397   3.330
 6285SOL    HW219755   1.348   3.480   3.215
 6286SOL     OW19756   0.199   2.495   0.214
 6286SOL    HW119757   0.265   2.548   0.267
 6286SOL    HW219758   0.246   2.449   0.139
 6287SOL     OW19759   4.810   5.029   5.181
 6287SOL    HW119760   4.878   5.098   5.203
 6287SOL    HW219761   4.832   4.944   5.229
 6288SOL     OW19762   3.254   4.150   6.539
 6288SOL    HW119763   3.337   4.206   6.534
 6288SOL    HW219764   3.279   4.054   6.525
 6289SOL     OW19765   2.528   4.192   6.050
 6289SOL    HW119766   2.436   4.160   6.030
 6289SOL    HW219767   2.595   4.128   6.012
 6290SOL     OW19768   6.117   6.157   4.721
 6290SOL    HW119769   6.106   6.256   4.712
 6290SOL    HW219770   6.192   6.138   4.784
 6291SOL     OW19771   4.147   3.359   3.052
 6291SOL    HW119772   4.088   3.409   3.115
 6291SOL    HW219773   4.098   3.342   2.966
 6292SOL     OW19774   2.079   3.752   4.387
 6292SOL    HW119775   2.030   3.697   4.319
 6292SOL    HW219776   2.129   3.825   4.342
 6293SOL     OW19777   3.053   1.079   6.647
 6293SOL    HW119778   3.117   1.041   6.580
 6293SOL    HW219779   2.960   1.076   6.609
 6294SOL     OW19780   1.699   1.209   2.256
 6294SOL    HW119781   1.726   1.229   2.162
 6294SOL    HW219782   1.768   1.243   2.319
 6295SOL     OW19783   5.088   3.504   6.290
 6295SOL    HW119784   5.042   3.451   6.362
 6295SOL    HW219785   5.025   3.571   6.253
 6296SOL     OW19786   1.155   3.380   0.183
 6296SOL    HW119787   1.139   3.382   0.084
 6296SOL    HW219788   1.254   3.383   0.200
 6297SOL     OW19789   5.753   1.408   4.442
 6297SOL    HW119790   5.704   1.489   4.410
 6297SOL    HW219791   5.746   1.335   4.374
 6298SOL     OW19792   6.819   5.797   1.015
 6298SOL    HW119793   6.759   5.877   1.014
 6298SOL    HW219794   6.769   5.717   1.049
 6299SOL     OW19795   3.743   1.320   3.459
 6299SOL    HW119796   3.666   1.382   3.475
 6299SOL    HW219797   3.828   1.372   3.456
 6300SOL     OW19798   2.826   1.596   6.736
 6300SOL    HW119799   2.892   1.620   6.807
 6300SOL    HW219800   2.737   1.579   6.778
 6301SOL     OW19801   4.086   6.557   0.067
 6301SOL    HW119802   4.125   6.479   0.019
 6301SOL    HW219803   4.067   6.532   0.162
 6302SOL     OW19804   3.482   2.892   6.182
 6302SOL    HW119805   3.516   2.941   6.262
 6302SOL    HW219806   3.388   2.918   6.163
 6303SOL     OW19807   0.458   5.622   4.936
 6303SOL    HW119808   0.367   5.656   4.914
 6303SOL    HW219809   0.527   5.681   4.893
 6304SOL     OW19810   3.864   0.923   4.509
 6304SOL    HW119811   3.850   0.867   4.591
 6304SOL    HW219812   3.845   1.019   4.530
 6305SOL     OW19813   0.899   5.736   6.419
 6305SOL    HW119814   0.976   5.794   6.444
 6305SOL    HW219815   0.912   5.645   6.457
 6306SOL     OW19816   0.554   5.152   4.661
 6306SOL    HW119817   0.618   5.182   4.591
 6306SOL    HW219818   0.510   5.232   4.703
 6307SOL     OW19819   3.911   2.948   1.966
 6307SOL    HW119820   3.846   2.893   2.018
 6307SOL    HW219821   3.957   3.013   2.027
 6308SOL     OW19822   0.621   2.332   0.350
 6308SOL    HW119823   0.613   2.378   0.261
 6308SOL    HW219824   0.535   2.288   0.373
 6309SOL     OW19825   2.500   6.177   4.988
 6309SOL    HW119826   2.582   6.232   5.001
 6309SOL    HW219827   2.460   6.197   4.898
 6310SOL     OW19828   1.413   0.269   3.139
 6310SOL    HW119829   1.487   0.322   3.179
 6310SOL    HW219830   1.343   0.252   3.209
 6311SOL     OW19831   5.974   0.892   6.634
 6311SOL    HW119832   5.930   0.830   6.569
 6311SOL    HW219833   6.074   0.882   6.628
 6312SOL     OW19834   3.532   6.247   6.865
 6312SOL    HW119835   3.556   6.234   6.769
 6312SOL    HW219836   3.502   6.159   6.904
 6313SOL     OW19837   6.144   5.378   4.420
 6313SOL    HW119838   6.231   5.416   4.448
 6313SOL    HW219839   6.099   5.334   4.498
 6314SOL     OW19840   2.112   6.447   2.813
 6314SOL    HW119841   2.196   6.397   2.794
 6314SOL    HW219842   2.044   6.386   2.854
 6315SOL     OW19843   2.462   2.131   3.725
 6315SOL    HW119844   2.543   2.102   3.674
 6315SOL    HW219845   2.408   2.195   3.670
 6316SOL     OW19846   4.502   1.077   4.474
 6316SOL    HW119847   4.463   1.129   4.551
 6316SOL    HW219848   4.600   1.092   4.470
 6317SOL     OW19849   5.243   5.187   1.944
 6317SOL    HW119850   5.152   5.150   1.964
 6317SOL    HW219851   5.243   5.286   1.959
 6318SOL     OW19852   6.443   6.742   0.301
 6318SOL    HW119853   6.360   6.716   0.352
 6318SOL    HW219854   6.518   6.682   0.328
 6319SOL     OW19855   5.425   1.722   3.828
 6319SOL    HW119856   5.345   1.761   3.875
 6319SOL    HW219857   5.415   1.622   3.823
 6320SOL     OW19858   6.220   1.089   5.871
 6320SOL    HW119859   6.236   1.023   5.797
 6320SOL    HW219860   6.184   1.040   5.951
 6321SOL     OW19861   6.667   2.549   6.721
 6321SOL    HW119862   6.578   2.505   6.734
 6321SOL    HW219863   6.717   2.550   6.807
 6322SOL     OW19864   0.900   0.812   2.317
 6322SOL    HW119865   0.822   0.832   2.377
 6322SOL    HW219866   0.868   0.809   2.222
 6323SOL     OW19867   2.417   4.885   1.114
 6323SOL    HW119868   2.333   4.830   1.111
 6323SOL    HW219869   2.400   4.970   1.162
 6324SOL     OW19870   4.411   3.088   1.285
 6324SOL    HW119871   4.410   3.089   1.385
 6324SOL    HW219872   4.330   3.136   1.251
 6325SOL     OW19873   1.498   2.706   3.903
 6325SOL    HW119874   1.565   2.779   3.916
 6325SOL    HW219875   1.541   2.618   3.924
 6326SOL     OW19876   5.301   4.898   5.731
 6326SOL    HW119877   5.212   4.854   5.736
 6326SOL    HW219878   5.323   4.917   5.635
 6327SOL     OW19879   0.617   1.154   3.680
 6327SOL    HW119880   0.545   1.131   3.745
 6327SOL    HW219881   0.706   1.139   3.723
 6328SOL     OW19882   4.396   3.432   5.305
 6328SOL    HW119883   4.468   3.481   5.256
 6328SOL    HW219884   4.307   3.461   5.270
 6329SOL     OW19885   0.722   2.154   5.359
 6329SOL    HW119886   0.768   2.156   5.448
 6329SOL    HW219887   0.683   2.244   5.340
 6330SOL     OW19888   5.330   1.371   3.517
 6330SOL    HW119889   5.365   1.277   3.520
 6330SOL    HW219890   5.312   1.402   3.610
 6331SOL     OW19891   0.597   2.926   3.328
 6331SOL    HW119892   0.498   2.939   3.324
 6331SOL    HW219893   0.621   2.887   3.417
 6332SOL     OW19894   3.087   1.749   6.345
 6332SOL    HW119895   3.143   1.666   6.345
 6332SOL    HW219896   3.044   1.761   6.255
 6333SOL     OW19897   5.778   1.364   1.181
 6333SOL    HW119898   5.754   1.397   1.090
 6333SOL    HW219899   5.790   1.265   1.179
 6334SOL     OW19900   1.400   1.207   1.625
 6334SOL    HW119901   1.399   1.153   1.709
 6334SOL    HW219902   1.413   1.146   1.547
 6335SOL     OW19903   6.330   2.916   6.767
 6335SOL    HW119904   6.382   2.860   6.831
 6335SOL    HW219905   6.360   2.896   6.674
 6336SOL     OW19906   0.991   4.218   5.132
 6336SOL    HW119907   0.936   4.230   5.049
 6336SOL    HW219908   1.073   4.165   5.111
 6337SOL     OW19909   5.463   6.897   5.073
 6337SOL    HW119910   5.482   6.952   5.155
 6337SOL    HW219911   5.373   6.854   5.083
 6338SOL     OW19912   1.364   1.303   3.086
 6338SOL    HW119913   1.328   1.219   3.047
 6338SOL    HW219914   1.345   1.305   3.184
 6339SOL     OW19915   0.406   4.475   4.213
 6339SOL    HW119916   0.490   4.504   4.259
 6339SOL    HW219917   0.359   4.555   4.175
 6340SOL     OW19918   2.785   4.062   0.556
 6340SOL    HW119919   2.805   3.988   0.621
 6340SOL    HW219920   2.737   4.136   0.604
 6341SOL     OW19921   0.779   5.040   2.417
 6341SOL    HW119922   0.776   5.095   2.500
 6341SOL    HW219923   0.835   4.959   2.432
 6342SOL     OW19924   1.707   0.954   1.355
 6342SOL    HW119925   1.702   0.872   1.298
 6342SOL    HW219926   1.797   0.997   1.344
 6343SOL     OW19927   0.766   5.261   0.361
 6343SOL    HW119928   0.731   5.353   0.381
 6343SOL    HW219929   0.860   5.254   0.393
 6344SOL     OW19930   0.612   1.341   3.964
 6344SOL    HW119931   0.681   1.298   4.023
 6344SOL    HW219932   0.554   1.401   4.019
 6345SOL     OW19933   6.050   2.612   2.354
 6345SOL    HW119934   5.991   2.665   2.293
 6345SOL    HW219935   5.994   2.544   2.402
 6346SOL     OW19936   0.261   4.402   5.706
 6346SOL    HW119937   0.220   4.328   5.759
 6346SOL    HW219938   0.281   4.479   5.766
 6347SOL     OW19939   2.262   2.114   3.202
 6347SOL    HW119940   2.262   2.062   3.117
 6347SOL    HW219941   2.356   2.121   3.237
 6348SOL     OW19942   0.602   2.120   5.974
 6348SOL    HW119943   0.588   2.029   6.014
 6348SOL    HW219944   0.676   2.167   6.023
 6349SOL     OW19945   6.787   1.182   0.471
 6349SOL    HW119946   6.804   1.254   0.539
 6349SOL    HW219947   6.837   1.100   0.496
 6350SOL     OW19948   0.775   6.088   1.727
 6350SOL    HW119949   0.757   6.185   1.709
 6350SOL    HW219950   0.757   6.068   1.824
 6351SOL     OW19951   5.741   3.937   1.858
 6351SOL    HW119952   5.754   3.989   1.942
 6351SOL    HW219953   5.643   3.934   1.835
 6352SOL     OW19954   3.291   0.725   4.466
 6352SOL    HW119955   3.264   0.809   4.419
 6352SOL    HW219956   3.210   0.680   4.503
 6353SOL     OW19957   3.701   6.724   5.949
 6353SOL    HW119958   3.684   6.653   6.017
 6353SOL    HW219959   3.614   6.750   5.907
 6354SOL     OW19960   4.582   5.520   1.299
 6354SOL    HW119961   4.505   5.531   1.362
 6354SOL    HW219962   4.644   5.598   1.308
 6355SOL     OW19963   3.453   5.147   0.464
 6355SOL    HW119964   3.422   5.214   0.397
 6355SOL    HW219965   3.532   5.183   0.514
 6356SOL     OW19966   6.989   5.320   6.108
 6356SOL    HW119967   6.950   5.286   6.022
 6356SOL    HW219968   6.995   5.420   6.105
 6357SOL     OW19969   5.126   1.018   1.993
 6357SOL    HW119970   5.187   0.994   2.068
 6357SOL    HW219971   5.133   0.951   1.920
 6358SOL     OW19972   1.219   1.829   5.656
 6358SOL    HW119973   1.236   1.896   5.584
 6358SOL    HW219974   1.142   1.771   5.630
 6359SOL     OW19975   5.467   6.677   0.476
 6359SOL    HW119976   5.429   6.624   0.401
 6359SOL    HW219977   5.396   6.695   0.544
 6360SOL     OW19978   0.613   1.220   1.665
 6360SOL    HW119979   0.517   1.239   1.643
 6360SOL    HW219980   0.666   1.305   1.658
 6361SOL     OW19981   0.383   1.142   0.608
 6361SOL    HW119982   0.424   1.232   0.597
 6361SOL    HW219983   0.391   1.112   0.703
 6362SOL     OW19984   1.015   5.415   0.493
 6362SOL    HW119985   1.099   5.438   0.543
 6362SOL    HW219986   0.937   5.417   0.555
 6363SOL     OW19987   2.184   4.051   2.993
 6363SOL    HW119988   2.141   3.967   3.027
 6363SOL    HW219989   2.122   4.128   3.009
 6364SOL     OW19990   2.391   2.584   4.156
 6364SOL    HW119991   2.383   2.512   4.226
 6364SOL    HW219992   2.327   2.658   4.177
 6365SOL     OW19993   5.538   6.674   3.205
 6365SOL    HW119994   5.535   6.709   3.299
 6365SOL    HW219995   5.468   6.603   3.194
 6366SOL     OW19996   6.045   0.932   4.905
 6366SOL    HW119997   6.021   1.030   4.911
 6366SOL    HW219998   5.961   0.879   4.890
 6367SOL     OW19999   1.188   2.276   2.754
 6367SOL    HW120000   1.153   2.361   2.792
 6367SOL    HW220001   1.116   2.231   2.701
 6368SOL     OW20002   5.243   3.625   4.658
 6368SOL    HW120003   5.219   3.528   4.651
 6368SOL    HW220004   5.225   3.670   4.571
 6369SOL     OW20005   4.235   5.256   0.432
 6369SOL    HW120006   4.140   5.283   0.418
 6369SOL    HW220007   4.277   5.236   0.344
 6370SOL     OW20008   5.181   3.876   4.517
 6370SOL    HW120009   5.096   3.841   4.478
 6370SOL    HW220010   5.248   3.893   4.444
 6371SOL     OW20011   5.484   4.026   1.660
 6371SOL    HW120012   5.487   4.006   1.758
 6371SOL    HW220013   5.446   3.947   1.612
 6372SOL     OW20014   6.696   1.693   2.355
 6372SOL    HW120015   6.719   1.613   2.410
 6372SOL    HW220016   6.622   1.670   2.292
 6373SOL     OW20017   5.053   3.818   1.840
 6373SOL    HW120018   4.996   3.880   1.785
 6373SOL    HW220019   5.108   3.761   1.780
 6374SOL     OW20020   4.282   3.651   6.908
 6374SOL    HW120021   4.328   3.605   6.984
 6374SOL    HW220022   4.350   3.688   6.845
 6375SOL     OW20023   4.526   1.281   1.930
 6375SOL    HW120024   4.460   1.290   1.856
 6375SOL    HW220025   4.484   1.310   2.017
 6376SOL     OW20026   3.425   0.765   0.271
 6376SOL    HW120027   3.475   0.745   0.356
 6376SOL    HW220028   3.381   0.682   0.238
 6377SOL     OW20029   0.824   0.746   0.787
 6377SOL    HW120030   0.811   0.680   0.713
 6377SOL    HW220031   0.805   0.703   0.875
 6378SOL     OW20032   5.112   4.583   1.929
 6378SOL    HW120033   5.128   4.553   1.835
 6378SOL    HW220034   5.196   4.624   1.965
 6379SOL     OW20035   1.939   5.412   0.122
 6379SOL    HW120036   1.889   5.481   0.174
 6379SOL    HW220037   2.013   5.456   0.071
 6380SOL     OW20038   1.165   4.035   5.040
 6380SOL    HW120039   1.108   3.987   4.973
 6380SOL    HW220040   1.250   4.065   4.996
 6381SOL     OW20041   4.597   2.873   0.595
 6381SOL    HW120042   4.586   2.951   0.657
 6381SOL    HW220043   4.563   2.897   0.504
 6382SOL     OW20044   1.362   1.318   0.083
 6382SOL    HW120045   1.295   1.302   0.156
 6382SOL    HW220046   1.384   1.416   0.079
 6383SOL     OW20047   2.295   2.309   2.001
 6383SOL    HW120048   2.259   2.236   2.059
 6383SOL    HW220049   2.230   2.330   1.928
 6384SOL     OW20050   6.405   2.803   2.187
 6384SOL    HW120051   6.398   2.812   2.087
 6384SOL    HW220052   6.406   2.706   2.211
 6385SOL     OW20053   0.379   3.112   0.629
 6385SOL    HW120054   0.431   3.162   0.560
 6385SOL    HW220055   0.360   3.173   0.706
 6386SOL     OW20056   2.363   2.888   0.401
 6386SOL    HW120057   2.355   2.922   0.308
 6386SOL    HW220058   2.441   2.931   0.447
 6387SOL     OW20059   0.268   0.091   0.314
 6387SOL    HW120060   0.226   0.048   0.235
 6387SOL    HW220061   0.284   0.022   0.385
 6388SOL     OW20062   5.640   5.250   2.204
 6388SOL    HW120063   5.634   5.159   2.164
 6388SOL    HW220064   5.561   5.304   2.175
 6389SOL     OW20065   7.015   0.395   0.748
 6389SOL    HW120066   0.024   0.425   0.837
 6389SOL    HW220067   0.047   0.435   0.676
 6390SOL     OW20068   5.385   0.360   6.816
 6390SOL    HW120069   5.346   0.275   6.780
 6390SOL    HW220070   5.324   0.398   6.885
 6391SOL     OW20071   1.286   2.019   4.744
 6391SOL    HW120072   1.287   1.936   4.687
 6391SOL    HW220073   1.191   2.049   4.757
 6392SOL     OW20074   4.017   6.693   3.590
 6392SOL    HW120075   4.062   6.776   3.557
 6392SOL    HW220076   3.997   6.632   3.513
 6393SOL     OW20077   0.889   5.340   0.135
 6393SOL    HW120078   0.823   5.329   0.209
 6393SOL    HW220079   0.849   5.395   0.063
 6394SOL     OW20080   1.853   5.380   1.828
 6394SOL    HW120081   1.945   5.341   1.821
 6394SOL    HW220082   1.816   5.361   1.919
 6395SOL     OW20083   2.068   3.645   3.521
 6395SOL    HW120084   2.062   3.570   3.456
 6395SOL    HW220085   2.032   3.616   3.609
 6396SOL     OW20086   1.310   2.814   5.620
 6396SOL    HW120087   1.298   2.716   5.634
 6396SOL    HW220088   1.228   2.851   5.576
 6397SOL     OW20089   6.002   3.644   4.591
 6397SOL    HW120090   6.098   3.619   4.607
 6397SOL    HW220091   5.942   3.581   4.640
 6398SOL     OW20092   2.005   0.013   2.252
 6398SOL    HW120093   1.985   0.043   2.345
 6398SOL    HW220094   1.949   0.064   2.187
 6399SOL     OW20095   3.247   0.641   6.747
 6399SOL    HW120096   3.165   0.621   6.694
 6399SOL    HW220097   3.295   0.556   6.768
 6400SOL     OW20098   0.920   5.808   3.469
 6400SOL    HW120099   0.873   5.847   3.390
 6400SOL    HW220100   0.860   5.814   3.549
 6401SOL     OW20101   3.869   5.152   3.210
 6401SOL    HW120102   3.882   5.143   3.309
 6401SOL    HW220103   3.800   5.086   3.179
 6402SOL     OW20104   2.436   4.639   5.387
 6402SOL    HW120105   2.424   4.607   5.294
 6402SOL    HW220106   2.512   4.590   5.430
 6403SOL     OW20107   5.084   5.143   4.954
 6403SOL    HW120108   5.063   5.172   5.048
 6403SOL    HW220109   5.044   5.053   4.937
 6404SOL     OW20110   4.844   6.951   1.786
 6404SOL    HW120111   4.776   7.001   1.733
 6404SOL    HW220112   4.922   6.927   1.727
 6405SOL     OW20113   5.471   1.870   2.815
 6405SOL    HW120114   5.421   1.786   2.832
 6405SOL    HW220115   5.464   1.895   2.719
 6406SOL     OW20116   0.060   3.364   2.789
 6406SOL    HW120117   0.069   3.446   2.731
 6406SOL    HW220118   0.143   3.352   2.842
 6407SOL     OW20119   0.372   6.152   2.926
 6407SOL    HW120120   0.455   6.105   2.955
 6407SOL    HW220121   0.391   6.250   2.916
 6408SOL     OW20122   6.492   0.630   2.201
 6408SOL    HW120123   6.522   0.701   2.137
 6408SOL    HW220124   6.400   0.652   2.233
 6409SOL     OW20125   5.072   4.901   3.951
 6409SOL    HW120126   5.170   4.914   3.940
 6409SOL    HW220127   5.037   4.844   3.877
 6410SOL     OW20128   1.442   1.879   0.220
 6410SOL    HW120129   1.510   1.869   0.147
 6410SOL    HW220130   1.484   1.859   0.308
 6411SOL     OW20131   0.591   2.864   1.920
 6411SOL    HW120132   0.554   2.949   1.958
 6411SOL    HW220133   0.621   2.804   1.994
 6412SOL     OW20134   3.333   1.356   0.425
 6412SOL    HW120135   3.315   1.352   0.524
 6412SOL    HW220136   3.376   1.444   0.404
 6413SOL     OW20137   4.681   6.082   3.146
 6413SOL    HW120138   4.603   6.136   3.178
 6413SOL    HW220139   4.668   6.061   3.049
 6414SOL     OW20140   2.094   0.299   0.526
 6414SOL    HW120141   2.080   0.296   0.625
 6414SOL    HW220142   2.057   0.216   0.484
 6415SOL     OW20143   0.264   2.448   3.812
 6415SOL    HW120144   0.359   2.480   3.817
 6415SOL    HW220145   0.237   2.441   3.716
 6416SOL     OW20146   2.629   5.601   0.137
 6416SOL    HW120147   2.636   5.691   0.181
 6416SOL    HW220148   2.536   5.565   0.150
 6417SOL     OW20149   4.502   2.776   6.321
 6417SOL    HW120150   4.530   2.862   6.363
 6417SOL    HW220151   4.517   2.701   6.386
 6418SOL     OW20152   4.780   4.246   0.361
 6418SOL    HW120153   4.732   4.235   0.448
 6418SOL    HW220154   4.868   4.198   0.366
 6419SOL     OW20155   0.566   6.363   6.114
 6419SOL    HW120156   0.622   6.423   6.170
 6419SOL    HW220157   0.565   6.396   6.019
 6420SOL     OW20158   2.184   4.712   4.204
 6420SOL    HW120159   2.191   4.811   4.220
 6420SOL    HW220160   2.275   4.674   4.189
 6421SOL     OW20161   3.591   0.875   1.988
 6421SOL    HW120162   3.595   0.850   1.891
 6421SOL    HW220163   3.589   0.974   1.997
 6422SOL     OW20164   5.885   2.028   4.526
 6422SOL    HW120165   5.862   1.944   4.477
 6422SOL    HW220166   5.985   2.039   4.528
 6423SOL     OW20167   1.728   4.654   4.530
 6423SOL    HW120168   1.796   4.637   4.459
 6423SOL    HW220169   1.638   4.625   4.498
 6424SOL     OW20170   6.610   5.021   5.504
 6424SOL    HW120171   6.709   5.026   5.491
 6424SOL    HW220172   6.587   4.941   5.559
 6425SOL     OW20173   6.976   5.508   3.977
 6425SOL    HW120174   7.017   5.540   4.062
 6425SOL    HW220175   6.907   5.439   3.997
 6426SOL     OW20176   4.858   4.061   4.548
 6426SOL    HW120177   4.825   4.096   4.635
 6426SOL    HW220178   4.899   4.136   4.495
 6427SOL     OW20179   3.812   3.355   3.436
 6427SOL    HW120180   3.720   3.318   3.439
 6427SOL    HW220181   3.811   3.449   3.471
 6428SOL     OW20182   5.608   2.569   0.315
 6428SOL    HW120183   5.633   2.474   0.334
 6428SOL    HW220184   5.533   2.596   0.375
 6429SOL     OW20185   2.279   1.242   5.447
 6429SOL    HW120186   2.271   1.319   5.511
 6429SOL    HW220187   2.376   1.226   5.427
 6430SOL     OW20188   6.192   0.186   5.355
 6430SOL    HW120189   6.195   0.259   5.287
 6430SOL    HW220190   6.222   0.221   5.443
 6431SOL     OW20191   3.715   4.938   1.776
 6431SOL    HW120192   3.688   4.875   1.849
 6431SOL    HW220193   3.660   4.919   1.694
 6432SOL     OW20194   5.298   4.357   6.364
 6432SOL    HW120195   5.266   4.319   6.277
 6432SOL    HW220196   5.226   4.415   6.404
 6433SOL     OW20197   3.168   4.630   6.046
 6433SOL    HW120198   3.176   4.630   5.946
 6433SOL    HW220199   3.090   4.573   6.073
 6434SOL     OW20200   4.840   5.619   6.474
 6434SOL    HW120201   4.829   5.578   6.565
 6434SOL    HW220202   4.810   5.715   6.478
 6435SOL     OW20203   4.784   2.318   0.944
 6435SOL    HW120204   4.782   2.293   0.847
 6435SOL    HW220205   4.766   2.416   0.953
 6436SOL     OW20206   6.239   3.076   3.690
 6436SOL    HW120207   6.202   3.075   3.597
 6436SOL    HW220208   6.339   3.073   3.686
 6437SOL     OW20209   1.411   2.214   5.800
 6437SOL    HW120210   1.470   2.144   5.759
 6437SOL    HW220211   1.414   2.297   5.744
 6438SOL     OW20212   0.533   4.817   0.083
 6438SOL    HW120213   0.592   4.821   0.003
 6438SOL    HW220214   0.570   4.750   0.148
 6439SOL     OW20215   4.876   6.799   3.229
 6439SOL    HW120216   4.960   6.766   3.185
 6439SOL    HW220217   4.856   6.742   3.309
 6440SOL     OW20218   3.011   1.824   6.081
 6440SOL    HW120219   2.989   1.844   5.986
 6440SOL    HW220220   3.110   1.815   6.091
 6441SOL     OW20221   0.426   1.633   2.442
 6441SOL    HW120222   0.355   1.615   2.374
 6441SOL    HW220223   0.509   1.665   2.396
 6442SOL     OW20224   2.978   2.067   5.088
 6442SOL    HW120225   3.029   2.151   5.068
 6442SOL    HW220226   2.904   2.087   5.152
 6443SOL     OW20227   3.953   3.173   6.696
 6443SOL    HW120228   3.998   3.254   6.657
 6443SOL    HW220229   3.979   3.092   6.643
 6444SOL     OW20230   6.386   4.108   4.865
 6444SOL    HW120231   6.290   4.090   4.844
 6444SOL    HW220232   6.410   4.063   4.951
 6445SOL     OW20233   2.914   3.346   3.602
 6445SOL    HW120234   2.926   3.325   3.699
 6445SOL    HW220235   2.860   3.430   3.593
 6446SOL     OW20236   1.472   1.392   6.522
 6446SOL    HW120237   1.562   1.359   6.550
 6446SOL    HW220238   1.473   1.492   6.519
 6447SOL     OW20239   5.946   3.302   2.231
 6447SOL    HW120240   5.908   3.371   2.294
 6447SOL    HW220241   6.045   3.299   2.241
 6448SOL     OW20242   2.950   5.006   1.939
 6448SOL    HW120243   2.976   4.921   1.894
 6448SOL    HW220244   2.973   5.084   1.880
 6449SOL     OW20245   2.695   5.334   0.819
 6449SOL    HW120246   2.754   5.286   0.884
 6449SOL    HW220247   2.600   5.307   0.834
 6450SOL     OW20248   0.114   4.342   0.003
 6450SOL    HW120249   0.101   4.440   0.016
 6450SOL    HW220250   0.175   4.327   6.949
 6451SOL     OW20251   4.140   2.760   1.563
 6451SOL    HW120252   4.088   2.791   1.483
 6451SOL    HW220253   4.111   2.812   1.644
 6452SOL     OW20254   4.131   2.059   3.805
 6452SOL    HW120255   4.137   2.134   3.739
 6452SOL    HW220256   4.078   2.089   3.884
 6453SOL     OW20257   2.018   0.632   2.424
 6453SOL    HW120258   2.089   0.608   2.358
 6453SOL    HW220259   2.033   0.726   2.457
 6454SOL     OW20260   4.974   2.541   3.271
 6454SOL    HW120261   4.958   2.457   3.219
 6454SOL    HW220262   4.989   2.617   3.209
 6455SOL     OW20263   6.327   2.676   4.103
 6455SOL    HW120264   6.264   2.626   4.043
 6455SOL    HW220265   6.282   2.756   4.141
 6456SOL     OW20266   6.032   0.840   2.331
 6456SOL    HW120267   6.005   0.917   2.274
 6456SOL    HW220268   5.958   0.773   2.334
 6457SOL     OW20269   3.471   0.158   2.511
 6457SOL    HW120270   3.488   0.206   2.597
 6457SOL    HW220271   3.456   0.225   2.438
 6458SOL     OW20272   0.134   5.407   3.801
 6458SOL    HW120273   0.138   5.452   3.712
 6458SOL    HW220274   0.077   5.461   3.863
 6459SOL     OW20275   0.213   3.654   3.106
 6459SOL    HW120276   0.119   3.661   3.073
 6459SOL    HW220277   0.237   3.735   3.159
 6460SOL     OW20278   0.332   5.473   6.983
 6460SOL    HW120279   0.300   5.458   0.052
 6460SOL    HW220280   0.424   5.435   6.973
 6461SOL     OW20281   1.323   6.449   1.299
 6461SOL    HW120282   1.340   6.400   1.214
 6461SOL    HW220283   1.367   6.539   1.295
 6462SOL     OW20284   1.737   4.102   5.218
 6462SOL    HW120285   1.655   4.098   5.275
 6462SOL    HW220286   1.729   4.179   5.154
 6463SOL     OW20287   4.355   2.444   0.965
 6463SOL    HW120288   4.393   2.365   1.014
 6463SOL    HW220289   4.397   2.528   1.000
 6464SOL     OW20290   1.204   4.213   3.704
 6464SOL    HW120291   1.255   4.246   3.624
 6464SOL    HW220292   1.116   4.177   3.673
 6465SOL     OW20293   3.578   1.126   3.579
 6465SOL    HW120294   3.650   1.151   3.643
 6465SOL    HW220295   3.599   1.162   3.488
 6466SOL     OW20296   6.190   4.382   0.126
 6466SOL    HW120297   6.148   4.457   0.075
 6466SOL    HW220298   6.151   4.378   0.218
 6467SOL     OW20299   2.686   3.045   0.024
 6467SOL    HW120300   2.726   3.079   0.109
 6467SOL    HW220301   2.750   3.063   6.973
 6468SOL     OW20302   2.564   0.945   1.362
 6468SOL    HW120303   2.630   0.935   1.288
 6468SOL    HW220304   2.610   0.980   1.443
 6469SOL     OW20305   2.915   1.489   1.934
 6469SOL    HW120306   2.841   1.517   1.995
 6469SOL    HW220307   2.897   1.396   1.901
 6470SOL     OW20308   0.041   1.473   0.091
 6470SOL    HW120309   6.988   1.414   0.115
 6470SOL    HW220310   0.007   1.552   0.040
 6471SOL     OW20311   0.613   6.188   5.611
 6471SOL    HW120312   0.556   6.148   5.682
 6471SOL    HW220313   0.698   6.222   5.651
 6472SOL     OW20314   6.811   6.691   2.872
 6472SOL    HW120315   6.762   6.774   2.899
 6472SOL    HW220316   6.802   6.678   2.773
 6473SOL     OW20317   2.387   1.123   3.525
 6473SOL    HW120318   2.302   1.138   3.575
 6473SOL    HW220319   2.395   1.194   3.454
 6474SOL     OW20320   4.253   5.627   5.195
 6474SOL    HW120321   4.259   5.578   5.282
 6474SOL    HW220322   4.341   5.619   5.147
 6475SOL     OW20323   6.024   5.475   2.346
 6475SOL    HW120324   6.046   5.532   2.426
 6475SOL    HW220325   6.002   5.535   2.269
 6476SOL     OW20326   3.930   2.564   6.858
 6476SOL    HW120327   3.830   2.568   6.854
 6476SOL    HW220328   3.961   2.471   6.838
 6477SOL     OW20329   0.176   6.067   1.859
 6477SOL    HW120330   0.249   6.066   1.790
 6477SOL    HW220331   0.156   6.162   1.884
 6478SOL     OW20332   2.892   5.856   1.141
 6478SOL    HW120333   2.843   5.809   1.068
 6478SOL    HW220334   2.827   5.907   1.197
 6479SOL     OW20335   3.973   6.124   3.239
 6479SOL    HW120336   3.909   6.199   3.252
 6479SOL    HW220337   3.974   6.066   3.320
 6480SOL     OW20338   3.940   1.102   6.721
 6480SOL    HW120339   3.853   1.147   6.735
 6480SOL    HW220340   4.002   1.163   6.672
 6481SOL     OW20341   3.672   2.966   1.778
 6481SOL    HW120342   3.763   2.956   1.816
 6481SOL    HW220343   3.628   3.048   1.815
 6482SOL     OW20344   5.854   3.792   5.936
 6482SOL    HW120345   5.949   3.769   5.958
 6482SOL    HW220346   5.793   3.734   5.988
 6483SOL     OW20347   2.147   6.454   5.360
 6483SOL    HW120348   2.141   6.380   5.293
 6483SOL    HW220349   2.233   6.504   5.348
 6484SOL     OW20350   2.598   0.904   3.491
 6484SOL    HW120351   2.506   0.930   3.461
 6484SOL    HW220352   2.666   0.938   3.426
 6485SOL     OW20353   2.353   5.744   5.140
 6485SOL    HW120354   2.415   5.712   5.213
 6485SOL    HW220355   2.407   5.771   5.061
 6486SOL     OW20356   0.787   4.860   2.923
 6486SOL    HW120357   0.757   4.799   2.997
 6486SOL    HW220358   0.853   4.812   2.865
 6487SOL     OW20359   5.975   4.324   3.860
 6487SOL    HW120360   5.897   4.296   3.917
 6487SOL    HW220361   6.055   4.336   3.919
 6488SOL     OW20362   3.643   5.415   4.740
 6488SOL    HW120363   3.662   5.511   4.721
 6488SOL    HW220364   3.708   5.380   4.808
 6489SOL     OW20365   5.051   2.925   5.096
 6489SOL    HW120366   5.100   2.867   5.030
 6489SOL    HW220367   4.953   2.907   5.089
 6490SOL     OW20368   1.930   2.384   7.007
 6490SOL    HW120369   1.948   2.479   0.008
 6490SOL    HW220370   2.000   2.352   6.942
 6491SOL     OW20371   2.341   6.841   1.851
 6491SOL    HW120372   2.354   6.937   1.826
 6491SOL    HW220373   2.270   6.834   1.921
 6492SOL     OW20374   3.997   3.154   4.921
 6492SOL    HW120375   4.033   3.151   4.827
 6492SOL    HW220376   4.029   3.237   4.966
 6493SOL     OW20377   1.503   4.572   4.391
 6493SOL    HW120378   1.502   4.654   4.334
 6493SOL    HW220379   1.410   4.541   4.409
 6494SOL     OW20380   6.502   0.350   1.356
 6494SOL    HW120381   6.539   0.400   1.278
 6494SOL    HW220382   6.442   0.277   1.324
 6495SOL     OW20383   6.257   0.639   3.036
 6495SOL    HW120384   6.346   0.646   3.082
 6495SOL    HW220385   6.201   0.569   3.081
 6496SOL     OW20386   3.479   2.223   1.478
 6496SOL    HW120387   3.453   2.240   1.383
 6496SOL    HW220388   3.576   2.198   1.482
 6497SOL     OW20389   0.389   1.308   0.982
 6497SOL    HW120390   0.474   1.275   1.024
 6497SOL    HW220391   0.408   1.338   0.889
 6498SOL     OW20392   2.208   4.112   4.003
 6498SOL    HW120393   2.134   4.108   4.070
 6498SOL    HW220394   2.230   4.020   3.972
 6499SOL     OW20395   4.881   2.964   3.211
 6499SOL    HW120396   4.862   3.054   3.252
 6499SOL    HW220397   4.829   2.955   3.126
 6500SOL     OW20398   1.549   4.500   3.260
 6500SOL    HW120399   1.472   4.453   3.218
 6500SOL    HW220400   1.629   4.439   3.261
 6501SOL     OW20401   5.897   1.768   2.609
 6501SOL    HW120402   5.991   1.736   2.616
 6501SOL    HW220403   5.850   1.754   2.696
 6502SOL     OW20404   6.997   3.906   2.174
 6502SOL    HW120405   7.018   3.954   2.090
 6502SOL    HW220406   6.902   3.875   2.172
 6503SOL     OW20407   6.882   3.394   5.899
 6503SOL    HW120408   6.959   3.346   5.941
 6503SOL    HW220409   6.840   3.336   5.829
 6504SOL     OW20410   4.161   6.595   6.324
 6504SOL    HW120411   4.158   6.663   6.251
 6504SOL    HW220412   4.207   6.512   6.291
 6505SOL     OW20413   0.112   5.482   1.054
 6505SOL    HW120414   0.084   5.409   0.992
 6505SOL    HW220415   0.174   5.444   1.123
 6506SOL     OW20416   1.035   4.046   2.490
 6506SOL    HW120417   1.046   4.136   2.531
 6506SOL    HW220418   0.989   4.055   2.401
 6507SOL     OW20419   3.960   5.125   0.111
 6507SOL    HW120420   3.953   5.175   0.025
 6507SOL    HW220421   3.918   5.178   0.184
 6508SOL     OW20422   0.553   0.226   3.145
 6508SOL    HW120423   0.544   0.162   3.069
 6508SOL    HW220424   0.630   0.198   3.203
 6509SOL     OW20425   2.798   1.658   6.437
 6509SOL    HW120426   2.855   1.607   6.502
 6509SOL    HW220427   2.780   1.602   6.357
 6510SOL     OW20428   3.051   6.675   5.443
 6510SOL    HW120429   3.047   6.721   5.531
 6510SOL    HW220430   3.038   6.577   5.456
 6511SOL     OW20431   3.261   2.152   0.613
 6511SOL    HW120432   3.280   2.223   0.545
 6511SOL    HW220433   3.176   2.175   0.661
 6512SOL     OW20434   4.156   1.385   0.446
 6512SOL    HW120435   4.128   1.394   0.542
 6512SOL    HW220436   4.187   1.292   0.429
 6513SOL     OW20437   2.801   4.723   2.992
 6513SOL    HW120438   2.821   4.805   3.047
 6513SOL    HW220439   2.828   4.740   2.897
 6514SOL     OW20440   5.258   6.747   5.171
 6514SOL    HW120441   5.182   6.811   5.182
 6514SOL    HW220442   5.223   6.653   5.168
 6515SOL     OW20443   1.160   4.855   2.670
 6515SOL    HW120444   1.093   4.791   2.707
 6515SOL    HW220445   1.115   4.941   2.648
 6516SOL     OW20446   6.420   3.176   1.861
 6516SOL    HW120447   6.510   3.132   1.867
 6516SOL    HW220448   6.375   3.148   1.776
 6517SOL     OW20449   0.039   3.413   0.655
 6517SOL    HW120450   0.009   3.443   0.564
 6517SOL    HW220451   7.012   3.331   0.681
 6518SOL     OW20452   0.707   1.345   1.928
 6518SOL    HW120453   0.784   1.311   1.983
 6518SOL    HW220454   0.730   1.338   1.831
 6519SOL     OW20455   1.249   1.553   3.045
 6519SOL    HW120456   1.254   1.459   3.079
 6519SOL    HW220457   1.341   1.589   3.034
 6520SOL     OW20458   0.230   5.329   0.591
 6520SOL    HW120459   0.216   5.401   0.658
 6520SOL    HW220460   0.191   5.357   0.503
 6521SOL     OW20461   1.466   3.807   4.059
 6521SOL    HW120462   1.419   3.894   4.050
 6521SOL    HW220463   1.544   3.818   4.121
 6522SOL     OW20464   2.594   2.765   5.303
 6522SOL    HW120465   2.575   2.844   5.244
 6522SOL    HW220466   2.664   2.790   5.371
 6523SOL     OW20467   6.103   6.930   0.485
 6523SOL    HW120468   6.020   6.984   0.470
 6523SOL    HW220469   6.115   6.914   0.582
 6524SOL     OW20470   2.973   2.903   0.652
 6524SOL    HW120471   2.981   2.829   0.719
 6524SOL    HW220472   3.024   2.983   0.684
 6525SOL     OW20473   1.038   4.803   3.742
 6525SOL    HW120474   1.115   4.845   3.695
 6525SOL    HW220475   0.953   4.828   3.695
 6526SOL     OW20476   0.758   5.700   0.544
 6526SOL    HW120477   0.660   5.720   0.550
 6526SOL    HW220478   0.809   5.784   0.526
 6527SOL     OW20479   6.446   1.918   0.557
 6527SOL    HW120480   6.405   1.838   0.511
 6527SOL    HW220481   6.537   1.893   0.591
 6528SOL     OW20482   4.208   0.089   6.673
 6528SOL    HW120483   4.302   0.122   6.664
 6528SOL    HW220484   4.144   0.165   6.660
 6529SOL     OW20485   5.603   0.231   2.141
 6529SOL    HW120486   5.579   0.173   2.064
 6529SOL    HW220487   5.658   0.178   2.207
 6530SOL     OW20488   0.021   2.345   2.950
 6530SOL    HW120489   0.079   2.327   3.029
 6530SOL    HW220490   0.017   2.443   2.932
 6531SOL     OW20491   3.597   4.221   4.852
 6531SOL    HW120492   3.690   4.221   4.890
 6531SOL    HW220493   3.595   4.274   4.767
 6532SOL     OW20494   1.274   0.114   0.190
 6532SOL    HW120495   1.282   0.080   0.097
 6532SOL    HW220496   1.351   0.176   0.209
 6533SOL     OW20497   4.702   4.874   1.625
 6533SOL    HW120498   4.769   4.803   1.646
 6533SOL    HW220499   4.610   4.835   1.628
 6534SOL     OW20500   6.864   3.988   3.146
 6534SOL    HW120501   6.827   3.896   3.136
 6534SOL    HW220502   6.790   4.051   3.169
 6535SOL     OW20503   4.850   3.008   4.753
 6535SOL    HW120504   4.816   2.956   4.831
 6535SOL    HW220505   4.949   2.992   4.743
 6536SOL     OW20506   0.750   4.522   5.041
 6536SOL    HW120507   0.791   4.434   5.015
 6536SOL    HW220508   0.795   4.596   4.990
 6537SOL     OW20509   6.374   5.934   3.826
 6537SOL    HW120510   6.328   6.010   3.871
 6537SOL    HW220511   6.365   5.944   3.727
 6538SOL     OW20512   1.460   2.447   5.215
 6538SOL    HW120513   1.448   2.541   5.246
 6538SOL    HW220514   1.544   2.439   5.163
 6539SOL     OW20515   5.231   0.270   6.094
 6539SOL    HW120516   5.277   0.188   6.126
 6539SOL    HW220517   5.233   0.273   5.994
 6540SOL     OW20518   6.420   2.675   5.730
 6540SOL    HW120519   6.384   2.641   5.643
 6540SOL    HW220520   6.421   2.775   5.729
 6541SOL     OW20521   5.772   1.690   5.521
 6541SOL    HW120522   5.845   1.631   5.557
 6541SOL    HW220523   5.813   1.767   5.473
 6542SOL     OW20524   1.393   4.285   3.159
 6542SOL    HW120525   1.383   4.256   3.254
 6542SOL    HW220526   1.441   4.214   3.108
 6543SOL     OW20527   3.310   1.479   4.373
 6543SOL    HW120528   3.375   1.526   4.313
 6543SOL    HW220529   3.253   1.547   4.419
 6544SOL     OW20530   0.839   6.581   1.093
 6544SOL    HW120531   0.835   6.500   1.152
 6544SOL    HW220532   0.789   6.563   1.008
 6545SOL     OW20533   4.707   6.738   1.066
 6545SOL    HW120534   4.651   6.726   1.148
 6545SOL    HW220535   4.650   6.729   0.985
 6546SOL     OW20536   4.747   4.045   6.240
 6546SOL    HW120537   4.758   3.978   6.314
 6546SOL    HW220538   4.692   4.122   6.273
 6547SOL     OW20539   0.554   5.815   6.080
 6547SOL    HW120540   0.569   5.902   6.128
 6547SOL    HW220541   0.606   5.813   5.995
 6548SOL     OW20542   6.957   1.608   5.818
 6548SOL    HW120543   7.017   1.644   5.747
 6548SOL    HW220544   6.936   1.512   5.799
 6549SOL     OW20545   4.065   1.491   2.338
 6549SOL    HW120546   4.032   1.446   2.255
 6549SOL    HW220547   4.140   1.553   2.315
 6550SOL     OW20548   6.491   6.131   3.218
 6550SOL    HW120549   6.573   6.092   3.262
 6550SOL    HW220550   6.516   6.214   3.169
 6551SOL     OW20551   3.106   4.072   0.938
 6551SOL    HW120552   3.013   4.110   0.931
 6551SOL    HW220553   3.109   4.004   1.011
 6552SOL     OW20554   1.762   5.205   0.463
 6552SOL    HW120555   1.675   5.214   0.415
 6552SOL    HW220556   1.752   5.139   0.537
 6553SOL     OW20557   1.001   1.402   3.265
 6553SOL    HW120558   0.952   1.407   3.352
 6553SOL    HW220559   0.936   1.413   3.190
 6554SOL     OW20560   1.273   2.135   4.048
 6554SOL    HW120561   1.341   2.077   4.004
 6554SOL    HW220562   1.318   2.216   4.087
 6555SOL     OW20563   6.519   3.962   3.654
 6555SOL    HW120564   6.423   3.956   3.680
 6555SOL    HW220565   6.573   3.987   3.734
 6556SOL     OW20566   4.889   2.995   2.757
 6556SOL    HW120567   4.921   3.067   2.819
 6556SOL    HW220568   4.907   3.022   2.662
 6557SOL     OW20569   1.855   0.816   2.231
 6557SOL    HW120570   1.940   0.795   2.279
 6557SOL    HW220571   1.800   0.733   2.222
 6558SOL     OW20572   5.573   6.176   6.195
 6558SOL    HW120573   5.526   6.204   6.279
 6558SOL    HW220574   5.517   6.199   6.116
 6559SOL     OW20575   6.823   2.886   6.364
 6559SOL    HW120576   6.817   2.788   6.343
 6559SOL    HW220577   6.889   2.900   6.438
 6560SOL     OW20578   5.709   4.505   0.538
 6560SOL    HW120579   5.685   4.496   0.635
 6560SOL    HW220580   5.708   4.601   0.513
 6561SOL     OW20581   3.683   4.586   6.973
 6561SOL    HW120582   3.625   4.595   0.031
 6561SOL    HW220583   3.695   4.676   6.931
 6562SOL     OW20584   5.425   2.478   1.259
 6562SOL    HW120585   5.448   2.382   1.245
 6562SOL    HW220586   5.388   2.491   1.351
 6563SOL     OW20587   6.067   5.146   5.332
 6563SOL    HW120588   6.151   5.154   5.278
 6563SOL    HW220589   6.051   5.050   5.354
 6564SOL     OW20590   6.321   3.529   3.180
 6564SOL    HW120591   6.390   3.583   3.131
 6564SOL    HW220592   6.255   3.590   3.223
 6565SOL     OW20593   5.266   0.277   3.092
 6565SOL    HW120594   5.331   0.250   3.021
 6565SOL    HW220595   5.175   0.246   3.067
 6566SOL     OW20596   4.609   5.819   3.196
 6566SOL    HW120597   4.589   5.810   3.293
 6566SOL    HW220598   4.648   5.910   3.178
 6567SOL     OW20599   4.159   0.319   1.489
 6567SOL    HW120600   4.086   0.376   1.527
 6567SOL    HW220601   4.238   0.376   1.467
 6568SOL     OW20602   4.306   2.062   0.887
 6568SOL    HW120603   4.387   2.016   0.924
 6568SOL    HW220604   4.330   2.109   0.802
 6569SOL     OW20605   0.817   4.843   4.711
 6569SOL    HW120606   0.822   4.943   4.700
 6569SOL    HW220607   0.853   4.817   4.800
 6570SOL     OW20608   4.499   7.007   2.173
 6570SOL    HW120609   4.484   6.954   2.256
 6570SOL    HW220610   4.587   6.981   2.133
 6571SOL     OW20611   3.575   5.444   2.845
 6571SOL    HW120612   3.531   5.527   2.810
 6571SOL    HW220613   3.601   5.458   2.940
 6572SOL     OW20614   1.408   5.752   3.952
 6572SOL    HW120615   1.328   5.750   3.891
 6572SOL    HW220616   1.406   5.836   4.006
 6573SOL     OW20617   1.417   2.114   2.722
 6573SOL    HW120618   1.379   2.033   2.677
 6573SOL    HW220619   1.354   2.191   2.713
 6574SOL     OW20620   1.606   5.550   2.404
 6574SOL    HW120621   1.589   5.482   2.333
 6574SOL    HW220622   1.583   5.511   2.493
 6575SOL     OW20623   0.176   1.304   3.022
 6575SOL    HW120624   0.101   1.263   3.074
 6575SOL    HW220625   0.259   1.304   3.078
 6576SOL     OW20626   5.101   5.792   0.874
 6576SOL    HW120627   5.176   5.844   0.915
 6576SOL    HW220628   5.039   5.854   0.826
 6577SOL     OW20629   3.188   1.042   4.082
 6577SOL    HW120630   3.190   1.127   4.135
 6577SOL    HW220631   3.162   1.063   3.988
 6578SOL     OW20632   1.285   4.800   1.343
 6578SOL    HW120633   1.374   4.803   1.298
 6578SOL    HW220634   1.257   4.705   1.354
 6579SOL     OW20635   6.720   0.789   4.269
 6579SOL    HW120636   6.710   0.868   4.209
 6579SOL    HW220637   6.739   0.820   4.362
 6580SOL     OW20638   2.427   2.140   0.089
 6580SOL    HW120639   2.358   2.185   0.147
 6580SOL    HW220640   2.413   2.041   0.091
 6581SOL     OW20641   0.715   2.102   1.368
 6581SOL    HW120642   0.644   2.046   1.326
 6581SOL    HW220643   0.681   2.195   1.380
 6582SOL     OW20644   6.313   1.387   2.824
 6582SOL    HW120645   6.215   1.390   2.844
 6582SOL    HW220646   6.342   1.292   2.811
 6583SOL     OW20647   3.753   5.422   6.643
 6583SOL    HW120648   3.822   5.368   6.593
 6583SOL    HW220649   3.796   5.502   6.683
 6584SOL     OW20650   4.345   2.580   6.740
 6584SOL    HW120651   4.328   2.672   6.776
 6584SOL    HW220652   4.302   2.512   6.799
 6585SOL     OW20653   5.471   6.600   1.451
 6585SOL    HW120654   5.492   6.561   1.540
 6585SOL    HW220655   5.536   6.567   1.384
 6586SOL     OW20656   0.343   1.156   0.015
 6586SOL    HW120657   0.355   1.172   0.113
 6586SOL    HW220658   0.320   1.242   6.994
 6587SOL     OW20659   1.836   4.385   5.396
 6587SOL    HW120660   1.877   4.303   5.357
 6587SOL    HW220661   1.901   4.461   5.389
 6588SOL     OW20662   0.099   2.439   0.768
 6588SOL    HW120663   0.065   2.409   0.679
 6588SOL    HW220664   0.137   2.531   0.760
 6589SOL     OW20665   6.625   0.115   2.617
 6589SOL    HW120666   6.529   0.105   2.644
 6589SOL    HW220667   6.644   0.054   2.540
 6590SOL     OW20668   1.058   6.456   4.039
 6590SOL    HW120669   1.054   6.500   4.129
 6590SOL    HW220670   1.135   6.494   3.987
 6591SOL     OW20671   5.953   4.615   3.429
 6591SOL    HW120672   5.974   4.578   3.519
 6591SOL    HW220673   6.032   4.603   3.369
 6592SOL     OW20674   6.127   6.884   3.441
 6592SOL    HW120675   6.055   6.902   3.508
 6592SOL    HW220676   6.095   6.815   3.376
 6593SOL     OW20677   2.047   1.482   1.969
 6593SOL    HW120678   1.966   1.427   1.948
 6593SOL    HW220679   2.040   1.570   1.921
 6594SOL     OW20680   5.338   0.202   6.432
 6594SOL    HW120681   5.289   0.144   6.367
 6594SOL    HW220682   5.286   0.285   6.450
 6595SOL     OW20683   0.910   2.060   5.177
 6595SOL    HW120684   0.848   2.108   5.239
 6595SOL    HW220685   0.867   2.052   5.087
 6596SOL     OW20686   5.289   0.013   2.679
 6596SOL    HW120687   5.357   0.034   2.750
 6596SOL    HW220688   5.203   7.010   2.722
 6597SOL     OW20689   1.129   4.312   1.983
 6597SOL    HW120690   1.148   4.405   2.015
 6597SOL    HW220691   1.157   4.247   2.052
 6598SOL     OW20692   1.541   4.793   4.231
 6598SOL    HW120693   1.504   4.860   4.167
 6598SOL    HW220694   1.623   4.831   4.276
 6599SOL     OW20695   6.581   5.221   6.157
 6599SOL    HW120696   6.628   5.274   6.087
 6599SOL    HW220697   6.593   5.123   6.139
 6600SOL     OW20698   4.363   0.482   5.125
 6600SOL    HW120699   4.332   0.461   5.032
 6600SOL    HW220700   4.460   0.506   5.123
 6601SOL     OW20701   1.488   2.305   1.456
 6601SOL    HW120702   1.558   2.299   1.527
 6601SOL    HW220703   1.530   2.333   1.370
 6602SOL     OW20704   1.176   5.633   1.846
 6602SOL    HW120705   1.087   5.592   1.826
 6602SOL    HW220706   1.221   5.656   1.760
 6603SOL     OW20707   0.438   3.691   2.624
 6603SOL    HW120708   0.456   3.780   2.665
 6603SOL    HW220709   0.380   3.637   2.686
 6604SOL     OW20710   1.689   6.092   3.415
 6604SOL    HW120711   1.593   6.071   3.433
 6604SOL    HW220712   1.740   6.007   3.401
 6605SOL     OW20713   0.388   5.850   0.868
 6605SOL    HW120714   0.344   5.833   0.780
 6605SOL    HW220715   0.334   5.808   0.941
 6606SOL     OW20716   1.782   3.052   2.781
 6606SOL    HW120717   1.698   3.030   2.831
 6606SOL    HW220718   1.858   3.001   2.820
 6607SOL     OW20719   5.866   3.720   3.491
 6607SOL    HW120720   5.791   3.761   3.542
 6607SOL    HW220721   5.937   3.689   3.555
 6608SOL     OW20722   1.184   5.839   6.026
 6608SOL    HW120723   1.167   5.927   6.070
 6608SOL    HW220724   1.122   5.828   5.948
 6609SOL     OW20725   4.653   1.313   6.472
 6609SOL    HW120726   4.663   1.341   6.376
 6609SOL    HW220727   4.724   1.246   6.494
 6610SOL     OW20728   2.987   5.546   0.632
 6610SOL    HW120729   2.943   5.572   0.718
 6610SOL    HW220730   2.921   5.555   0.557
 6611SOL     OW20731   3.644   1.795   4.529
 6611SOL    HW120732   3.588   1.722   4.569
 6611SOL    HW220733   3.637   1.792   4.429
 6612SOL     OW20734   0.538   0.333   6.115
 6612SOL    HW120735   0.526   0.265   6.043
 6612SOL    HW220736   0.628   0.377   6.105
 6613SOL     OW20737   4.688   0.293   0.676
 6613SOL    HW120738   4.735   0.223   0.730
 6613SOL    HW220739   4.635   0.351   0.738
 6614SOL     OW20740   4.612   5.420   0.965
 6614SOL    HW120741   4.520   5.403   0.930
 6614SOL    HW220742   4.607   5.460   1.056
 6615SOL     OW20743   3.673   5.315   5.745
 6615SOL    HW120744   3.693   5.360   5.658
 6615SOL    HW220745   3.616   5.374   5.801
 6616SOL     OW20746   3.738   1.562   6.221
 6616SOL    HW120747   3.799   1.533   6.147
 6616SOL    HW220748   3.690   1.482   6.258
 6617SOL     OW20749   3.515   0.170   4.225
 6617SOL    HW120750   3.455   0.248   4.243
 6617SOL    HW220751   3.465   0.085   4.240
 6618SOL     OW20752   6.048   2.677   4.220
 6618SOL    HW120753   6.028   2.580   4.206
 6618SOL    HW220754   5.966   2.722   4.256
 6619SOL     OW20755   4.654   5.997   4.285
 6619SOL    HW120756   4.715   6.023   4.360
 6619SOL    HW220757   4.632   6.077   4.230
 6620SOL     OW20758   0.813   3.089   3.512
 6620SOL    HW120759   0.846   3.054   3.425
 6620SOL    HW220760   0.758   3.019   3.557
 6621SOL     OW20761   3.802   3.361   4.546
 6621SOL    HW120762   3.801   3.303   4.465
 6621SOL    HW220763   3.878   3.426   4.540
 6622SOL     OW20764   0.788   5.406   1.056
 6622SOL    HW120765   0.865   5.463   1.026
 6622SOL    HW220766   0.806   5.374   1.149
 6623SOL     OW20767   3.065   4.145   5.099
 6623SOL    HW120768   3.146   4.138   5.040
 6623SOL    HW220769   2.990   4.092   5.059
 6624SOL     OW20770   2.431   1.681   3.279
 6624SOL    HW120771   2.474   1.765   3.312
 6624SOL    HW220772   2.427   1.614   3.353
 6625SOL     OW20773   5.673   4.135   5.636
 6625SOL    HW120774   5.645   4.231   5.647
 6625SOL    HW220775   5.760   4.132   5.586
 6626SOL     OW20776   3.131   6.149   5.210
 6626SOL    HW120777   3.140   6.152   5.309
 6626SOL    HW220778   3.135   6.054   5.178
 6627SOL     OW20779   2.205   6.168   4.542
 6627SOL    HW120780   2.157   6.082   4.554
 6627SOL    HW220781   2.254   6.168   4.455
 6628SOL     OW20782   3.793   6.032   4.585
 6628SOL    HW120783   3.837   6.112   4.543
 6628SOL    HW220784   3.858   5.957   4.591
 6629SOL     OW20785   4.915   5.878   6.290
 6629SOL    HW120786   4.902   5.951   6.358
 6629SOL    HW220787   4.997   5.826   6.314
 6630SOL     OW20788   1.882   0.797   0.284
 6630SOL    HW120789   1.848   0.885   0.253
 6630SOL    HW220790   1.820   0.760   0.353
 6631SOL     OW20791   1.659   3.657   5.962
 6631SOL    HW120792   1.645   3.561   5.940
 6631SOL    HW220793   1.735   3.666   6.026
 6632SOL     OW20794   1.804   0.022   0.391
 6632SOL    HW120795   1.818   0.009   0.489
 6632SOL    HW220796   1.709   0.001   0.368
 6633SOL     OW20797   3.857   5.568   5.882
 6633SOL    HW120798   3.941   5.572   5.829
 6633SOL    HW220799   3.793   5.505   5.837
 6634SOL     OW20800   3.759   1.658   3.665
 6634SOL    HW120801   3.710   1.671   3.579
 6634SOL    HW220802   3.713   1.587   3.719
 6635SOL     OW20803   5.039   4.820   4.571
 6635SOL    HW120804   5.069   4.908   4.535
 6635SOL    HW220805   4.951   4.795   4.530
 6636SOL     OW20806   4.013   1.030   6.977
 6636SOL    HW120807   4.043   0.936   6.967
 6636SOL    HW220808   3.998   1.070   6.887
 6637SOL     OW20809   0.793   2.080   0.916
 6637SOL    HW120810   0.887   2.115   0.909
 6637SOL    HW220811   0.729   2.156   0.905
 6638SOL     OW20812   2.885   3.642   4.153
 6638SOL    HW120813   2.866   3.656   4.251
 6638SOL    HW220814   2.977   3.604   4.142
 6639SOL     OW20815   4.911   2.972   0.845
 6639SOL    HW120816   4.871   2.956   0.936
 6639SOL    HW220817   4.870   3.053   0.805
 6640SOL     OW20818   1.906   3.600   4.820
 6640SOL    HW120819   1.839   3.555   4.761
 6640SOL    HW220820   1.994   3.603   4.773
 6641SOL     OW20821   5.160   1.919   1.165
 6641SOL    HW120822   5.099   1.842   1.184
 6641SOL    HW220823   5.240   1.887   1.115
 6642SOL     OW20824   1.504   5.642   0.208
 6642SOL    HW120825   1.467   5.589   0.131
 6642SOL    HW220826   1.485   5.739   0.194
 6643SOL     OW20827   3.889   5.769   6.407
 6643SOL    HW120828   3.933   5.689   6.450
 6643SOL    HW220829   3.867   5.747   6.312
 6644SOL     OW20830   2.157   6.685   3.450
 6644SOL    HW120831   2.128   6.647   3.538
 6644SOL    HW220832   2.191   6.778   3.464
 6645SOL     OW20833   6.049   2.308   0.333
 6645SOL    HW120834   6.137   2.354   0.325
 6645SOL    HW220835   6.052   2.220   0.285
 6646SOL     OW20836   4.315   6.655   5.668
 6646SOL    HW120837   4.371   6.681   5.747
 6646SOL    HW220838   4.244   6.723   5.654
 6647SOL     OW20839   4.359   5.319   0.864
 6647SOL    HW120840   4.304   5.293   0.943
 6647SOL    HW220841   4.357   5.246   0.796
 6648SOL     OW20842   3.461   6.359   5.708
 6648SOL    HW120843   3.504   6.430   5.652
 6648SOL    HW220844   3.452   6.275   5.654
 6649SOL     OW20845   5.513   2.801   6.529
 6649SOL    HW120846   5.586   2.804   6.596
 6649SOL    HW220847   5.464   2.888   6.529
 6650SOL     OW20848   2.123   1.527   5.039
 6650SOL    HW120849   2.081   1.564   5.122
 6650SOL    HW220850   2.054   1.518   4.968
 6651SOL     OW20851   6.526   1.842   6.414
 6651SOL    HW120852   6.473   1.757   6.415
 6651SOL    HW220853   6.500   1.897   6.334
 6652SOL     OW20854   6.727   4.381   0.594
 6652SOL    HW120855   6.753   4.289   0.565
 6652SOL    HW220856   6.788   4.411   0.667
 6653SOL     OW20857   5.466   4.811   0.235
 6653SOL    HW120858   5.563   4.788   0.247
 6653SOL    HW220859   5.457   4.888   0.172
 6654SOL     OW20860   6.658   4.173   3.198
 6654SOL    HW120861   6.678   4.229   3.117
 6654SOL    HW220862   6.571   4.126   3.186
 6655SOL     OW20863   0.227   5.156   1.907
 6655SOL    HW120864   0.228   5.061   1.938
 6655SOL    HW220865   0.257   5.216   1.981
 6656SOL     OW20866   4.252   1.528   3.113
 6656SOL    HW120867   4.314   1.513   3.036
 6656SOL    HW220868   4.299   1.508   3.198
 6657SOL     OW20869   5.728   2.283   3.441
 6657SOL    HW120870   5.784   2.263   3.521
 6657SOL    HW220871   5.718   2.201   3.385
 6658SOL     OW20872   6.571   5.827   5.245
 6658SOL    HW120873   6.528   5.905   5.199
 6658SOL    HW220874   6.515   5.746   5.233
 6659SOL     OW20875   0.697   5.001   1.990
 6659SOL    HW120876   0.665   5.031   2.080
 6659SOL    HW220877   0.619   4.966   1.937
 6660SOL     OW20878   6.377   6.328   4.414
 6660SOL    HW120879   6.309   6.289   4.352
 6660SOL    HW220880   6.342   6.414   4.452
 6661SOL     OW20881   3.825   5.715   4.174
 6661SOL    HW120882   3.903   5.687   4.118
 6661SOL    HW220883   3.836   5.811   4.200
 6662SOL     OW20884   4.189   6.508   2.207
 6662SOL    HW120885   4.099   6.477   2.178
 6662SOL    HW220886   4.259   6.458   2.155
 6663SOL     OW20887   1.073   4.004   6.133
 6663SOL    HW120888   1.158   4.019   6.184
 6663SOL    HW220889   1.094   3.956   6.047
 6664SOL     OW20890   2.651   0.143   0.861
 6664SOL    HW120891   2.619   0.079   0.931
 6664SOL    HW220892   2.666   0.233   0.902
 6665SOL     OW20893   2.430   0.909   6.130
 6665SOL    HW120894   2.421   0.890   6.032
 6665SOL    HW220895   2.415   0.825   6.182
 6666SOL     OW20896   3.949   6.519   5.491
 6666SOL    HW120897   4.026   6.466   5.525
 6666SOL    HW220898   3.918   6.583   5.561
 6667SOL     OW20899   1.083   6.199   6.431
 6667SOL    HW120900   1.014   6.194   6.503
 6667SOL    HW220901   1.169   6.162   6.465
 6668SOL     OW20902   6.754   4.745   0.596
 6668SOL    HW120903   6.850   4.721   0.581
 6668SOL    HW220904   6.701   4.724   0.514
 6669SOL     OW20905   1.538   1.664   3.046
 6669SOL    HW120906   1.568   1.570   3.030
 6669SOL    HW220907   1.608   1.712   3.099
 6670SOL     OW20908   4.233   2.486   0.708
 6670SOL    HW120909   4.285   2.474   0.792
 6670SOL    HW220910   4.149   2.537   0.728
 6671SOL     OW20911   4.622   5.640   0.183
 6671SOL    HW120912   4.586   5.713   0.241
 6671SOL    HW220913   4.645   5.677   0.093
 6672SOL     OW20914   1.703   2.863   1.473
 6672SOL    HW120915   1.718   2.899   1.566
 6672SOL    HW220916   1.711   2.938   1.407
 6673SOL     OW20917   6.048   3.575   3.649
 6673SOL    HW120918   5.980   3.501   3.653
 6673SOL    HW220919   6.140   3.536   3.654
 6674SOL     OW20920   0.553   1.319   0.329
 6674SOL    HW120921   0.620   1.368   0.385
 6674SOL    HW220922   0.592   1.232   0.300
 6675SOL     OW20923   4.918   1.184   6.474
 6675SOL    HW120924   4.951   1.241   6.399
 6675SOL    HW220925   4.987   1.181   6.546
 6676SOL     OW20926   1.297   4.158   4.192
 6676SOL    HW120927   1.270   4.124   4.102
 6676SOL    HW220928   1.273   4.091   4.261
 6677SOL     OW20929   0.784   1.269   6.743
 6677SOL    HW120930   0.880   1.240   6.747
 6677SOL    HW220931   0.765   1.329   6.820
 6678SOL     OW20932   2.484   4.220   6.420
 6678SOL    HW120933   2.518   4.193   6.330
 6678SOL    HW220934   2.518   4.157   6.490
 6679SOL     OW20935   1.733   1.023   3.634
 6679SOL    HW120936   1.776   0.943   3.591
 6679SOL    HW220937   1.641   0.999   3.664
 6680SOL     OW20938   5.800   6.748   1.375
 6680SOL    HW120939   5.826   6.750   1.472
 6680SOL    HW220940   5.762   6.658   1.353
 6681SOL     OW20941   3.309   5.969   1.849
 6681SOL    HW120942   3.373   5.949   1.923
 6681SOL    HW220943   3.344   5.930   1.764
 6682SOL     OW20944   3.289   5.516   5.639
 6682SOL    HW120945   3.223   5.449   5.606
 6682SOL    HW220946   3.269   5.539   5.734
 6683SOL     OW20947   6.761   4.155   6.241
 6683SOL    HW120948   6.742   4.251   6.259
 6683SOL    HW220949   6.843   4.127   6.293
 6684SOL     OW20950   3.095   5.426   0.079
 6684SOL    HW120951   3.085   5.361   0.003
 6684SOL    HW220952   3.063   5.384   0.164
 6685SOL     OW20953   5.263   3.088   6.835
 6685SOL    HW120954   5.297   3.008   6.885
 6685SOL    HW220955   5.283   3.078   6.738
 6686SOL     OW20956   5.102   5.058   4.496
 6686SOL    HW120957   5.199   5.063   4.520
 6686SOL    HW220958   5.077   5.139   4.443
 6687SOL     OW20959   6.208   1.882   2.133
 6687SOL    HW120960   6.222   1.813   2.204
 6687SOL    HW220961   6.278   1.952   2.141
 6688SOL     OW20962   4.619   4.937   0.673
 6688SOL    HW120963   4.677   5.011   0.706
 6688SOL    HW220964   4.629   4.858   0.733
 6689SOL     OW20965   2.101   4.505   5.808
 6689SOL    HW120966   2.189   4.525   5.765
 6689SOL    HW220967   2.114   4.439   5.882
 6690SOL     OW20968   0.409   6.709   5.817
 6690SOL    HW120969   0.386   6.765   5.737
 6690SOL    HW220970   0.497   6.737   5.853
 6691SOL     OW20971   2.939   2.249   2.566
 6691SOL    HW120972   3.006   2.297   2.511
 6691SOL    HW220973   2.982   2.216   2.650
 6692SOL     OW20974   4.516   5.156   2.364
 6692SOL    HW120975   4.514   5.218   2.285
 6692SOL    HW220976   4.431   5.104   2.367
 6693SOL     OW20977   3.994   1.763   4.881
 6693SOL    HW120978   3.974   1.802   4.791
 6693SOL    HW220979   3.959   1.824   4.952
 6694SOL     OW20980   3.381   4.015   1.780
 6694SOL    HW120981   3.415   3.962   1.703
 6694SOL    HW220982   3.310   4.078   1.749
 6695SOL     OW20983   2.353   2.151   6.743
 6695SOL    HW120984   2.300   2.227   6.781
 6695SOL    HW220985   2.331   2.141   6.646
 6696SOL     OW20986   4.099   3.557   4.605
 6696SOL    HW120987   4.085   3.613   4.523
 6696SOL    HW220988   4.101   3.616   4.686
 6697SOL     OW20989   4.023   2.203   2.604
 6697SOL    HW120990   4.105   2.259   2.594
 6697SOL    HW220991   3.968   2.238   2.680
 6698SOL     OW20992   3.146   3.878   1.555
 6698SOL    HW120993   3.241   3.878   1.525
 6698SOL    HW220994   3.094   3.945   1.501
 6699SOL     OW20995   1.100   4.313   5.691
 6699SOL    HW120996   1.092   4.283   5.786
 6699SOL    HW220997   1.055   4.247   5.631
 6700SOL     OW20998   5.764   6.906   6.926
 6700SOL    HW120999   5.836   6.850   6.884
 6700SOL    HW221000   5.713   6.852   6.992
 6701SOL     OW21001   6.188   0.318   1.142
 6701SOL    HW121002   6.131   0.400   1.141
 6701SOL    HW221003   6.241   0.314   1.057
 6702SOL     OW21004   3.045   2.600   1.434
 6702SOL    HW121005   3.076   2.507   1.414
 6702SOL    HW221006   2.969   2.623   1.374
 6703SOL     OW21007   0.303   0.906   0.256
 6703SOL    HW121008   0.269   0.869   0.170
 6703SOL    HW221009   0.294   1.006   0.256
 6704SOL     OW21010   2.950   0.475   6.286
 6704SOL    HW121011   2.874   0.537   6.305
 6704SOL    HW221012   2.915   0.382   6.275
 6705SOL     OW21013   6.771   4.148   2.369
 6705SOL    HW121014   6.768   4.153   2.269
 6705SOL    HW221015   6.801   4.236   2.406
 6706SOL     OW21016   0.230   6.693   1.410
 6706SOL    HW121017   0.313   6.678   1.463
 6706SOL    HW221018   0.219   6.619   1.343
 6707SOL     OW21019   5.183   0.771   2.352
 6707SOL    HW121020   5.214   0.774   2.447
 6707SOL    HW221021   5.159   0.677   2.327
 6708SOL     OW21022   0.713   3.833   1.103
 6708SOL    HW121023   0.781   3.761   1.106
 6708SOL    HW221024   0.732   3.894   1.026
 6709SOL     OW21025   1.914   4.454   2.249
 6709SOL    HW121026   1.931   4.378   2.312
 6709SOL    HW221027   1.990   4.518   2.254
 6710SOL     OW21028   5.103   1.617   0.746
 6710SOL    HW121029   5.039   1.572   0.809
 6710SOL    HW221030   5.099   1.716   0.760
 6711SOL     OW21031   3.559   6.032   6.666
 6711SOL    HW121032   3.603   6.053   6.579
 6711SOL    HW221033   3.464   6.065   6.664
 6712SOL     OW21034   5.876   3.856   2.142
 6712SOL    HW121035   5.852   3.953   2.140
 6712SOL    HW221036   5.874   3.819   2.049
 6713SOL     OW21037   1.735   5.301   5.076
 6713SOL    HW121038   1.805   5.372   5.076
 6713SOL    HW221039   1.682   5.306   4.991
 6714SOL     OW21040   4.837   1.372   1.248
 6714SOL    HW121041   4.778   1.358   1.168
 6714SOL    HW221042   4.872   1.284   1.279
 6715SOL     OW21043   0.997   0.449   0.020
 6715SOL    HW121044   0.989   0.383   0.094
 6715SOL    HW221045   1.085   0.497   0.027
 6716SOL     OW21046   0.299   5.926   2.742
 6716SOL    HW121047   0.262   5.961   2.656
 6716SOL    HW221048   0.328   6.002   2.800
 6717SOL     OW21049   5.556   2.134   5.199
 6717SOL    HW121050   5.639   2.121   5.253
 6717SOL    HW221051   5.581   2.146   5.103
 6718SOL     OW21052   3.868   1.147   1.236
 6718SOL    HW121053   3.871   1.073   1.304
 6718SOL    HW221054   3.950   1.144   1.180
 6719SOL     OW21055   2.324   1.402   0.150
 6719SOL    HW121056   2.387   1.350   0.091
 6719SOL    HW221057   2.245   1.345   0.172
 6720SOL     OW21058   2.102   0.398   6.269
 6720SOL    HW121059   2.121   0.343   6.351
 6720SOL    HW221060   2.053   0.481   6.296
 6721SOL     OW21061   6.079   1.100   0.595
 6721SOL    HW121062   6.019   1.175   0.622
 6721SOL    HW221063   6.026   1.015   0.592
 6722SOL     OW21064   6.020   3.372   6.959
 6722SOL    HW121065   6.002   3.402   0.029
 6722SOL    HW221066   5.946   3.312   6.928
 6723SOL     OW21067   0.985   2.256   5.864
 6723SOL    HW121068   0.984   2.356   5.870
 6723SOL    HW221069   1.028   2.229   5.778
 6724SOL     OW21070   2.029   3.726   5.441
 6724SOL    HW121071   1.965   3.768   5.377
 6724SOL    HW221072   2.112   3.699   5.393
 6725SOL     OW21073   5.195   2.740   3.238
 6725SOL    HW121074   5.271   2.792   3.199
 6725SOL    HW221075   5.117   2.744   3.176
 6726SOL     OW21076   0.534   0.962   5.458
 6726SOL    HW121077   0.628   0.993   5.465
 6726SOL    HW221078   0.480   1.030   5.407
 6727SOL     OW21079   1.063   4.654   5.188
 6727SOL    HW121080   0.995   4.645   5.261
 6727SOL    HW221081   1.089   4.563   5.155
 6728SOL     OW21082   3.126   1.795   3.196
 6728SOL    HW121083   3.111   1.867   3.264
 6728SOL    HW221084   3.126   1.835   3.105
 6729SOL     OW21085   4.292   1.132   2.359
 6729SOL    HW121086   4.240   1.047   2.352
 6729SOL    HW221087   4.374   1.126   2.302
 6730SOL     OW21088   0.630   1.046   1.449
 6730SOL    HW121089   0.581   1.055   1.535
 6730SOL    HW221090   0.640   0.949   1.426
 6731SOL     OW21091   3.600   7.013   6.332
 6731SOL    HW121092   3.582   6.931   6.387
 6731SOL    HW221093   3.515   0.042   6.325
 6732SOL     OW21094   0.016   5.765   4.432
 6732SOL    HW121095   0.041   5.862   4.425
 6732SOL    HW221096   7.013   5.744   4.526
 6733SOL     OW21097   4.908   4.921   6.325
 6733SOL    HW121098   4.829   4.978   6.299
 6733SOL    HW221099   4.951   4.885   6.243
 6734SOL     OW21100   6.547   1.484   4.151
 6734SOL    HW121101   6.647   1.488   4.162
 6734SOL    HW221102   6.522   1.517   4.060
 6735SOL     OW21103   6.313   3.054   3.411
 6735SOL    HW121104   6.239   3.030   3.349
 6735SOL    HW221105   6.387   2.988   3.402
 6736SOL     OW21106   3.657   3.707   0.617
 6736SOL    HW121107   3.718   3.667   0.685
 6736SOL    HW221108   3.640   3.640   0.544
 6737SOL     OW21109   6.971   3.519   0.407
 6737SOL    HW121110   0.027   3.506   0.348
 6737SOL    HW221111   6.972   3.611   0.446
 6738SOL     OW21112   0.929   5.533   3.545
 6738SOL    HW121113   0.948   5.613   3.488
 6738SOL    HW221114   0.976   5.453   3.507
 6739SOL     OW21115   6.428   6.999   4.759
 6739SOL    HW121116   6.383   6.982   4.671
 6739SOL    HW221117   6.503   6.933   4.771
 6740SOL     OW21118   0.510   6.740   3.388
 6740SOL    HW121119   0.431   6.766   3.443
 6740SOL    HW221120   0.588   6.722   3.449
 6741SOL     OW21121   4.258   1.883   6.941
 6741SOL    HW121122   4.303   1.843   6.861
 6741SOL    HW221123   4.165   1.910   6.917
 6742SOL     OW21124   5.538   4.923   3.443
 6742SOL    HW121125   5.495   4.864   3.512
 6742SOL    HW221126   5.470   4.948   3.375
 6743SOL     OW21127   4.302   4.120   0.577
 6743SOL    HW121128   4.309   4.036   0.631
 6743SOL    HW221129   4.272   4.097   0.484
 6744SOL     OW21130   0.435   6.274   6.361
 6744SOL    HW121131   0.445   6.291   6.263
 6744SOL    HW221132   0.359   6.328   6.396
 6745SOL     OW21133   0.273   4.670   5.384
 6745SOL    HW121134   0.320   4.756   5.366
 6745SOL    HW221135   0.316   4.596   5.332
 6746SOL     OW21136   0.901   2.387   2.269
 6746SOL    HW121137   0.930   2.291   2.264
 6746SOL    HW221138   0.980   2.445   2.289
 6747SOL     OW21139   1.751   6.193   5.865
 6747SOL    HW121140   1.842   6.154   5.876
 6747SOL    HW221141   1.753   6.291   5.889
 6748SOL     OW21142   1.866   1.250   4.851
 6748SOL    HW121143   1.816   1.188   4.911
 6748SOL    HW221144   1.818   1.258   4.764
 6749SOL     OW21145   3.690   5.025   1.462
 6749SOL    HW121146   3.603   5.067   1.436
 6749SOL    HW221147   3.694   4.932   1.426
 6750SOL     OW21148   3.209   1.363   5.022
 6750SOL    HW121149   3.231   1.335   4.928
 6750SOL    HW221150   3.226   1.288   5.085
 6751SOL     OW21151   4.712   0.204   4.264
 6751SOL    HW121152   4.683   0.132   4.327
 6751SOL    HW221153   4.679   0.184   4.172
 6752SOL     OW21154   2.331   5.614   2.268
 6752SOL    HW121155   2.241   5.633   2.229
 6752SOL    HW221156   2.323   5.539   2.333
 6753SOL     OW21157   3.780   3.127   5.796
 6753SOL    HW121158   3.864   3.091   5.755
 6753SOL    HW221159   3.703   3.067   5.772
 6754SOL     OW21160   6.246   2.069   1.051
 6754SOL    HW121161   6.271   2.137   1.120
 6754SOL    HW221162   6.329   2.041   1.001
 6755SOL     OW21163   2.714   5.725   6.240
 6755SOL    HW121164   2.734   5.680   6.326
 6755SOL    HW221165   2.700   5.657   6.168
 6756SOL     OW21166   2.523   2.032   5.495
 6756SOL    HW121167   2.459   1.961   5.465
 6756SOL    HW221168   2.572   2.069   5.416
 6757SOL     OW21169   3.859   6.722   0.356
 6757SOL    HW121170   3.851   6.625   0.382
 6757SOL    HW221171   3.951   6.739   0.320
 6758SOL     OW21172   5.948   1.998   2.854
 6758SOL    HW121173   6.044   1.989   2.828
 6758SOL    HW221174   5.916   1.914   2.897
 6759SOL     OW21175   0.855   2.644   2.811
 6759SOL    HW121176   0.855   2.565   2.750
 6759SOL    HW221177   0.787   2.631   2.884
 6760SOL     OW21178   5.258   2.486   3.102
 6760SOL    HW121179   5.236   2.584   3.101
 6760SOL    HW221180   5.251   2.451   3.195
 6761SOL     OW21181   3.997   2.150   4.501
 6761SOL    HW121182   3.980   2.147   4.600
 6761SOL    HW221183   4.008   2.057   4.467
 6762SOL     OW21184   6.951   5.835   4.070
 6762SOL    HW121185   0.011   5.806   4.116
 6762SOL    HW221186   6.946   5.793   3.980
 6763SOL     OW21187   5.186   5.319   5.370
 6763SOL    HW121188   5.137   5.331   5.456
 6763SOL    HW221189   5.279   5.355   5.379
 6764SOL     OW21190   1.654   5.151   1.219
 6764SOL    HW121191   1.621   5.241   1.191
 6764SOL    HW221192   1.726   5.121   1.157
 6765SOL     OW21193   6.577   5.188   2.715
 6765SOL    HW121194   6.493   5.161   2.666
 6765SOL    HW221195   6.559   5.187   2.813
 6766SOL     OW21196   6.160   0.643   0.605
 6766SOL    HW121197   6.222   0.715   0.576
 6766SOL    HW221198   6.171   0.563   0.545
 6767SOL     OW21199   2.920   0.392   0.613
 6767SOL    HW121200   2.986   0.410   0.540
 6767SOL    HW221201   2.932   0.299   0.647
 6768SOL     OW21202   1.555   0.750   0.680
 6768SOL    HW121203   1.632   0.691   0.655
 6768SOL    HW221204   1.470   0.698   0.671
 6769SOL     OW21205   4.432   2.758   1.598
 6769SOL    HW121206   4.468   2.690   1.534
 6769SOL    HW221207   4.334   2.742   1.611
 6770SOL     OW21208   0.203   0.240   1.712
 6770SOL    HW121209   0.282   0.282   1.666
 6770SOL    HW221210   0.203   0.142   1.692
 6771SOL     OW21211   4.025   2.123   3.204
 6771SOL    HW121212   4.049   2.171   3.288
 6771SOL    HW221213   4.107   2.081   3.166
 6772SOL     OW21214   2.823   1.525   2.502
 6772SOL    HW121215   2.747   1.553   2.560
 6772SOL    HW221216   2.895   1.594   2.506
 6773SOL     OW21217   0.412   4.070   2.410
 6773SOL    HW121218   0.342   4.141   2.408
 6773SOL    HW221219   0.484   4.095   2.475
 6774SOL     OW21220   0.789   1.800   0.084
 6774SOL    HW121221   0.886   1.773   0.088
 6774SOL    HW221222   0.735   1.723   0.050
 6775SOL     OW21223   2.391   4.686   0.819
 6775SOL    HW121224   2.485   4.654   0.830
 6775SOL    HW221225   2.343   4.680   0.907
 6776SOL     OW21226   6.270   5.289   6.869
 6776SOL    HW121227   6.215   5.273   6.950
 6776SOL    HW221228   6.366   5.302   6.895
 6777SOL     OW21229   4.504   4.634   6.556
 6777SOL    HW121230   4.513   4.703   6.627
 6777SOL    HW221231   4.583   4.638   6.495
 6778SOL     OW21232   0.849   5.522   2.960
 6778SOL    HW121233   0.911   5.527   2.882
 6778SOL    HW221234   0.877   5.588   3.029
 6779SOL     OW21235   0.095   4.664   0.804
 6779SOL    HW121236   0.057   4.710   0.725
 6779SOL    HW221237   0.193   4.649   0.790
 6780SOL     OW21238   0.310   2.239   1.749
 6780SOL    HW121239   0.313   2.270   1.844
 6780SOL    HW221240   0.236   2.287   1.701
 6781SOL     OW21241   5.414   5.608   5.733
 6781SOL    HW121242   5.352   5.666   5.679
 6781SOL    HW221243   5.442   5.657   5.815
 6782SOL     OW21244   6.501   1.474   3.048
 6782SOL    HW121245   6.529   1.570   3.039
 6782SOL    HW221246   6.407   1.463   3.016
 6783SOL     OW21247   0.261   6.135   6.802
 6783SOL    HW121248   0.229   6.041   6.791
 6783SOL    HW221249   0.202   6.182   6.868
 6784SOL     OW21250   3.311   3.306   0.191
 6784SOL    HW121251   3.391   3.273   0.241
 6784SOL    HW221252   3.340   3.362   0.113
 6785SOL     OW21253   5.650   6.020   2.347
 6785SOL    HW121254   5.675   5.925   2.331
 6785SOL    HW221255   5.716   6.062   2.409
 6786SOL     OW21256   1.730   2.605   5.806
 6786SOL    HW121257   1.694   2.539   5.740
 6786SOL    HW221258   1.816   2.642   5.772
 6787SOL     OW21259   1.396   3.642   2.203
 6787SOL    HW121260   1.419   3.696   2.122
 6787SOL    HW221261   1.465   3.571   2.217
 6788SOL     OW21262   3.275   3.647   0.918
 6788SOL    HW121263   3.372   3.622   0.909
 6788SOL    HW221264   3.231   3.641   0.828
 6789SOL     OW21265   0.465   6.242   2.553
 6789SOL    HW121266   0.518   6.191   2.621
 6789SOL    HW221267   0.507   6.332   2.539
 6790SOL     OW21268   2.158   3.027   0.160
 6790SOL    HW121269   2.159   3.113   0.210
 6790SOL    HW221270   2.077   2.974   0.185
 6791SOL     OW21271   4.109   3.112   6.131
 6791SOL    HW121272   4.202   3.082   6.155
 6791SOL    HW221273   4.062   3.039   6.082
 6792SOL     OW21274   6.479   6.173   0.556
 6792SOL    HW121275   6.561   6.148   0.505
 6792SOL    HW221276   6.404   6.111   0.530
 6793SOL     OW21277   0.723   2.985   1.502
 6793SOL    HW121278   0.759   3.017   1.590
 6793SOL    HW221279   0.798   2.964   1.440
 6794SOL     OW21280   5.350   1.234   5.304
 6794SOL    HW121281   5.271   1.196   5.351
 6794SOL    HW221282   5.420   1.258   5.371
 6795SOL     OW21283   3.017   6.008   0.314
 6795SOL    HW121284   3.025   5.995   0.215
 6795SOL    HW221285   2.933   6.058   0.334
 6796SOL     OW21286   4.630   1.743   2.931
 6796SOL    HW121287   4.540   1.710   2.900
 6796SOL    HW221288   4.698   1.725   2.860
 6797SOL     OW21289   5.616   3.252   2.237
 6797SOL    HW121290   5.646   3.277   2.329
 6797SOL    HW221291   5.692   3.209   2.188
 6798SOL     OW21292   5.403   5.988   2.456
 6798SOL    HW121293   5.392   5.938   2.542
 6798SOL    HW221294   5.500   5.990   2.431
 6799SOL     OW21295   5.358   6.154   0.346
 6799SOL    HW121296   5.277   6.213   0.347
 6799SOL    HW221297   5.439   6.210   0.365
 6800SOL     OW21298   1.902   4.887   0.284
 6800SOL    HW121299   1.918   4.983   0.261
 6800SOL    HW221300   1.828   4.851   0.227
 6801SOL     OW21301   1.612   2.300   2.177
 6801SOL    HW121302   1.598   2.396   2.201
 6801SOL    HW221303   1.690   2.264   2.228
 6802SOL     OW21304   2.496   6.230   1.824
 6802SOL    HW121305   2.425   6.160   1.825
 6802SOL    HW221306   2.583   6.190   1.851
 6803SOL     OW21307   5.130   1.894   0.019
 6803SOL    HW121308   5.036   1.910   7.016
 6803SOL    HW221309   5.166   1.974   0.066
 6804SOL     OW21310   1.494   5.992   3.737
 6804SOL    HW121311   1.450   6.063   3.792
 6804SOL    HW221312   1.574   5.956   3.787
 6805SOL     OW21313   5.868   0.459   4.790
 6805SOL    HW121314   5.903   0.489   4.702
 6805SOL    HW221315   5.772   0.486   4.798
 6806SOL     OW21316   4.498   0.835   5.276
 6806SOL    HW121317   4.473   0.783   5.358
 6806SOL    HW221318   4.556   0.913   5.302
 6807SOL     OW21319   3.045   2.951   0.115
 6807SOL    HW121320   3.056   3.022   0.184
 6807SOL    HW221321   2.976   2.886   0.144
 6808SOL     OW21322   0.942   2.630   6.146
 6808SOL    HW121323   0.937   2.692   6.224
 6808SOL    HW221324   0.851   2.597   6.124
 6809SOL     OW21325   2.610   3.608   6.869
 6809SOL    HW121326   2.539   3.593   6.801
 6809SOL    HW221327   2.657   3.694   6.850
 6810SOL     OW21328   6.396   0.856   2.418
 6810SOL    HW121329   6.349   0.810   2.344
 6810SOL    HW221330   6.336   0.863   2.498
 6811SOL     OW21331   5.732   4.823   1.519
 6811SOL    HW121332   5.674   4.858   1.445
 6811SOL    HW221333   5.827   4.847   1.502
 6812SOL     OW21334   3.508   3.339   3.147
 6812SOL    HW121335   3.508   3.328   3.047
 6812SOL    HW221336   3.415   3.335   3.181
 6813SOL     OW21337   4.326   2.900   0.837
 6813SOL    HW121338   4.314   2.994   0.869
 6813SOL    HW221339   4.342   2.840   0.916
 6814SOL     OW21340   2.381   3.625   0.931
 6814SOL    HW121341   2.360   3.723   0.926
 6814SOL    HW221342   2.308   3.574   0.886
 6815SOL     OW21343   2.398   0.612   1.661
 6815SOL    HW121344   2.347   0.639   1.743
 6815SOL    HW221345   2.356   0.654   1.580
 6816SOL     OW21346   6.744   4.930   0.187
 6816SOL    HW121347   6.678   4.868   0.229
 6816SOL    HW221348   6.766   4.897   0.095
 6817SOL     OW21349   0.063   1.693   6.060
 6817SOL    HW121350   0.032   1.673   5.968
 6817SOL    HW221351   0.154   1.736   6.056
 6818SOL     OW21352   3.885   6.083   2.808
 6818SOL    HW121353   3.954   6.144   2.849
 6818SOL    HW221354   3.927   5.995   2.788
 6819SOL     OW21355   3.707   1.150   3.815
 6819SOL    HW121356   3.803   1.148   3.842
 6819SOL    HW221357   3.650   1.121   3.892
 6820SOL     OW21358   1.166   4.160   3.025
 6820SOL    HW121359   1.138   4.102   3.102
 6820SOL    HW221360   1.255   4.200   3.045
 6821SOL     OW21361   2.406   2.415   4.359
 6821SOL    HW121362   2.331   2.361   4.396
 6821SOL    HW221363   2.482   2.416   4.425
 6822SOL     OW21364   5.523   2.106   5.773
 6822SOL    HW121365   5.461   2.067   5.705
 6822SOL    HW221366   5.491   2.199   5.797
 6823SOL     OW21367   3.247   3.023   3.251
 6823SOL    HW121368   3.237   2.987   3.159
 6823SOL    HW221369   3.190   3.104   3.262
 6824SOL     OW21370   0.839   4.344   7.016
 6824SOL    HW121371   0.815   4.439   6.999
 6824SOL    HW221372   0.777   4.284   6.966
 6825SOL     OW21373   5.089   6.793   2.286
 6825SOL    HW121374   5.076   6.891   2.299
 6825SOL    HW221375   5.184   6.774   2.261
 6826SOL     OW21376   1.743   3.486   2.797
 6826SOL    HW121377   1.796   3.481   2.882
 6826SOL    HW221378   1.800   3.524   2.724
 6827SOL     OW21379   5.744   5.691   5.958
 6827SOL    HW121380   5.734   5.598   5.922
 6827SOL    HW221381   5.794   5.688   6.044
 6828SOL     OW21382   1.351   2.398   1.209
 6828SOL    HW121383   1.433   2.345   1.188
 6828SOL    HW221384   1.364   2.446   1.296
 6829SOL     OW21385   5.259   5.929   3.365
 6829SOL    HW121386   5.218   5.896   3.280
 6829SOL    HW221387   5.291   6.023   3.352
 6830SOL     OW21388   5.272   1.945   3.548
 6830SOL    HW121389   5.320   2.015   3.495
 6830SOL    HW221390   5.337   1.898   3.607
 6831SOL     OW21391   0.574   0.427   5.763
 6831SOL    HW121392   0.603   0.332   5.757
 6831SOL    HW221393   0.652   0.487   5.744
 6832SOL     OW21394   3.298   5.129   2.184
 6832SOL    HW121395   3.265   5.035   2.171
 6832SOL    HW221396   3.246   5.191   2.125
 6833SOL     OW21397   4.164   4.789   0.389
 6833SOL    HW121398   4.109   4.806   0.471
 6833SOL    HW221399   4.261   4.783   0.415
 6834SOL     OW21400   4.027   6.204   2.067
 6834SOL    HW121401   4.056   6.190   2.161
 6834SOL    HW221402   3.946   6.263   2.065
 6835SOL     OW21403   4.084   6.989   5.098
 6835SOL    HW121404   4.005   6.943   5.139
 6835SOL    HW221405   4.052   0.040   5.040
 6836SOL     OW21406   3.649   6.855   6.936
 6836SOL    HW121407   3.703   6.787   6.985
 6836SOL    HW221408   3.708   6.932   6.910
 6837SOL     OW21409   1.728   3.207   1.793
 6837SOL    HW121410   1.723   3.143   1.870
 6837SOL    HW221411   1.655   3.276   1.802
 6838SOL     OW21412   2.722   1.388   0.296
 6838SOL    HW121413   2.805   1.374   0.351
 6838SOL    HW221414   2.669   1.463   0.335
 6839SOL     OW21415   4.304   1.177   0.671
 6839SOL    HW121416   4.311   1.164   0.572
 6839SOL    HW221417   4.229   1.239   0.692
 6840SOL     OW21418   1.571   1.375   5.990
 6840SOL    HW121419   1.502   1.305   5.970
 6840SOL    HW221420   1.588   1.378   6.089
 6841SOL     OW21421   6.506   2.791   6.319
 6841SOL    HW121422   6.538   2.791   6.414
 6841SOL    HW221423   6.533   2.876   6.274
 6842SOL     OW21424   2.344   4.946   2.826
 6842SOL    HW121425   2.403   5.000   2.886
 6842SOL    HW221426   2.251   4.945   2.862
 6843SOL     OW21427   4.916   6.626   6.555
 6843SOL    HW121428   4.990   6.580   6.604
 6843SOL    HW221429   4.845   6.653   6.619
 6844SOL     OW21430   5.341   0.927   5.682
 6844SOL    HW121431   5.367   0.896   5.774
 6844SOL    HW221432   5.318   0.847   5.625
 6845SOL     OW21433   5.287   1.843   2.175
 6845SOL    HW121434   5.276   1.833   2.274
 6845SOL    HW221435   5.333   1.929   2.154
 6846SOL     OW21436   2.368   3.610   0.263
 6846SOL    HW121437   2.461   3.634   0.290
 6846SOL    HW221438   2.356   3.626   0.165
 6847SOL     OW21439   6.012   3.876   4.218
 6847SOL    HW121440   5.948   3.811   4.259
 6847SOL    HW221441   6.076   3.828   4.159
 6848SOL     OW21442   5.789   4.948   3.229
 6848SOL    HW121443   5.724   4.876   3.253
 6848SOL    HW221444   5.767   5.032   3.279
 6849SOL     OW21445   4.063   4.431   6.801
 6849SOL    HW121446   4.054   4.418   6.900
 6849SOL    HW221447   3.976   4.463   6.763
 6850SOL     OW21448   4.026   1.716   3.618
 6850SOL    HW121449   4.084   1.724   3.699
 6850SOL    HW221450   3.943   1.665   3.641
 6851SOL     OW21451   1.745   2.952   3.701
 6851SOL    HW121452   1.774   3.046   3.719
 6851SOL    HW221453   1.804   2.912   3.631
 6852SOL     OW21454   2.638   5.184   0.508
 6852SOL    HW121455   2.546   5.145   0.519
 6852SOL    HW221456   2.692   5.164   0.589
 6853SOL     OW21457   4.997   3.104   7.006
 6853SOL    HW121458   4.982   3.172   0.054
 6853SOL    HW221459   5.071   3.135   6.946
 6854SOL     OW21460   5.204   6.492   5.973
 6854SOL    HW121461   5.186   6.563   6.042
 6854SOL    HW221462   5.221   6.536   5.884
 6855SOL     OW21463   3.951   5.376   3.968
 6855SOL    HW121464   3.946   5.306   4.039
 6855SOL    HW221465   3.988   5.460   4.006
 6856SOL     OW21466   1.058   1.836   6.869
 6856SOL    HW121467   1.059   1.761   6.935
 6856SOL    HW221468   1.064   1.800   6.777
 6857SOL     OW21469   0.857   3.868   5.467
 6857SOL    HW121470   0.761   3.895   5.469
 6857SOL    HW221471   0.890   3.869   5.373
 6858SOL     OW21472   2.932   4.079   1.547
 6858SOL    HW121473   2.954   4.176   1.558
 6858SOL    HW221474   2.956   4.029   1.630
 6859SOL     OW21475   0.853   1.181   2.618
 6859SOL    HW121476   0.896   1.091   2.613
 6859SOL    HW221477   0.862   1.228   2.530
 6860SOL     OW21478   0.685   6.643   2.132
 6860SOL    HW121479   0.678   6.626   2.230
 6860SOL    HW221480   0.746   6.576   2.090
 6861SOL     OW21481   5.218   2.719   4.907
 6861SOL    HW121482   5.138   2.662   4.890
 6861SOL    HW221483   5.258   2.748   4.820
 6862SOL     OW21484   0.654   4.330   5.253
 6862SOL    HW121485   0.698   4.412   5.216
 6862SOL    HW221486   0.594   4.291   5.183
 6863SOL     OW21487   6.458   6.949   5.894
 6863SOL    HW121488   6.507   6.897   5.963
 6863SOL    HW221489   6.382   6.895   5.858
 6864SOL     OW21490   1.350   3.949   6.205
 6864SOL    HW121491   1.421   3.955   6.135
 6864SOL    HW221492   1.323   3.854   6.218
 6865SOL     OW21493   2.356   6.998   4.272
 6865SOL    HW121494   2.422   6.987   4.197
 6865SOL    HW221495   2.287   0.040   4.246
 6866SOL     OW21496   0.669   4.349   1.550
 6866SOL    HW121497   0.581   4.304   1.558
 6866SOL    HW221498   0.676   4.422   1.619
 6867SOL     OW21499   2.164   3.618   6.843
 6867SOL    HW121500   2.128   3.710   6.826
 6867SOL    HW221501   2.089   3.556   6.866
 6868SOL     OW21502   2.638   5.098   4.300
 6868SOL    HW121503   2.597   5.016   4.261
 6868SOL    HW221504   2.726   5.075   4.342
 6869SOL     OW21505   3.787   0.900   5.800
 6869SOL    HW121506   3.871   0.866   5.757
 6869SOL    HW221507   3.731   0.823   5.830
 6870SOL     OW21508   6.889   2.737   1.058
 6870SOL    HW121509   6.855   2.801   0.989
 6870SOL    HW221510   6.892   2.645   1.020
 6871SOL     OW21511   0.753   3.918   2.662
 6871SOL    HW121512   0.769   3.830   2.707
 6871SOL    HW221513   0.780   3.913   2.566
 6872SOL     OW21514   2.197   3.453   0.720
 6872SOL    HW121515   2.149   3.378   0.765
 6872SOL    HW221516   2.201   3.435   0.622
 6873SOL     OW21517   1.040   4.279   4.223
 6873SOL    HW121518   1.138   4.268   4.236
 6873SOL    HW221519   0.993   4.194   4.248
 6874SOL     OW21520   5.369   6.538   3.734
 6874SOL    HW121521   5.437   6.470   3.762
 6874SOL    HW221522   5.301   6.495   3.675
 6875SOL     OW21523   1.451   2.469   0.439
 6875SOL    HW121524   1.363   2.435   0.408
 6875SOL    HW221525   1.472   2.430   0.529
 6876SOL     OW21526   4.508   5.506   3.733
 6876SOL    HW121527   4.577   5.567   3.771
 6876SOL    HW221528   4.445   5.478   3.806
 6877SOL     OW21529   1.692   3.718   2.424
 6877SOL    HW121530   1.687   3.682   2.331
 6877SOL    HW221531   1.600   3.721   2.463
 6878SOL     OW21532   1.939   0.238   4.615
 6878SOL    HW121533   2.012   0.278   4.671
 6878SOL    HW221534   1.852   0.282   4.638
 6879SOL     OW21535   1.923   2.116   0.354
 6879SOL    HW121536   1.870   2.185   0.305
 6879SOL    HW221537   1.908   2.125   0.453
 6880SOL     OW21538   1.487   5.535   6.760
 6880SOL    HW121539   1.520   5.616   6.712
 6880SOL    HW221540   1.387   5.538   6.766
 6881SOL     OW21541   1.435   2.858   0.575
 6881SOL    HW121542   1.418   2.912   0.657
 6881SOL    HW221543   1.525   2.815   0.581
 6882SOL     OW21544   2.887   6.554   6.411
 6882SOL    HW121545   2.861   6.595   6.323
 6882SOL    HW221546   2.807   6.512   6.453
 6883SOL     OW21547   5.138   0.061   6.860
 6883SOL    HW121548   5.071   0.026   6.794
 6883SOL    HW221549   5.229   0.058   6.819
 6884SOL     OW21550   1.796   3.908   2.837
 6884SOL    HW121551   1.823   3.936   2.744
 6884SOL    HW221552   1.872   3.858   2.879
 6885SOL     OW21553   5.698   5.553   4.866
 6885SOL    HW121554   5.637   5.497   4.811
 6885SOL    HW221555   5.655   5.642   4.884
 6886SOL     OW21556   4.992   1.905   6.594
 6886SOL    HW121557   5.015   1.838   6.665
 6886SOL    HW221558   4.929   1.973   6.632
 6887SOL     OW21559   5.604   5.935   6.321
 6887SOL    HW121560   5.593   6.000   6.246
 6887SOL    HW221561   5.514   5.910   6.357
 6888SOL     OW21562   5.972   4.946   6.617
 6888SOL    HW121563   6.039   4.962   6.690
 6888SOL    HW221564   5.917   4.866   6.639
 6889SOL     OW21565   0.551   2.147   6.777
 6889SOL    HW121566   0.511   2.056   6.786
 6889SOL    HW221567   0.648   2.139   6.754
 6890SOL     OW21568   4.378   5.097   3.088
 6890SOL    HW121569   4.339   5.063   3.173
 6890SOL    HW221570   4.342   5.044   3.011
 6891SOL     OW21571   1.762   1.117   0.846
 6891SOL    HW121572   1.755   1.177   0.925
 6891SOL    HW221573   1.746   1.022   0.874
 6892SOL     OW21574   2.677   1.087   4.335
 6892SOL    HW121575   2.708   1.058   4.426
 6892SOL    HW221576   2.640   1.008   4.286
 6893SOL     OW21577   6.286   3.248   0.360
 6893SOL    HW121578   6.345   3.262   0.440
 6893SOL    HW221579   6.292   3.152   0.331
 6894SOL     OW21580   5.930   5.310   0.564
 6894SOL    HW121581   5.916   5.409   0.563
 6894SOL    HW221582   5.902   5.274   0.653
 6895SOL     OW21583   0.652   6.653   1.405
 6895SOL    HW121584   0.613   6.641   1.313
 6895SOL    HW221585   0.594   6.607   1.471
 6896SOL     OW21586   4.267   2.195   4.382
 6896SOL    HW121587   4.176   2.179   4.422
 6896SOL    HW221588   4.261   2.189   4.283
 6897SOL     OW21589   4.873   3.462   5.317
 6897SOL    HW121590   4.904   3.383   5.264
 6897SOL    HW221591   4.829   3.528   5.256
 6898SOL     OW21592   2.321   1.151   1.477
 6898SOL    HW121593   2.250   1.198   1.529
 6898SOL    HW221594   2.385   1.107   1.540
 6899SOL     OW21595   6.207   6.230   2.772
 6899SOL    HW121596   6.266   6.310   2.761
 6899SOL    HW221597   6.252   6.150   2.733
 6900SOL     OW21598   6.537   3.799   5.417
 6900SOL    HW121599   6.566   3.727   5.480
 6900SOL    HW221600   6.593   3.798   5.335
 6901SOL     OW21601   4.876   4.509   6.600
 6901SOL    HW121602   4.829   4.465   6.676
 6901SOL    HW221603   4.831   4.595   6.577
 6902SOL     OW21604   0.678   5.767   5.843
 6902SOL    HW121605   0.776   5.747   5.831
 6902SOL    HW221606   0.627   5.729   5.765
 6903SOL     OW21607   1.760   5.616   4.568
 6903SOL    HW121608   1.674   5.664   4.551
 6903SOL    HW221609   1.784   5.623   4.665
 6904SOL     OW21610   6.417   6.575   5.238
 6904SOL    HW121611   6.378   6.625   5.161
 6904SOL    HW221612   6.366   6.490   5.253
 6905SOL     OW21613   4.664   5.776   6.212
 6905SOL    HW121614   4.753   5.818   6.225
 6905SOL    HW221615   4.670   5.677   6.228
 6906SOL     OW21616   3.581   1.758   3.472
 6906SOL    HW121617   3.611   1.847   3.437
 6906SOL    HW221618   3.503   1.771   3.532
 6907SOL     OW21619   5.936   2.114   0.529
 6907SOL    HW121620   5.959   2.147   0.438
 6907SOL    HW221621   5.839   2.090   0.533
 6908SOL     OW21622   2.486   4.272   0.039
 6908SOL    HW121623   2.419   4.274   0.113
 6908SOL    HW221624   2.443   4.300   6.977
 6909SOL     OW21625   5.958   5.987   2.271
 6909SOL    HW121626   5.912   5.908   2.313
 6909SOL    HW221627   6.027   5.954   2.206
 6910SOL     OW21628   0.958   2.858   3.358
 6910SOL    HW121629   1.018   2.936   3.376
 6910SOL    HW221630   0.893   2.881   3.285
 6911SOL     OW21631   2.551   6.711   5.735
 6911SOL    HW121632   2.547   6.757   5.647
 6911SOL    HW221633   2.470   6.734   5.789
 6912SOL     OW21634   2.790   3.713   0.078
 6912SOL    HW121635   2.775   3.809   0.054
 6912SOL    HW221636   2.844   3.669   0.007
 6913SOL     OW21637   4.800   6.316   5.797
 6913SOL    HW121638   4.873   6.248   5.806
 6913SOL    HW221639   4.715   6.271   5.770
 6914SOL     OW21640   6.782   2.816   2.460
 6914SOL    HW121641   6.765   2.725   2.423
 6914SOL    HW221642   6.731   2.883   2.406
 6915SOL     OW21643   0.796   2.930   2.948
 6915SOL    HW121644   0.696   2.939   2.947
 6915SOL    HW221645   0.821   2.836   2.924
 6916SOL     OW21646   5.020   5.937   0.205
 6916SOL    HW121647   5.034   5.951   0.106
 6916SOL    HW221648   4.981   5.846   0.220
 6917SOL     OW21649   5.114   5.338   1.231
 6917SOL    HW121650   5.098   5.418   1.174
 6917SOL    HW221651   5.170   5.272   1.181
 6918SOL     OW21652   2.140   3.564   1.668
 6918SOL    HW121653   2.191   3.638   1.712
 6918SOL    HW221654   2.148   3.481   1.723
 6919SOL     OW21655   6.430   6.253   3.538
 6919SOL    HW121656   6.373   6.288   3.612
 6919SOL    HW221657   6.372   6.227   3.461
 6920SOL     OW21658   5.964   0.406   5.835
 6920SOL    HW121659   6.045   0.401   5.893
 6920SOL    HW221660   5.905   0.326   5.852
 6921SOL     OW21661   3.940   0.590   4.099
 6921SOL    HW121662   3.920   0.499   4.063
 6921SOL    HW221663   3.999   0.639   4.035
 6922SOL     OW21664   1.389   4.781   6.026
 6922SOL    HW121665   1.338   4.700   5.998
 6922SOL    HW221666   1.400   4.843   5.947
 6923SOL     OW21667   6.305   6.961   2.849
 6923SOL    HW121668   6.220   7.010   2.867
 6923SOL    HW221669   6.377   6.997   2.909
 6924SOL     OW21670   3.376   6.067   0.925
 6924SOL    HW121671   3.295   6.049   0.980
 6924SOL    HW221672   3.430   5.984   0.917
 6925SOL     OW21673   5.778   6.119   5.927
 6925SOL    HW121674   5.786   6.110   6.026
 6925SOL    HW221675   5.861   6.082   5.884
 6926SOL     OW21676   2.811   2.270   0.264
 6926SOL    HW121677   2.766   2.182   0.249
 6926SOL    HW221678   2.749   2.344   0.235
 6927SOL     OW21679   4.911   0.447   0.601
 6927SOL    HW121680   4.978   0.436   0.528
 6927SOL    HW221681   4.825   0.404   0.574
 6928SOL     OW21682   4.568   5.123   0.910
 6928SOL    HW121683   4.633   5.110   0.985
 6928SOL    HW221684   4.530   5.215   0.914
 6929SOL     OW21685   6.455   5.339   1.248
 6929SOL    HW121686   6.503   5.292   1.175
 6929SOL    HW221687   6.386   5.279   1.287
 6930SOL     OW21688   1.359   0.218   1.011
 6930SOL    HW121689   1.287   0.242   0.946
 6930SOL    HW221690   1.318   0.187   1.097
 6931SOL     OW21691   3.086   3.079   0.836
 6931SOL    HW121692   3.117   3.174   0.842
 6931SOL    HW221693   3.061   3.046   0.927
 6932SOL     OW21694   4.975   5.640   0.052
 6932SOL    HW121695   4.990   5.559   7.018
 6932SOL    HW221696   5.048   5.645   0.121
 6933SOL     OW21697   3.477   5.558   6.342
 6933SOL    HW121698   3.491   5.461   6.357
 6933SOL    HW221699   3.497   5.608   6.426
 6934SOL     OW21700   5.035   3.754   7.012
 6934SOL    HW121701   5.109   3.711   0.041
 6934SOL    HW221702   5.030   3.851   0.013
 6935SOL     OW21703   5.111   5.768   1.688
 6935SOL    HW121704   5.076   5.857   1.660
 6935SOL    HW221705   5.119   5.708   1.608
 6936SOL     OW21706   0.935   2.477   5.064
 6936SOL    HW121707   1.012   2.469   5.001
 6936SOL    HW221708   0.955   2.546   5.133
 6937SOL     OW21709   5.237   5.751   7.002
 6937SOL    HW121710   5.238   5.698   0.063
 6937SOL    HW221711   5.199   5.695   6.929
 6938SOL     OW21712   1.429   0.451   4.953
 6938SOL    HW121713   1.354   0.402   4.908
 6938SOL    HW221714   1.425   0.433   5.052
 6939SOL     OW21715   6.113   3.959   3.316
 6939SOL    HW121716   6.069   4.002   3.395
 6939SOL    HW221717   6.151   3.871   3.344
 6940SOL     OW21718   3.198   6.042   0.520
 6940SOL    HW121719   3.292   6.010   0.504
 6940SOL    HW221720   3.144   6.028   0.436
 6941SOL     OW21721   3.330   3.728   2.756
 6941SOL    HW121722   3.381   3.792   2.699
 6941SOL    HW221723   3.358   3.738   2.851
 6942SOL     OW21724   6.123   6.733   1.660
 6942SOL    HW121725   6.139   6.789   1.579
 6942SOL    HW221726   6.190   6.756   1.730
 6943SOL     OW21727   4.780   4.784   6.521
 6943SOL    HW121728   4.700   4.844   6.520
 6943SOL    HW221729   4.850   4.819   6.458
 6944SOL     OW21730   1.174   4.424   5.138
 6944SOL    HW121731   1.208   4.428   5.232
 6944SOL    HW221732   1.115   4.344   5.127
 6945SOL     OW21733   5.871   2.202   0.901
 6945SOL    HW121734   5.782   2.180   0.861
 6945SOL    HW221735   5.862   2.209   1.000
 6946SOL     OW21736   4.172   5.321   3.160
 6946SOL    HW121737   4.260   5.362   3.134
 6946SOL    HW221738   4.125   5.289   3.079
 6947SOL     OW21739   5.270   4.866   4.845
 6947SOL    HW121740   5.286   4.789   4.782
 6947SOL    HW221741   5.173   4.871   4.868
 6948SOL     OW21742   0.002   4.758   0.560
 6948SOL    HW121743   0.041   4.850   0.557
 6948SOL    HW221744   0.055   4.698   0.500
 6949SOL     OW21745   2.418   1.308   3.780
 6949SOL    HW121746   2.334   1.339   3.824
 6949SOL    HW221747   2.463   1.386   3.735
 6950SOL     OW21748   0.447   0.421   4.352
 6950SOL    HW121749   0.417   0.503   4.400
 6950SOL    HW221750   0.463   0.348   4.417
 6951SOL     OW21751   0.330   5.059   6.509
 6951SOL    HW121752   0.284   5.140   6.545
 6951SOL    HW221753   0.332   5.063   6.409
 6952SOL     OW21754   4.039   5.471   3.339
 6952SOL    HW121755   4.091   5.407   3.284
 6952SOL    HW221756   4.062   5.458   3.436
 6953SOL     OW21757   5.494   1.190   1.198
 6953SOL    HW121758   5.591   1.175   1.184
 6953SOL    HW221759   5.469   1.281   1.166
 6954SOL     OW21760   6.181   3.916   0.182
 6954SOL    HW121761   6.185   3.977   0.261
 6954SOL    HW221762   6.108   3.849   0.196
 6955SOL     OW21763   4.620   6.720   2.164
 6955SOL    HW121764   4.609   6.654   2.089
 6955SOL    HW221765   4.664   6.803   2.129
 6956SOL     OW21766   5.543   5.634   2.629
 6956SOL    HW121767   5.592   5.714   2.665
 6956SOL    HW221768   5.462   5.617   2.685
 6957SOL     OW21769   5.476   5.752   6.017
 6957SOL    HW121770   5.465   5.850   5.999
 6957SOL    HW221771   5.570   5.725   5.997
 6958SOL     OW21772   3.060   3.646   3.687
 6958SOL    HW121773   3.021   3.626   3.777
 6958SOL    HW221774   2.996   3.620   3.615
 6959SOL     OW21775   0.519   3.946   3.044
 6959SOL    HW121776   0.562   4.036   3.038
 6959SOL    HW221777   0.590   3.876   3.048
 6960SOL     OW21778   3.057   4.098   0.456
 6960SOL    HW121779   3.026   4.174   0.514
 6960SOL    HW221780   2.995   4.088   0.378
 6961SOL     OW21781   4.827   1.900   4.837
 6961SOL    HW121782   4.917   1.924   4.801
 6961SOL    HW221783   4.771   1.983   4.844
 6962SOL     OW21784   2.254   6.455   6.561
 6962SOL    HW121785   2.275   6.373   6.508
 6962SOL    HW221786   2.256   6.535   6.501
 6963SOL     OW21787   5.393   6.478   1.146
 6963SOL    HW121788   5.374   6.457   1.049
 6963SOL    HW221789   5.327   6.546   1.178
 6964SOL     OW21790   1.333   0.245   5.330
 6964SOL    HW121791   1.239   0.248   5.297
 6964SOL    HW221792   1.381   0.169   5.288
 6965SOL     OW21793   0.505   1.795   0.229
 6965SOL    HW121794   0.486   1.697   0.223
 6965SOL    HW221795   0.600   1.809   0.254
 6966SOL     OW21796   1.291   6.792   1.562
 6966SOL    HW121797   1.317   6.730   1.636
 6966SOL    HW221798   1.358   6.865   1.554
 6967SOL     OW21799   4.425   1.561   6.363
 6967SOL    HW121800   4.427   1.556   6.463
 6967SOL    HW221801   4.438   1.656   6.333
 6968SOL     OW21802   3.806   6.443   2.791
 6968SOL    HW121803   3.866   6.445   2.711
 6968SOL    HW221804   3.721   6.492   2.770
 6969SOL     OW21805   1.898   2.061   2.004
 6969SOL    HW121806   1.830   2.030   2.070
 6969SOL    HW221807   1.988   2.065   2.048
 6970SOL     OW21808   3.609   5.443   5.378
 6970SOL    HW121809   3.543   5.370   5.397
 6970SOL    HW221810   3.594   5.519   5.441
 6971SOL     OW21811   6.789   4.476   0.326
 6971SOL    HW121812   6.750   4.430   0.406
 6971SOL    HW221813   6.728   4.464   0.247
 6972SOL     OW21814   5.336   3.711   1.992
 6972SOL    HW121815   5.308   3.802   2.025
 6972SOL    HW221816   5.424   3.687   2.033
 6973SOL     OW21817   1.553   3.276   3.021
 6973SOL    HW121818   1.526   3.372   3.025
 6973SOL    HW221819   1.650   3.268   3.041
 6974SOL     OW21820   3.831   3.708   3.157
 6974SOL    HW121821   3.867   3.796   3.191
 6974SOL    HW221822   3.737   3.697   3.188
 6975SOL     OW21823   3.084   5.273   4.454
 6975SOL    HW121824   2.999   5.284   4.403
 6975SOL    HW221825   3.104   5.356   4.505
 6976SOL     OW21826   4.468   3.931   6.155
 6976SOL    HW121827   4.555   3.943   6.203
 6976SOL    HW221828   4.485   3.909   6.059
 6977SOL     OW21829   4.367   4.952   0.976
 6977SOL    HW121830   4.297   4.943   0.905
 6977SOL    HW221831   4.435   5.019   0.946
 6978SOL     OW21832   6.554   3.557   1.714
 6978SOL    HW121833   6.631   3.609   1.751
 6978SOL    HW221834   6.491   3.532   1.788
 6979SOL     OW21835   1.588   3.188   1.500
 6979SOL    HW121836   1.659   3.193   1.570
 6979SOL    HW221837   1.626   3.218   1.412
 6980SOL     OW21838   1.663   5.860   2.784
 6980SOL    HW121839   1.566   5.859   2.811
 6980SOL    HW221840   1.670   5.858   2.684
 6981SOL     OW21841   3.930   3.167   6.978
 6981SOL    HW121842   3.921   3.127   6.887
 6981SOL    HW221843   4.007   3.231   6.978
 6982SOL     OW21844   1.338   0.961   3.139
 6982SOL    HW121845   1.264   1.000   3.085
 6982SOL    HW221846   1.359   0.869   3.105
 6983SOL     OW21847   4.755   0.576   4.119
 6983SOL    HW121848   4.671   0.625   4.096
 6983SOL    HW221849   4.766   0.574   4.219
 6984SOL     OW21850   0.894   2.242   3.278
 6984SOL    HW121851   0.966   2.253   3.209
 6984SOL    HW221852   0.936   2.240   3.369
 6985SOL     OW21853   6.000   3.721   0.191
 6985SOL    HW121854   5.911   3.704   0.149
 6985SOL    HW221855   6.026   3.643   0.248
 6986SOL     OW21856   4.839   4.813   5.327
 6986SOL    HW121857   4.910   4.758   5.283
 6986SOL    HW221858   4.811   4.769   5.412
 6987SOL     OW21859   0.448   1.313   6.295
 6987SOL    HW121860   0.438   1.342   6.390
 6987SOL    HW221861   0.358   1.293   6.256
 6988SOL     OW21862   3.369   1.514   6.352
 6988SOL    HW121863   3.426   1.582   6.398
 6988SOL    HW221864   3.331   1.450   6.419
 6989SOL     OW21865   0.552   5.375   2.157
 6989SOL    HW121866   0.589   5.283   2.148
 6989SOL    HW221867   0.584   5.416   2.243
 6990SOL     OW21868   3.812   2.877   0.860
 6990SOL    HW121869   3.842   2.788   0.894
 6990SOL    HW221870   3.712   2.878   0.856
 6991SOL     OW21871   6.746   3.346   2.439
 6991SOL    HW121872   6.804   3.300   2.506
 6991SOL    HW221873   6.773   3.442   2.431
 6992SOL     OW21874   1.065   5.936   0.196
 6992SOL    HW121875   1.073   5.894   0.105
 6992SOL    HW221876   0.969   5.943   0.221
 6993SOL     OW21877   4.789   1.683   1.063
 6993SOL    HW121878   4.695   1.678   1.094
 6993SOL    HW221879   4.796   1.751   0.989
 6994SOL     OW21880   2.374   0.633   3.414
 6994SOL    HW121881   2.373   0.587   3.326
 6994SOL    HW221882   2.353   0.730   3.402
 6995SOL     OW21883   0.530   3.839   1.410
 6995SOL    HW121884   0.503   3.915   1.351
 6995SOL    HW221885   0.591   3.779   1.359
 6996SOL     OW21886   1.294   0.839   0.132
 6996SOL    HW121887   1.374   0.873   0.181
 6996SOL    HW221888   1.323   0.798   0.045
 6997SOL     OW21889   5.712   5.444   6.244
 6997SOL    HW121890   5.613   5.459   6.239
 6997SOL    HW221891   5.747   5.428   6.151
 6998SOL     OW21892   6.150   1.431   0.059
 6998SOL    HW121893   6.207   1.483   7.019
 6998SOL    HW221894   6.077   1.490   0.094
 6999SOL     OW21895   0.106   3.253   0.177
 6999SOL    HW121896   0.113   3.265   0.078
 6999SOL    HW221897   0.149   3.166   0.203
 7000SOL     OW21898   6.850   6.354   3.816
 7000SOL    HW121899   6.939   6.398   3.805
 7000SOL    HW221900   6.845   6.309   3.905
 7001SOL     OW21901   0.458   1.955   4.421
 7001SOL    HW121902   0.429   1.997   4.507
 7001SOL    HW221903   0.549   1.990   4.396
 7002SOL     OW21904   0.591   5.020   2.817
 7002SOL    HW121905   0.662   4.958   2.851
 7002SOL    HW221906   0.531   4.971   2.755
 7003SOL     OW21907   6.865   4.136   0.835
 7003SOL    HW121908   6.918   4.147   0.919
 7003SOL    HW221909   6.769   4.156   0.853
 7004SOL     OW21910   1.804   6.783   0.727
 7004SOL    HW121911   1.842   6.705   0.677
 7004SOL    HW221912   1.704   6.777   0.728
 7005SOL     OW21913   0.615   5.963   0.833
 7005SOL    HW121914   0.687   5.937   0.897
 7005SOL    HW221915   0.528   5.924   0.863
 7006SOL     OW21916   1.384   0.140   4.435
 7006SOL    HW121917   1.339   0.067   4.383
 7006SOL    HW221918   1.452   0.099   4.496
 7007SOL     OW21919   2.348   0.353   5.833
 7007SOL    HW121920   2.343   0.431   5.895
 7007SOL    HW221921   2.430   0.362   5.775
 7008SOL     OW21922   5.533   3.741   3.000
 7008SOL    HW121923   5.554   3.704   2.910
 7008SOL    HW221924   5.615   3.739   3.057
 7009SOL     OW21925   4.497   5.594   2.011
 7009SOL    HW121926   4.478   5.692   2.021
 7009SOL    HW221927   4.447   5.558   1.933
 7010SOL     OW21928   5.102   3.548   1.971
 7010SOL    HW121929   5.077   3.544   1.875
 7010SOL    HW221930   5.172   3.619   1.985
 7011SOL     OW21931   3.420   6.043   0.035
 7011SOL    HW121932   3.516   6.019   0.019
 7011SOL    HW221933   3.405   6.061   0.132
 7012SOL     OW21934   6.667   2.431   0.545
 7012SOL    HW121935   6.619   2.366   0.604
 7012SOL    HW221936   6.746   2.468   0.595
 7013SOL     OW21937   2.963   1.630   0.142
 7013SOL    HW121938   2.992   1.714   0.187
 7013SOL    HW221939   2.881   1.595   0.186
 7014SOL     OW21940   6.091   2.980   1.506
 7014SOL    HW121941   6.151   2.901   1.490
 7014SOL    HW221942   6.103   3.046   1.432
 7015SOL     OW21943   5.141   6.085   0.593
 7015SOL    HW121944   5.209   6.017   0.620
 7015SOL    HW221945   5.175   6.138   0.515
 7016SOL     OW21946   3.078   5.058   0.884
 7016SOL    HW121947   2.984   5.060   0.849
 7016SOL    HW221948   3.142   5.057   0.807
 7017SOL     OW21949   5.715   5.187   4.791
 7017SOL    HW121950   5.671   5.251   4.728
 7017SOL    HW221951   5.775   5.238   4.853
 7018SOL     OW21952   5.230   3.279   4.257
 7018SOL    HW121953   5.202   3.206   4.319
 7018SOL    HW221954   5.321   3.311   4.282
 7019SOL     OW21955   4.458   5.411   2.234
 7019SOL    HW121956   4.472   5.472   2.156
 7019SOL    HW221957   4.383   5.445   2.290
 7020SOL     OW21958   0.848   2.876   6.341
 7020SOL    HW121959   0.888   2.938   6.409
 7020SOL    HW221960   0.846   2.921   6.252
 7021SOL     OW21961   1.137   2.170   5.244
 7021SOL    HW121962   1.042   2.155   5.217
 7021SOL    HW221963   1.192   2.193   5.164
 7022SOL     OW21964   3.232   2.394   0.473
 7022SOL    HW121965   3.195   2.474   0.521
 7022SOL    HW221966   3.303   2.424   0.410
 7023SOL     OW21967   0.876   2.025   0.582
 7023SOL    HW121968   0.893   2.067   0.671
 7023SOL    HW221969   0.781   2.041   0.555
 7024SOL     OW21970   3.945   3.076   4.193
 7024SOL    HW121971   3.944   3.035   4.102
 7024SOL    HW221972   3.929   3.174   4.186
 7025SOL     OW21973   3.910   6.675   0.813
 7025SOL    HW121974   3.980   6.611   0.782
 7025SOL    HW221975   3.916   6.760   0.761
 7026SOL     OW21976   3.446   2.543   1.360
 7026SOL    HW121977   3.400   2.498   1.437
 7026SOL    HW221978   3.539   2.568   1.386
 7027SOL     OW21979   2.323   5.497   3.040
 7027SOL    HW121980   2.336   5.417   2.982
 7027SOL    HW221981   2.302   5.468   3.133
 7028SOL     OW21982   2.887   0.202   3.527
 7028SOL    HW121983   2.788   0.216   3.521
 7028SOL    HW221984   2.919   0.152   3.446
 7029SOL     OW21985   3.145   3.676   4.575
 7029SOL    HW121986   3.170   3.670   4.478
 7029SOL    HW221987   3.197   3.608   4.626
 7030SOL     OW21988   6.534   1.352   5.274
 7030SOL    HW121989   6.525   1.252   5.269
 7030SOL    HW221990   6.585   1.384   5.194
 7031SOL     OW21991   4.168   6.825   0.455
 7031SOL    HW121992   4.267   6.838   0.447
 7031SOL    HW221993   4.125   6.913   0.476
 7032SOL     OW21994   4.172   6.034   4.496
 7032SOL    HW121995   4.246   6.036   4.563
 7032SOL    HW221996   4.188   6.105   4.427
 7033SOL     OW21997   1.691   1.982   4.820
 7033SOL    HW121998   1.716   1.989   4.917
 7033SOL    HW221999   1.732   2.058   4.770
 7034SOL     OW22000   6.737   0.802   3.775
 7034SOL    HW122001   6.663   0.737   3.790
 7034SOL    HW222002   6.699   0.893   3.761
 7035SOL     OW22003   1.810   0.575   0.156
 7035SOL    HW122004   1.721   0.547   0.193
 7035SOL    HW222005   1.847   0.650   0.212
 7036SOL     OW22006   6.316   1.195   2.524
 7036SOL    HW122007   6.407   1.209   2.564
 7036SOL    HW222008   6.286   1.278   2.478
 7037SOL     OW22009   1.104   0.875   6.139
 7037SOL    HW122010   1.085   0.941   6.067
 7037SOL    HW222011   1.199   0.885   6.170
 7038SOL     OW22012   1.460   3.688   6.616
 7038SOL    HW122013   1.419   3.763   6.668
 7038SOL    HW222014   1.500   3.724   6.532
 7039SOL     OW22015   0.827   6.213   2.478
 7039SOL    HW122016   0.915   6.176   2.506
 7039SOL    HW222017   0.759   6.140   2.477
 7040SOL     OW22018   4.909   3.248   4.634
 7040SOL    HW122019   4.866   3.161   4.658
 7040SOL    HW222020   4.922   3.302   4.717
 7041SOL     OW22021   1.738   6.971   3.939
 7041SOL    HW122022   1.641   6.946   3.935
 7041SOL    HW222023   1.762   6.996   4.033
 7042SOL     OW22024   4.851   6.099   5.194
 7042SOL    HW122025   4.813   6.137   5.279
 7042SOL    HW222026   4.925   6.036   5.215
 7043SOL     OW22027   2.258   5.073   1.240
 7043SOL    HW122028   2.269   5.064   1.339
 7043SOL    HW222029   2.171   5.032   1.213
 7044SOL     OW22030   5.140   6.347   4.520
 7044SOL    HW122031   5.064   6.410   4.536
 7044SOL    HW222032   5.166   6.303   4.606
 7045SOL     OW22033   6.475   6.178   2.394
 7045SOL    HW122034   6.522   6.140   2.474
 7045SOL    HW222035   6.386   6.213   2.422
 7046SOL     OW22036   2.930   2.164   4.410
 7046SOL    HW122037   3.026   2.160   4.439
 7046SOL    HW222038   2.885   2.078   4.431
 7047SOL     OW22039   1.232   6.116   1.062
 7047SOL    HW122040   1.188   6.172   0.991
 7047SOL    HW222041   1.198   6.144   1.152
 7048SOL     OW22042   6.754   6.282   5.002
 7048SOL    HW122043   6.707   6.207   4.955
 7048SOL    HW222044   6.706   6.368   4.982
 7049SOL     OW22045   3.511   0.857   2.791
 7049SOL    HW122046   3.580   0.876   2.861
 7049SOL    HW222047   3.421   0.848   2.834
 7050SOL     OW22048   4.201   4.027   0.968
 7050SOL    HW122049   4.175   3.980   1.052
 7050SOL    HW222050   4.133   4.097   0.946
 7051SOL     OW22051   0.498   0.809   1.969
 7051SOL    HW122052   0.517   0.907   1.956
 7051SOL    HW222053   0.399   0.795   1.970
 7052SOL     OW22054   5.022   6.997   2.722
 7052SOL    HW122055   4.975   6.940   2.790
 7052SOL    HW222056   4.963   0.051   2.699
 7053SOL     OW22057   2.130   3.348   3.105
 7053SOL    HW122058   2.116   3.447   3.108
 7053SOL    HW222059   2.129   3.317   3.010
 7054SOL     OW22060   6.655   0.951   0.180
 7054SOL    HW122061   6.603   1.013   0.239
 7054SOL    HW222062   6.596   0.874   0.154
 7055SOL     OW22063   2.497   1.264   6.915
 7055SOL    HW122064   2.550   1.348   6.903
 7055SOL    HW222065   2.526   1.218   6.999
 7056SOL     OW22066   0.281   5.374   1.340
 7056SOL    HW122067   0.349   5.423   1.395
 7056SOL    HW222068   0.227   5.314   1.400
 7057SOL     OW22069   3.075   4.890   4.546
 7057SOL    HW122070   2.993   4.833   4.550
 7057SOL    HW222071   3.095   4.927   4.637
 7058SOL     OW22072   5.440   2.929   5.806
 7058SOL    HW122073   5.428   2.845   5.858
 7058SOL    HW222074   5.492   2.995   5.861
 7059SOL     OW22075   2.052   0.340   5.033
 7059SOL    HW122076   2.035   0.339   5.131
 7059SOL    HW222077   1.997   0.269   4.989
 7060SOL     OW22078   3.854   0.947   1.422
 7060SOL    HW122079   3.871   0.939   1.520
 7060SOL    HW222080   3.891   0.867   1.374
 7061SOL     OW22081   0.731   1.675   1.564
 7061SOL    HW122082   0.787   1.713   1.490
 7061SOL    HW222083   0.736   1.735   1.643
 7062SOL     OW22084   3.413   0.877   3.269
 7062SOL    HW122085   3.341   0.865   3.202
 7062SOL    HW222086   3.373   0.899   3.358
 7063SOL     OW22087   0.689   0.754   1.792
 7063SOL    HW122088   0.610   0.759   1.854
 7063SOL    HW222089   0.741   0.839   1.797
 7064SOL     OW22090   4.374   1.680   5.244
 7064SOL    HW122091   4.448   1.721   5.191
 7064SOL    HW222092   4.316   1.625   5.185
 7065SOL     OW22093   3.884   5.085   5.401
 7065SOL    HW122094   3.900   5.137   5.317
 7065SOL    HW222095   3.786   5.081   5.421
 7066SOL     OW22096   3.742   0.204   0.125
 7066SOL    HW122097   3.722   0.293   0.165
 7066SOL    HW222098   3.670   0.139   0.150
 7067SOL     OW22099   1.820   3.529   6.710
 7067SOL    HW122100   1.727   3.492   6.713
 7067SOL    HW222101   1.864   3.513   6.798
 7068SOL     OW22102   5.388   3.187   4.008
 7068SOL    HW122103   5.409   3.258   3.940
 7068SOL    HW222104   5.299   3.205   4.049
 7069SOL     OW22105   5.960   0.394   6.538
 7069SOL    HW122106   6.052   0.371   6.509
 7069SOL    HW222107   5.905   0.310   6.544
 7070SOL     OW22108   0.007   6.928   5.047
 7070SOL    HW122109   0.062   6.916   4.965
 7070SOL    HW222110   0.060   6.976   5.117
 7071SOL     OW22111   5.064   5.959   6.944
 7071SOL    HW122112   4.978   5.920   6.910
 7071SOL    HW222113   5.133   5.887   6.951
 7072SOL     OW22114   0.454   3.577   6.145
 7072SOL    HW122115   0.371   3.529   6.173
 7072SOL    HW222116   0.504   3.607   6.226
 7073SOL     OW22117   4.875   1.589   3.341
 7073SOL    HW122118   4.817   1.605   3.261
 7073SOL    HW222119   4.918   1.676   3.368
 7074SOL     OW22120   5.714   4.662   2.908
 7074SOL    HW122121   5.756   4.588   2.960
 7074SOL    HW222122   5.786   4.717   2.865
 7075SOL     OW22123   3.064   4.937   3.579
 7075SOL    HW122124   3.088   5.028   3.614
 7075SOL    HW222125   3.147   4.891   3.548
 7076SOL     OW22126   5.731   2.268   2.287
 7076SOL    HW122127   5.799   2.301   2.353
 7076SOL    HW222128   5.760   2.179   2.250
 7077SOL     OW22129   3.378   5.504   1.360
 7077SOL    HW122130   3.398   5.465   1.270
 7077SOL    HW222131   3.281   5.493   1.380
 7078SOL     OW22132   5.774   0.609   6.963
 7078SOL    HW122133   5.766   0.681   6.894
 7078SOL    HW222134   5.722   0.529   6.934
 7079SOL     OW22135   1.180   6.286   5.081
 7079SOL    HW122136   1.264   6.285   5.136
 7079SOL    HW222137   1.124   6.364   5.107
 7080SOL     OW22138   4.204   2.011   5.659
 7080SOL    HW122139   4.254   2.097   5.645
 7080SOL    HW222140   4.266   1.934   5.647
 7081SOL     OW22141   1.489   6.951   0.587
 7081SOL    HW122142   1.427   6.873   0.596
 7081SOL    HW222143   1.522   6.978   0.677
 7082SOL     OW22144   6.687   4.332   2.987
 7082SOL    HW122145   6.692   4.269   2.910
 7082SOL    HW222146   6.714   4.424   2.958
 7083SOL     OW22147   6.077   2.644   2.893
 7083SOL    HW122148   6.142   2.607   2.827
 7083SOL    HW222149   6.000   2.685   2.844
 7084SOL     OW22150   0.622   5.918   6.763
 7084SOL    HW122151   0.563   5.838   6.777
 7084SOL    HW222152   0.654   5.920   6.669
 7085SOL     OW22153   0.688   3.694   2.103
 7085SOL    HW122154   0.591   3.675   2.088
 7085SOL    HW222155   0.743   3.651   2.032
 7086SOL     OW22156   5.397   1.012   4.139
 7086SOL    HW122157   5.335   0.937   4.114
 7086SOL    HW222158   5.364   1.097   4.099
 7087SOL     OW22159   5.182   3.606   2.854
 7087SOL    HW122160   5.134   3.607   2.767
 7087SOL    HW222161   5.194   3.700   2.887
 7088SOL     OW22162   6.286   1.758   4.993
 7088SOL    HW122163   6.216   1.725   4.930
 7088SOL    HW222164   6.377   1.740   4.955
 7089SOL     OW22165   3.080   5.839   2.210
 7089SOL    HW122166   3.072   5.832   2.310
 7089SOL    HW222167   3.004   5.790   2.168
 7090SOL     OW22168   4.354   2.833   1.132
 7090SOL    HW122169   4.386   2.917   1.175
 7090SOL    HW222170   4.280   2.793   1.186
 7091SOL     OW22171   7.007   6.058   0.066
 7091SOL    HW122172   6.921   6.008   0.064
 7091SOL    HW222173   0.026   6.047   0.156
 7092SOL     OW22174   4.238   1.482   6.130
 7092SOL    HW122175   4.211   1.396   6.175
 7092SOL    HW222176   4.286   1.540   6.195
 7093SOL     OW22177   3.081   3.348   1.477
 7093SOL    HW122178   3.049   3.347   1.382
 7093SOL    HW222179   3.023   3.288   1.532
 7094SOL     OW22180   3.178   0.031   5.547
 7094SOL    HW122181   3.118   0.065   5.474
 7094SOL    HW222182   3.201   0.106   5.609
 7095SOL     OW22183   2.519   4.639   4.864
 7095SOL    HW122184   2.442   4.606   4.916
 7095SOL    HW222185   2.603   4.627   4.917
 7096SOL     OW22186   0.126   1.018   1.544
 7096SOL    HW122187   0.039   1.067   1.545
 7096SOL    HW222188   0.190   1.065   1.483
 7097SOL     OW22189   4.217   0.950   1.759
 7097SOL    HW122190   4.219   1.048   1.739
 7097SOL    HW222191   4.310   0.913   1.758
 7098SOL     OW22192   1.558   6.847   4.203
 7098SOL    HW122193   1.656   6.862   4.216
 7098SOL    HW222194   1.544   6.786   4.125
 7099SOL     OW22195   2.883   2.277   3.759
 7099SOL    HW122196   2.952   2.219   3.716
 7099SOL    HW222197   2.928   2.347   3.815
 7100SOL     OW22198   6.227   3.818   1.375
 7100SOL    HW122199   6.261   3.878   1.447
 7100SOL    HW222200   6.280   3.832   1.291
 7101SOL     OW22201   2.898   6.322   5.789
 7101SOL    HW122202   2.960   6.247   5.766
 7101SOL    HW222203   2.890   6.330   5.889
 7102SOL     OW22204   5.383   0.712   1.836
 7102SOL    HW122205   5.432   0.625   1.842
 7102SOL    HW222206   5.424   0.778   1.900
 7103SOL     OW22207   4.894   3.930   2.925
 7103SOL    HW122208   4.826   3.951   2.855
 7103SOL    HW222209   4.985   3.925   2.884
 7104SOL     OW22210   5.284   3.483   3.237
 7104SOL    HW122211   5.323   3.466   3.146
 7104SOL    HW222212   5.220   3.410   3.261
 7105SOL     OW22213   3.105   3.958   3.915
 7105SOL    HW122214   3.176   4.019   3.948
 7105SOL    HW222215   3.030   3.955   3.982
 7106SOL     OW22216   3.133   2.676   1.056
 7106SOL    HW122217   3.232   2.678   1.047
 7106SOL    HW222218   3.102   2.583   1.074
 7107SOL     OW22219   3.559   0.940   6.215
 7107SOL    HW122220   3.587   1.035   6.227
 7107SOL    HW222221   3.462   0.936   6.192
 7108SOL     OW22222   4.933   0.742   2.049
 7108SOL    HW122223   4.895   0.667   1.996
 7108SOL    HW222224   4.995   0.796   1.992
 7109SOL     OW22225   2.849   5.603   6.505
 7109SOL    HW122226   2.876   5.513   6.540
 7109SOL    HW222227   2.792   5.649   6.573
 7110SOL     OW22228   3.495   6.535   4.256
 7110SOL    HW122229   3.550   6.618   4.244
 7110SOL    HW222230   3.547   6.467   4.308
 7111SOL     OW22231   6.586   0.540   5.024
 7111SOL    HW122232   6.534   0.494   5.096
 7111SOL    HW222233   6.643   0.473   4.976
 7112SOL     OW22234   1.634   5.015   5.021
 7112SOL    HW122235   1.665   5.103   5.056
 7112SOL    HW222236   1.697   4.943   5.051
 7113SOL     OW22237   3.694   6.296   5.387
 7113SOL    HW122238   3.704   6.200   5.361
 7113SOL    HW222239   3.605   6.330   5.357
 7114SOL     OW22240   5.276   4.391   0.418
 7114SOL    HW122241   5.200   4.343   0.463
 7114SOL    HW222242   5.360   4.340   0.433
 7115SOL     OW22243   5.932   3.751   6.212
 7115SOL    HW122244   5.959   3.808   6.134
 7115SOL    HW222245   6.014   3.709   6.252
 7116SOL     OW22246   6.284   3.935   3.831
 7116SOL    HW122247   6.336   3.897   3.908
 7116SOL    HW222248   6.206   3.987   3.866
 7117SOL     OW22249   5.732   0.295   2.831
 7117SOL    HW122250   5.698   0.203   2.809
 7117SOL    HW222251   5.742   0.304   2.930
 7118SOL     OW22252   4.292   4.497   5.550
 7118SOL    HW122253   4.369   4.554   5.519
 7118SOL    HW222254   4.326   4.408   5.578
 7119SOL     OW22255   3.436   6.711   4.795
 7119SOL    HW122256   3.438   6.805   4.761
 7119SOL    HW222257   3.488   6.705   4.880
 7120SOL     OW22258   4.688   0.292   0.093
 7120SOL    HW122259   4.638   0.280   0.179
 7120SOL    HW222260   4.768   0.351   0.109
 7121SOL     OW22261   1.874   5.883   2.152
 7121SOL    HW122262   1.775   5.890   2.139
 7121SOL    HW222263   1.910   5.972   2.180
 7122SOL     OW22264   3.015   1.681   6.902
 7122SOL    HW122265   2.990   1.668   6.998
 7122SOL    HW222266   3.086   1.752   6.896
 7123SOL     OW22267   5.297   5.343   6.031
 7123SOL    HW122268   5.319   5.262   5.977
 7123SOL    HW222269   5.229   5.398   5.982
 7124SOL     OW22270   1.090   2.388   1.642
 7124SOL    HW122271   1.173   2.442   1.634
 7124SOL    HW222272   1.027   2.412   1.568
 7125SOL     OW22273   0.535   6.666   1.807
 7125SOL    HW122274   0.468   6.658   1.881
 7125SOL    HW222275   0.625   6.683   1.846
 7126SOL     OW22276   3.259   5.100   0.689
 7126SOL    HW122277   3.323   5.066   0.757
 7126SOL    HW222278   3.301   5.096   0.598
 7127SOL     OW22279   2.314   6.628   5.960
 7127SOL    HW122280   2.256   6.589   5.889
 7127SOL    HW222281   2.267   6.705   6.004
 7128SOL     OW22282   4.072   4.224   6.506
 7128SOL    HW122283   3.997   4.282   6.536
 7128SOL    HW222284   4.145   4.281   6.469
 7129SOL     OW22285   0.570   6.880   0.608
 7129SOL    HW122286   0.575   6.974   0.574
 7129SOL    HW222287   0.616   6.874   0.696
 7130SOL     OW22288   3.371   6.519   3.974
 7130SOL    HW122289   3.315   6.449   4.018
 7130SOL    HW222290   3.460   6.523   4.019
 7131SOL     OW22291   3.261   1.264   2.399
 7131SOL    HW122292   3.182   1.305   2.354
 7131SOL    HW222293   3.323   1.336   2.431
 7132SOL     OW22294   5.352   4.739   0.528
 7132SOL    HW122295   5.262   4.770   0.559
 7132SOL    HW222296   5.349   4.720   0.430
 7133SOL     OW22297   5.068   5.587   3.114
 7133SOL    HW122298   4.970   5.579   3.132
 7133SOL    HW222299   5.108   5.496   3.105
 7134SOL     OW22300   4.882   5.123   0.339
 7134SOL    HW122301   4.901   5.185   0.416
 7134SOL    HW222302   4.840   5.174   0.265
 7135SOL     OW22303   1.696   2.890   0.800
 7135SOL    HW122304   1.645   2.804   0.807
 7135SOL    HW222305   1.633   2.964   0.776
 7136SOL     OW22306   1.971   1.738   1.862
 7136SOL    HW122307   1.985   1.766   1.767
 7136SOL    HW222308   2.034   1.788   1.922
 7137SOL     OW22309   2.869   1.975   1.464
 7137SOL    HW122310   2.853   1.980   1.563
 7137SOL    HW222311   2.940   1.908   1.445
 7138SOL     OW22312   0.928   2.879   0.526
 7138SOL    HW122313   1.028   2.882   0.537
 7138SOL    HW222314   0.904   2.812   0.457
 7139SOL     OW22315   6.050   6.371   0.893
 7139SOL    HW122316   6.076   6.461   0.928
 7139SOL    HW222317   5.960   6.376   0.850
 7140SOL     OW22318   6.419   3.616   0.214
 7140SOL    HW122319   6.371   3.676   0.149
 7140SOL    HW222320   6.409   3.521   0.184
 7141SOL     OW22321   3.378   0.514   0.652
 7141SOL    HW122322   3.329   0.568   0.721
 7141SOL    HW222323   3.343   0.420   0.653
 7142SOL     OW22324   3.230   0.044   4.888
 7142SOL    HW122325   3.196   0.012   4.977
 7142SOL    HW222326   3.234   0.144   4.888
 7143SOL     OW22327   2.826   4.266   6.561
 7143SOL    HW122328   2.912   4.305   6.527
 7143SOL    HW222329   2.846   4.203   6.636
 7144SOL     OW22330   6.769   0.738   6.150
 7144SOL    HW122331   6.719   0.790   6.080
 7144SOL    HW222332   6.810   0.657   6.108
 7145SOL     OW22333   5.194   2.247   6.601
 7145SOL    HW122334   5.268   2.181   6.592
 7145SOL    HW222335   5.133   2.240   6.522
 7146SOL     OW22336   1.410   2.253   5.442
 7146SOL    HW122337   1.508   2.257   5.457
 7146SOL    HW222338   1.388   2.297   5.355
 7147SOL     OW22339   6.286   6.830   1.851
 7147SOL    HW122340   6.327   6.910   1.806
 7147SOL    HW222341   6.215   6.861   1.915
 7148SOL     OW22342   6.442   0.159   0.890
 7148SOL    HW122343   6.412   0.064   0.891
 7148SOL    HW222344   6.506   0.173   0.814
 7149SOL     OW22345   5.578   4.695   5.722
 7149SOL    HW122346   5.560   4.677   5.818
 7149SOL    HW222347   5.634   4.621   5.683
 7150SOL     OW22348   3.505   3.274   6.545
 7150SOL    HW122349   3.465   3.238   6.629
 7150SOL    HW222350   3.586   3.330   6.568
 7151SOL     OW22351   3.312   1.324   0.713
 7151SOL    HW122352   3.257   1.241   0.721
 7151SOL    HW222353   3.316   1.371   0.801
 7152SOL     OW22354   6.566   1.149   6.272
 7152SOL    HW122355   6.547   1.099   6.356
 7152SOL    HW222356   6.591   1.243   6.294
 7153SOL     OW22357   3.673   5.387   0.462
 7153SOL    HW122358   3.721   5.406   0.548
 7153SOL    HW222359   3.586   5.436   0.461
 7154SOL     OW22360   3.975   2.191   2.030
 7154SOL    HW122361   3.889   2.211   1.982
 7154SOL    HW222362   3.969   2.223   2.124
 7155SOL     OW22363   1.874   1.274   1.917
 7155SOL    HW122364   1.903   1.179   1.926
 7155SOL    HW222365   1.807   1.282   1.843
 7156SOL     OW22366   6.115   3.341   5.845
 7156SOL    HW122367   6.137   3.318   5.940
 7156SOL    HW222368   6.025   3.385   5.841
 7157SOL     OW22369   6.518   4.248   5.857
 7157SOL    HW122370   6.540   4.155   5.884
 7157SOL    HW222371   6.585   4.281   5.791
 7158SOL     OW22372   4.316   6.911   3.930
 7158SOL    HW122373   4.301   6.848   3.853
 7158SOL    HW222374   4.263   6.994   3.916
 7159SOL     OW22375   0.621   6.042   3.068
 7159SOL    HW122376   0.672   6.126   3.048
 7159SOL    HW222377   0.561   6.058   3.146
 7160SOL     OW22378   6.860   0.249   3.432
 7160SOL    HW122379   6.815   0.316   3.373
 7160SOL    HW222380   6.912   0.296   3.503
 7161SOL     OW22381   4.013   3.152   3.166
 7161SOL    HW122382   4.078   3.225   3.144
 7161SOL    HW222383   4.063   3.070   3.192
 7162SOL     OW22384   0.399   5.937   1.699
 7162SOL    HW122385   0.424   5.969   1.608
 7162SOL    HW222386   0.409   5.837   1.704
 7163SOL     OW22387   6.971   1.418   1.574
 7163SOL    HW122388   0.040   1.448   1.595
 7163SOL    HW222389   6.906   1.474   1.624
 7164SOL     OW22390   2.155   1.300   6.703
 7164SOL    HW122391   2.204   1.317   6.618
 7164SOL    HW222392   2.172   1.206   6.734
 7165SOL     OW22393   5.756   1.540   0.585
 7165SOL    HW122394   5.704   1.575   0.507
 7165SOL    HW222395   5.695   1.485   0.643
 7166SOL     OW22396   6.458   5.623   6.185
 7166SOL    HW122397   6.392   5.666   6.123
 7166SOL    HW222398   6.519   5.565   6.132
 7167SOL     OW22399   6.044   2.595   4.810
 7167SOL    HW122400   6.014   2.514   4.862
 7167SOL    HW222401   6.144   2.601   4.813
 7168SOL     OW22402   2.702   0.864   2.203
 7168SOL    HW122403   2.619   0.884   2.151
 7168SOL    HW222404   2.775   0.837   2.140
 7169SOL     OW22405   2.120   3.983   6.358
 7169SOL    HW122406   2.184   3.926   6.306
 7169SOL    HW222407   2.066   4.038   6.295
 7170SOL     OW22408   3.799   1.217   0.622
 7170SOL    HW122409   3.871   1.166   0.576
 7170SOL    HW222410   3.719   1.224   0.562
 7171SOL     OW22411   6.956   3.867   0.758
 7171SOL    HW122412   7.010   3.936   0.806
 7171SOL    HW222413   6.996   3.776   0.776
 7172SOL     OW22414   1.260   2.602   3.999
 7172SOL    HW122415   1.254   2.605   4.099
 7172SOL    HW222416   1.346   2.644   3.970
 7173SOL     OW22417   4.920   5.414   6.123
 7173SOL    HW122418   4.829   5.444   6.151
 7173SOL    HW222419   4.933   5.432   6.025
 7174SOL     OW22420   6.386   4.375   1.867
 7174SOL    HW122421   6.314   4.322   1.822
 7174SOL    HW222422   6.407   4.456   1.812
 7175SOL     OW22423   6.517   3.481   5.970
 7175SOL    HW122424   6.603   3.471   6.018
 7175SOL    HW222425   6.465   3.395   5.975
 7176SOL     OW22426   0.802   0.237   5.416
 7176SOL    HW122427   0.820   0.317   5.473
 7176SOL    HW222428   0.777   0.266   5.324
 7177SOL     OW22429   1.222   5.748   3.769
 7177SOL    HW122430   1.210   5.805   3.687
 7177SOL    HW222431   1.158   5.672   3.767
 7178SOL     OW22432   2.252   6.900   5.018
 7178SOL    HW122433   2.229   6.809   5.053
 7178SOL    HW222434   2.350   6.907   5.004
 7179SOL     OW22435   3.269   5.328   5.942
 7179SOL    HW122436   3.225   5.297   5.857
 7179SOL    HW222437   3.271   5.253   6.008
 7180SOL     OW22438   2.033   3.009   1.187
 7180SOL    HW122439   1.942   2.978   1.215
 7180SOL    HW222440   2.041   3.002   1.088
 7181SOL     OW22441   2.822   1.460   5.653
 7181SOL    HW122442   2.831   1.520   5.573
 7181SOL    HW222443   2.774   1.509   5.726
 7182SOL     OW22444   1.648   1.851   3.753
 7182SOL    HW122445   1.657   1.940   3.708
 7182SOL    HW222446   1.727   1.794   3.729
 7183SOL     OW22447   0.783   0.002   1.793
 7183SOL    HW122448   0.779   6.986   1.885
 7183SOL    HW222449   0.765   0.101   1.800
 7184SOL     OW22450   6.660   0.341   4.135
 7184SOL    HW122451   6.699   0.268   4.079
 7184SOL    HW222452   6.568   0.315   4.165
 7185SOL     OW22453   4.316   1.209   4.641
 7185SOL    HW122454   4.308   1.306   4.664
 7185SOL    HW222455   4.230   1.163   4.661
 7186SOL     OW22456   0.246   0.802   6.552
 7186SOL    HW122457   0.307   0.811   6.474
 7186SOL    HW222458   0.280   0.730   6.613
 7187SOL     OW22459   3.340   2.911   4.032
 7187SOL    HW122460   3.278   2.950   3.964
 7187SOL    HW222461   3.434   2.913   3.997
 7188SOL     OW22462   4.486   4.173   7.010
 7188SOL    HW122463   4.518   4.266   0.004
 7188SOL    HW222464   4.483   4.122   0.072
 7189SOL     OW22465   6.489   2.625   5.986
 7189SOL    HW122466   6.453   2.647   5.896
 7189SOL    HW222467   6.587   2.645   5.988
 7190SOL     OW22468   5.759   4.708   1.008
 7190SOL    HW122469   5.797   4.733   1.097
 7190SOL    HW222470   5.828   4.725   0.937
 7191SOL     OW22471   6.821   5.091   4.368
 7191SOL    HW122472   6.856   5.013   4.315
 7191SOL    HW222473   6.723   5.102   4.349
 7192SOL     OW22474   2.781   4.696   6.709
 7192SOL    HW122475   2.764   4.696   6.808
 7192SOL    HW222476   2.732   4.620   6.667
 7193SOL     OW22477   2.675   2.145   2.633
 7193SOL    HW122478   2.638   2.194   2.712
 7193SOL    HW222479   2.770   2.172   2.619
 7194SOL     OW22480   3.439   2.572   6.012
 7194SOL    HW122481   3.371   2.638   5.978
 7194SOL    HW222482   3.492   2.614   6.086
 7195SOL     OW22483   0.758   5.020   5.020
 7195SOL    HW122484   0.698   5.038   5.098
 7195SOL    HW222485   0.703   4.988   4.943
 7196SOL     OW22486   3.300   3.989   2.040
 7196SOL    HW122487   3.333   4.015   1.949
 7196SOL    HW222488   3.201   4.002   2.044
 7197SOL     OW22489   3.389   4.519   6.211
 7197SOL    HW122490   3.308   4.539   6.156
 7197SOL    HW222491   3.429   4.432   6.182
 7198SOL     OW22492   0.466   0.516   2.105
 7198SOL    HW122493   0.439   0.485   2.196
 7198SOL    HW222494   0.414   0.467   2.036
 7199SOL     OW22495   6.593   1.031   2.336
 7199SOL    HW122496   6.643   1.054   2.419
 7199SOL    HW222497   6.518   0.969   2.358
 7200SOL     OW22498   1.089   2.406   0.620
 7200SOL    HW122499   1.114   2.377   0.528
 7200SOL    HW222500   0.993   2.435   0.621
 7201SOL     OW22501   5.273   5.453   3.705
 7201SOL    HW122502   5.249   5.437   3.801
 7201SOL    HW222503   5.283   5.365   3.659
 7202SOL     OW22504   5.075   0.738   5.861
 7202SOL    HW122505   5.120   0.776   5.780
 7202SOL    HW222506   5.141   0.730   5.935
 7203SOL     OW22507   0.310   1.123   1.349
 7203SOL    HW122508   0.394   1.158   1.389
 7203SOL    HW222509   0.268   1.194   1.292
 7204SOL     OW22510   6.075   6.901   2.010
 7204SOL    HW122511   6.043   6.996   2.015
 7204SOL    HW222512   6.051   6.854   2.095
 7205SOL     OW22513   2.946   1.873   3.925
 7205SOL    HW122514   3.007   1.811   3.975
 7205SOL    HW222515   2.894   1.928   3.991
 7206SOL     OW22516   2.116   3.522   0.397
 7206SOL    HW122517   2.046   3.593   0.406
 7206SOL    HW222518   2.197   3.560   0.353
 7207SOL     OW22519   1.981   1.303   3.990
 7207SOL    HW122520   1.935   1.322   3.904
 7207SOL    HW222521   1.913   1.288   4.062
 7208SOL     OW22522   2.626   0.348   4.669
 7208SOL    HW122523   2.667   0.415   4.607
 7208SOL    HW222524   2.652   0.256   4.641
 7209SOL     OW22525   3.578   1.359   1.991
 7209SOL    HW122526   3.655   1.360   1.928
 7209SOL    HW222527   3.609   1.326   2.081
 7210SOL     OW22528   2.848   1.832   3.063
 7210SOL    HW122529   2.866   1.762   3.133
 7210SOL    HW222530   2.908   1.910   3.077
 7211SOL     OW22531   4.384   6.084   4.718
 7211SOL    HW122532   4.317   6.157   4.734
 7211SOL    HW222533   4.452   6.116   4.652
 7212SOL     OW22534   6.814   4.325   5.706
 7212SOL    HW122535   6.831   4.284   5.796
 7212SOL    HW222536   6.878   4.401   5.692
 7213SOL     OW22537   3.678   2.021   6.819
 7213SOL    HW122538   3.686   2.118   6.798
 7213SOL    HW222539   3.665   2.009   6.918
 7214SOL     OW22540   6.829   0.863   6.402
 7214SOL    HW122541   6.808   0.794   6.471
 7214SOL    HW222542   6.812   0.825   6.311
 7215SOL     OW22543   6.505   2.350   2.522
 7215SOL    HW122544   6.526   2.268   2.469
 7215SOL    HW222545   6.561   2.426   2.490
 7216SOL     OW22546   3.275   6.436   3.417
 7216SOL    HW122547   3.278   6.427   3.517
 7216SOL    HW222548   3.241   6.351   3.378
 7217SOL     OW22549   1.935   2.999   3.363
 7217SOL    HW122550   2.019   3.044   3.391
 7217SOL    HW222551   1.912   2.927   3.430
 7218SOL     OW22552   6.216   3.633   4.134
 7218SOL    HW122553   6.205   3.643   4.233
 7218SOL    HW222554   6.138   3.582   4.098
 7219SOL     OW22555   3.492   5.680   2.753
 7219SOL    HW122556   3.503   5.777   2.732
 7219SOL    HW222557   3.455   5.632   2.673
 7220SOL     OW22558   6.367   4.961   4.499
 7220SOL    HW122559   6.347   4.894   4.428
 7220SOL    HW222560   6.426   4.920   4.569
 7221SOL     OW22561   3.747   5.725   3.830
 7221SOL    HW122562   3.706   5.679   3.752
 7221SOL    HW222563   3.693   5.705   3.912
 7222SOL     OW22564   0.228   6.145   4.401
 7222SOL    HW122565   0.165   6.135   4.479
 7222SOL    HW222566   0.175   6.163   4.318
 7223SOL     OW22567   6.750   3.697   1.854
 7223SOL    HW122568   6.756   3.784   1.804
 7223SOL    HW222569   6.834   3.683   1.906
 7224SOL     OW22570   3.805   1.773   3.289
 7224SOL    HW122571   3.744   1.749   3.365
 7224SOL    HW222572   3.758   1.835   3.226
 7225SOL     OW22573   1.463   6.251   1.038
 7225SOL    HW122574   1.388   6.188   1.058
 7225SOL    HW222575   1.534   6.203   0.986
 7226SOL     OW22576   6.202   6.440   0.564
 7226SOL    HW122577   6.220   6.411   0.658
 7226SOL    HW222578   6.131   6.382   0.524
 7227SOL     OW22579   2.275   0.742   1.900
 7227SOL    HW122580   2.320   0.775   1.984
 7227SOL    HW222581   2.207   0.673   1.924
 7228SOL     OW22582   0.097   2.904   2.279
 7228SOL    HW122583   0.021   2.866   2.225
 7228SOL    HW222584   0.062   2.977   2.337
 7229SOL     OW22585   6.884   1.107   5.685
 7229SOL    HW122586   6.930   1.081   5.600
 7229SOL    HW222587   6.876   1.026   5.744
 7230SOL     OW22588   1.888   4.921   4.159
 7230SOL    HW122589   1.983   4.947   4.176
 7230SOL    HW222590   1.838   4.917   4.245
 7231SOL     OW22591   4.218   1.819   6.540
 7231SOL    HW122592   4.240   1.832   6.443
 7231SOL    HW222593   4.301   1.827   6.595
 7232SOL     OW22594   5.280   6.836   3.296
 7232SOL    HW122595   5.254   6.795   3.383
 7232SOL    HW222596   5.216   6.806   3.225
 7233SOL     OW22597   6.892   1.264   4.589
 7233SOL    HW122598   6.945   1.344   4.618
 7233SOL    HW222599   6.795   1.288   4.583
 7234SOL     OW22600   5.410   3.952   3.073
 7234SOL    HW122601   5.454   3.863   3.062
 7234SOL    HW222602   5.444   3.996   3.156
 7235SOL     OW22603   0.034   5.529   1.485
 7235SOL    HW122604   7.004   5.592   1.428
 7235SOL    HW222605   0.024   5.436   1.449
 7236SOL     OW22606   1.580   3.204   2.465
 7236SOL    HW122607   1.502   3.258   2.433
 7236SOL    HW222608   1.564   3.175   2.559
 7237SOL     OW22609   5.386   0.850   0.178
 7237SOL    HW122610   5.353   0.939   0.209
 7237SOL    HW222611   5.351   0.778   0.238
 7238SOL     OW22612   3.794   3.323   0.671
 7238SOL    HW122613   3.725   3.297   0.738
 7238SOL    HW222614   3.850   3.397   0.707
 7239SOL     OW22615   0.023   2.474   2.557
 7239SOL    HW122616   7.005   2.552   2.602
 7239SOL    HW222617   6.976   2.412   2.523
 7240SOL     OW22618   6.770   1.763   6.558
 7240SOL    HW122619   6.716   1.821   6.498
 7240SOL    HW222620   6.756   1.791   6.653
 7241SOL     OW22621   2.159   1.591   1.494
 7241SOL    HW122622   2.219   1.605   1.415
 7241SOL    HW222623   2.184   1.655   1.567
 7242SOL     OW22624   6.374   5.227   4.635
 7242SOL    HW122625   6.370   5.150   4.571
 7242SOL    HW222626   6.431   5.203   4.713
 7243SOL     OW22627   6.408   4.295   6.526
 7243SOL    HW122628   6.310   4.278   6.524
 7243SOL    HW222629   6.438   4.335   6.440
 7244SOL     OW22630   0.715   6.036   6.977
 7244SOL    HW122631   0.689   5.997   6.889
 7244SOL    HW222632   0.636   6.080   7.019
 7245SOL     OW22633   0.667   3.432   6.867
 7245SOL    HW122634   0.725   3.492   6.921
 7245SOL    HW222635   0.621   3.367   6.927
 7246SOL     OW22636   3.599   6.713   3.886
 7246SOL    HW122637   3.503   6.684   3.885
 7246SOL    HW222638   3.607   6.804   3.845
 7247SOL     OW22639   3.215   3.537   5.463
 7247SOL    HW122640   3.120   3.564   5.480
 7247SOL    HW222641   3.258   3.603   5.402
 7248SOL     OW22642   3.170   1.057   4.726
 7248SOL    HW122643   3.073   1.076   4.743
 7248SOL    HW222644   3.222   1.141   4.740
 7249SOL     OW22645   4.251   5.246   2.063
 7249SOL    HW122646   4.169   5.257   2.120
 7249SOL    HW222647   4.321   5.312   2.092
 7250SOL     OW22648   5.096   5.534   5.928
 7250SOL    HW122649   5.004   5.524   5.891
 7250SOL    HW222650   5.107   5.626   5.966
 7251SOL     OW22651   6.815   5.726   5.344
 7251SOL    HW122652   6.895   5.786   5.333
 7251SOL    HW222653   6.735   5.772   5.307
 7252SOL     OW22654   3.360   4.086   2.304
 7252SOL    HW122655   3.363   4.039   2.216
 7252SOL    HW222656   3.375   4.184   2.290
 7253SOL     OW22657   1.332   5.950   5.223
 7253SOL    HW122658   1.349   5.854   5.245
 7253SOL    HW222659   1.358   6.008   5.300
 7254SOL     OW22660   5.175   3.839   3.929
 7254SOL    HW122661   5.192   3.775   4.003
 7254SOL    HW222662   5.093   3.812   3.879
 7255SOL     OW22663   5.586   3.332   6.379
 7255SOL    HW122664   5.494   3.373   6.379
 7255SOL    HW222665   5.654   3.404   6.369
 7256SOL     OW22666   3.461   6.686   5.744
 7256SOL    HW122667   3.423   6.679   5.652
 7256SOL    HW222668   3.412   6.623   5.805
 7257SOL     OW22669   0.651   1.583   4.654
 7257SOL    HW122670   0.693   1.656   4.600
 7257SOL    HW222671   0.572   1.546   4.604
 7258SOL     OW22672   6.604   1.935   3.438
 7258SOL    HW122673   6.505   1.929   3.454
 7258SOL    HW222674   6.643   2.004   3.499
 7259SOL     OW22675   1.017   4.468   3.224
 7259SOL    HW122676   0.940   4.411   3.254
 7259SOL    HW222677   1.073   4.417   3.160
 7260SOL     OW22678   5.619   3.474   1.528
 7260SOL    HW122679   5.582   3.567   1.531
 7260SOL    HW222680   5.544   3.408   1.524
 7261SOL     OW22681   6.998   4.200   6.730
 7261SOL    HW122682   0.059   4.175   6.775
 7261SOL    HW222683   6.927   4.217   6.798
 7262SOL     OW22684   6.852   1.738   5.548
 7262SOL    HW122685   6.801   1.752   5.633
 7262SOL    HW222686   6.806   1.667   5.493
 7263SOL     OW22687   0.358   5.452   0.329
 7263SOL    HW122688   0.329   5.367   0.283
 7263SOL    HW222689   0.277   5.505   0.355
 7264SOL     OW22690   5.886   1.622   0.839
 7264SOL    HW122691   5.948   1.544   0.846
 7264SOL    HW222692   5.833   1.616   0.755
 7265SOL     OW22693   4.088   5.550   5.522
 7265SOL    HW122694   4.012   5.507   5.474
 7265SOL    HW222695   4.133   5.483   5.582
 7266SOL     OW22696   0.481   0.774   3.983
 7266SOL    HW122697   0.409   0.786   3.914
 7266SOL    HW222698   0.534   0.859   3.991
 7267SOL     OW22699   6.029   5.580   4.279
 7267SOL    HW122700   6.058   5.509   4.343
 7267SOL    HW222701   6.108   5.609   4.224
 7268SOL     OW22702   6.169   6.222   4.266
 7268SOL    HW122703   6.101   6.229   4.194
 7268SOL    HW222704   6.144   6.148   4.328
 7269SOL     OW22705   2.419   4.789   5.119
 7269SOL    HW122706   2.495   4.758   5.176
 7269SOL    HW222707   2.452   4.856   5.053
 7270SOL     OW22708   0.751   1.559   4.345
 7270SOL    HW122709   0.847   1.532   4.345
 7270SOL    HW222710   0.703   1.507   4.274
 7271SOL     OW22711   0.689   4.236   3.761
 7271SOL    HW122712   0.707   4.243   3.859
 7271SOL    HW222713   0.590   4.243   3.745
 7272SOL     OW22714   5.892   5.766   2.876
 7272SOL    HW122715   5.964   5.830   2.850
 7272SOL    HW222716   5.931   5.674   2.888
 7273SOL     OW22717   0.207   2.740   5.687
 7273SOL    HW122718   0.195   2.643   5.666
 7273SOL    HW222719   0.148   2.795   5.628
 7274SOL     OW22720   0.693   4.577   6.946
 7274SOL    HW122721   0.691   4.674   6.921
 7274SOL    HW222722   0.623   4.559   7.015
 7275SOL     OW22723   6.414   0.299   3.174
 7275SOL    HW122724   6.432   0.396   3.192
 7275SOL    HW222725   6.425   0.281   3.076
 7276SOL     OW22726   4.580   6.853   3.857
 7276SOL    HW122727   4.491   6.885   3.889
 7276SOL    HW222728   4.593   6.758   3.884
 7277SOL     OW22729   4.502   0.491   5.561
 7277SOL    HW122730   4.457   0.478   5.649
 7277SOL    HW222731   4.520   0.403   5.519
 7278SOL     OW22732   2.931   3.653   2.896
 7278SOL    HW122733   2.837   3.622   2.885
 7278SOL    HW222734   2.951   3.723   2.827
 7279SOL     OW22735   3.662   5.966   6.217
 7279SOL    HW122736   3.718   5.910   6.156
 7279SOL    HW222737   3.593   5.909   6.260
 7280SOL     OW22738   4.435   0.752   5.525
 7280SOL    HW122739   4.443   0.654   5.539
 7280SOL    HW222740   4.399   0.795   5.607
 7281SOL     OW22741   4.348   1.236   6.728
 7281SOL    HW122742   4.388   1.216   6.639
 7281SOL    HW222743   4.407   1.300   6.777
 7282SOL     OW22744   6.088   5.583   1.788
 7282SOL    HW122745   6.152   5.594   1.863
 7282SOL    HW222746   6.029   5.503   1.805
 7283SOL     OW22747   2.342   0.916   3.342
 7283SOL    HW122748   2.349   0.990   3.409
 7283SOL    HW222749   2.282   0.944   3.267
 7284SOL     OW22750   6.937   3.934   5.535
 7284SOL    HW122751   6.853   3.985   5.522
 7284SOL    HW222752   6.972   3.950   5.627
 7285SOL     OW22753   5.159   5.705   2.237
 7285SOL    HW122754   5.099   5.626   2.248
 7285SOL    HW222755   5.219   5.691   2.158
 7286SOL     OW22756   2.703   3.057   1.179
 7286SOL    HW122757   2.736   3.151   1.170
 7286SOL    HW222758   2.700   3.015   1.088
 7287SOL     OW22759   6.457   0.838   6.372
 7287SOL    HW122760   6.371   0.807   6.411
 7287SOL    HW222761   6.493   0.914   6.427
 7288SOL     OW22762   3.836   0.478   6.691
 7288SOL    HW122763   3.849   0.551   6.625
 7288SOL    HW222764   3.752   0.494   6.743
 7289SOL     OW22765   5.399   2.128   2.823
 7289SOL    HW122766   5.451   2.043   2.829
 7289SOL    HW222767   5.412   2.169   2.733
 7290SOL     OW22768   2.178   4.846   4.755
 7290SOL    HW122769   2.110   4.773   4.739
 7290SOL    HW222770   2.176   4.910   4.678
 7291SOL     OW22771   2.745   6.057   1.313
 7291SOL    HW122772   2.749   6.029   1.409
 7291SOL    HW222773   2.650   6.066   1.284
 7292SOL     OW22774   2.636   6.830   3.869
 7292SOL    HW122775   2.729   6.800   3.848
 7292SOL    HW222776   2.598   6.880   3.792
 7293SOL     OW22777   2.183   2.133   5.349
 7293SOL    HW122778   2.216   2.185   5.428
 7293SOL    HW222779   2.237   2.157   5.269
 7294SOL     OW22780   2.873   5.057   0.660
 7294SOL    HW122781   2.937   5.131   0.640
 7294SOL    HW222782   2.909   4.972   0.622
 7295SOL     OW22783   0.114   1.227   0.909
 7295SOL    HW122784   0.078   1.140   0.941
 7295SOL    HW222785   0.191   1.255   0.966
 7296SOL     OW22786   3.255   4.733   0.716
 7296SOL    HW122787   3.286   4.645   0.752
 7296SOL    HW222788   3.319   4.805   0.744
 7297SOL     OW22789   4.893   6.546   1.221
 7297SOL    HW122790   4.831   6.586   1.288
 7297SOL    HW222791   4.881   6.591   1.133
 7298SOL     OW22792   6.048   3.895   4.509
 7298SOL    HW122793   6.015   3.918   4.417
 7298SOL    HW222794   6.010   3.807   4.537
 7299SOL     OW22795   6.358   3.368   0.143
 7299SOL    HW122796   6.347   3.320   0.230
 7299SOL    HW222797   6.283   3.343   0.082
 7300SOL     OW22798   5.261   5.451   0.960
 7300SOL    HW122799   5.331   5.474   0.892
 7300SOL    HW222800   5.171   5.456   0.917
 7301SOL     OW22801   6.714   6.836   6.061
 7301SOL    HW122802   6.792   6.779   6.087
 7301SOL    HW222803   6.733   6.878   5.972
 7302SOL     OW22804   6.501   0.763   0.009
 7302SOL    HW122805   6.547   0.782   6.946
 7302SOL    HW222806   6.407   0.794   0.004
 7303SOL     OW22807   3.276   0.557   0.164
 7303SOL    HW122808   3.185   0.550   0.122
 7303SOL    HW222809   3.346   0.546   0.094
 7304SOL     OW22810   4.341   3.684   5.859
 7304SOL    HW122811   4.282   3.661   5.781
 7304SOL    HW222812   4.436   3.671   5.833
 7305SOL     OW22813   4.517   1.255   0.282
 7305SOL    HW122814   4.496   1.240   0.185
 7305SOL    HW222815   4.575   1.336   0.290
 7306SOL     OW22816   4.620   5.120   1.629
 7306SOL    HW122817   4.654   5.026   1.639
 7306SOL    HW222818   4.559   5.126   1.550
 7307SOL     OW22819   3.663   6.701   1.745
 7307SOL    HW122820   3.738   6.725   1.684
 7307SOL    HW222821   3.610   6.626   1.706
 7308SOL     OW22822   6.495   3.114   4.499
 7308SOL    HW122823   6.490   3.163   4.587
 7308SOL    HW222824   6.468   3.019   4.512
 7309SOL     OW22825   4.917   6.549   0.823
 7309SOL    HW122826   5.006   6.504   0.820
 7309SOL    HW222827   4.926   6.637   0.869
 7310SOL     OW22828   2.782   5.564   1.284
 7310SOL    HW122829   2.880   5.578   1.274
 7310SOL    HW222830   2.765   5.470   1.315
 7311SOL     OW22831   2.767   2.225   1.810
 7311SOL    HW122832   2.819   2.273   1.881
 7311SOL    HW222833   2.669   2.237   1.826
 7312SOL     OW22834   6.890   1.961   5.332
 7312SOL    HW122835   6.825   2.033   5.353
 7312SOL    HW222836   6.906   1.904   5.413
 7313SOL     OW22837   4.126   2.570   6.507
 7313SOL    HW122838   4.070   2.492   6.535
 7313SOL    HW222839   4.222   2.552   6.528
 7314SOL     OW22840   6.995   3.366   5.066
 7314SOL    HW122841   0.066   3.385   5.038
 7314SOL    HW222842   6.971   3.425   5.143
 7315SOL     OW22843   6.913   0.123   3.900
 7315SOL    HW122844   7.002   0.131   3.946
 7315SOL    HW222845   6.892   0.208   3.852
 7316SOL     OW22846   3.749   3.613   5.745
 7316SOL    HW122847   3.806   3.585   5.667
 7316SOL    HW222848   3.802   3.604   5.829
 7317SOL     OW22849   3.254   0.990   3.089
 7317SOL    HW122850   3.262   0.917   3.022
 7317SOL    HW222851   3.162   1.030   3.086
 7318SOL     OW22852   1.311   2.172   1.619
 7318SOL    HW122853   1.361   2.238   1.563
 7318SOL    HW222854   1.252   2.117   1.559
 7319SOL     OW22855   6.356   4.487   6.917
 7319SOL    HW122856   6.270   4.536   6.902
 7319SOL    HW222857   6.337   4.390   6.930
 7320SOL     OW22858   0.408   3.388   2.281
 7320SOL    HW122859   0.396   3.478   2.239
 7320SOL    HW222860   0.446   3.399   2.373
 7321SOL     OW22861   2.504   1.770   4.433
 7321SOL    HW122862   2.510   1.862   4.394
 7321SOL    HW222863   2.464   1.708   4.366
 7322SOL     OW22864   0.919   4.051   3.241
 7322SOL    HW122865   0.870   3.988   3.302
 7322SOL    HW222866   1.017   4.042   3.257
 7323SOL     OW22867   1.801   2.672   3.248
 7323SOL    HW122868   1.803   2.583   3.202
 7323SOL    HW222869   1.714   2.717   3.230
 7324SOL     OW22870   6.220   0.931   3.647
 7324SOL    HW122871   6.146   0.998   3.652
 7324SOL    HW222872   6.308   0.978   3.638
 7325SOL     OW22873   3.352   6.709   6.374
 7325SOL    HW122874   3.297   6.637   6.332
 7325SOL    HW222875   3.336   6.796   6.326
 7326SOL     OW22876   2.981   6.999   5.947
 7326SOL    HW122877   2.981   6.911   5.899
 7326SOL    HW222878   2.886   0.003   5.963
 7327SOL     OW22879   1.701   2.687   6.462
 7327SOL    HW122880   1.730   2.594   6.442
 7327SOL    HW222881   1.648   2.689   6.547
 7328SOL     OW22882   2.594   6.742   6.628
 7328SOL    HW122883   2.663   6.675   6.654
 7328SOL    HW222884   2.508   6.722   6.676
 7329SOL     OW22885   4.307   3.152   0.948
 7329SOL    HW122886   4.306   3.176   1.045
 7329SOL    HW222887   4.233   3.199   0.901
 7330SOL     OW22888   3.145   1.346   6.540
 7330SOL    HW122889   3.111   1.259   6.576
 7330SOL    HW222890   3.184   1.400   6.615
 7331SOL     OW22891   4.978   0.588   2.270
 7331SOL    HW122892   4.922   0.603   2.352
 7331SOL    HW222893   4.929   0.624   2.190
 7332SOL     OW22894   3.036   5.741   0.341
 7332SOL    HW122895   3.013   5.804   0.267
 7332SOL    HW222896   2.989   5.654   0.326
 7333SOL     OW22897   0.934   4.695   2.746
 7333SOL    HW122898   0.857   4.683   2.682
 7333SOL    HW222899   0.940   4.614   2.805
 7334SOL     OW22900   3.857   6.105   5.101
 7334SOL    HW122901   3.766   6.098   5.060
 7334SOL    HW222902   3.874   6.025   5.159
 7335SOL     OW22903   2.002   2.152   2.544
 7335SOL    HW122904   1.971   2.062   2.511
 7335SOL    HW222905   1.992   2.155   2.643
 7336SOL     OW22906   1.850   5.666   4.308
 7336SOL    HW122907   1.791   5.663   4.389
 7336SOL    HW222908   1.946   5.659   4.336
 7337SOL     OW22909   0.392   2.940   2.249
 7337SOL    HW122910   0.292   2.939   2.255
 7337SOL    HW222911   0.431   2.941   2.341
 7338SOL     OW22912   6.694   2.026   1.529
 7338SOL    HW122913   6.770   1.981   1.480
 7338SOL    HW222914   6.720   2.040   1.625
 7339SOL     OW22915   6.729   5.796   4.240
 7339SOL    HW122916   6.817   5.810   4.194
 7339SOL    HW222917   6.717   5.865   4.311
 7340SOL     OW22918   2.165   0.217   6.972
 7340SOL    HW122919   2.189   0.271   0.029
 7340SOL    HW222920   2.066   0.213   6.963
 7341SOL     OW22921   6.140   2.160   6.979
 7341SOL    HW122922   6.109   2.251   6.951
 7341SOL    HW222923   6.186   2.167   0.044
 7342SOL     OW22924   0.076   6.749   2.749
 7342SOL    HW122925   0.039   6.715   2.663
 7342SOL    HW222926   0.002   6.786   2.805
 7343SOL     OW22927   5.541   3.486   0.875
 7343SOL    HW122928   5.624   3.445   0.838
 7343SOL    HW222929   5.563   3.570   0.925
 7344SOL     OW22930   1.598   5.776   6.662
 7344SOL    HW122931   1.590   5.808   6.568
 7344SOL    HW222932   1.612   5.853   6.723
 7345SOL     OW22933   3.941   4.525   5.814
 7345SOL    HW122934   3.947   4.563   5.721
 7345SOL    HW222935   3.865   4.461   5.819
 7346SOL     OW22936   4.210   5.605   2.622
 7346SOL    HW122937   4.198   5.546   2.543
 7346SOL    HW222938   4.136   5.588   2.688
 7347SOL     OW22939   6.115   2.099   6.705
 7347SOL    HW122940   6.118   2.128   6.800
 7347SOL    HW222941   6.045   2.152   6.656
 7348SOL     OW22942   1.402   4.242   2.374
 7348SOL    HW122943   1.420   4.169   2.308
 7348SOL    HW222944   1.394   4.202   2.466
 7349SOL     OW22945   3.673   1.202   1.053
 7349SOL    HW122946   3.748   1.204   1.119
 7349SOL    HW222947   3.593   1.158   1.093
 7350SOL     OW22948   2.978   0.483   5.768
 7350SOL    HW122949   2.949   0.576   5.791
 7350SOL    HW222950   2.949   0.461   5.675
 7351SOL     OW22951   4.201   5.188   4.302
 7351SOL    HW122952   4.194   5.114   4.368
 7351SOL    HW222953   4.110   5.213   4.270
 7352SOL     OW22954   0.242   2.543   3.314
 7352SOL    HW122955   0.230   2.466   3.251
 7352SOL    HW222956   0.335   2.578   3.307
 7353SOL     OW22957   6.522   0.163   6.974
 7353SOL    HW122958   6.447   0.148   0.015
 7353SOL    HW222959   6.484   0.186   6.885
 7354SOL     OW22960   1.463   1.418   2.593
 7354SOL    HW122961   1.396   1.390   2.661
 7354SOL    HW222962   1.451   1.363   2.510
 7355SOL     OW22963   0.500   1.974   6.277
 7355SOL    HW122964   0.517   2.065   6.315
 7355SOL    HW222965   0.587   1.928   6.260
 7356SOL     OW22966   4.317   3.601   6.108
 7356SOL    HW122967   4.223   3.593   6.140
 7356SOL    HW222968   4.317   3.636   6.014
 7357SOL     OW22969   5.398   6.069   2.156
 7357SOL    HW122970   5.315   6.041   2.203
 7357SOL    HW222971   5.475   6.070   2.220
 7358SOL     OW22972   5.845   1.820   3.027
 7358SOL    HW122973   5.881   1.751   3.091
 7358SOL    HW222974   5.784   1.775   2.962
 7359SOL     OW22975   4.580   0.451   6.680
 7359SOL    HW122976   4.533   0.489   6.759
 7359SOL    HW222977   4.596   0.524   6.613
 7360SOL     OW22978   3.031   3.183   5.315
 7360SOL    HW122979   3.128   3.204   5.328
 7360SOL    HW222980   3.008   3.099   5.363
 7361SOL     OW22981   5.034   0.332   2.398
 7361SOL    HW122982   5.070   0.408   2.344
 7361SOL    HW222983   5.009   0.365   2.489
 7362SOL     OW22984   3.622   5.766   6.538
 7362SOL    HW122985   3.604   5.787   6.634
 7362SOL    HW222986   3.718   5.783   6.516
 7363SOL     OW22987   3.803   0.113   1.287
 7363SOL    HW122988   3.750   0.096   1.370
 7363SOL    HW222989   3.759   0.069   1.209
 7364SOL     OW22990   5.335   0.001   1.617
 7364SOL    HW122991   5.274   0.056   1.560
 7364SOL    HW222992   5.374   6.950   1.563
 7365SOL     OW22993   5.890   4.882   2.220
 7365SOL    HW122994   5.863   4.976   2.242
 7365SOL    HW222995   5.875   4.823   2.300
 7366SOL     OW22996   2.205   1.332   4.181
 7366SOL    HW122997   2.154   1.302   4.100
 7366SOL    HW222998   2.172   1.422   4.210
 7367SOL     OW22999   4.569   0.793   6.408
 7367SOL    HW123000   4.481   0.831   6.381
 7367SOL    HW223001   4.643   0.846   6.366
 7368SOL     OW23002   3.971   3.472   3.234
 7368SOL    HW123003   3.906   3.398   3.252
 7368SOL    HW223004   3.922   3.558   3.220
 7369SOL     OW23005   5.609   2.256   1.037
 7369SOL    HW123006   5.646   2.330   1.095
 7369SOL    HW223007   5.627   2.168   1.081
 7370SOL     OW23008   2.492   2.042   4.376
 7370SOL    HW123009   2.404   2.083   4.401
 7370SOL    HW223010   2.531   2.092   4.299
 7371SOL     OW23011   3.944   0.352   3.751
 7371SOL    HW123012   4.044   0.355   3.753
 7371SOL    HW223013   3.913   0.343   3.657
 7372SOL     OW23014   4.770   6.953   4.723
 7372SOL    HW123015   4.810   6.889   4.658
 7372SOL    HW223016   4.821   0.015   4.720
 7373SOL     OW23017   5.461   2.955   4.345
 7373SOL    HW123018   5.524   2.903   4.402
 7373SOL    HW223019   5.367   2.922   4.361
 7374SOL     OW23020   0.290   1.949   5.452
 7374SOL    HW123021   0.227   1.968   5.527
 7374SOL    HW223022   0.239   1.913   5.374
 7375SOL     OW23023   2.090   3.257   2.166
 7375SOL    HW123024   2.078   3.178   2.106
 7375SOL    HW223025   2.136   3.330   2.116
 7376SOL     OW23026   0.270   4.313   0.445
 7376SOL    HW123027   0.203   4.249   0.482
 7376SOL    HW223028   0.282   4.296   0.347
 7377SOL     OW23029   3.346   5.721   0.302
 7377SOL    HW123030   3.358   5.672   0.215
 7377SOL    HW223031   3.249   5.735   0.319
 7378SOL     OW23032   1.370   6.178   3.893
 7378SOL    HW123033   1.423   6.176   3.978
 7378SOL    HW223034   1.272   6.180   3.914
 7379SOL     OW23035   4.422   0.788   0.611
 7379SOL    HW123036   4.375   0.833   0.535
 7379SOL    HW223037   4.519   0.815   0.610
 7380SOL     OW23038   5.584   3.728   2.710
 7380SOL    HW123039   5.545   3.763   2.625
 7380SOL    HW223040   5.684   3.733   2.706
 7381SOL     OW23041   4.159   0.709   0.665
 7381SOL    HW123042   4.255   0.733   0.652
 7381SOL    HW223043   4.102   0.790   0.651
 7382SOL     OW23044   6.835   1.105   6.262
 7382SOL    HW123045   6.867   1.036   6.328
 7382SOL    HW223046   6.737   1.119   6.276
 7383SOL     OW23047   2.474   6.776   1.327
 7383SOL    HW123048   2.406   6.743   1.262
 7383SOL    HW223049   2.428   6.811   1.409
 7384SOL     OW23050   0.277   6.924   1.147
 7384SOL    HW123051   0.206   6.958   1.209
 7384SOL    HW223052   0.236   6.857   1.084
 7385SOL     OW23053   5.293   4.493   2.595
 7385SOL    HW123054   5.250   4.525   2.680
 7385SOL    HW223055   5.291   4.394   2.591
 7386SOL     OW23056   6.321   3.740   0.478
 7386SOL    HW123057   6.326   3.687   0.393
 7386SOL    HW223058   6.387   3.704   0.544
 7387SOL     OW23059   6.458   5.478   5.753
 7387SOL    HW123060   6.505   5.406   5.702
 7387SOL    HW223061   6.388   5.437   5.812
 7388SOL     OW23062   2.013   6.043   2.598
 7388SOL    HW123063   2.046   6.072   2.687
 7388SOL    HW223064   2.089   6.041   2.533
 7389SOL     OW23065   6.102   3.439   0.547
 7389SOL    HW123066   6.055   3.351   0.537
 7389SOL    HW223067   6.182   3.441   0.488
 7390SOL     OW23068   2.419   1.743   2.633
 7390SOL    HW123069   2.468   1.830   2.642
 7390SOL    HW223070   2.480   1.674   2.593
 7391SOL     OW23071   3.766   3.193   3.056
 7391SOL    HW123072   3.841   3.182   3.121
 7391SOL    HW223073   3.688   3.236   3.102
 7392SOL     OW23074   3.285   5.993   6.668
 7392SOL    HW123075   3.270   5.945   6.754
 7392SOL    HW223076   3.265   6.090   6.680
 7393SOL     OW23077   5.548   5.759   4.384
 7393SOL    HW123078   5.558   5.674   4.332
 7393SOL    HW223079   5.515   5.831   4.324
 7394SOL     OW23080   2.218   1.976   5.838
 7394SOL    HW123081   2.266   2.003   5.922
 7394SOL    HW223082   2.159   2.051   5.808
 7395SOL     OW23083   3.068   5.399   1.009
 7395SOL    HW123084   2.990   5.340   1.029
 7395SOL    HW223085   3.039   5.476   0.954
 7396SOL     OW23086   2.550   5.286   2.037
 7396SOL    HW123087   2.474   5.343   2.006
 7396SOL    HW223088   2.530   5.190   2.017
 7397SOL     OW23089   5.660   4.009   3.915
 7397SOL    HW123090   5.742   4.042   3.961
 7397SOL    HW223091   5.685   3.970   3.826
 7398SOL     OW23092   2.280   4.240   2.453
 7398SOL    HW123093   2.268   4.158   2.510
 7398SOL    HW223094   2.222   4.233   2.372
 7399SOL     OW23095   5.210   2.336   4.790
 7399SOL    HW123096   5.199   2.285   4.875
 7399SOL    HW223097   5.142   2.410   4.787
 7400SOL     OW23098   5.369   2.973   5.518
 7400SOL    HW123099   5.334   3.023   5.597
 7400SOL    HW223100   5.297   2.916   5.480
 7401SOL     OW23101   1.219   2.965   3.913
 7401SOL    HW123102   1.195   2.923   3.826
 7401SOL    HW223103   1.164   2.925   3.986
 7402SOL     OW23104   3.407   6.331   5.278
 7402SOL    HW123105   3.430   6.294   5.188
 7402SOL    HW223106   3.315   6.301   5.303
 7403SOL     OW23107   1.460   3.505   5.087
 7403SOL    HW123108   1.462   3.534   5.183
 7403SOL    HW223109   1.538   3.543   5.039
 7404SOL     OW23110   3.262   3.913   0.748
 7404SOL    HW123111   3.209   3.970   0.811
 7404SOL    HW223112   3.205   3.884   0.672
 7405SOL     OW23113   3.390   6.229   4.865
 7405SOL    HW123114   3.414   6.239   4.768
 7405SOL    HW223115   3.315   6.291   4.888
 7406SOL     OW23116   1.067   1.257   4.950
 7406SOL    HW123117   1.038   1.163   4.930
 7406SOL    HW223118   0.997   1.321   4.918
 7407SOL     OW23119   1.152   5.848   5.490
 7407SOL    HW123120   1.184   5.758   5.523
 7407SOL    HW223121   1.110   5.837   5.401
 7408SOL     OW23122   3.783   4.156   5.403
 7408SOL    HW123123   3.830   4.218   5.466
 7408SOL    HW223124   3.787   4.192   5.310
 7409SOL     OW23125   6.387   4.053   0.807
 7409SOL    HW123126   6.442   4.109   0.869
 7409SOL    HW223127   6.440   4.032   0.725
 7410SOL     OW23128   0.008   0.328   1.303
 7410SOL    HW123129   6.960   0.274   1.260
 7410SOL    HW223130   7.015   0.334   1.402
 7411SOL     OW23131   1.380   2.549   4.763
 7411SOL    HW123132   1.375   2.450   4.753
 7411SOL    HW223133   1.440   2.587   4.693
 7412SOL     OW23134   4.469   6.439   6.822
 7412SOL    HW123135   4.443   6.532   6.796
 7412SOL    HW223136   4.547   6.442   6.883
 7413SOL     OW23137   4.089   6.617   3.053
 7413SOL    HW123138   4.119   6.678   3.126
 7413SOL    HW223139   4.031   6.545   3.092
 7414SOL     OW23140   2.636   1.888   3.896
 7414SOL    HW123141   2.563   1.912   3.959
 7414SOL    HW223142   2.683   1.805   3.929
 7415SOL     OW23143   3.898   6.612   6.430
 7415SOL    HW123144   3.897   6.644   6.525
 7415SOL    HW223145   3.992   6.599   6.399
 7416SOL     OW23146   1.030   1.356   1.801
 7416SOL    HW123147   1.002   1.319   1.889
 7416SOL    HW223148   1.051   1.453   1.811
 7417SOL     OW23149   0.562   1.505   3.374
 7417SOL    HW123150   0.605   1.422   3.341
 7417SOL    HW223151   0.608   1.537   3.457
 7418SOL     OW23152   1.980   4.208   6.231
 7418SOL    HW123153   1.993   4.285   6.292
 7418SOL    HW223154   1.885   4.177   6.235
 7419SOL     OW23155   6.981   3.922   4.253
 7419SOL    HW123156   7.010   3.830   4.225
 7419SOL    HW223157   6.911   3.914   4.324
 7420SOL     OW23158   6.508   0.098   1.215
 7420SOL    HW123159   6.532   0.004   1.238
 7420SOL    HW223160   6.549   0.123   1.127
 7421SOL     OW23161   4.978   4.338   1.802
 7421SOL    HW123162   4.977   4.353   1.901
 7421SOL    HW223163   4.925   4.256   1.780
 7422SOL     OW23164   5.741   2.616   2.494
 7422SOL    HW123165   5.752   2.715   2.487
 7422SOL    HW223166   5.668   2.595   2.559
 7423SOL     OW23167   5.734   2.053   5.906
 7423SOL    HW123168   5.820   2.068   5.858
 7423SOL    HW223169   5.657   2.071   5.845
 7424SOL     OW23170   0.962   1.586   3.653
 7424SOL    HW123171   0.994   1.492   3.645
 7424SOL    HW223172   0.862   1.589   3.642
 7425SOL     OW23173   6.221   0.779   7.016
 7425SOL    HW123174   6.149   0.843   6.991
 7425SOL    HW223175   6.233   0.711   6.943
 7426SOL     OW23176   3.597   2.992   5.671
 7426SOL    HW123177   3.673   2.954   5.620
 7426SOL    HW223178   3.517   2.932   5.661
 7427SOL     OW23179   3.404   1.192   3.825
 7427SOL    HW123180   3.310   1.160   3.834
 7427SOL    HW223181   3.447   1.147   3.747
 7428SOL     OW23182   4.435   5.910   5.454
 7428SOL    HW123183   4.339   5.897   5.427
 7428SOL    HW223184   4.467   5.827   5.500
 7429SOL     OW23185   1.550   6.705   2.662
 7429SOL    HW123186   1.645   6.683   2.642
 7429SOL    HW223187   1.495   6.695   2.579
 7430SOL     OW23188   6.717   5.277   2.269
 7430SOL    HW123189   6.723   5.289   2.368
 7430SOL    HW223190   6.621   5.274   2.242
 7431SOL     OW23191   1.604   1.434   4.134
 7431SOL    HW123192   1.565   1.526   4.137
 7431SOL    HW223193   1.698   1.437   4.166
 7432SOL     OW23194   1.839   0.148   3.147
 7432SOL    HW123195   1.825   0.216   3.218
 7432SOL    HW223196   1.937   0.136   3.131
 7433SOL     OW23197   2.809   0.033   0.206
 7433SOL    HW123198   2.889   7.013   0.164
 7433SOL    HW223199   2.815   0.132   0.192
 7434SOL     OW23200   3.973   6.226   5.533
 7434SOL    HW123201   3.904   6.250   5.465
 7434SOL    HW223202   3.958   6.280   5.616
 7435SOL     OW23203   4.630   5.153   3.209
 7435SOL    HW123204   4.616   5.090   3.285
 7435SOL    HW223205   4.557   5.141   3.142
 7436SOL     OW23206   5.238   3.129   6.303
 7436SOL    HW123207   5.334   3.151   6.286
 7436SOL    HW223208   5.183   3.156   6.225
 7437SOL     OW23209   3.752   6.251   0.924
 7437SOL    HW123210   3.801   6.238   0.837
 7437SOL    HW223211   3.657   6.274   0.905
 7438SOL     OW23212   2.228   0.665   0.253
 7438SOL    HW123213   2.227   0.765   0.260
 7438SOL    HW223214   2.155   0.627   0.310
 7439SOL     OW23215   1.230   4.546   6.064
 7439SOL    HW123216   1.141   4.533   6.020
 7439SOL    HW223217   1.233   4.493   6.149
 7440SOL     OW23218   5.317   3.319   4.678
 7440SOL    HW123219   5.365   3.233   4.694
 7440SOL    HW223220   5.292   3.360   4.765
 7441SOL     OW23221   5.824   5.792   1.457
 7441SOL    HW123222   5.807   5.868   1.394
 7441SOL    HW223223   5.918   5.795   1.489
 7442SOL     OW23224   5.092   1.174   5.428
 7442SOL    HW123225   5.057   1.213   5.343
 7442SOL    HW223226   5.018   1.126   5.476
 7443SOL     OW23227   6.912   0.342   2.169
 7443SOL    HW123228   6.838   0.353   2.235
 7443SOL    HW223229   6.958   0.430   2.156
 7444SOL     OW23230   1.423   6.241   6.742
 7444SOL    HW123231   1.459   6.264   6.652
 7444SOL    HW223232   1.365   6.316   6.775
 7445SOL     OW23233   3.920   6.200   1.125
 7445SOL    HW123234   3.862   6.200   1.043
 7445SOL    HW223235   3.875   6.253   1.197
 7446SOL     OW23236   5.401   3.788   7.010
 7446SOL    HW123237   5.362   3.819   0.072
 7446SOL    HW223238   5.498   3.808   7.007
 7447SOL     OW23239   0.833   4.861   1.275
 7447SOL    HW123240   0.805   4.765   1.273
 7447SOL    HW223241   0.925   4.867   1.315
 7448SOL     OW23242   4.526   4.937   6.612
 7448SOL    HW123243   4.472   5.015   6.580
 7448SOL    HW223244   4.471   4.882   6.674
 7449SOL     OW23245   0.603   4.367   6.604
 7449SOL    HW123246   0.594   4.290   6.667
 7449SOL    HW223247   0.695   4.367   6.565
 7450SOL     OW23248   5.338   2.036   4.990
 7450SOL    HW123249   5.314   1.956   5.044
 7450SOL    HW223250   5.437   2.049   4.990
 7451SOL     OW23251   5.412   5.012   3.216
 7451SOL    HW123252   5.491   4.988   3.159
 7451SOL    HW223253   5.337   5.045   3.157
 7452SOL     OW23254   6.262   5.402   5.292
 7452SOL    HW123255   6.163   5.420   5.287
 7452SOL    HW223256   6.285   5.326   5.232
 7453SOL     OW23257   3.879   5.929   6.646
 7453SOL    HW123258   3.815   6.006   6.648
 7453SOL    HW223259   3.895   5.902   6.551
 7454SOL     OW23260   3.681   2.329   0.660
 7454SOL    HW123261   3.779   2.329   0.643
 7454SOL    HW223262   3.657   2.409   0.715
 7455SOL     OW23263   6.729   2.987   3.527
 7455SOL    HW123264   6.771   3.043   3.456
 7455SOL    HW223265   6.726   2.892   3.498
 7456SOL     OW23266   3.304   1.827   5.705
 7456SOL    HW123267   3.257   1.739   5.693
 7456SOL    HW223268   3.254   1.898   5.656
 7457SOL     OW23269   2.593   0.421   3.113
 7457SOL    HW123270   2.610   0.332   3.069
 7457SOL    HW223271   2.649   0.429   3.195
 7458SOL     OW23272   1.386   5.297   5.286
 7458SOL    HW123273   1.386   5.197   5.285
 7458SOL    HW223274   1.385   5.329   5.381
 7459SOL     OW23275   5.696   0.523   2.680
 7459SOL    HW123276   5.713   0.435   2.725
 7459SOL    HW223277   5.781   0.555   2.638
 7460SOL     OW23278   1.611   6.486   0.979
 7460SOL    HW123279   1.556   6.404   0.996
 7460SOL    HW223280   1.707   6.465   0.994
 7461SOL     OW23281   1.318   5.138   6.198
 7461SOL    HW123282   1.365   5.162   6.283
 7461SOL    HW223283   1.265   5.055   6.212
 7462SOL     OW23284   1.104   4.792   0.725
 7462SOL    HW123285   1.083   4.881   0.686
 7462SOL    HW223286   1.050   4.779   0.809
 7463SOL     OW23287   3.454   4.652   1.133
 7463SOL    HW123288   3.533   4.681   1.080
 7463SOL    HW223289   3.412   4.572   1.090
 7464SOL     OW23290   6.156   6.076   5.385
 7464SOL    HW123291   6.152   6.173   5.360
 7464SOL    HW223292   6.251   6.045   5.385
 7465SOL     OW23293   1.425   4.912   0.413
 7465SOL    HW123294   1.330   4.922   0.382
 7465SOL    HW223295   1.433   4.947   0.506
 7466SOL     OW23296   0.220   6.649   5.069
 7466SOL    HW123297   0.146   6.601   5.117
 7466SOL    HW223298   0.192   6.668   4.975
 7467SOL     OW23299   0.190   2.749   6.185
 7467SOL    HW123300   0.116   2.803   6.145
 7467SOL    HW223301   0.252   2.718   6.112
 7468SOL     OW23302   6.198   3.677   5.831
 7468SOL    HW123303   6.210   3.578   5.818
 7468SOL    HW223304   6.185   3.720   5.742
 7469SOL     OW23305   6.331   2.273   1.211
 7469SOL    HW123306   6.261   2.295   1.279
 7469SOL    HW223307   6.419   2.263   1.257
 7470SOL     OW23308   5.709   2.930   4.053
 7470SOL    HW123309   5.675   3.022   4.073
 7470SOL    HW223310   5.748   2.891   4.137
 7471SOL     OW23311   4.868   6.029   5.499
 7471SOL    HW123312   4.843   5.988   5.587
 7471SOL    HW223313   4.794   6.090   5.469
 7472SOL     OW23314   5.915   6.308   5.215
 7472SOL    HW123315   5.958   6.305   5.305
 7472SOL    HW223316   5.935   6.223   5.166
 7473SOL     OW23317   4.294   5.975   3.762
 7473SOL    HW123318   4.355   5.913   3.811
 7473SOL    HW223319   4.271   5.937   3.673
 7474SOL     OW23320   6.590   1.868   5.254
 7474SOL    HW123321   6.654   1.930   5.299
 7474SOL    HW223322   6.552   1.805   5.322
 7475SOL     OW23323   4.865   3.008   0.495
 7475SOL    HW123324   4.793   2.988   0.561
 7475SOL    HW223325   4.828   3.007   0.402
 7476SOL     OW23326   1.458   0.935   2.847
 7476SOL    HW123327   1.541   0.980   2.882
 7476SOL    HW223328   1.481   0.843   2.816
 7477SOL     OW23329   0.532   4.621   4.728
 7477SOL    HW123330   0.600   4.549   4.727
 7477SOL    HW223331   0.492   4.630   4.637
 7478SOL     OW23332   0.453   1.361   5.615
 7478SOL    HW123333   0.466   1.262   5.619
 7478SOL    HW223334   0.536   1.404   5.580
 7479SOL     OW23335   5.886   2.919   0.106
 7479SOL    HW123336   5.873   2.825   0.138
 7479SOL    HW223337   5.944   2.969   0.172
 7480SOL     OW23338   3.622   4.907   2.622
 7480SOL    HW123339   3.535   4.904   2.572
 7480SOL    HW223340   3.639   4.818   2.665
 7481SOL     OW23341   0.209   4.103   6.378
 7481SOL    HW123342   0.208   4.051   6.464
 7481SOL    HW223343   0.234   4.041   6.303
 7482SOL     OW23344   4.092   1.748   2.619
 7482SOL    HW123345   4.152   1.668   2.628
 7482SOL    HW223346   4.139   1.829   2.655
 7483SOL     OW23347   5.087   2.213   5.773
 7483SOL    HW123348   4.991   2.199   5.752
 7483SOL    HW223349   5.144   2.159   5.712
 7484SOL     OW23350   3.200   6.813   4.106
 7484SOL    HW123351   3.163   6.764   4.185
 7484SOL    HW223352   3.290   6.850   4.129
 7485SOL     OW23353   3.076   6.990   5.109
 7485SOL    HW123354   3.004   0.027   5.143
 7485SOL    HW223355   3.034   6.906   5.073
 7486SOL     OW23356   2.638   6.605   1.443
 7486SOL    HW123357   2.578   6.674   1.404
 7486SOL    HW223358   2.734   6.633   1.432
 7487SOL     OW23359   4.489   6.676   4.354
 7487SOL    HW123360   4.514   6.581   4.336
 7487SOL    HW223361   4.417   6.704   4.292
 7488SOL     OW23362   1.081   5.154   3.743
 7488SOL    HW123363   1.029   5.107   3.815
 7488SOL    HW223364   1.179   5.142   3.759
 7489SOL     OW23365   6.149   3.274   6.661
 7489SOL    HW123366   6.175   3.363   6.698
 7489SOL    HW223367   6.084   3.230   6.724
 7490SOL     OW23368   1.212   2.448   2.095
 7490SOL    HW123369   1.214   2.376   2.165
 7490SOL    HW223370   1.174   2.532   2.135
 7491SOL     OW23371   4.103   3.095   0.183
 7491SOL    HW123372   4.176   3.140   0.133
 7491SOL    HW223373   4.017   3.102   0.132
 7492SOL     OW23374   1.721   0.527   4.324
 7492SOL    HW123375   1.743   0.582   4.404
 7492SOL    HW223376   1.624   0.501   4.326
 7493SOL     OW23377   6.715   4.233   5.056
 7493SOL    HW123378   6.617   4.237   5.078
 7493SOL    HW223379   6.739   4.140   5.029
 7494SOL     OW23380   5.956   0.566   2.580
 7494SOL    HW123381   6.005   0.512   2.511
 7494SOL    HW223382   5.982   0.535   2.671
 7495SOL     OW23383   1.431   3.589   5.352
 7495SOL    HW123384   1.375   3.668   5.377
 7495SOL    HW223385   1.468   3.547   5.435
 7496SOL     OW23386   5.933   4.388   2.419
 7496SOL    HW123387   5.899   4.473   2.378
 7496SOL    HW223388   6.028   4.401   2.448
 7497SOL     OW23389   0.287   6.787   0.223
 7497SOL    HW123390   0.262   6.696   0.188
 7497SOL    HW223391   0.261   6.856   0.156
 7498SOL     OW23392   3.154   6.886   2.899
 7498SOL    HW123393   3.056   6.902   2.912
 7498SOL    HW223394   3.195   6.859   2.986
 7499SOL     OW23395   3.886   2.140   3.561
 7499SOL    HW123396   3.962   2.190   3.602
 7499SOL    HW223397   3.921   2.064   3.506
 7500SOL     OW23398   3.934   6.809   2.915
 7500SOL    HW123399   4.010   6.775   2.971
 7500SOL    HW223400   3.884   6.879   2.966
 7501SOL     OW23401   6.048   2.279   4.919
 7501SOL    HW123402   6.118   2.274   4.989
 7501SOL    HW223403   6.058   2.202   4.856
 7502SOL     OW23404   4.091   0.781   4.629
 7502SOL    HW123405   4.145   0.767   4.546
 7502SOL    HW223406   4.094   0.877   4.655
 7503SOL     OW23407   1.940   6.443   1.515
 7503SOL    HW123408   1.877   6.480   1.447
 7503SOL    HW223409   1.912   6.472   1.606
 7504SOL     OW23410   6.281   6.760   3.863
 7504SOL    HW123411   6.183   6.778   3.854
 7504SOL    HW223412   6.302   6.735   3.958
 7505SOL     OW23413   1.000   6.441   5.198
 7505SOL    HW123414   0.989   6.513   5.129
 7505SOL    HW223415   0.911   6.406   5.225
 7506SOL     OW23416   2.846   1.759   2.798
 7506SOL    HW123417   2.814   1.800   2.883
 7506SOL    HW223418   2.873   1.664   2.814
 7507SOL     OW23419   6.170   4.184   5.088
 7507SOL    HW123420   6.121   4.098   5.105
 7507SOL    HW223421   6.251   4.188   5.147
 7508SOL     OW23422   1.971   5.896   6.747
 7508SOL    HW123423   2.069   5.876   6.752
 7508SOL    HW223424   1.953   5.988   6.784
 7509SOL     OW23425   5.782   4.247   0.580
 7509SOL    HW123426   5.869   4.219   0.538
 7509SOL    HW223427   5.749   4.330   0.535
 7510SOL     OW23428   3.789   3.551   3.984
 7510SOL    HW123429   3.869   3.593   3.940
 7510SOL    HW223430   3.818   3.469   4.034
 7511SOL     OW23431   3.738   6.270   3.532
 7511SOL    HW123432   3.830   6.266   3.571
 7511SOL    HW223433   3.743   6.263   3.432
 7512SOL     OW23434   3.673   0.360   6.321
 7512SOL    HW123435   3.725   0.294   6.267
 7512SOL    HW223436   3.725   0.445   6.328
 7513SOL     OW23437   0.936   2.112   2.265
 7513SOL    HW123438   0.886   2.029   2.292
 7513SOL    HW223439   0.997   2.091   2.188
 7514SOL     OW23440   1.541   4.279   1.940
 7514SOL    HW123441   1.579   4.332   1.864
 7514SOL    HW223442   1.615   4.234   1.989
 7515SOL     OW23443   7.018   4.864   4.538
 7515SOL    HW123444   0.016   4.895   4.445
 7515SOL    HW223445   6.921   4.839   4.543
 7516SOL     OW23446   1.384   6.343   4.899
 7516SOL    HW123447   1.477   6.313   4.921
 7516SOL    HW223448   1.320   6.306   4.966
 7517SOL     OW23449   0.579   1.125   6.622
 7517SOL    HW123450   0.654   1.169   6.672
 7517SOL    HW223451   0.506   1.191   6.605
 7518SOL     OW23452   4.681   2.618   3.357
 7518SOL    HW123453   4.763   2.561   3.350
 7518SOL    HW223454   4.708   2.710   3.386
 7519SOL     OW23455   4.113   6.461   4.311
 7519SOL    HW123456   4.046   6.466   4.237
 7519SOL    HW223457   4.097   6.535   4.376
 7520SOL     OW23458   1.486   2.367   0.706
 7520SOL    HW123459   1.586   2.364   0.708
 7520SOL    HW223460   1.449   2.278   0.731
 7521SOL     OW23461   3.861   1.649   5.227
 7521SOL    HW123462   3.850   1.669   5.324
 7521SOL    HW223463   3.807   1.568   5.203
 7522SOL     OW23464   2.129   0.128   3.388
 7522SOL    HW123465   2.149   0.213   3.437
 7522SOL    HW223466   2.038   0.096   3.414
 7523SOL     OW23467   5.499   0.821   6.745
 7523SOL    HW123468   5.432   0.808   6.818
 7523SOL    HW223469   5.578   0.870   6.782
 7524SOL     OW23470   0.175   3.139   4.731
 7524SOL    HW123471   0.149   3.122   4.636
 7524SOL    HW223472   0.133   3.071   4.790
 7525SOL     OW23473   4.647   5.813   6.557
 7525SOL    HW123474   4.589   5.889   6.528
 7525SOL    HW223475   4.598   5.756   6.623
 7526SOL     OW23476   2.483   3.350   1.676
 7526SOL    HW123477   2.431   3.385   1.754
 7526SOL    HW223478   2.452   3.394   1.592
 7527SOL     OW23479   4.172   4.918   3.875
 7527SOL    HW123480   4.092   4.907   3.816
 7527SOL    HW223481   4.206   4.829   3.903
 7528SOL     OW23482   6.464   3.405   6.798
 7528SOL    HW123483   6.477   3.336   6.870
 7528SOL    HW223484   6.392   3.469   6.826
 7529SOL     OW23485   6.469   2.806   4.567
 7529SOL    HW123486   6.503   2.805   4.473
 7529SOL    HW223487   6.545   2.790   4.631
 7530SOL     OW23488   6.875   2.076   1.726
 7530SOL    HW123489   6.852   2.085   1.822
 7530SOL    HW223490   6.921   2.159   1.694
 7531SOL     OW23491   4.259   1.925   3.399
 7531SOL    HW123492   4.273   1.958   3.305
 7531SOL    HW223493   4.162   1.925   3.421
 7532SOL     OW23494   4.691   5.468   6.288
 7532SOL    HW123495   4.592   5.479   6.295
 7532SOL    HW223496   4.736   5.523   6.359
 7533SOL     OW23497   4.538   4.034   1.440
 7533SOL    HW123498   4.622   4.056   1.391
 7533SOL    HW223499   4.518   4.106   1.507
 7534SOL     OW23500   4.178   0.305   4.651
 7534SOL    HW123501   4.144   0.235   4.714
 7534SOL    HW223502   4.137   0.291   4.561
 7535SOL     OW23503   0.351   5.697   3.626
 7535SOL    HW123504   0.354   5.698   3.726
 7535SOL    HW223505   0.385   5.609   3.592
 7536SOL     OW23506   4.883   6.172   4.829
 7536SOL    HW123507   4.854   6.259   4.788
 7536SOL    HW223508   4.807   6.134   4.882
 7537SOL     OW23509   3.164   6.519   3.673
 7537SOL    HW123510   3.106   6.544   3.596
 7537SOL    HW223511   3.201   6.602   3.715
 7538SOL     OW23512   0.686   4.185   0.653
 7538SOL    HW123513   0.724   4.130   0.579
 7538SOL    HW223514   0.760   4.220   0.710
 7539SOL     OW23515   0.462   6.802   3.732
 7539SOL    HW123516   0.461   6.706   3.760
 7539SOL    HW223517   0.386   6.849   3.777
 7540SOL     OW23518   6.457   5.332   2.935
 7540SOL    HW123519   6.475   5.404   3.002
 7540SOL    HW223520   6.360   5.334   2.910
 7541SOL     OW23521   1.785   4.209   6.913
 7541SOL    HW123522   1.751   4.294   6.874
 7541SOL    HW223523   1.755   4.201   7.008
 7542SOL     OW23524   5.835   5.815   5.211
 7542SOL    HW123525   5.737   5.805   5.229
 7542SOL    HW223526   5.872   5.728   5.178
 7543SOL     OW23527   2.492   1.025   6.612
 7543SOL    HW123528   2.424   1.097   6.597
 7543SOL    HW223529   2.565   1.059   6.670
 7544SOL     OW23530   6.679   2.753   4.396
 7544SOL    HW123531   6.771   2.790   4.386
 7544SOL    HW223532   6.685   2.655   4.417
 7545SOL     OW23533   0.955   5.010   6.615
 7545SOL    HW123534   0.982   5.035   6.709
 7545SOL    HW223535   1.008   4.931   6.586
 7546SOL     OW23536   2.987   2.959   1.745
 7546SOL    HW123537   3.061   2.986   1.807
 7546SOL    HW223538   3.006   2.869   1.707
 7547SOL     OW23539   4.816   0.320   1.912
 7547SOL    HW123540   4.753   0.336   1.988
 7547SOL    HW223541   4.897   0.272   1.946
 7548SOL     OW23542   3.994   2.294   6.469
 7548SOL    HW123543   3.909   2.335   6.434
 7548SOL    HW223544   3.983   2.195   6.476
 7549SOL     OW23545   5.067   2.315   4.317
 7549SOL    HW123546   4.986   2.368   4.341
 7549SOL    HW223547   5.149   2.362   4.350
 7550SOL     OW23548   2.542   4.705   4.594
 7550SOL    HW123549   2.530   4.670   4.687
 7550SOL    HW223550   2.453   4.716   4.550
 7551SOL     OW23551   5.844   2.394   5.729
 7551SOL    HW123552   5.938   2.405   5.762
 7551SOL    HW223553   5.783   2.378   5.807
 7552SOL     OW23554   2.603   6.049   5.329
 7552SOL    HW123555   2.670   6.077   5.260
 7552SOL    HW223556   2.513   6.039   5.285
 7553SOL     OW23557   5.677   6.390   5.937
 7553SOL    HW123558   5.633   6.402   6.026
 7553SOL    HW223559   5.686   6.293   5.916
 7554SOL     OW23560   4.966   0.849   1.173
 7554SOL    HW123561   5.056   0.889   1.191
 7554SOL    HW223562   4.967   0.752   1.200
 7555SOL     OW23563   3.221   5.113   5.306
 7555SOL    HW123564   3.236   5.031   5.252
 7555SOL    HW223565   3.274   5.108   5.391
 7556SOL     OW23566   0.145   6.762   0.956
 7556SOL    HW123567   0.059   6.811   0.969
 7556SOL    HW223568   0.134   6.695   0.882
 7557SOL     OW23569   4.795   0.030   0.251
 7557SOL    HW123570   4.821   7.001   0.332
 7557SOL    HW223571   4.745   0.112   0.279
 7558SOL     OW23572   1.596   1.890   4.374
 7558SOL    HW123573   1.549   1.976   4.358
 7558SOL    HW223574   1.573   1.855   4.465
 7559SOL     OW23575   3.280   1.697   4.567
 7559SOL    HW123576   3.349   1.651   4.623
 7559SOL    HW223577   3.316   1.784   4.534
 7560SOL     OW23578   0.597   0.973   5.731
 7560SOL    HW123579   0.671   1.036   5.712
 7560SOL    HW223580   0.549   0.950   5.646
 7561SOL     OW23581   5.619   2.093   4.933
 7561SOL    HW123582   5.630   2.190   4.911
 7561SOL    HW223583   5.667   2.038   4.865
 7562SOL     OW23584   1.322   4.786   3.931
 7562SOL    HW123585   1.319   4.711   3.997
 7562SOL    HW223586   1.273   4.759   3.847
 7563SOL     OW23587   3.221   5.358   2.567
 7563SOL    HW123588   3.211   5.394   2.660
 7563SOL    HW223589   3.131   5.342   2.527
 7564SOL     OW23590   4.161   2.032   5.164
 7564SOL    HW123591   4.177   1.957   5.229
 7564SOL    HW223592   4.189   2.003   5.073
 7565SOL     OW23593   5.974   4.216   6.226
 7565SOL    HW123594   5.903   4.158   6.264
 7565SOL    HW223595   6.027   4.163   6.159
 7566SOL     OW23596   4.614   4.361   1.353
 7566SOL    HW123597   4.603   4.346   1.452
 7566SOL    HW223598   4.613   4.273   1.306
 7567SOL     OW23599   1.733   0.962   4.606
 7567SOL    HW123600   1.701   0.976   4.700
 7567SOL    HW223601   1.832   0.952   4.606
 7568SOL     OW23602   5.910   5.325   1.763
 7568SOL    HW123603   5.882   5.421   1.757
 7568SOL    HW223604   5.891   5.279   1.677
 7569SOL     OW23605   4.531   3.718   0.061
 7569SOL    HW123606   4.455   3.763   0.108
 7569SOL    HW223607   4.577   3.785   0.002
 7570SOL     OW23608   0.125   2.848   2.788
 7570SOL    HW123609   0.071   2.828   2.706
 7570SOL    HW223610   0.222   2.848   2.765
 7571SOL     OW23611   4.671   2.338   3.041
 7571SOL    HW123612   4.764   2.371   3.022
 7571SOL    HW223613   4.612   2.358   2.962
 7572SOL     OW23614   4.254   6.608   2.468
 7572SOL    HW123615   4.230   6.560   2.384
 7572SOL    HW223616   4.175   6.657   2.503
 7573SOL     OW23617   5.186   6.496   5.251
 7573SOL    HW123618   5.227   6.421   5.200
 7573SOL    HW223619   5.149   6.462   5.337
 7574SOL     OW23620   0.434   1.398   3.673
 7574SOL    HW123621   0.409   1.384   3.769
 7574SOL    HW223622   0.502   1.329   3.646
 7575SOL     OW23623   6.871   6.846   2.352
 7575SOL    HW123624   6.906   6.939   2.364
 7575SOL    HW223625   6.899   6.812   2.262
 7576SOL     OW23626   5.653   3.236   0.771
 7576SOL    HW123627   5.738   3.232   0.825
 7576SOL    HW223628   5.600   3.153   0.786
 7577SOL     OW23629   1.266   6.736   0.886
 7577SOL    HW123630   1.205   6.658   0.874
 7577SOL    HW223631   1.237   6.789   0.966
 7578SOL     OW23632   6.872   5.655   3.315
 7578SOL    HW123633   6.930   5.586   3.270
 7578SOL    HW223634   6.927   5.706   3.381
 7579SOL     OW23635   0.268   1.167   0.306
 7579SOL    HW123636   0.183   1.196   0.351
 7579SOL    HW223637   0.343   1.169   0.373
 7580SOL     OW23638   2.472   4.851   3.434
 7580SOL    HW123639   2.534   4.858   3.355
 7580SOL    HW223640   2.498   4.773   3.490
 7581SOL     OW23641   6.537   1.219   2.703
 7581SOL    HW123642   6.548   1.316   2.684
 7581SOL    HW223643   6.556   1.201   2.799
 7582SOL     OW23644   3.184   1.425   5.445
 7582SOL    HW123645   3.171   1.374   5.530
 7582SOL    HW223646   3.112   1.401   5.380
 7583SOL     OW23647   4.977   3.044   2.509
 7583SOL    HW123648   4.922   3.043   2.426
 7583SOL    HW223649   5.050   3.112   2.501
 7584SOL     OW23650   0.164   1.034   3.232
 7584SOL    HW123651   0.068   1.033   3.261
 7584SOL    HW223652   0.168   1.020   3.133
 7585SOL     OW23653   1.193   1.088   7.014
 7585SOL    HW123654   1.149   1.018   0.047
 7585SOL    HW223655   1.271   1.127   0.039
 7586SOL     OW23656   1.088   1.669   2.666
 7586SOL    HW123657   1.087   1.614   2.750
 7586SOL    HW223658   1.161   1.737   2.671
 7587SOL     OW23659   3.590   0.611   1.144
 7587SOL    HW123660   3.579   0.588   1.048
 7587SOL    HW223661   3.502   0.608   1.191
 7588SOL     OW23662   1.758   2.592   4.257
 7588SOL    HW123663   1.806   2.666   4.210
 7588SOL    HW223664   1.713   2.628   4.339
 7589SOL     OW23665   0.633   0.924   2.945
 7589SOL    HW123666   0.679   1.013   2.948
 7589SOL    HW223667   0.586   0.908   3.032
 7590SOL     OW23668   0.310   1.440   6.985
 7590SOL    HW123669   0.317   1.528   6.937
 7590SOL    HW223670   0.215   1.426   7.014
 7591SOL     OW23671   4.109   3.204   5.228
 7591SOL    HW123672   4.094   3.288   5.281
 7591SOL    HW223673   4.025   3.181   5.179
 7592SOL     OW23674   0.010   6.475   5.308
 7592SOL    HW123675   6.977   6.423   5.371
 7592SOL    HW223676   6.975   6.526   5.245
 7593SOL     OW23677   1.086   1.267   6.119
 7593SOL    HW123678   1.114   1.231   6.208
 7593SOL    HW223679   1.008   1.328   6.131
 7594SOL     OW23680   0.134   4.865   0.201
 7594SOL    HW123681   0.142   4.862   0.101
 7594SOL    HW223682   0.086   4.784   0.233
 7595SOL     OW23683   0.143   3.144   6.320
 7595SOL    HW123684   0.069   3.089   6.282
 7595SOL    HW223685   0.131   3.153   6.419
 7596SOL     OW23686   3.138   0.958   5.332
 7596SOL    HW123687   3.212   0.926   5.391
 7596SOL    HW223688   3.092   0.879   5.291
 7597SOL     OW23689   1.846   4.807   2.230
 7597SOL    HW123690   1.763   4.812   2.175
 7597SOL    HW223691   1.825   4.767   2.319
 7598SOL     OW23692   6.472   1.131   3.384
 7598SOL    HW123693   6.411   1.210   3.384
 7598SOL    HW223694   6.566   1.161   3.372
 7599SOL     OW23695   3.836   3.583   0.796
 7599SOL    HW123696   3.800   3.556   0.886
 7599SOL    HW223697   3.897   3.662   0.808
 7600SOL     OW23698   1.727   6.772   4.569
 7600SOL    HW123699   1.737   6.812   4.660
 7600SOL    HW223700   1.817   6.747   4.533
 7601SOL     OW23701   3.154   6.366   2.854
 7601SOL    HW123702   3.171   6.267   2.861
 7601SOL    HW223703   3.217   6.406   2.788
 7602SOL     OW23704   6.895   1.312   0.243
 7602SOL    HW123705   6.984   1.295   0.285
 7602SOL    HW223706   6.823   1.273   0.301
 7603SOL     OW23707   3.362   0.321   5.455
 7603SOL    HW123708   3.442   0.363   5.412
 7603SOL    HW223709   3.354   0.353   5.549
 7604SOL     OW23710   0.743   2.422   4.628
 7604SOL    HW123711   0.741   2.440   4.530
 7604SOL    HW223712   0.679   2.349   4.650
 7605SOL     OW23713   1.961   6.820   0.260
 7605SOL    HW123714   1.907   6.754   0.311
 7605SOL    HW223715   1.915   6.909   0.260
 7606SOL     OW23716   6.548   1.585   3.523
 7606SOL    HW123717   6.580   1.604   3.430
 7606SOL    HW223718   6.608   1.631   3.589
 7607SOL     OW23719   2.623   6.007   5.996
 7607SOL    HW123720   2.698   6.059   6.037
 7607SOL    HW223721   2.568   5.965   6.069
 7608SOL     OW23722   5.978   2.395   6.098
 7608SOL    HW123723   6.027   2.321   6.145
 7608SOL    HW223724   6.045   2.461   6.062
 7609SOL     OW23725   0.782   2.064   4.638
 7609SOL    HW123726   0.751   1.974   4.608
 7609SOL    HW223727   0.706   2.129   4.632
 7610SOL     OW23728   3.728   5.138   5.139
 7610SOL    HW123729   3.759   5.067   5.076
 7610SOL    HW223730   3.632   5.122   5.162
 7611SOL     OW23731   4.833   3.501   1.065
 7611SOL    HW123732   4.817   3.594   1.099
 7611SOL    HW223733   4.911   3.501   1.002
 7612SOL     OW23734   3.157   1.570   3.351
 7612SOL    HW123735   3.112   1.636   3.291
 7612SOL    HW223736   3.182   1.614   3.437
 7613SOL     OW23737   0.196   1.181   2.378
 7613SOL    HW123738   0.294   1.160   2.374
 7613SOL    HW223739   0.179   1.244   2.454
 7614SOL     OW23740   4.868   4.034   0.613
 7614SOL    HW123741   4.933   4.012   0.540
 7614SOL    HW223742   4.816   3.951   0.636
 7615SOL     OW23743   5.817   3.492   4.899
 7615SOL    HW123744   5.742   3.553   4.875
 7615SOL    HW223745   5.824   3.419   4.832
 7616SOL     OW23746   6.248   0.237   3.497
 7616SOL    HW123747   6.273   0.149   3.456
 7616SOL    HW223748   6.270   0.311   3.433
 7617SOL     OW23749   5.335   5.049   3.641
 7617SOL    HW123750   5.369   5.136   3.607
 7617SOL    HW223751   5.238   5.040   3.620
 7618SOL     OW23752   2.313   2.485   6.993
 7618SOL    HW123753   2.240   2.499   0.035
 7618SOL    HW223754   2.394   2.536   7.021
 7619SOL     OW23755   0.779   1.800   4.455
 7619SOL    HW123756   0.795   1.885   4.404
 7619SOL    HW223757   0.762   1.725   4.390
 7620SOL     OW23758   3.901   4.073   1.394
 7620SOL    HW123759   3.883   4.046   1.299
 7620SOL    HW223760   3.864   4.004   1.456
 7621SOL     OW23761   6.407   4.230   0.434
 7621SOL    HW123762   6.475   4.196   0.499
 7621SOL    HW223763   6.430   4.198   0.342
 7622SOL     OW23764   3.059   3.623   1.200
 7622SOL    HW123765   3.034   3.639   1.296
 7622SOL    HW223766   3.091   3.708   1.159
 7623SOL     OW23767   4.792   4.492   0.733
 7623SOL    HW123768   4.783   4.516   0.637
 7623SOL    HW223769   4.870   4.540   0.773
 7624SOL     OW23770   0.751   3.106   2.381
 7624SOL    HW123771   0.764   3.171   2.306
 7624SOL    HW223772   0.775   3.014   2.350
 7625SOL     OW23773   5.538   0.901   1.201
 7625SOL    HW123774   5.475   0.977   1.185
 7625SOL    HW223775   5.489   0.815   1.191
 7626SOL     OW23776   4.884   1.495   5.436
 7626SOL    HW123777   4.834   1.490   5.350
 7626SOL    HW223778   4.871   1.410   5.488
 7627SOL     OW23779   3.650   2.507   6.880
 7627SOL    HW123780   3.583   2.475   6.813
 7627SOL    HW223781   3.633   2.463   6.969
 7628SOL     OW23782   3.395   2.354   0.162
 7628SOL    HW123783   3.467   2.386   0.223
 7628SOL    HW223784   3.333   2.429   0.140
 7629SOL     OW23785   6.023   3.089   3.869
 7629SOL    HW123786   6.051   3.020   3.936
 7629SOL    HW223787   6.084   3.086   3.790
 7630SOL     OW23788   1.334   6.723   5.354
 7630SOL    HW123789   1.363   6.629   5.371
 7630SOL    HW223790   1.395   6.766   5.288
 7631SOL     OW23791   1.459   0.185   5.821
 7631SOL    HW123792   1.528   0.249   5.856
 7631SOL    HW223793   1.374   0.196   5.872
 7632SOL     OW23794   5.309   5.345   0.305
 7632SOL    HW123795   5.375   5.367   0.377
 7632SOL    HW223796   5.276   5.251   0.319
 7633SOL     OW23797   6.598   1.374   1.328
 7633SOL    HW123798   6.693   1.364   1.301
 7633SOL    HW223799   6.593   1.409   1.421
 7634SOL     OW23800   6.951   2.197   0.413
 7634SOL    HW123801   6.851   2.189   0.404
 7634SOL    HW223802   6.973   2.287   0.451
 7635SOL     OW23803   2.296   4.117   5.742
 7635SOL    HW123804   2.317   4.036   5.797
 7635SOL    HW223805   2.379   4.174   5.735
 7636SOL     OW23806   0.357   3.798   4.231
 7636SOL    HW123807   0.320   3.891   4.238
 7636SOL    HW223808   0.394   3.784   4.139
 7637SOL     OW23809   0.144   6.653   4.821
 7637SOL    HW123810   0.092   6.689   4.744
 7637SOL    HW223811   0.181   6.563   4.797
 7638SOL     OW23812   0.443   6.295   1.588
 7638SOL    HW123813   0.435   6.210   1.535
 7638SOL    HW223814   0.539   6.312   1.611
 7639SOL     OW23815   1.738   0.610   6.913
 7639SOL    HW123816   1.793   0.600   6.996
 7639SOL    HW223817   1.792   0.657   6.843
 7640SOL     OW23818   3.238   0.878   0.512
 7640SOL    HW123819   3.331   0.859   0.543
 7640SOL    HW223820   3.179   0.801   0.535
 7641SOL     OW23821   0.184   4.264   3.469
 7641SOL    HW123822   0.283   4.267   3.479
 7641SOL    HW223823   0.154   4.170   3.454
 7642SOL     OW23824   5.919   0.968   3.302
 7642SOL    HW123825   5.838   0.925   3.341
 7642SOL    HW223826   6.001   0.925   3.341
 7643SOL     OW23827   5.577   4.144   2.987
 7643SOL    HW123828   5.561   4.212   3.058
 7643SOL    HW223829   5.515   4.066   3.001
 7644SOL     OW23830   5.550   3.465   1.226
 7644SOL    HW123831   5.556   3.422   1.136
 7644SOL    HW223832   5.569   3.397   1.297
 7645SOL     OW23833   3.366   4.821   6.114
 7645SOL    HW123834   3.285   4.783   6.069
 7645SOL    HW223835   3.340   4.853   6.205
 7646SOL     OW23836   0.227   2.129   1.456
 7646SOL    HW123837   0.260   2.145   1.549
 7646SOL    HW223838   0.158   2.197   1.433
 7647SOL     OW23839   6.655   2.665   5.113
 7647SOL    HW123840   6.672   2.764   5.111
 7647SOL    HW223841   6.557   2.648   5.099
 7648SOL     OW23842   2.868   1.687   1.677
 7648SOL    HW123843   2.819   1.773   1.691
 7648SOL    HW223844   2.956   1.690   1.726
 7649SOL     OW23845   4.877   1.280   5.625
 7649SOL    HW123846   4.860   1.182   5.615
 7649SOL    HW223847   4.897   1.300   5.721
 7650SOL     OW23848   3.893   1.819   0.638
 7650SOL    HW123849   3.863   1.724   0.633
 7650SOL    HW223850   3.866   1.868   0.555
 7651SOL     OW23851   2.903   4.696   5.921
 7651SOL    HW123852   2.964   4.756   5.869
 7651SOL    HW223853   2.813   4.694   5.875
 7652SOL     OW23854   0.315   1.102   4.089
 7652SOL    HW123855   0.290   1.010   4.060
 7652SOL    HW223856   0.378   1.142   4.023
 7653SOL     OW23857   0.836   1.314   6.445
 7653SOL    HW123858   0.928   1.354   6.447
 7653SOL    HW223859   0.822   1.258   6.526
 7654SOL     OW23860   5.399   2.066   6.561
 7654SOL    HW123861   5.413   2.018   6.648
 7654SOL    HW223862   5.328   2.019   6.508
 7655SOL     OW23863   2.865   1.498   2.812
 7655SOL    HW123864   2.864   1.463   2.719
 7655SOL    HW223865   2.914   1.435   2.872
 7656SOL     OW23866   6.923   3.228   6.447
 7656SOL    HW123867   6.858   3.192   6.380
 7656SOL    HW223868   6.886   3.215   6.539
 7657SOL     OW23869   1.209   4.024   4.389
 7657SOL    HW123870   1.146   3.946   4.382
 7657SOL    HW223871   1.187   4.077   4.472
 7658SOL     OW23872   2.244   1.400   0.911
 7658SOL    HW123873   2.245   1.425   1.008
 7658SOL    HW223874   2.258   1.483   0.856
 7659SOL     OW23875   4.445   3.944   5.638
 7659SOL    HW123876   4.370   3.931   5.573
 7659SOL    HW223877   4.500   4.023   5.611
 7660SOL     OW23878   0.530   5.408   4.784
 7660SOL    HW123879   0.608   5.382   4.841
 7660SOL    HW223880   0.481   5.484   4.827
 7661SOL     OW23881   4.872   2.295   5.407
 7661SOL    HW123882   4.898   2.246   5.491
 7661SOL    HW223883   4.774   2.284   5.391
 7662SOL     OW23884   7.014   1.011   1.122
 7662SOL    HW123885   0.052   1.033   1.197
 7662SOL    HW223886   0.042   0.968   1.048
 7663SOL     OW23887   6.815   5.591   5.570
 7663SOL    HW123888   6.830   5.647   5.488
 7663SOL    HW223889   6.722   5.606   5.604
 7664SOL     OW23890   4.274   1.941   2.376
 7664SOL    HW123891   4.373   1.945   2.365
 7664SOL    HW223892   4.250   1.950   2.472
 7665SOL     OW23893   4.479   0.762   4.967
 7665SOL    HW123894   4.491   0.783   5.064
 7665SOL    HW223895   4.383   0.739   4.950
 7666SOL     OW23896   5.429   4.221   4.212
 7666SOL    HW123897   5.510   4.273   4.240
 7666SOL    HW223898   5.387   4.266   4.133
 7667SOL     OW23899   4.426   5.787   1.135
 7667SOL    HW123900   4.373   5.849   1.077
 7667SOL    HW223901   4.397   5.799   1.231
 7668SOL     OW23902   1.987   5.984   0.495
 7668SOL    HW123903   2.027   5.908   0.547
 7668SOL    HW223904   1.928   6.038   0.554
 7669SOL     OW23905   2.599   0.457   5.679
 7669SOL    HW123906   2.668   0.522   5.648
 7669SOL    HW223907   2.621   0.427   5.772
 7670SOL     OW23908   0.791   6.459   0.175
 7670SOL    HW123909   0.795   6.448   0.076
 7670SOL    HW223910   0.749   6.547   0.198
 7671SOL     OW23911   3.929   6.741   1.088
 7671SOL    HW123912   3.917   6.689   1.004
 7671SOL    HW223913   3.999   6.697   1.145
 7672SOL     OW23914   4.651   4.924   2.961
 7672SOL    HW123915   4.602   4.985   2.899
 7672SOL    HW223916   4.604   4.836   2.966
 7673SOL     OW23917   1.392   5.840   4.813
 7673SOL    HW123918   1.464   5.867   4.749
 7673SOL    HW223919   1.412   5.748   4.847
 7674SOL     OW23920   4.155   5.985   4.179
 7674SOL    HW123921   4.158   6.046   4.258
 7674SOL    HW223922   4.239   5.930   4.176
 7675SOL     OW23923   4.911   6.607   3.408
 7675SOL    HW123924   4.848   6.546   3.457
 7675SOL    HW223925   5.001   6.564   3.403
 7676SOL     OW23926   3.373   2.595   5.289
 7676SOL    HW123927   3.311   2.540   5.233
 7676SOL    HW223928   3.395   2.680   5.241
 7677SOL     OW23929   5.410   4.540   0.697
 7677SOL    HW123930   5.500   4.547   0.739
 7677SOL    HW223931   5.392   4.623   0.644
 7678SOL     OW23932   1.608   0.694   5.143
 7678SOL    HW123933   1.570   0.703   5.051
 7678SOL    HW223934   1.567   0.615   5.189
 7679SOL     OW23935   2.487   5.638   5.342
 7679SOL    HW123936   2.417   5.583   5.388
 7679SOL    HW223937   2.576   5.595   5.353
 7680SOL     OW23938   2.126   0.024   5.237
 7680SOL    HW123939   2.052   6.993   5.276
 7680SOL    HW223940   2.159   7.003   5.153
 7681SOL     OW23941   2.967   3.335   6.454
 7681SOL    HW123942   3.051   3.389   6.450
 7681SOL    HW223943   2.891   3.395   6.482
 7682SOL     OW23944   2.702   1.207   2.279
 7682SOL    HW123945   2.761   1.208   2.359
 7682SOL    HW223946   2.686   1.301   2.248
 7683SOL     OW23947   0.904   0.166   4.552
 7683SOL    HW123948   0.944   0.084   4.594
 7683SOL    HW223949   0.835   0.139   4.486
 7684SOL     OW23950   4.277   2.456   1.313
 7684SOL    HW123951   4.234   2.368   1.332
 7684SOL    HW223952   4.350   2.473   1.379
 7685SOL     OW23953   2.624   0.425   0.388
 7685SOL    HW123954   2.525   0.428   0.405
 7685SOL    HW223955   2.662   0.516   0.400
 7686SOL     OW23956   6.059   0.167   4.707
 7686SOL    HW123957   6.062   0.219   4.622
 7686SOL    HW223958   5.966   0.168   4.744
 7687SOL     OW23959   5.983   4.741   4.999
 7687SOL    HW123960   6.010   4.647   4.976
 7687SOL    HW223961   5.932   4.780   4.923
 7688SOL     OW23962   0.206   4.557   6.338
 7688SOL    HW123963   0.236   4.502   6.416
 7688SOL    HW223964   0.157   4.637   6.372
 7689SOL     OW23965   4.634   0.007   1.643
 7689SOL    HW123966   4.581   0.083   1.680
 7689SOL    HW223967   4.573   6.969   1.594
 7690SOL     OW23968   5.993   5.347   1.298
 7690SOL    HW123969   5.921   5.360   1.230
 7690SOL    HW223970   6.015   5.435   1.340
 7691SOL     OW23971   4.388   4.593   3.163
 7691SOL    HW123972   4.309   4.605   3.103
 7691SOL    HW223973   4.472   4.596   3.109
 7692SOL     OW23974   2.311   6.932   2.351
 7692SOL    HW123975   2.369   7.012   2.363
 7692SOL    HW223976   2.249   6.924   2.430
 7693SOL     OW23977   1.821   1.699   0.807
 7693SOL    HW123978   1.737   1.701   0.753
 7693SOL    HW223979   1.853   1.793   0.823
 7694SOL     OW23980   5.602   1.562   5.350
 7694SOL    HW123981   5.672   1.610   5.403
 7694SOL    HW223982   5.536   1.520   5.412
 7695SOL     OW23983   4.457   0.139   3.753
 7695SOL    HW123984   4.503   0.225   3.730
 7695SOL    HW223985   4.366   0.159   3.789
 7696SOL     OW23986   1.196   2.612   6.253
 7696SOL    HW123987   1.105   2.628   6.216
 7696SOL    HW223988   1.218   2.684   6.319
 7697SOL     OW23989   4.687   6.977   2.865
 7697SOL    HW123990   4.689   0.042   2.820
 7697SOL    HW223991   4.591   6.949   2.878
 7698SOL     OW23992   6.577   2.506   0.804
 7698SOL    HW123993   6.578   2.605   0.820
 7698SOL    HW223994   6.482   2.474   0.798
 7699SOL     OW23995   4.400   5.753   6.061
 7699SOL    HW123996   4.482   5.758   6.118
 7699SOL    HW223997   4.325   5.800   6.106
 7700SOL     OW23998   5.389   5.919   2.719
 7700SOL    HW123999   5.329   5.845   2.751
 7700SOL    HW224000   5.482   5.903   2.752
 7701SOL     OW24001   0.744   2.144   6.373
 7701SOL    HW124002   0.747   2.225   6.432
 7701SOL    HW224003   0.700   2.167   6.287
 7702SOL     OW24004   4.416   0.266   4.482
 7702SOL    HW124005   4.490   0.199   4.491
 7702SOL    HW224006   4.349   0.251   4.555
 7703SOL     OW24007   6.151   6.657   4.982
 7703SOL    HW124008   6.122   6.750   5.003
 7703SOL    HW224009   6.071   6.599   4.969
 7704SOL     OW24010   6.995   1.628   4.513
 7704SOL    HW124011   6.966   1.648   4.607
 7704SOL    HW224012   0.063   1.590   4.514
 7705SOL     OW24013   0.965   5.000   6.909
 7705SOL    HW124014   0.938   5.009   7.005
 7705SOL    HW224015   1.051   4.949   6.904
 7706SOL     OW24016   3.843   3.045   2.412
 7706SOL    HW124017   3.832   2.973   2.344
 7706SOL    HW224018   3.755   3.064   2.456
 7707SOL     OW24019   6.437   4.357   6.250
 7707SOL    HW124020   6.382   4.307   6.183
 7707SOL    HW224021   6.420   4.455   6.242
 7708SOL     OW24022   2.694   0.096   4.525
 7708SOL    HW124023   2.775   0.138   4.486
 7708SOL    HW224024   2.666   0.019   4.468
 7709SOL     OW24025   0.049   4.987   1.337
 7709SOL    HW124026   0.006   4.918   1.395
 7709SOL    HW224027   0.129   4.948   1.292
 7710SOL     OW24028   0.060   3.285   0.968
 7710SOL    HW124029   0.028   3.306   1.061
 7710SOL    HW224030   7.007   3.292   0.904
 7711SOL     OW24031   0.314   4.441   5.218
 7711SOL    HW124032   0.364   4.484   5.143
 7711SOL    HW224033   0.236   4.390   5.181
 7712SOL     OW24034   0.099   5.042   5.506
 7712SOL    HW124035   0.098   4.998   5.596
 7712SOL    HW224036   0.114   5.140   5.517
 7713SOL     OW24037   1.870   4.658   0.003
 7713SOL    HW124038   1.954   4.679   6.977
 7713SOL    HW224039   1.835   4.569   6.996
 7714SOL     OW24040   5.860   0.917   5.403
 7714SOL    HW124041   5.920   0.994   5.381
 7714SOL    HW224042   5.831   0.923   5.499
 7715SOL     OW24043   3.358   3.190   5.878
 7715SOL    HW124044   3.295   3.168   5.953
 7715SOL    HW224045   3.452   3.178   5.909
 7716SOL     OW24046   1.360   5.944   5.845
 7716SOL    HW124047   1.302   5.873   5.883
 7716SOL    HW224048   1.315   5.986   5.766
 7717SOL     OW24049   0.622   1.610   6.783
 7717SOL    HW124050   0.694   1.679   6.779
 7717SOL    HW224051   0.615   1.563   6.695
 7718SOL     OW24052   1.228   3.806   2.994
 7718SOL    HW124053   1.129   3.812   3.007
 7718SOL    HW224054   1.258   3.714   3.020
 7719SOL     OW24055   2.282   4.355   4.582
 7719SOL    HW124056   2.259   4.449   4.553
 7719SOL    HW224057   2.268   4.346   4.680
 7720SOL     OW24058   5.110   1.197   0.128
 7720SOL    HW124059   5.185   1.185   0.193
 7720SOL    HW224060   5.033   1.242   0.173
 7721SOL     OW24061   0.547   0.899   2.522
 7721SOL    HW124062   0.604   0.865   2.597
 7721SOL    HW224063   0.604   0.922   2.444
 7722SOL     OW24064   1.393   6.402   3.726
 7722SOL    HW124065   1.463   6.467   3.757
 7722SOL    HW224066   1.395   6.321   3.785
 7723SOL     OW24067   4.941   3.907   0.344
 7723SOL    HW124068   4.987   3.833   0.393
 7723SOL    HW224069   4.877   3.868   0.277
 7724SOL     OW24070   1.976   3.867   1.442
 7724SOL    HW124071   1.976   3.960   1.477
 7724SOL    HW224072   1.949   3.804   1.515
 7725SOL     OW24073   5.339   3.171   3.255
 7725SOL    HW124074   5.429   3.132   3.274
 7725SOL    HW224075   5.277   3.151   3.332
 7726SOL     OW24076   0.838   3.204   6.256
 7726SOL    HW124077   0.838   3.279   6.323
 7726SOL    HW224078   0.762   3.142   6.275
 7727SOL     OW24079   4.611   0.980   2.302
 7727SOL    HW124080   4.556   0.896   2.296
 7727SOL    HW224081   4.674   0.984   2.225
 7728SOL     OW24082   2.121   3.424   4.493
 7728SOL    HW124083   2.130   3.507   4.547
 7728SOL    HW224084   2.158   3.347   4.545
 7729SOL     OW24085   6.895   2.103   3.990
 7729SOL    HW124086   6.940   2.105   3.901
 7729SOL    HW224087   6.952   2.151   4.057
 7730SOL     OW24088   6.024   3.964   5.152
 7730SOL    HW124089   5.934   3.938   5.117
 7730SOL    HW224090   6.020   3.973   5.251
 7731SOL     OW24091   6.790   6.792   6.895
 7731SOL    HW124092   6.691   6.790   6.884
 7731SOL    HW224093   6.834   6.775   6.806
 7732SOL     OW24094   4.061   0.325   6.659
 7732SOL    HW124095   3.976   0.377   6.652
 7732SOL    HW224096   4.114   0.358   6.738
 7733SOL     OW24097   6.207   5.955   2.091
 7733SOL    HW124098   6.166   6.021   2.028
 7733SOL    HW224099   6.295   5.991   2.124
 7734SOL     OW24100   3.007   3.855   4.784
 7734SOL    HW124101   3.040   3.938   4.740
 7734SOL    HW224102   3.055   3.776   4.746
 7735SOL     OW24103   6.796   5.969   0.249
 7735SOL    HW124104   6.717   5.930   0.297
 7735SOL    HW224105   6.879   5.925   0.281
 7736SOL     OW24106   2.370   2.665   0.247
 7736SOL    HW124107   2.358   2.738   0.315
 7736SOL    HW224108   2.305   2.679   0.172
 7737SOL     OW24109   3.958   5.151   1.010
 7737SOL    HW124110   4.054   5.174   1.028
 7737SOL    HW224111   3.924   5.208   0.936
 7738SOL     OW24112   2.095   0.331   5.692
 7738SOL    HW124113   2.175   0.292   5.739
 7738SOL    HW224114   2.123   0.367   5.603
 7739SOL     OW24115   1.316   2.046   0.653
 7739SOL    HW124116   1.395   2.086   0.607
 7739SOL    HW224117   1.232   2.075   0.605
 7740SOL     OW24118   1.658   1.002   4.858
 7740SOL    HW124119   1.713   1.008   4.941
 7740SOL    HW224120   1.593   1.077   4.856
 7741SOL     OW24121   1.500   4.678   6.252
 7741SOL    HW124122   1.455   4.699   6.166
 7741SOL    HW224123   1.571   4.609   6.237
 7742SOL     OW24124   3.865   1.767   4.111
 7742SOL    HW124125   3.813   1.795   4.030
 7742SOL    HW224126   3.958   1.804   4.105
 7743SOL     OW24127   5.167   1.957   5.679
 7743SOL    HW124128   5.264   1.954   5.655
 7743SOL    HW224129   5.111   1.937   5.598
 7744SOL     OW24130   0.546   6.268   5.208
 7744SOL    HW124131   0.512   6.304   5.121
 7744SOL    HW224132   0.474   6.278   5.278
 7745SOL     OW24133   2.233   0.116   0.968
 7745SOL    HW124134   2.305   0.174   1.006
 7745SOL    HW224135   2.158   0.107   1.033
 7746SOL     OW24136   1.008   5.883   1.169
 7746SOL    HW124137   0.966   5.911   1.082
 7746SOL    HW224138   1.108   5.886   1.159
 7747SOL     OW24139   1.021   6.195   0.033
 7747SOL    HW124140   1.021   6.097   0.016
 7747SOL    HW224141   1.002   6.212   0.130
 7748SOL     OW24142   4.530   2.058   5.725
 7748SOL    HW124143   4.611   2.115   5.745
 7748SOL    HW224144   4.454   2.118   5.700
 7749SOL     OW24145   3.995   3.999   4.300
 7749SOL    HW124146   3.965   3.914   4.343
 7749SOL    HW224147   4.073   4.036   4.350
 7750SOL     OW24148   5.628   4.413   5.314
 7750SOL    HW124149   5.691   4.359   5.258
 7750SOL    HW224150   5.554   4.355   5.347
 7751SOL     OW24151   6.801   1.186   5.252
 7751SOL    HW124152   6.886   1.149   5.289
 7751SOL    HW224153   6.778   1.138   5.167
 7752SOL     OW24154   6.576   5.698   5.642
 7752SOL    HW124155   6.525   5.624   5.686
 7752SOL    HW224156   6.564   5.782   5.695
 7753SOL     OW24157   2.410   1.122   4.767
 7753SOL    HW124158   2.344   1.155   4.835
 7753SOL    HW224159   2.377   1.036   4.727
 7754SOL     OW24160   5.684   0.641   1.620
 7754SOL    HW124161   5.627   0.703   1.565
 7754SOL    HW224162   5.630   0.562   1.648
 7755SOL     OW24163   1.019   5.838   5.806
 7755SOL    HW124164   0.982   5.913   5.751
 7755SOL    HW224165   1.043   5.761   5.747
 7756SOL     OW24166   4.036   5.593   2.210
 7756SOL    HW124167   3.959   5.558   2.263
 7756SOL    HW224168   4.007   5.675   2.161
 7757SOL     OW24169   4.646   6.545   5.734
 7757SOL    HW124170   4.696   6.474   5.783
 7757SOL    HW224171   4.591   6.597   5.799
 7758SOL     OW24172   2.543   2.260   5.268
 7758SOL    HW124173   2.466   2.243   5.206
 7758SOL    HW224174   2.525   2.342   5.322
 7759SOL     OW24175   1.983   0.874   4.736
 7759SOL    HW124176   1.978   0.785   4.782
 7759SOL    HW224177   2.079   0.895   4.716
 7760SOL     OW24178   4.792   3.031   2.274
 7760SOL    HW124179   4.764   2.968   2.202
 7760SOL    HW224180   4.713   3.051   2.333
 7761SOL     OW24181   3.407   0.008   6.587
 7761SOL    HW124182   3.464   0.034   6.666
 7761SOL    HW224183   3.312   0.033   6.605
 7762SOL     OW24184   3.508   1.674   0.540
 7762SOL    HW124185   3.560   1.594   0.571
 7762SOL    HW224186   3.542   1.756   0.585
 7763SOL     OW24187   1.515   2.117   0.458
 7763SOL    HW124188   1.576   2.194   0.440
 7763SOL    HW224189   1.569   2.033   0.465
 7764SOL     OW24190   3.425   2.891   2.694
 7764SOL    HW124191   3.330   2.920   2.680
 7764SOL    HW224192   3.447   2.817   2.632
 7765SOL     OW24193   6.583   2.053   2.846
 7765SOL    HW124194   6.521   2.119   2.804
 7765SOL    HW224195   6.667   2.099   2.874
 7766SOL     OW24196   0.016   2.850   6.510
 7766SOL    HW124197   0.107   2.834   6.474
 7766SOL    HW224198   7.000   2.764   6.541
 7767SOL     OW24199   5.031   5.445   4.609
 7767SOL    HW124200   5.097   5.377   4.641
 7767SOL    HW224201   5.066   5.537   4.628
 7768SOL     OW24202   3.784   4.917   2.380
 7768SOL    HW124203   3.733   4.877   2.303
 7768SOL    HW224204   3.732   4.905   2.464
 7769SOL     OW24205   5.466   2.224   1.628
 7769SOL    HW124206   5.405   2.252   1.702
 7769SOL    HW224207   5.509   2.304   1.587
 7770SOL     OW24208   3.538   5.099   1.047
 7770SOL    HW124209   3.626   5.119   1.089
 7770SOL    HW224210   3.476   5.062   1.117
 7771SOL     OW24211   2.338   1.809   5.462
 7771SOL    HW124212   2.365   1.714   5.446
 7771SOL    HW224213   2.240   1.814   5.481
 7772SOL     OW24214   4.997   1.560   4.703
 7772SOL    HW124215   5.051   1.484   4.668
 7772SOL    HW224216   5.044   1.601   4.782
 7773SOL     OW24217   4.273   4.303   6.039
 7773SOL    HW124218   4.231   4.393   6.037
 7773SOL    HW224219   4.204   4.233   6.021
 7774SOL     OW24220   5.156   1.479   6.499
 7774SOL    HW124221   5.100   1.459   6.418
 7774SOL    HW224222   5.165   1.578   6.511
 7775SOL     OW24223   3.082   6.335   2.384
 7775SOL    HW124224   3.084   6.305   2.480
 7775SOL    HW224225   3.022   6.414   2.375
 7776SOL     OW24226   3.741   3.820   6.749
 7776SOL    HW124227   3.710   3.819   6.844
 7776SOL    HW224228   3.693   3.892   6.699
 7777SOL     OW24229   2.345   1.498   6.867
 7777SOL    HW124230   2.286   1.563   6.819
 7777SOL    HW224231   2.291   1.417   6.892
 7778SOL     OW24232   5.648   0.864   0.074
 7778SOL    HW124233   5.554   0.872   0.108
 7778SOL    HW224234   5.653   0.791   0.006
 7779SOL     OW24235   3.873   3.380   0.211
 7779SOL    HW124236   3.866   3.315   0.287
 7779SOL    HW224237   3.860   3.332   0.124
 7780SOL     OW24238   2.017   6.412   4.734
 7780SOL    HW124239   2.020   6.332   4.674
 7780SOL    HW224240   1.923   6.430   4.761
 7781SOL     OW24241   1.349   4.550   4.687
 7781SOL    HW124242   1.434   4.504   4.709
 7781SOL    HW224243   1.301   4.500   4.615
 7782SOL     OW24244   3.090   4.678   6.645
 7782SOL    HW124245   3.073   4.696   6.548
 7782SOL    HW224246   3.003   4.671   6.693
 7783SOL     OW24247   2.875   5.156   6.303
 7783SOL    HW124248   2.917   5.084   6.358
 7783SOL    HW224249   2.788   5.183   6.344
 7784SOL     OW24250   0.405   2.889   0.053
 7784SOL    HW124251   0.328   2.922   0.109
 7784SOL    HW224252   0.477   2.855   0.113
 7785SOL     OW24253   2.381   5.910   4.109
 7785SOL    HW124254   2.295   5.863   4.088
 7785SOL    HW224255   2.422   5.945   4.025
 7786SOL     OW24256   3.046   4.320   5.304
 7786SOL    HW124257   3.080   4.247   5.245
 7786SOL    HW224258   2.989   4.383   5.251
 7787SOL     OW24259   2.587   2.541   5.125
 7787SOL    HW124260   2.574   2.620   5.185
 7787SOL    HW224261   2.500   2.492   5.114
 7788SOL     OW24262   1.264   1.677   0.243
 7788SOL    HW124263   1.316   1.760   0.222
 7788SOL    HW224264   1.324   1.611   0.287
 7789SOL     OW24265   1.981   0.684   1.135
 7789SOL    HW124266   1.993   0.728   1.046
 7789SOL    HW224267   2.014   0.745   1.207
 7790SOL     OW24268   5.227   3.140   2.538
 7790SOL    HW124269   5.218   3.198   2.457
 7790SOL    HW224270   5.274   3.056   2.513
 7791SOL     OW24271   1.790   4.837   5.196
 7791SOL    HW124272   1.838   4.761   5.151
 7791SOL    HW224273   1.724   4.799   5.262
 7792SOL     OW24274   2.407   5.411   6.214
 7792SOL    HW124275   2.435   5.319   6.242
 7792SOL    HW224276   2.418   5.420   6.115
 7793SOL     OW24277   1.160   1.113   6.334
 7793SOL    HW124278   1.114   1.034   6.376
 7793SOL    HW224279   1.229   1.148   6.397
 7794SOL     OW24280   5.174   5.701   4.097
 7794SOL    HW124281   5.123   5.729   4.178
 7794SOL    HW224282   5.121   5.722   4.015
 7795SOL     OW24283   2.465   4.375   5.192
 7795SOL    HW124284   2.556   4.400   5.226
 7795SOL    HW224285   2.433   4.293   5.240
 7796SOL     OW24286   3.718   3.985   3.678
 7796SOL    HW124287   3.644   4.033   3.725
 7796SOL    HW224288   3.716   3.888   3.703
 7797SOL     OW24289   0.265   0.215   3.045
 7797SOL    HW124290   0.322   0.284   3.088
 7797SOL    HW224291   0.201   0.258   2.982
 7798SOL     OW24292   3.718   5.236   0.212
 7798SOL    HW124293   3.692   5.139   0.217
 7798SOL    HW224294   3.706   5.278   0.302
 7799SOL     OW24295   0.108   5.321   1.735
 7799SOL    HW124296   0.139   5.262   1.809
 7799SOL    HW224297   0.084   5.264   1.656
 7800SOL     OW24298   1.050   5.653   2.264
 7800SOL    HW124299   0.995   5.595   2.324
 7800SOL    HW224300   1.010   5.745   2.261
 7801SOL     OW24301   3.492   2.257   6.952
 7801SOL    HW124302   3.431   2.221   6.881
 7801SOL    HW224303   3.439   2.312   7.017
 7802SOL     OW24304   5.723   2.092   1.986
 7802SOL    HW124305   5.658   2.166   1.967
 7802SOL    HW224306   5.705   2.015   1.925
 7803SOL     OW24307   4.118   4.263   5.314
 7803SOL    HW124308   4.086   4.296   5.403
 7803SOL    HW224309   4.165   4.337   5.266
 7804SOL     OW24310   4.939   1.959   5.841
 7804SOL    HW124311   5.031   1.950   5.803
 7804SOL    HW224312   4.897   2.043   5.806
 7805SOL     OW24313   5.169   3.312   2.130
 7805SOL    HW124314   5.166   3.408   2.102
 7805SOL    HW224315   5.078   3.283   2.161
 7806SOL     OW24316   5.401   2.712   6.066
 7806SOL    HW124317   5.333   2.668   6.007
 7806SOL    HW224318   5.492   2.684   6.037
 7807SOL     OW24319   0.326   4.376   6.518
 7807SOL    HW124320   0.411   4.331   6.491
 7807SOL    HW224321   0.336   4.412   6.611
 7808SOL     OW24322   0.520   1.700   4.849
 7808SOL    HW124323   0.596   1.652   4.806
 7808SOL    HW224324   0.496   1.654   4.935
 7809SOL     OW24325   2.452   5.471   4.733
 7809SOL    HW124326   2.368   5.480   4.680
 7809SOL    HW224327   2.450   5.386   4.785
 7810SOL     OW24328   2.796   1.092   6.489
 7810SOL    HW124329   2.758   1.020   6.431
 7810SOL    HW224330   2.746   1.095   6.576
 7811SOL     OW24331   6.219   4.498   4.004
 7811SOL    HW124332   6.289   4.532   3.942
 7811SOL    HW224333   6.151   4.569   4.021
 7812SOL     OW24334   1.492   1.845   3.400
 7812SOL    HW124335   1.558   1.882   3.334
 7812SOL    HW224336   1.463   1.918   3.462
 7813SOL     OW24337   6.862   3.172   0.053
 7813SOL    HW124338   6.900   3.093   0.003
 7813SOL    HW224339   6.931   3.209   0.115
 7814SOL     OW24340   0.711   3.350   2.748
 7814SOL    HW124341   0.728   3.253   2.730
 7814SOL    HW224342   0.664   3.361   2.835
 7815SOL     OW24343   6.525   1.929   6.108
 7815SOL    HW124344   6.484   1.839   6.116
 7815SOL    HW224345   6.620   1.921   6.077
 7816SOL     OW24346   1.357   3.812   4.734
 7816SOL    HW124347   1.404   3.776   4.654
 7816SOL    HW224348   1.425   3.840   4.802
 7817SOL     OW24349   5.469   3.824   4.624
 7817SOL    HW124350   5.380   3.780   4.633
 7817SOL    HW224351   5.459   3.923   4.634
 7818SOL     OW24352   5.153   6.106   1.862
 7818SOL    HW124353   5.113   6.138   1.948
 7818SOL    HW224354   5.236   6.053   1.882
 7819SOL     OW24355   6.766   1.736   1.502
 7819SOL    HW124356   6.669   1.711   1.495
 7819SOL    HW224357   6.786   1.808   1.436
 7820SOL     OW24358   1.472   0.729   6.954
 7820SOL    HW124359   1.443   0.778   6.871
 7820SOL    HW224360   1.564   0.693   6.940
 7821SOL     OW24361   3.169   5.328   2.039
 7821SOL    HW124362   3.159   5.424   2.012
 7821SOL    HW224363   3.097   5.305   2.105
 7822SOL     OW24364   1.646   6.014   5.040
 7822SOL    HW124365   1.724   6.072   5.064
 7822SOL    HW224366   1.627   5.952   5.117
 7823SOL     OW24367   1.621   4.438   4.729
 7823SOL    HW124368   1.631   4.467   4.825
 7823SOL    HW224369   1.708   4.401   4.697
 7824SOL     OW24370   0.338   2.692   5.949
 7824SOL    HW124371   0.403   2.756   5.991
 7824SOL    HW224372   0.300   2.733   5.866
 7825SOL     OW24373   3.102   1.454   6.260
 7825SOL    HW124374   3.014   1.496   6.280
 7825SOL    HW224375   3.121   1.382   6.327
 7826SOL     OW24376   0.291   3.006   6.828
 7826SOL    HW124377   0.313   2.951   6.909
 7826SOL    HW224378   0.364   3.073   6.813
 7827SOL     OW24379   6.974   6.753   4.589
 7827SOL    HW124380   6.923   6.672   4.559
 7827SOL    HW224381   6.940   6.783   4.678
 7828SOL     OW24382   0.403   4.502   6.776
 7828SOL    HW124383   0.490   4.474   6.735
 7828SOL    HW224384   0.410   4.497   6.876
 7829SOL     OW24385   4.125   2.780   0.705
 7829SOL    HW124386   4.063   2.848   0.665
 7829SOL    HW224387   4.202   2.827   0.747
 7830SOL     OW24388   2.804   4.776   4.523
 7830SOL    HW124389   2.719   4.735   4.554
 7830SOL    HW224390   2.804   4.782   4.423
 7831SOL     OW24391   1.667   1.376   0.465
 7831SOL    HW124392   1.749   1.433   0.460
 7831SOL    HW224393   1.654   1.328   0.378
 7832SOL     OW24394   6.308   0.750   4.485
 7832SOL    HW124395   6.352   0.839   4.497
 7832SOL    HW224396   6.339   0.688   4.557
 7833SOL     OW24397   2.093   0.710   4.447
 7833SOL    HW124398   2.043   0.773   4.388
 7833SOL    HW224399   2.040   0.626   4.458
 7834SOL     OW24400   5.978   3.067   4.812
 7834SOL    HW124401   6.077   3.083   4.814
 7834SOL    HW224402   5.958   2.979   4.856
 7835SOL     OW24403   4.241   2.346   5.358
 7835SOL    HW124404   4.189   2.406   5.297
 7835SOL    HW224405   4.312   2.299   5.305
 7836SOL     OW24406   3.592   3.893   4.918
 7836SOL    HW124407   3.620   3.824   4.984
 7836SOL    HW224408   3.542   3.966   4.965
 7837SOL     OW24409   6.591   5.666   6.722
 7837SOL    HW124410   6.678   5.619   6.737
 7837SOL    HW224411   6.547   5.629   6.639
 7838SOL     OW24412   4.920   5.192   1.411
 7838SOL    HW124413   4.930   5.107   1.360
 7838SOL    HW224414   4.984   5.260   1.375
 7839SOL     OW24415   5.771   3.242   4.384
 7839SOL    HW124416   5.697   3.215   4.322
 7839SOL    HW224417   5.757   3.200   4.474
 7840SOL     OW24418   1.889   3.140   4.008
 7840SOL    HW124419   1.831   3.060   4.022
 7840SOL    HW224420   1.868   3.209   4.077
 7841SOL     OW24421   5.139   2.361   5.995
 7841SOL    HW124422   5.107   2.309   5.916
 7841SOL    HW224423   5.222   2.319   6.032
 7842SOL     OW24424   1.524   0.830   2.070
 7842SOL    HW124425   1.597   0.878   2.117
 7842SOL    HW224426   1.437   0.845   2.118
 7843SOL     OW24427   0.003   6.680   3.443
 7843SOL    HW124428   6.969   6.751   3.403
 7843SOL    HW224429   0.008   6.602   3.381
 7844SOL     OW24430   3.401   1.430   2.830
 7844SOL    HW124431   3.365   1.466   2.916
 7844SOL    HW224432   3.417   1.332   2.840
 7845SOL     OW24433   6.344   3.312   1.207
 7845SOL    HW124434   6.366   3.300   1.304
 7845SOL    HW224435   6.379   3.400   1.175
 7846SOL     OW24436   0.606   2.290   0.046
 7846SOL    HW124437   0.534   2.226   0.074
 7846SOL    HW224438   0.688   2.239   0.022
 7847SOL     OW24439   5.521   3.104   4.878
 7847SOL    HW124440   5.562   3.053   4.954
 7847SOL    HW224441   5.512   3.200   4.904
 7848SOL     OW24442   3.304   4.508   0.828
 7848SOL    HW124443   3.316   4.458   0.914
 7848SOL    HW224444   3.223   4.474   0.781
 7849SOL     OW24445   4.791   4.373   6.816
 7849SOL    HW124446   4.781   4.275   6.830
 7849SOL    HW224447   4.701   4.416   6.816
 7850SOL     OW24448   0.199   0.919   3.889
 7850SOL    HW124449   0.141   0.847   3.925
 7850SOL    HW224450   0.144   1.002   3.876
 7851SOL     OW24451   0.330   4.096   2.074
 7851SOL    HW124452   0.399   4.166   2.055
 7851SOL    HW224453   0.365   4.006   2.047
 7852SOL     OW24454   1.129   2.461   6.532
 7852SOL    HW124455   1.097   2.433   6.442
 7852SOL    HW224456   1.068   2.530   6.570
 7853SOL     OW24457   4.089   2.944   1.744
 7853SOL    HW124458   4.016   2.933   1.812
 7853SOL    HW224459   4.145   3.023   1.768
 7854SOL     OW24460   4.793   2.889   6.399
 7854SOL    HW124461   4.818   2.797   6.369
 7854SOL    HW224462   4.750   2.884   6.489
 7855SOL     OW24463   4.903   0.160   4.691
 7855SOL    HW124464   5.003   0.155   4.685
 7855SOL    HW224465   4.876   0.254   4.713
 7856SOL     OW24466   2.227   6.389   4.914
 7856SOL    HW124467   2.192   6.339   4.994
 7856SOL    HW224468   2.153   6.402   4.848
 7857SOL     OW24469   5.973   4.473   1.238
 7857SOL    HW124470   5.914   4.397   1.210
 7857SOL    HW224471   6.063   4.438   1.264
 7858SOL     OW24472   0.534   4.504   5.897
 7858SOL    HW124473   0.592   4.519   5.817
 7858SOL    HW224474   0.448   4.555   5.886
 7859SOL     OW24475   5.182   2.581   0.155
 7859SOL    HW124476   5.279   2.573   0.136
 7859SOL    HW224477   5.132   2.508   0.107
 7860SOL     OW24478   2.521   0.865   4.551
 7860SOL    HW124479   2.609   0.908   4.566
 7860SOL    HW224480   2.520   0.821   4.461
 7861SOL     OW24481   2.607   6.270   1.055
 7861SOL    HW124482   2.590   6.303   1.148
 7861SOL    HW224483   2.547   6.319   0.991
 7862SOL     OW24484   2.538   5.883   0.618
 7862SOL    HW124485   2.619   5.829   0.597
 7862SOL    HW224486   2.524   5.885   0.717
 7863SOL     OW24487   6.732   4.404   3.354
 7863SOL    HW124488   6.724   4.340   3.278
 7863SOL    HW224489   6.661   4.384   3.422
 7864SOL     OW24490   1.893   6.515   5.411
 7864SOL    HW124491   1.980   6.527   5.363
 7864SOL    HW224492   1.909   6.520   5.510
 7865SOL     OW24493   5.715   5.128   3.413
 7865SOL    HW124494   5.641   5.067   3.440
 7865SOL    HW224495   5.677   5.207   3.364
 7866SOL     OW24496   0.920   6.867   5.642
 7866SOL    HW124497   0.956   6.953   5.605
 7866SOL    HW224498   0.994   6.816   5.684
 7867SOL     OW24499   5.986   6.331   3.704
 7867SOL    HW124500   5.930   6.392   3.761
 7867SOL    HW224501   5.937   6.307   3.621
 7868SOL     OW24502   3.128   6.066   1.438
 7868SOL    HW124503   3.159   6.108   1.524
 7868SOL    HW224504   3.041   6.105   1.411
 7869SOL     OW24505   5.376   5.134   5.862
 7869SOL    HW124506   5.384   5.061   5.794
 7869SOL    HW224507   5.393   5.096   5.953
 7870SOL     OW24508   5.570   6.111   4.587
 7870SOL    HW124509   5.605   6.020   4.566
 7870SOL    HW224510   5.603   6.139   4.678
 7871SOL     OW24511   5.361   1.307   1.673
 7871SOL    HW124512   5.268   1.302   1.635
 7871SOL    HW224513   5.357   1.290   1.771
 7872SOL     OW24514   1.810   5.903   2.515
 7872SOL    HW124515   1.863   5.827   2.476
 7872SOL    HW224516   1.873   5.976   2.542
 7873SOL     OW24517   6.073   1.322   6.812
 7873SOL    HW124518   5.993   1.380   6.795
 7873SOL    HW224519   6.127   1.361   6.886
 7874SOL     OW24520   5.522   2.504   0.856
 7874SOL    HW124521   5.595   2.523   0.789
 7874SOL    HW224522   5.563   2.468   0.940
 7875SOL     OW24523   5.580   4.491   6.482
 7875SOL    HW124524   5.492   4.445   6.469
 7875SOL    HW224525   5.648   4.450   6.421
 7876SOL     OW24526   0.791   0.072   2.751
 7876SOL    HW124527   0.839   0.149   2.795
 7876SOL    HW224528   0.768   0.097   2.657
 7877SOL     OW24529   6.812   2.038   3.254
 7877SOL    HW124530   6.766   2.044   3.166
 7877SOL    HW224531   6.745   2.032   3.328
 7878SOL     OW24532   3.965   4.839   3.151
 7878SOL    HW124533   3.936   4.883   3.066
 7878SOL    HW224534   3.885   4.823   3.209
 7879SOL     OW24535   2.543   4.600   2.935
 7879SOL    HW124536   2.615   4.652   2.982
 7879SOL    HW224537   2.548   4.618   2.836
 7880SOL     OW24538   1.658   3.883   1.893
 7880SOL    HW124539   1.736   3.821   1.884
 7880SOL    HW224540   1.636   3.922   1.804
 7881SOL     OW24541   5.061   4.254   4.161
 7881SOL    HW124542   5.049   4.246   4.063
 7881SOL    HW224543   5.008   4.183   4.208
 7882SOL     OW24544   1.464   3.507   0.797
 7882SOL    HW124545   1.500   3.584   0.849
 7882SOL    HW224546   1.429   3.438   0.860
 7883SOL     OW24547   0.974   1.046   5.465
 7883SOL    HW124548   0.950   0.971   5.403
 7883SOL    HW224549   1.013   1.122   5.413
 7884SOL     OW24550   0.764   2.813   4.405
 7884SOL    HW124551   0.683   2.815   4.463
 7884SOL    HW224552   0.745   2.761   4.322
 7885SOL     OW24553   6.168   5.739   6.699
 7885SOL    HW124554   6.140   5.665   6.637
 7885SOL    HW224555   6.110   5.738   6.780
 7886SOL     OW24556   4.951   5.131   6.900
 7886SOL    HW124557   5.001   5.169   6.823
 7886SOL    HW224558   4.881   5.067   6.866
 7887SOL     OW24559   4.630   2.157   6.897
 7887SOL    HW124560   4.574   2.209   6.962
 7887SOL    HW224561   4.702   2.217   6.860
 7888SOL     OW24562   5.045   1.024   4.776
 7888SOL    HW124563   5.075   1.016   4.871
 7888SOL    HW224564   4.984   1.103   4.767
 7889SOL     OW24565   1.202   6.402   2.319
 7889SOL    HW124566   1.168   6.398   2.225
 7889SOL    HW224567   1.125   6.407   2.382
 7890SOL     OW24568   1.907   3.260   2.684
 7890SOL    HW124569   1.873   3.172   2.717
 7890SOL    HW224570   1.833   3.327   2.683
 7891SOL     OW24571   1.555   4.603   2.764
 7891SOL    HW124572   1.645   4.594   2.807
 7891SOL    HW224573   1.484   4.586   2.833
 7892SOL     OW24574   1.681   2.236   5.486
 7892SOL    HW124575   1.678   2.140   5.516
 7892SOL    HW224576   1.776   2.262   5.468
 7893SOL     OW24577   6.009   6.203   1.565
 7893SOL    HW124578   6.073   6.279   1.571
 7893SOL    HW224579   5.960   6.193   1.651
 7894SOL     OW24580   2.896   6.913   2.028
 7894SOL    HW124581   2.842   6.996   2.014
 7894SOL    HW224582   2.838   6.840   2.064
 7895SOL     OW24583   0.252   1.620   3.670
 7895SOL    HW124584   0.311   1.543   3.646
 7895SOL    HW224585   0.240   1.623   3.769
 7896SOL     OW24586   4.616   2.206   5.337
 7896SOL    HW124587   4.543   2.175   5.277
 7896SOL    HW224588   4.655   2.127   5.385
 7897SOL     OW24589   2.953   3.422   6.138
 7897SOL    HW124590   2.869   3.461   6.176
 7897SOL    HW224591   2.954   3.435   6.039
 7898SOL     OW24592   4.434   2.238   3.332
 7898SOL    HW124593   4.338   2.224   3.307
 7898SOL    HW224594   4.463   2.331   3.305
 7899SOL     OW24595   5.234   1.214   2.605
 7899SOL    HW124596   5.212   1.146   2.674
 7899SOL    HW224597   5.166   1.210   2.531
 7900SOL     OW24598   1.396   5.511   0.959
 7900SOL    HW124599   1.328   5.516   1.033
 7900SOL    HW224600   1.366   5.569   0.883
 7901SOL     OW24601   6.320   6.142   0.181
 7901SOL    HW124602   6.362   6.138   0.090
 7901SOL    HW224603   6.329   6.235   0.217
 7902SOL     OW24604   4.808   3.763   6.879
 7902SOL    HW124605   4.738   3.834   6.883
 7902SOL    HW224606   4.887   3.790   6.933
 7903SOL     OW24607   0.202   2.071   6.719
 7903SOL    HW124608   0.134   2.000   6.706
 7903SOL    HW224609   0.188   2.143   6.651
 7904SOL     OW24610   5.972   0.465   2.816
 7904SOL    HW124611   5.922   0.378   2.817
 7904SOL    HW224612   6.023   0.475   2.902
 7905SOL     OW24613   3.604   1.451   0.677
 7905SOL    HW124614   3.604   1.352   0.663
 7905SOL    HW224615   3.595   1.470   0.775
 7906SOL     OW24616   6.422   6.094   6.966
 7906SOL    HW124617   6.377   6.166   6.913
 7906SOL    HW224618   6.430   6.011   6.911
 7907SOL     OW24619   6.905   2.830   2.132
 7907SOL    HW124620   6.812   2.857   2.153
 7907SOL    HW224621   6.917   2.732   2.151
 7908SOL     OW24622   6.166   1.917   3.704
 7908SOL    HW124623   6.189   2.013   3.687
 7908SOL    HW224624   6.180   1.895   3.800
 7909SOL     OW24625   4.654   4.693   5.125
 7909SOL    HW124626   4.707   4.744   5.193
 7909SOL    HW224627   4.699   4.699   5.036
 7910SOL     OW24628   5.775   3.171   5.808
 7910SOL    HW124629   5.808   3.264   5.794
 7910SOL    HW224630   5.697   3.153   5.747
 7911SOL     OW24631   5.746   4.842   0.100
 7911SOL    HW124632   5.748   4.743   0.116
 7911SOL    HW224633   5.686   4.862   0.023
 7912SOL     OW24634   6.501   5.092   5.872
 7912SOL    HW124635   6.441   5.028   5.824
 7912SOL    HW224636   6.517   5.061   5.965
 7913SOL     OW24637   0.312   5.588   6.578
 7913SOL    HW124638   0.357   5.548   6.498
 7913SOL    HW224639   0.381   5.633   6.636
 7914SOL     OW24640   6.854   3.581   2.490
 7914SOL    HW124641   6.860   3.681   2.499
 7914SOL    HW224642   6.937   3.540   2.528
 7915SOL     OW24643   4.201   1.990   2.671
 7915SOL    HW124644   4.283   2.043   2.692
 7915SOL    HW224645   4.121   2.035   2.710
 7916SOL     OW24646   5.139   3.681   5.434
 7916SOL    HW124647   5.224   3.661   5.482
 7916SOL    HW224648   5.100   3.595   5.400
 7917SOL     OW24649   2.888   3.655   4.419
 7917SOL    HW124650   2.848   3.653   4.511
 7917SOL    HW224651   2.988   3.651   4.426
 7918SOL     OW24652   6.327   1.814   2.614
 7918SOL    HW124653   6.333   1.714   2.606
 7918SOL    HW224654   6.415   1.850   2.646
 7919SOL     OW24655   5.851   5.066   1.873
 7919SOL    HW124656   5.760   5.025   1.871
 7919SOL    HW224657   5.853   5.145   1.811
 7920SOL     OW24658   0.803   5.701   1.937
 7920SOL    HW124659   0.825   5.778   1.996
 7920SOL    HW224660   0.704   5.683   1.941
 7921SOL     OW24661   3.452   6.827   1.897
 7921SOL    HW124662   3.416   6.756   1.957
 7921SOL    HW224663   3.530   6.791   1.845
 7922SOL     OW24664   0.715   4.837   6.862
 7922SOL    HW124665   0.790   4.901   6.883
 7922SOL    HW224666   0.646   4.884   6.807
 7923SOL     OW24667   1.568   1.703   2.634
 7923SOL    HW124668   1.543   1.606   2.637
 7923SOL    HW224669   1.575   1.733   2.539
 7924SOL     OW24670   2.242   0.218   4.240
 7924SOL    HW124671   2.222   0.268   4.325
 7924SOL    HW224672   2.328   0.251   4.202
 7925SOL     OW24673   0.042   0.640   6.814
 7925SOL    HW124674   0.133   0.598   6.813
 7925SOL    HW224675   7.004   0.589   6.754
 7926SOL     OW24676   3.388   0.382   1.651
 7926SOL    HW124677   3.395   0.288   1.616
 7926SOL    HW224678   3.335   0.382   1.736
 7927SOL     OW24679   4.590   4.752   4.520
 7927SOL    HW124680   4.589   4.671   4.579
 7927SOL    HW224681   4.680   4.762   4.479
 7928SOL     OW24682   1.342   5.225   1.238
 7928SOL    HW124683   1.359   5.167   1.318
 7928SOL    HW224684   1.309   5.314   1.267
 7929SOL     OW24685   3.681   4.105   3.964
 7929SOL    HW124686   3.607   4.118   3.898
 7929SOL    HW224687   3.687   4.008   3.988
 7930SOL     OW24688   5.205   6.111   4.390
 7930SOL    HW124689   5.195   6.195   4.443
 7930SOL    HW224690   5.300   6.101   4.361
 7931SOL     OW24691   1.877   2.638   0.709
 7931SOL    HW124692   1.922   2.641   0.798
 7931SOL    HW224693   1.778   2.628   0.722
 7932SOL     OW24694   2.956   6.956   1.004
 7932SOL    HW124695   2.899   6.883   1.043
 7932SOL    HW224696   2.951   0.012   1.064
 7933SOL     OW24697   1.282   0.433   0.265
 7933SOL    HW124698   1.216   0.362   0.241
 7933SOL    HW224699   1.263   0.468   0.357
 7934SOL     OW24700   3.172   3.679   5.801
 7934SOL    HW124701   3.179   3.671   5.900
 7934SOL    HW224702   3.239   3.619   5.757
 7935SOL     OW24703   4.213   6.190   1.189
 7935SOL    HW124704   4.247   6.262   1.249
 7935SOL    HW224705   4.116   6.204   1.171
 7936SOL     OW24706   4.408   5.835   2.903
 7936SOL    HW124707   4.494   5.867   2.944
 7936SOL    HW224708   4.370   5.908   2.847
 7937SOL     OW24709   6.170   6.391   5.676
 7937SOL    HW124710   6.118   6.470   5.708
 7937SOL    HW224711   6.267   6.411   5.680
 7938SOL     OW24712   5.836   4.575   4.558
 7938SOL    HW124713   5.927   4.543   4.584
 7938SOL    HW224714   5.813   4.656   4.610
 7939SOL     OW24715   0.890   0.618   4.926
 7939SOL    HW124716   0.803   0.668   4.921
 7939SOL    HW224717   0.926   0.605   4.834
 7940SOL     OW24718   1.621   6.078   0.891
 7940SOL    HW124719   1.641   6.112   0.799
 7940SOL    HW224720   1.706   6.046   0.933
 7941SOL     OW24721   0.197   0.347   0.368
 7941SOL    HW124722   0.204   0.383   0.275
 7941SOL    HW224723   0.206   0.247   0.365
 7942SOL     OW24724   0.925   0.902   1.220
 7942SOL    HW124725   0.965   0.946   1.140
 7942SOL    HW224726   0.897   0.973   1.286
 7943SOL     OW24727   5.319   2.116   0.963
 7943SOL    HW124728   5.293   2.197   1.016
 7943SOL    HW224729   5.375   2.056   1.019
 7944SOL     OW24730   0.873   4.227   1.917
 7944SOL    HW124731   0.815   4.269   1.987
 7944SOL    HW224732   0.969   4.244   1.940
 7945SOL     OW24733   5.488   6.554   1.714
 7945SOL    HW124734   5.413   6.502   1.756
 7945SOL    HW224735   5.568   6.552   1.774
 7946SOL     OW24736   1.662   1.975   5.581
 7946SOL    HW124737   1.625   1.945   5.669
 7946SOL    HW224738   1.675   1.896   5.521
 7947SOL     OW24739   3.823   3.937   6.430
 7947SOL    HW124740   3.862   3.909   6.342
 7947SOL    HW224741   3.771   4.022   6.417
 7948SOL     OW24742   0.812   6.009   0.230
 7948SOL    HW124743   0.839   6.101   0.257
 7948SOL    HW224744   0.819   5.999   0.130
 7949SOL     OW24745   5.922   4.531   4.237
 7949SOL    HW124746   5.954   4.609   4.290
 7949SOL    HW224747   5.980   4.520   4.156
 7950SOL     OW24748   3.358   5.304   4.273
 7950SOL    HW124749   3.351   5.366   4.351
 7950SOL    HW224750   3.313   5.218   4.295
 7951SOL     OW24751   2.871   2.939   1.369
 7951SOL    HW124752   2.900   3.002   1.441
 7951SOL    HW224753   2.820   2.989   1.299
 7952SOL     OW24754   5.309   3.877   0.222
 7952SOL    HW124755   5.246   3.806   0.253
 7952SOL    HW224756   5.354   3.918   0.302
 7953SOL     OW24757   2.109   3.144   2.556
 7953SOL    HW124758   2.023   3.173   2.596
 7953SOL    HW224759   2.171   3.112   2.628
 7954SOL     OW24760   5.030   5.593   5.277
 7954SOL    HW124761   5.108   5.535   5.302
 7954SOL    HW224762   5.012   5.584   5.179
 7955SOL     OW24763   0.889   6.399   5.622
 7955SOL    HW124764   0.840   6.445   5.696
 7955SOL    HW224765   0.978   6.367   5.655
 7956SOL     OW24766   5.885   0.198   3.646
 7956SOL    HW124767   5.899   0.154   3.557
 7956SOL    HW224768   5.808   0.154   3.693
 7957SOL     OW24769   1.142   2.719   0.961
 7957SOL    HW124770   1.150   2.717   1.060
 7957SOL    HW224771   1.062   2.774   0.935
 7958SOL     OW24772   2.315   5.748   2.600
 7958SOL    HW124773   2.341   5.660   2.640
 7958SOL    HW224774   2.380   5.772   2.528
 7959SOL     OW24775   5.512   4.796   0.923
 7959SOL    HW124776   5.607   4.786   0.952
 7959SOL    HW224777   5.453   4.738   0.979
 7960SOL     OW24778   2.444   2.157   0.949
 7960SOL    HW124779   2.492   2.144   0.862
 7960SOL    HW224780   2.498   2.118   1.023
 7961SOL     OW24781   1.830   5.189   6.734
 7961SOL    HW124782   1.851   5.150   6.644
 7961SOL    HW224783   1.840   5.118   6.804
 7962SOL     OW24784   1.272   0.472   2.247
 7962SOL    HW124785   1.340   0.406   2.279
 7962SOL    HW224786   1.251   0.455   2.151
 7963SOL     OW24787   0.503   0.672   5.114
 7963SOL    HW124788   0.528   0.589   5.063
 7963SOL    HW224789   0.564   0.681   5.193
 7964SOL     OW24790   6.186   5.919   3.265
 7964SOL    HW124791   6.229   5.966   3.188
 7964SOL    HW224792   6.256   5.891   3.331
 7965SOL     OW24793   5.515   2.238   0.241
 7965SOL    HW124794   5.492   2.248   0.144
 7965SOL    HW224795   5.431   2.225   0.294
 7966SOL     OW24796   0.066   4.812   3.972
 7966SOL    HW124797   0.056   4.910   3.959
 7966SOL    HW224798   0.113   4.772   3.892
 7967SOL     OW24799   3.021   5.850   2.930
 7967SOL    HW124800   2.968   5.774   2.969
 7967SOL    HW224801   2.962   5.930   2.921
 7968SOL     OW24802   1.665   1.318   1.717
 7968SOL    HW124803   1.704   1.395   1.667
 7968SOL    HW224804   1.565   1.323   1.713
 7969SOL     OW24805   3.242   2.119   3.077
 7969SOL    HW124806   3.321   2.142   3.135
 7969SOL    HW224807   3.271   2.113   2.982
 7970SOL     OW24808   0.520   4.463   3.194
 7970SOL    HW124809   0.474   4.442   3.108
 7970SOL    HW224810   0.474   4.539   3.240
 7971SOL     OW24811   2.537   1.366   1.567
 7971SOL    HW124812   2.563   1.323   1.480
 7971SOL    HW224813   2.468   1.310   1.612
 7972SOL     OW24814   0.518   4.645   2.378
 7972SOL    HW124815   0.451   4.576   2.403
 7972SOL    HW224816   0.473   4.732   2.362
 7973SOL     OW24817   4.554   2.392   2.818
 7973SOL    HW124818   4.566   2.443   2.733
 7973SOL    HW224819   4.508   2.305   2.799
 7974SOL     OW24820   5.359   0.367   4.197
 7974SOL    HW124821   5.275   0.420   4.204
 7974SOL    HW224822   5.433   0.417   4.242
 7975SOL     OW24823   2.786   1.380   3.967
 7975SOL    HW124824   2.815   1.340   3.879
 7975SOL    HW224825   2.710   1.327   4.004
 7976SOL     OW24826   0.627   5.323   6.524
 7976SOL    HW124827   0.562   5.366   6.460
 7976SOL    HW224828   0.576   5.278   6.597
 7977SOL     OW24829   5.087   6.112   1.341
 7977SOL    HW124830   5.186   6.101   1.354
 7977SOL    HW224831   5.057   6.057   1.264
 7978SOL     OW24832   4.516   2.665   5.586
 7978SOL    HW124833   4.517   2.585   5.525
 7978SOL    HW224834   4.580   2.733   5.551
 7979SOL     OW24835   3.858   6.838   4.301
 7979SOL    HW124836   3.886   6.792   4.385
 7979SOL    HW224837   3.911   6.923   4.290
 7980SOL     OW24838   3.227   6.257   1.962
 7980SOL    HW124839   3.140   6.305   1.950
 7980SOL    HW224840   3.250   6.209   1.877
 7981SOL     OW24841   1.211   5.224   3.168
 7981SOL    HW124842   1.193   5.133   3.130
 7981SOL    HW224843   1.128   5.279   3.164
 7982SOL     OW24844   6.045   2.948   0.468
 7982SOL    HW124845   6.134   2.916   0.437
 7982SOL    HW224846   6.032   2.926   0.565
 7983SOL     OW24847   5.049   2.554   2.289
 7983SOL    HW124848   4.965   2.530   2.336
 7983SOL    HW224849   5.094   2.471   2.256
 7984SOL     OW24850   0.487   1.032   1.142
 7984SOL    HW124851   0.484   0.932   1.153
 7984SOL    HW224852   0.426   1.075   1.208
 7985SOL     OW24853   0.432   1.696   1.975
 7985SOL    HW124854   0.442   1.715   1.877
 7985SOL    HW224855   0.337   1.713   2.003
 7986SOL     OW24856   3.850   1.548   0.607
 7986SOL    HW124857   3.905   1.466   0.620
 7986SOL    HW224858   3.753   1.523   0.607
 7987SOL     OW24859   0.458   3.241   4.829
 7987SOL    HW124860   0.364   3.239   4.796
 7987SOL    HW224861   0.474   3.163   4.890
 7988SOL     OW24862   2.958   1.238   5.689
 7988SOL    HW124863   2.911   1.322   5.660
 7988SOL    HW224864   2.925   1.161   5.634
 7989SOL     OW24865   2.829   2.529   5.365
 7989SOL    HW124866   2.764   2.589   5.412
 7989SOL    HW224867   2.796   2.511   5.272
 7990SOL     OW24868   1.701   2.231   4.665
 7990SOL    HW124869   1.770   2.183   4.611
 7990SOL    HW224870   1.746   2.279   4.741
 7991SOL     OW24871   0.723   3.098   5.893
 7991SOL    HW124872   0.783   3.177   5.901
 7991SOL    HW224873   0.681   3.097   5.802
 7992SOL     OW24874   2.614   1.059   0.723
 7992SOL    HW124875   2.607   1.064   0.624
 7992SOL    HW224876   2.529   1.090   0.765
 7993SOL     OW24877   1.898   6.957   6.527
 7993SOL    HW124878   1.869   6.893   6.598
 7993SOL    HW224879   1.929   6.906   6.446
 7994SOL     OW24880   5.343   0.808   3.408
 7994SOL    HW124881   5.394   0.888   3.440
 7994SOL    HW224882   5.246   0.822   3.424
 7995SOL     OW24883   3.334   5.162   3.370
 7995SOL    HW124884   3.429   5.177   3.344
 7995SOL    HW224885   3.314   5.064   3.367
 7996SOL     OW24886   3.642   0.023   4.981
 7996SOL    HW124887   3.611   6.978   5.045
 7996SOL    HW224888   3.585   0.020   4.898
 7997SOL     OW24889   5.508   2.689   1.598
 7997SOL    HW124890   5.510   2.697   1.698
 7997SOL    HW224891   5.442   2.754   1.561
 7998SOL     OW24892   6.131   4.946   6.855
 7998SOL    HW124893   6.090   4.908   6.939
 7998SOL    HW224894   6.138   5.045   6.864
 7999SOL     OW24895   1.592   0.591   5.476
 7999SOL    HW124896   1.539   0.598   5.561
 7999SOL    HW224897   1.680   0.636   5.488
 8000SOL     OW24898   6.256   6.785   5.786
 8000SOL    HW124899   6.296   6.695   5.766
 8000SOL    HW224900   6.161   6.774   5.815
 8001SOL     OW24901   2.438   0.103   1.280
 8001SOL    HW124902   2.515   0.041   1.295
 8001SOL    HW224903   2.462   0.170   1.210
 8002SOL     OW24904   5.762   2.904   5.459
 8002SOL    HW124905   5.675   2.854   5.457
 8002SOL    HW224906   5.806   2.897   5.370
 8003SOL     OW24907   3.619   5.180   3.412
 8003SOL    HW124908   3.692   5.246   3.394
 8003SOL    HW224909   3.630   5.144   3.505
 8004SOL     OW24910   1.932   3.954   2.603
 8004SOL    HW124911   1.894   3.942   2.511
 8004SOL    HW224912   2.019   3.905   2.610
 8005SOL     OW24913   2.708   1.256   1.363
 8005SOL    HW124914   2.782   1.322   1.376
 8005SOL    HW224915   2.703   1.231   1.267
 8006SOL     OW24916   3.430   5.948   0.440
 8006SOL    HW124917   3.412   5.859   0.399
 8006SOL    HW224918   3.522   5.978   0.416
 8007SOL     OW24919   0.477   0.914   4.417
 8007SOL    HW124920   0.479   0.958   4.507
 8007SOL    HW224921   0.517   0.976   4.350
 8008SOL     OW24922   6.547   6.591   0.775
 8008SOL    HW124923   6.570   6.564   0.682
 8008SOL    HW224924   6.583   6.524   0.839
 8009SOL     OW24925   6.672   6.641   3.764
 8009SOL    HW124926   6.763   6.599   3.768
 8009SOL    HW224927   6.675   6.721   3.705
 8010SOL     OW24928   2.231   2.819   6.544
 8010SOL    HW124929   2.257   2.750   6.477
 8010SOL    HW224930   2.235   2.780   6.636
 8011SOL     OW24931   2.846   2.199   0.554
 8011SOL    HW124932   2.887   2.131   0.495
 8011SOL    HW224933   2.746   2.198   0.541
 8012SOL     OW24934   3.064   6.580   2.588
 8012SOL    HW124935   2.990   6.593   2.522
 8012SOL    HW224936   3.029   6.591   2.681
 8013SOL     OW24937   6.008   4.501   5.225
 8013SOL    HW124938   6.068   4.581   5.220
 8013SOL    HW224939   5.922   4.520   5.178
 8014SOL     OW24940   2.016   6.935   6.986
 8014SOL    HW124941   1.940   6.933   0.028
 8014SOL    HW224942   2.059   0.001   6.986
 8015SOL     OW24943   1.908   2.641   0.120
 8015SOL    HW124944   1.871   2.599   0.203
 8015SOL    HW224945   1.836   2.690   0.072
 8016SOL     OW24946   3.243   6.485   1.492
 8016SOL    HW124947   3.257   6.474   1.394
 8016SOL    HW224948   3.217   6.580   1.511
 8017SOL     OW24949   5.910   4.310   4.428
 8017SOL    HW124950   5.882   4.400   4.394
 8017SOL    HW224951   5.918   4.246   4.352
 8018SOL     OW24952   5.568   2.377   4.881
 8018SOL    HW124953   5.585   2.454   4.821
 8018SOL    HW224954   5.484   2.393   4.934
 8019SOL     OW24955   2.859   5.552   0.869
 8019SOL    HW124956   2.811   5.611   0.934
 8019SOL    HW224957   2.799   5.478   0.840
 8020SOL     OW24958   5.505   5.577   6.847
 8020SOL    HW124959   5.444   5.505   6.882
 8020SOL    HW224960   5.453   5.641   6.791
 8021SOL     OW24961   0.841   0.645   1.336
 8021SOL    HW124962   0.872   0.720   1.279
 8021SOL    HW224963   0.914   0.618   1.399
 8022SOL     OW24964   4.666   5.954   2.898
 8022SOL    HW124965   4.646   6.043   2.855
 8022SOL    HW224966   4.741   5.910   2.848
 8023SOL     OW24967   6.462   6.951   3.131
 8023SOL    HW124968   6.462   6.877   3.198
 8023SOL    HW224969   6.380   7.008   3.144
 8024SOL     OW24970   4.524   5.046   5.152
 8024SOL    HW124971   4.517   4.988   5.071
 8024SOL    HW224972   4.620   5.068   5.170
 8025SOL     OW24973   3.586   5.412   0.020
 8025SOL    HW124974   3.635   5.456   6.969
 8025SOL    HW224975   3.648   5.353   0.071
 8026SOL     OW24976   1.083   3.132   0.261
 8026SOL    HW124977   1.105   3.226   0.233
 8026SOL    HW224978   1.141   3.107   0.338
 8027SOL     OW24979   5.134   2.914   5.367
 8027SOL    HW124980   5.091   2.834   5.408
 8027SOL    HW224981   5.131   2.906   5.268
 8028SOL     OW24982   5.837   4.539   6.903
 8028SOL    HW124983   5.856   4.598   6.825
 8028SOL    HW224984   5.833   4.444   6.873
 8029SOL     OW24985   3.324   4.193   0.779
 8029SOL    HW124986   3.326   4.213   0.682
 8029SOL    HW224987   3.231   4.166   0.806
 8030SOL     OW24988   5.711   3.979   6.714
 8030SOL    HW124989   5.647   4.056   6.723
 8030SOL    HW224990   5.687   3.925   6.634
 8031SOL     OW24991   3.463   5.689   1.529
 8031SOL    HW124992   3.421   5.612   1.481
 8031SOL    HW224993   3.544   5.719   1.479
 8032SOL     OW24994   5.227   3.765   5.809
 8032SOL    HW124995   5.189   3.809   5.727
 8032SOL    HW224996   5.297   3.825   5.849
 8033SOL     OW24997   5.699   2.851   0.324
 8033SOL    HW124998   5.708   2.751   0.328
 8033SOL    HW224999   5.665   2.885   0.412
 8034SOL     OW25000   5.676   0.737   5.713
 8034SOL    HW125001   5.697   0.835   5.703
 8034SOL    HW225002   5.615   0.709   5.639
 8035SOL     OW25003   5.563   6.418   6.659
 8035SOL    HW125004   5.563   6.334   6.714
 8035SOL    HW225005   5.537   6.395   6.565
 8036SOL     OW25006   2.175   4.385   1.764
 8036SOL    HW125007   2.202   4.322   1.692
 8036SOL    HW225008   2.112   4.340   1.827
 8037SOL     OW25009   1.382   3.031   1.612
 8037SOL    HW125010   1.432   3.112   1.581
 8037SOL    HW225011   1.379   2.963   1.539
 8038SOL     OW25012   6.856   2.167   4.415
 8038SOL    HW125013   6.809   2.132   4.334
 8038SOL    HW225014   6.789   2.202   4.480
 8039SOL     OW25015   2.788   6.838   3.560
 8039SOL    HW125016   2.873   6.835   3.614
 8039SOL    HW225017   2.718   6.888   3.610
 8040SOL     OW25018   0.124   5.749   0.963
 8040SOL    HW125019   0.067   5.825   0.995
 8040SOL    HW225020   0.092   5.664   1.004
 8041SOL     OW25021   4.774   1.786   0.786
 8041SOL    HW125022   4.808   1.879   0.771
 8041SOL    HW225023   4.678   1.790   0.816
 8042SOL     OW25024   3.349   3.325   1.474
 8042SOL    HW125025   3.252   3.350   1.474
 8042SOL    HW225026   3.361   3.236   1.520
 8043SOL     OW25027   2.707   6.759   2.117
 8043SOL    HW125028   2.670   6.739   2.026
 8043SOL    HW225029   2.692   6.680   2.177
 8044SOL     OW25030   3.050   3.755   2.008
 8044SOL    HW125031   3.125   3.695   2.037
 8044SOL    HW225032   3.045   3.756   1.908
 8045SOL     OW25033   5.828   2.625   3.289
 8045SOL    HW125034   5.740   2.656   3.253
 8045SOL    HW225035   5.812   2.576   3.375
 8046SOL     OW25036   6.623   4.960   6.131
 8046SOL    HW125037   6.716   4.968   6.165
 8046SOL    HW225038   6.573   4.894   6.186
 8047SOL     OW25039   3.568   6.243   4.022
 8047SOL    HW125040   3.601   6.295   3.943
 8047SOL    HW225041   3.491   6.185   3.994
 8048SOL     OW25042   6.865   7.001   5.864
 8048SOL    HW125043   6.924   0.058   5.868
 8048SOL    HW225044   6.854   6.972   5.769
 8049SOL     OW25045   1.232   5.399   0.656
 8049SOL    HW125046   1.326   5.402   0.689
 8049SOL    HW225047   1.174   5.350   0.721
 8050SOL     OW25048   1.679   2.665   1.026
 8050SOL    HW125049   1.626   2.632   1.104
 8050SOL    HW225050   1.617   2.695   0.954
 8051SOL     OW25051   4.540   1.367   3.924
 8051SOL    HW125052   4.542   1.466   3.932
 8051SOL    HW225053   4.449   1.332   3.945
 8052SOL     OW25054   2.375   1.672   3.013
 8052SOL    HW125055   2.414   1.679   3.105
 8052SOL    HW225056   2.425   1.603   2.961
 8053SOL     OW25057   3.864   3.583   2.279
 8053SOL    HW125058   3.793   3.630   2.332
 8053SOL    HW225059   3.870   3.488   2.309
 8054SOL     OW25060   4.189   6.281   4.670
 8054SOL    HW125061   4.161   6.230   4.752
 8054SOL    HW225062   4.132   6.363   4.662
 8055SOL     OW25063   1.667   0.029   5.734
 8055SOL    HW125064   1.746   0.085   5.707
 8055SOL    HW225065   1.592   0.088   5.762
 8056SOL     OW25066   4.255   2.011   3.143
 8056SOL    HW125067   4.341   1.999   3.094
 8056SOL    HW225068   4.206   1.924   3.148
 8057SOL     OW25069   3.657   6.721   3.527
 8057SOL    HW125070   3.715   6.802   3.545
 8057SOL    HW225071   3.688   6.676   3.444
 8058SOL     OW25072   2.074   1.318   3.262
 8058SOL    HW125073   2.054   1.221   3.277
 8058SOL    HW225074   2.151   1.326   3.199
 8059SOL     OW25075   3.127   1.473   3.836
 8059SOL    HW125076   3.069   1.513   3.907
 8059SOL    HW225077   3.136   1.375   3.852
 8060SOL     OW25078   0.367   1.470   4.629
 8060SOL    HW125079   0.357   1.402   4.702
 8060SOL    HW225080   0.329   1.557   4.660
 8061SOL     OW25081   0.541   5.617   2.009
 8061SOL    HW125082   0.586   5.547   2.065
 8061SOL    HW225083   0.458   5.649   2.055
 8062SOL     OW25084   1.789   3.631   3.305
 8062SOL    HW125085   1.771   3.728   3.320
 8062SOL    HW225086   1.737   3.576   3.370
 8063SOL     OW25087   3.326   2.920   0.092
 8063SOL    HW125088   3.340   3.017   0.077
 8063SOL    HW225089   3.228   2.902   0.102
 8064SOL     OW25090   6.984   3.846   6.780
 8064SOL    HW125091   6.912   3.903   6.740
 8064SOL    HW225092   0.013   3.803   6.707
 8065SOL     OW25093   4.763   0.319   5.333
 8065SOL    HW125094   4.853   0.356   5.357
 8065SOL    HW225095   4.765   0.219   5.337
 8066SOL     OW25096   1.851   0.593   1.496
 8066SOL    HW125097   1.823   0.625   1.586
 8066SOL    HW225098   1.775   0.601   1.432
 8067SOL     OW25099   5.217   2.621   1.723
 8067SOL    HW125100   5.132   2.670   1.743
 8067SOL    HW225101   5.294   2.667   1.768
 8068SOL     OW25102   0.758   4.004   4.525
 8068SOL    HW125103   0.697   3.963   4.592
 8068SOL    HW225104   0.738   4.102   4.517
 8069SOL     OW25105   1.754   6.680   1.681
 8069SOL    HW125106   1.794   6.731   1.757
 8069SOL    HW225107   1.707   6.599   1.716
 8070SOL     OW25108   4.004   0.725   1.317
 8070SOL    HW125109   3.953   0.693   1.238
 8070SOL    HW225110   3.979   0.671   1.397
 8071SOL     OW25111   3.850   6.643   7.002
 8071SOL    HW125112   3.817   6.548   6.999
 8071SOL    HW225113   3.943   6.645   0.015
 8072SOL     OW25114   5.234   0.918   1.209
 8072SOL    HW125115   5.224   0.979   1.130
 8072SOL    HW225116   5.262   0.971   1.289
 8073SOL     OW25117   4.332   6.238   5.976
 8073SOL    HW125118   4.387   6.175   5.920
 8073SOL    HW225119   4.378   6.326   5.982
 8074SOL     OW25120   3.291   3.788   0.145
 8074SOL    HW125121   3.277   3.862   0.079
 8074SOL    HW225122   3.203   3.765   0.188
 8075SOL     OW25123   6.918   1.770   2.720
 8075SOL    HW125124   6.936   1.860   2.680
 8075SOL    HW225125   6.957   1.766   2.812
 8076SOL     OW25126   6.158   3.060   5.804
 8076SOL    HW125127   6.096   3.004   5.749
 8076SOL    HW225128   6.148   3.156   5.778
 8077SOL     OW25129   1.499   0.496   0.830
 8077SOL    HW125130   1.434   0.571   0.843
 8077SOL    HW225131   1.589   0.524   0.865
 8078SOL     OW25132   6.415   3.534   0.693
 8078SOL    HW125133   6.340   3.533   0.759
 8078SOL    HW225134   6.444   3.440   0.673
 8079SOL     OW25135   0.026   1.902   2.182
 8079SOL    HW125136   0.067   1.860   2.263
 8079SOL    HW225137   0.095   1.955   2.133
 8080SOL     OW25138   3.530   4.831   7.000
 8080SOL    HW125139   3.500   4.893   6.927
 8080SOL    HW225140   3.454   4.814   0.038
 8081SOL     OW25141   6.025   0.626   5.670
 8081SOL    HW125142   5.938   0.671   5.691
 8081SOL    HW225143   6.037   0.547   5.730
 8082SOL     OW25144   6.963   3.287   3.752
 8082SOL    HW125145   6.952   3.306   3.849
 8082SOL    HW225146   6.926   3.196   3.732
 8083SOL     OW25147   4.644   2.408   3.715
 8083SOL    HW125148   4.674   2.498   3.746
 8083SOL    HW225149   4.715   2.340   3.734
 8084SOL     OW25150   6.742   0.087   0.840
 8084SOL    HW125151   6.815   0.091   0.772
 8084SOL    HW225152   6.745   0.168   0.897
 8085SOL     OW25153   5.600   1.507   1.380
 8085SOL    HW125154   5.625   1.604   1.376
 8085SOL    HW225155   5.667   1.453   1.330
 8086SOL     OW25156   3.401   6.954   5.640
 8086SOL    HW125157   3.311   6.976   5.604
 8086SOL    HW225158   3.398   6.863   5.683
 8087SOL     OW25159   3.207   2.829   1.437
 8087SOL    HW125160   3.111   2.848   1.417
 8087SOL    HW225161   3.215   2.737   1.475
 8088SOL     OW25162   3.999   1.062   3.170
 8088SOL    HW125163   3.989   1.027   3.263
 8088SOL    HW225164   3.942   1.143   3.159
 8089SOL     OW25165   5.721   3.169   0.254
 8089SOL    HW125166   5.634   3.194   0.211
 8089SOL    HW225167   5.743   3.074   0.230
 8090SOL     OW25168   4.933   2.150   5.159
 8090SOL    HW125169   4.853   2.151   5.099
 8090SOL    HW225170   4.911   2.200   5.243
 8091SOL     OW25171   3.432   5.087   6.050
 8091SOL    HW125172   3.422   4.990   6.072
 8091SOL    HW225173   3.369   5.141   6.105
 8092SOL     OW25174   1.480   1.883   3.984
 8092SOL    HW125175   1.562   1.861   3.932
 8092SOL    HW225176   1.408   1.816   3.964
 8093SOL     OW25177   5.769   5.879   1.039
 8093SOL    HW125178   5.785   5.788   1.078
 8093SOL    HW225179   5.702   5.871   0.965
 8094SOL     OW25180   0.631   3.211   5.660
 8094SOL    HW125181   0.572   3.279   5.704
 8094SOL    HW225182   0.713   3.256   5.625
 8095SOL     OW25183   5.525   3.627   4.214
 8095SOL    HW125184   5.505   3.722   4.188
 8095SOL    HW225185   5.607   3.597   4.164
 8096SOL     OW25186   3.707   5.762   1.408
 8096SOL    HW125187   3.717   5.681   1.350
 8096SOL    HW225188   3.798   5.799   1.428
 8097SOL     OW25189   4.995   1.461   4.289
 8097SOL    HW125190   5.079   1.427   4.331
 8097SOL    HW225191   4.964   1.543   4.337
 8098SOL     OW25192   2.948   6.710   3.965
 8098SOL    HW125193   3.033   6.756   3.992
 8098SOL    HW225194   2.969   6.615   3.940
 8099SOL     OW25195   5.121   6.586   4.840
 8099SOL    HW125196   5.165   6.635   4.916
 8099SOL    HW225197   5.147   6.629   4.754
 8100SOL     OW25198   0.385   6.513   0.653
 8100SOL    HW125199   0.389   6.420   0.689
 8100SOL    HW225200   0.334   6.571   0.717
 8101SOL     OW25201   1.418   6.096   3.496
 8101SOL    HW125202   1.370   6.181   3.517
 8101SOL    HW225203   1.450   6.054   3.582
 8102SOL     OW25204   0.045   5.571   6.106
 8102SOL    HW125205   0.044   5.568   6.206
 8102SOL    HW225206   0.115   5.636   6.075
 8103SOL     OW25207   2.792   1.158   2.543
 8103SOL    HW125208   2.845   1.242   2.556
 8103SOL    HW225209   2.723   1.152   2.615
 8104SOL     OW25210   2.289   6.707   6.433
 8104SOL    HW125211   2.289   6.791   6.486
 8104SOL    HW225212   2.379   6.694   6.390
 8105SOL     OW25213   1.977   2.093   2.807
 8105SOL    HW125214   1.930   2.078   2.894
 8105SOL    HW225215   2.070   2.126   2.825
 8106SOL     OW25216   0.664   3.791   4.343
 8106SOL    HW125217   0.737   3.806   4.410
 8106SOL    HW225218   0.702   3.744   4.263
 8107SOL     OW25219   1.972   6.354   6.254
 8107SOL    HW125220   2.069   6.376   6.256
 8107SOL    HW225221   1.961   6.254   6.252
 8108SOL     OW25222   1.025   2.927   4.439
 8108SOL    HW125223   0.942   2.877   4.414
 8108SOL    HW225224   1.014   2.967   4.530
 8109SOL     OW25225   1.822   5.182   5.296
 8109SOL    HW125226   1.776   5.213   5.212
 8109SOL    HW225227   1.899   5.123   5.271
 8110SOL     OW25228   2.162   4.599   1.415
 8110SOL    HW125229   2.177   4.690   1.378
 8110SOL    HW225230   2.208   4.590   1.503
 8111SOL     OW25231   2.152   5.698   4.454
 8111SOL    HW125232   2.145   5.651   4.542
 8111SOL    HW225233   2.243   5.740   4.446
 8112SOL     OW25234   3.008   0.927   4.984
 8112SOL    HW125235   3.006   0.851   4.918
 8112SOL    HW225236   2.993   1.013   4.936
 8113SOL     OW25237   3.991   2.620   5.926
 8113SOL    HW125238   3.920   2.632   5.857
 8113SOL    HW225239   3.953   2.570   6.004
 8114SOL     OW25240   2.683   3.574   1.128
 8114SOL    HW125241   2.696   3.489   1.178
 8114SOL    HW225242   2.599   3.569   1.074
 8115SOL     OW25243   3.728   1.668   1.022
 8115SOL    HW125244   3.739   1.704   1.115
 8115SOL    HW225245   3.780   1.725   0.958
 8116SOL     OW25246   6.089   0.782   5.329
 8116SOL    HW125247   5.993   0.798   5.352
 8116SOL    HW225248   6.145   0.856   5.366
 8117SOL     OW25249   2.234   1.708   5.762
 8117SOL    HW125250   2.259   1.802   5.784
 8117SOL    HW225251   2.173   1.707   5.682
 8118SOL     OW25252   0.578   3.180   4.555
 8118SOL    HW125253   0.552   3.207   4.647
 8118SOL    HW225254   0.592   3.081   4.551
 8119SOL     OW25255   1.117   6.018   2.784
 8119SOL    HW125256   1.148   6.020   2.879
 8119SOL    HW225257   1.166   5.947   2.734
 8120SOL     OW25258   4.560   3.860   1.657
 8120SOL    HW125259   4.574   3.904   1.568
 8120SOL    HW225260   4.479   3.899   1.700
 8121SOL     OW25261   6.424   0.309   2.907
 8121SOL    HW125262   6.367   0.249   2.851
 8121SOL    HW225263   6.502   0.342   2.854
 8122SOL     OW25264   6.832   6.756   1.907
 8122SOL    HW125265   6.792   6.836   1.864
 8122SOL    HW225266   6.924   6.778   1.939
 8123SOL     OW25267   0.878   5.938   0.474
 8123SOL    HW125268   0.974   5.963   0.477
 8123SOL    HW225269   0.840   5.958   0.384
 8124SOL     OW25270   0.830   5.882   2.730
 8124SOL    HW125271   0.782   5.857   2.814
 8124SOL    HW225272   0.914   5.931   2.753
 8125SOL     OW25273   5.326   5.410   2.802
 8125SOL    HW125274   5.332   5.323   2.851
 8125SOL    HW225275   5.377   5.481   2.852
 8126SOL     OW25276   5.614   4.990   2.095
 8126SOL    HW125277   5.528   4.943   2.115
 8126SOL    HW225278   5.690   4.940   2.136
 8127SOL     OW25279   3.064   4.359   0.611
 8127SOL    HW125280   3.130   4.405   0.552
 8127SOL    HW225281   3.028   4.424   0.678
 8128SOL     OW25282   3.938   2.520   5.374
 8128SOL    HW125283   4.007   2.528   5.302
 8128SOL    HW225284   3.852   2.561   5.343
 8129SOL     OW25285   4.794   6.710   6.813
 8129SOL    HW125286   4.780   6.616   6.843
 8129SOL    HW225287   4.736   6.772   6.866
 8130SOL     OW25288   1.499   6.666   0.798
 8130SOL    HW125289   1.418   6.706   0.842
 8130SOL    HW225290   1.537   6.595   0.858
 8131SOL     OW25291   1.611   1.839   0.460
 8131SOL    HW125292   1.707   1.812   0.450
 8131SOL    HW225293   1.573   1.799   0.544
 8132SOL     OW25294   6.855   4.928   3.267
 8132SOL    HW125295   6.867   4.980   3.183
 8132SOL    HW225296   6.784   4.970   3.323
 8133SOL     OW25297   1.230   5.501   2.086
 8133SOL    HW125298   1.239   5.556   2.003
 8133SOL    HW225299   1.172   5.549   2.151
 8134SOL     OW25300   2.114   2.356   2.242
 8134SOL    HW125301   2.023   2.389   2.264
 8134SOL    HW225302   2.165   2.339   2.327
 8135SOL     OW25303   4.263   5.975   1.660
 8135SOL    HW125304   4.198   5.995   1.586
 8135SOL    HW225305   4.212   5.962   1.745
 8136SOL     OW25306   3.934   5.803   1.226
 8136SOL    HW125307   3.863   5.845   1.170
 8136SOL    HW225308   4.006   5.766   1.167
 8137SOL     OW25309   2.670   3.800   5.796
 8137SOL    HW125310   2.583   3.767   5.760
 8137SOL    HW225311   2.745   3.749   5.755
 8138SOL     OW25312   4.799   0.935   3.404
 8138SOL    HW125313   4.749   0.979   3.330
 8138SOL    HW225314   4.735   0.909   3.477
 8139SOL     OW25315   1.690   2.912   3.967
 8139SOL    HW125316   1.698   2.928   3.869
 8139SOL    HW225317   1.777   2.876   4.002
 8140SOL     OW25318   4.232   0.462   0.782
 8140SOL    HW125319   4.199   0.552   0.757
 8140SOL    HW225320   4.216   0.445   0.879
 8141SOL     OW25321   5.247   0.747   4.978
 8141SOL    HW125322   5.240   0.689   4.897
 8141SOL    HW225323   5.209   0.837   4.958
 8142SOL     OW25324   2.277   6.034   1.071
 8142SOL    HW125325   2.270   6.005   1.166
 8142SOL    HW225326   2.306   6.129   1.067
 8143SOL     OW25327   6.164   5.352   0.779
 8143SOL    HW125328   6.187   5.286   0.707
 8143SOL    HW225329   6.176   5.444   0.744
 8144SOL     OW25330   0.376   5.024   0.160
 8144SOL    HW125331   0.289   4.981   0.184
 8144SOL    HW225332   0.448   4.955   0.155
 8145SOL     OW25333   5.633   5.308   0.122
 8145SOL    HW125334   5.674   5.252   0.049
 8145SOL    HW225335   5.551   5.352   0.087
 8146SOL     OW25336   6.115   0.366   3.999
 8146SOL    HW125337   6.178   0.391   4.072
 8146SOL    HW225338   6.160   0.374   3.910
 8147SOL     OW25339   1.796   0.997   6.599
 8147SOL    HW125340   1.791   1.084   6.648
 8147SOL    HW225341   1.882   0.993   6.547
 8148SOL     OW25342   4.748   4.897   0.434
 8148SOL    HW125343   4.782   4.983   0.396
 8148SOL    HW225344   4.715   4.912   0.527
 8149SOL     OW25345   0.570   6.034   5.362
 8149SOL    HW125346   0.594   6.114   5.306
 8149SOL    HW225347   0.578   6.057   5.459
 8150SOL     OW25348   0.422   3.752   1.036
 8150SOL    HW125349   0.511   3.778   1.074
 8150SOL    HW225350   0.362   3.721   1.110
 8151SOL     OW25351   6.952   5.952   2.903
 8151SOL    HW125352   6.997   6.041   2.899
 8151SOL    HW225353   6.861   5.959   2.862
 8152SOL     OW25354   4.743   1.305   3.161
 8152SOL    HW125355   4.767   1.402   3.155
 8152SOL    HW225356   4.819   1.250   3.126
 8153SOL     OW25357   0.285   1.523   2.236
 8153SOL    HW125358   0.374   1.511   2.192
 8153SOL    HW225359   0.212   1.507   2.170
 8154SOL     OW25360   1.528   0.375   2.816
 8154SOL    HW125361   1.623   0.369   2.787
 8154SOL    HW225362   1.483   0.286   2.804
 8155SOL     OW25363   1.915   5.570   3.488
 8155SOL    HW125364   1.856   5.556   3.409
 8155SOL    HW225365   1.939   5.482   3.528
 8156SOL     OW25366   0.219   5.527   1.867
 8156SOL    HW125367   0.189   5.472   1.790
 8156SOL    HW225368   0.223   5.471   1.949
 8157SOL     OW25369   0.219   3.400   4.722
 8157SOL    HW125370   0.180   3.310   4.743
 8157SOL    HW225371   0.234   3.407   4.624
 8158SOL     OW25372   5.977   5.311   6.791
 8158SOL    HW125373   6.067   5.352   6.808
 8158SOL    HW225374   5.912   5.382   6.766
 8159SOL     OW25375   3.371   6.701   5.502
 8159SOL    HW125376   3.388   6.778   5.440
 8159SOL    HW225377   3.319   6.631   5.454
 8160SOL     OW25378   5.247   1.414   2.809
 8160SOL    HW125379   5.198   1.369   2.884
 8160SOL    HW225380   5.221   1.373   2.722
 8161SOL     OW25381   5.742   3.151   1.672
 8161SOL    HW125382   5.751   3.241   1.715
 8161SOL    HW225383   5.816   3.092   1.703
 8162SOL     OW25384   0.364   5.315   5.845
 8162SOL    HW125385   0.346   5.411   5.821
 8162SOL    HW225386   0.368   5.307   5.945
 8163SOL     OW25387   4.550   4.376   5.296
 8163SOL    HW125388   4.645   4.346   5.306
 8163SOL    HW225389   4.490   4.296   5.294
 8164SOL     OW25390   5.031   1.529   1.390
 8164SOL    HW125391   4.981   1.464   1.333
 8164SOL    HW225392   5.129   1.515   1.379
 8165SOL     OW25393   0.086   1.127   0.662
 8165SOL    HW125394   0.180   1.103   0.637
 8165SOL    HW225395   0.085   1.163   0.755
 8166SOL     OW25396   1.658   1.252   5.647
 8166SOL    HW125397   1.702   1.323   5.702
 8166SOL    HW225398   1.629   1.177   5.708
 8167SOL     OW25399   1.309   2.920   4.483
 8167SOL    HW125400   1.310   2.973   4.567
 8167SOL    HW225401   1.216   2.918   4.446
 8168SOL     OW25402   2.415   0.855   2.156
 8168SOL    HW125403   2.394   0.783   2.222
 8168SOL    HW225404   2.353   0.932   2.171
 8169SOL     OW25405   5.118   2.596   0.441
 8169SOL    HW125406   5.148   2.627   0.531
 8169SOL    HW225407   5.183   2.628   0.372
 8170SOL     OW25408   6.489   5.138   2.341
 8170SOL    HW125409   6.412   5.120   2.402
 8170SOL    HW225410   6.541   5.054   2.327
 8171SOL     OW25411   1.988   0.928   0.867
 8171SOL    HW125412   1.957   0.855   0.805
 8171SOL    HW225413   1.967   1.017   0.828
 8172SOL     OW25414   0.818   2.571   0.601
 8172SOL    HW125415   0.773   2.637   0.661
 8172SOL    HW225416   0.774   2.481   0.612
 8173SOL     OW25417   6.034   1.345   1.604
 8173SOL    HW125418   6.018   1.439   1.634
 8173SOL    HW225419   5.948   1.305   1.571
 8174SOL     OW25420   2.686   4.698   3.254
 8174SOL    HW125421   2.756   4.676   3.187
 8174SOL    HW225422   2.625   4.619   3.266
 8175SOL     OW25423   0.311   1.481   5.331
 8175SOL    HW125424   0.212   1.483   5.344
 8175SOL    HW225425   0.350   1.568   5.361
 8176SOL     OW25426   2.504   4.379   0.560
 8176SOL    HW125427   2.474   4.289   0.526
 8176SOL    HW225428   2.499   4.380   0.659
 8177SOL     OW25429   3.361   0.933   3.531
 8177SOL    HW125430   3.441   0.991   3.546
 8177SOL    HW225431   3.283   0.971   3.580
 8178SOL     OW25432   2.572   6.559   1.720
 8178SOL    HW125433   2.602   6.588   1.630
 8178SOL    HW225434   2.488   6.505   1.712
 8179SOL     OW25435   5.835   1.246   3.210
 8179SOL    HW125436   5.756   1.250   3.272
 8179SOL    HW225437   5.901   1.179   3.244
 8180SOL     OW25438   5.192   6.529   0.119
 8180SOL    HW125439   5.178   6.614   0.069
 8180SOL    HW225440   5.282   6.530   0.162
 8181SOL     OW25441   0.511   0.383   0.508
 8181SOL    HW125442   0.599   0.430   0.515
 8181SOL    HW225443   0.444   0.429   0.566
 8182SOL     OW25444   2.864   3.466   4.811
 8182SOL    HW125445   2.909   3.441   4.725
 8182SOL    HW225446   2.800   3.541   4.794
 8183SOL     OW25447   0.359   0.215   4.980
 8183SOL    HW125448   0.302   0.194   4.900
 8183SOL    HW225449   0.433   0.148   4.986
 8184SOL     OW25450   0.379   6.389   6.722
 8184SOL    HW125451   0.319   6.416   6.647
 8184SOL    HW225452   0.360   6.295   6.748
 8185SOL     OW25453   0.356   6.071   6.566
 8185SOL    HW125454   0.324   6.117   6.648
 8185SOL    HW225455   0.390   6.139   6.501
 8186SOL     OW25456   1.902   5.509   6.856
 8186SOL    HW125457   1.859   5.582   6.909
 8186SOL    HW225458   1.961   5.549   6.786
 8187SOL     OW25459   0.863   0.722   5.477
 8187SOL    HW125460   0.901   0.759   5.561
 8187SOL    HW225461   0.876   0.788   5.403
 8188SOL     OW25462   2.198   3.089   3.329
 8188SOL    HW125463   2.226   3.097   3.425
 8188SOL    HW225464   2.240   3.007   3.290
 8189SOL     OW25465   5.502   5.608   3.693
 8189SOL    HW125466   5.569   5.558   3.638
 8189SOL    HW225467   5.418   5.554   3.700
 8190SOL     OW25468   6.651   3.635   3.110
 8190SOL    HW125469   6.684   3.541   3.121
 8190SOL    HW225470   6.664   3.686   3.195
 8191SOL     OW25471   3.371   5.651   0.723
 8191SOL    HW125472   3.278   5.690   0.727
 8191SOL    HW225473   3.374   5.565   0.774
 8192SOL     OW25474   0.588   4.746   3.586
 8192SOL    HW125475   0.626   4.688   3.513
 8192SOL    HW225476   0.588   4.696   3.672
 8193SOL     OW25477   0.245   4.433   4.704
 8193SOL    HW125478   0.213   4.513   4.653
 8193SOL    HW225479   0.313   4.384   4.649
 8194SOL     OW25480   4.647   6.328   1.501
 8194SOL    HW125481   4.591   6.410   1.493
 8194SOL    HW225482   4.637   6.272   1.418
 8195SOL     OW25483   5.976   6.522   2.922
 8195SOL    HW125484   6.019   6.571   2.846
 8195SOL    HW225485   6.038   6.450   2.954
 8196SOL     OW25486   4.883   0.737   0.644
 8196SOL    HW125487   4.916   0.769   0.556
 8196SOL    HW225488   4.866   0.639   0.640
 8197SOL     OW25489   3.767   1.531   2.481
 8197SOL    HW125490   3.845   1.544   2.542
 8197SOL    HW225491   3.774   1.593   2.403
 8198SOL     OW25492   1.411   0.219   2.355
 8198SOL    HW125493   1.448   0.135   2.396
 8198SOL    HW225494   1.364   0.196   2.270
 8199SOL     OW25495   5.775   2.818   6.338
 8199SOL    HW125496   5.695   2.829   6.396
 8199SOL    HW225497   5.798   2.905   6.295
 8200SOL     OW25498   4.535   3.134   0.696
 8200SOL    HW125499   4.513   3.170   0.605
 8200SOL    HW225500   4.451   3.111   0.744
 8201SOL     OW25501   6.516   6.667   5.481
 8201SOL    HW125502   6.462   6.639   5.401
 8201SOL    HW225503   6.460   6.727   5.538
 8202SOL     OW25504   0.756   6.892   2.027
 8202SOL    HW125505   0.742   6.797   2.054
 8202SOL    HW225506   0.834   6.930   2.078
 8203SOL     OW25507   1.193   3.441   1.556
 8203SOL    HW125508   1.293   3.447   1.552
 8203SOL    HW225509   1.155   3.452   1.464
 8204SOL     OW25510   2.950   2.910   1.032
 8204SOL    HW125511   3.000   2.838   0.984
 8204SOL    HW225512   2.960   2.897   1.131
 8205SOL     OW25513   1.058   3.621   0.541
 8205SOL    HW125514   1.098   3.600   0.630
 8205SOL    HW225515   1.130   3.650   0.478
 8206SOL     OW25516   3.770   0.533   0.465
 8206SOL    HW125517   3.866   0.519   0.488
 8206SOL    HW225518   3.725   0.445   0.452
 8207SOL     OW25519   4.038   3.252   4.635
 8207SOL    HW125520   4.097   3.329   4.610
 8207SOL    HW225521   3.946   3.286   4.655
 8208SOL     OW25522   2.587   0.720   0.699
 8208SOL    HW125523   2.602   0.622   0.705
 8208SOL    HW225524   2.671   0.768   0.726
 8209SOL     OW25525   5.983   1.175   5.351
 8209SOL    HW125526   6.062   1.232   5.372
 8209SOL    HW225527   5.928   1.218   5.280
 8210SOL     OW25528   1.664   2.762   7.011
 8210SOL    HW125529   1.621   2.672   7.012
 8210SOL    HW225530   1.622   2.820   0.058
 8211SOL     OW25531   2.963   4.562   1.457
 8211SOL    HW125532   3.004   4.590   1.371
 8211SOL    HW225533   3.019   4.594   1.533
 8212SOL     OW25534   1.499   2.842   3.621
 8212SOL    HW125535   1.576   2.903   3.639
 8212SOL    HW225536   1.467   2.802   3.707
 8213SOL     OW25537   0.017   5.261   1.394
 8213SOL    HW125538   0.038   5.166   1.370
 8213SOL    HW225539   6.972   5.297   1.332
 8214SOL     OW25540   5.523   4.322   3.407
 8214SOL    HW125541   5.434   4.352   3.442
 8214SOL    HW225542   5.592   4.333   3.479
 8215SOL     OW25543   3.567   5.673   4.366
 8215SOL    HW125544   3.597   5.644   4.276
 8215SOL    HW225545   3.518   5.760   4.359
 8216SOL     OW25546   5.308   4.465   3.497
 8216SOL    HW125547   5.235   4.475   3.565
 8216SOL    HW225548   5.321   4.551   3.449
 8217SOL     OW25549   2.017   5.988   0.206
 8217SOL    HW125550   2.011   5.949   0.298
 8217SOL    HW225551   1.925   6.003   0.170
 8218SOL     OW25552   0.507   1.530   0.134
 8218SOL    HW125553   0.529   1.456   0.198
 8218SOL    HW225554   0.454   1.495   0.058
 8219SOL     OW25555   6.462   2.306   6.951
 8219SOL    HW125556   6.404   2.265   7.021
 8219SOL    HW225557   6.558   2.299   6.979
 8220SOL     OW25558   3.470   3.541   2.475
 8220SOL    HW125559   3.416   3.475   2.527
 8220SOL    HW225560   3.410   3.613   2.440
 8221SOL     OW25561   5.100   5.638   3.603
 8221SOL    HW125562   5.181   5.696   3.593
 8221SOL    HW225563   5.126   5.551   3.645
 8222SOL     OW25564   5.269   1.550   1.862
 8222SOL    HW125565   5.320   1.525   1.779
 8222SOL    HW225566   5.173   1.566   1.838
 8223SOL     OW25567   0.441   4.546   6.206
 8223SOL    HW125568   0.460   4.607   6.129
 8223SOL    HW225569   0.344   4.553   6.230
 8224SOL     OW25570   1.098   2.866   4.188
 8224SOL    HW125571   1.090   2.921   4.271
 8224SOL    HW225572   1.120   2.771   4.214
 8225SOL     OW25573   4.876   1.228   0.243
 8225SOL    HW125574   4.897   1.213   0.339
 8225SOL    HW225575   4.819   1.153   0.209
 8226SOL     OW25576   5.230   0.250   0.798
 8226SOL    HW125577   5.251   0.347   0.809
 8226SOL    HW225578   5.139   0.240   0.758
 8227SOL     OW25579   6.251   3.408   3.649
 8227SOL    HW125580   6.235   3.334   3.714
 8227SOL    HW225581   6.298   3.373   3.568
 8228SOL     OW25582   6.278   2.544   5.507
 8228SOL    HW125583   6.205   2.600   5.546
 8228SOL    HW225584   6.239   2.462   5.465
 8229SOL     OW25585   3.744   5.099   6.918
 8229SOL    HW125586   3.800   5.176   6.888
 8229SOL    HW225587   3.764   5.077   7.014
 8230SOL     OW25588   5.497   0.525   4.366
 8230SOL    HW125589   5.578   0.470   4.389
 8230SOL    HW225590   5.523   0.596   4.300
 8231SOL     OW25591   5.133   6.369   0.736
 8231SOL    HW125592   5.125   6.289   0.677
 8231SOL    HW225593   5.211   6.358   0.797
 8232SOL     OW25594   3.717   2.237   6.227
 8232SOL    HW125595   3.676   2.285   6.304
 8232SOL    HW225596   3.692   2.283   6.142
 8233SOL     OW25597   0.558   5.325   6.965
 8233SOL    HW125598   0.554   5.260   6.889
 8233SOL    HW225599   0.581   5.275   0.025
 8234SOL     OW25600   3.092   2.729   6.312
 8234SOL    HW125601   3.023   2.802   6.312
 8234SOL    HW225602   3.172   2.760   6.362
 8235SOL     OW25603   4.106   3.735   1.119
 8235SOL    HW125604   4.198   3.695   1.115
 8235SOL    HW225605   4.065   3.735   1.028
 8236SOL     OW25606   5.963   3.208   0.455
 8236SOL    HW125607   5.894   3.202   0.384
 8236SOL    HW225608   5.997   3.116   0.476
 8237SOL     OW25609   3.946   6.331   5.249
 8237SOL    HW125610   3.904   6.241   5.234
 8237SOL    HW225611   3.890   6.383   5.313
 8238SOL     OW25612   1.727   1.915   6.412
 8238SOL    HW125613   1.784   1.920   6.330
 8238SOL    HW225614   1.631   1.928   6.387
 8239SOL     OW25615   0.499   1.439   5.883
 8239SOL    HW125616   0.507   1.420   5.785
 8239SOL    HW225617   0.528   1.533   5.901
 8240SOL     OW25618   3.469   4.133   3.502
 8240SOL    HW125619   3.482   4.036   3.522
 8240SOL    HW225620   3.539   4.164   3.439
 8241SOL     OW25621   3.810   6.913   0.167
 8241SOL    HW125622   3.900   6.947   0.141
 8241SOL    HW225623   3.819   6.854   0.248
 8242SOL     OW25624   1.076   4.569   5.757
 8242SOL    HW125625   1.098   4.486   5.707
 8242SOL    HW225626   1.000   4.552   5.820
 8243SOL     OW25627   0.847   3.594   5.410
 8243SOL    HW125628   0.866   3.691   5.428
 8243SOL    HW225629   0.923   3.554   5.359
 8244SOL     OW25630   0.520   6.601   4.029
 8244SOL    HW125631   0.552   6.507   4.015
 8244SOL    HW225632   0.425   6.599   4.060
 8245SOL     OW25633   3.679   2.370   1.086
 8245SOL    HW125634   3.746   2.320   1.142
 8245SOL    HW225635   3.648   2.311   1.012
 8246SOL     OW25636   5.695   3.601   6.059
 8246SOL    HW125637   5.619   3.547   6.022
 8246SOL    HW225638   5.702   3.585   6.158
 8247SOL     OW25639   0.805   0.345   1.559
 8247SOL    HW125640   0.856   0.272   1.513
 8247SOL    HW225641   0.753   0.397   1.492
 8248SOL     OW25642   5.657   4.635   3.583
 8248SOL    HW125643   5.724   4.708   3.573
 8248SOL    HW225644   5.565   4.675   3.589
 8249SOL     OW25645   2.202   4.733   3.681
 8249SOL    HW125646   2.226   4.638   3.661
 8249SOL    HW225647   2.103   4.742   3.681
 8250SOL     OW25648   4.052   3.842   2.787
 8250SOL    HW125649   4.121   3.877   2.723
 8250SOL    HW225650   4.059   3.742   2.792
 8251SOL     OW25651   5.763   1.783   4.453
 8251SOL    HW125652   5.710   1.755   4.533
 8251SOL    HW225653   5.735   1.729   4.373
 8252SOL     OW25654   1.881   2.793   5.651
 8252SOL    HW125655   1.975   2.810   5.677
 8252SOL    HW225656   1.848   2.867   5.592
 8253SOL     OW25657   3.521   2.852   5.153
 8253SOL    HW125658   3.555   2.906   5.076
 8253SOL    HW225659   3.432   2.888   5.183
 8254SOL     OW25660   3.784   5.335   3.703
 8254SOL    HW125661   3.822   5.317   3.612
 8254SOL    HW225662   3.859   5.346   3.768
 8255SOL     OW25663   4.339   5.639   4.130
 8255SOL    HW125664   4.294   5.609   4.214
 8255SOL    HW225665   4.424   5.687   4.153
 8256SOL     OW25666   6.713   1.528   4.470
 8256SOL    HW125667   6.730   1.432   4.447
 8256SOL    HW225668   6.800   1.578   4.468
 8257SOL     OW25669   6.315   5.172   3.298
 8257SOL    HW125670   6.331   5.178   3.200
 8257SOL    HW225671   6.388   5.221   3.347
 8258SOL     OW25672   3.962   1.465   0.010
 8258SOL    HW125673   3.967   1.561   0.037
 8258SOL    HW225674   3.875   1.447   6.989
 8259SOL     OW25675   3.513   2.054   2.560
 8259SOL    HW125676   3.594   2.002   2.586
 8259SOL    HW225677   3.527   2.094   2.469
 8260SOL     OW25678   3.030   6.555   0.547
 8260SOL    HW125679   3.116   6.556   0.597
 8260SOL    HW225680   2.985   6.466   0.559
 8261SOL     OW25681   5.392   1.214   1.924
 8261SOL    HW125682   5.351   1.125   1.943
 8261SOL    HW225683   5.379   1.274   2.003
 8262SOL     OW25684   0.873   2.599   1.826
 8262SOL    HW125685   0.948   2.626   1.886
 8262SOL    HW225686   0.810   2.540   1.876
 8263SOL     OW25687   6.607   1.752   1.119
 8263SOL    HW125688   6.698   1.789   1.134
 8263SOL    HW225689   6.559   1.744   1.206
 8264SOL     OW25690   2.021   5.390   2.836
 8264SOL    HW125691   1.983   5.482   2.831
 8264SOL    HW225692   2.099   5.389   2.899
 8265SOL     OW25693   1.889   0.737   1.855
 8265SOL    HW125694   1.928   0.686   1.931
 8265SOL    HW225695   1.944   0.818   1.837
 8266SOL     OW25696   3.618   6.673   2.556
 8266SOL    HW125697   3.558   6.751   2.537
 8266SOL    HW225698   3.693   6.703   2.616
 8267SOL     OW25699   1.324   3.337   1.026
 8267SOL    HW125700   1.261   3.415   1.015
 8267SOL    HW225701   1.398   3.363   1.087
 8268SOL     OW25702   2.565   6.436   5.849
 8268SOL    HW125703   2.527   6.525   5.825
 8268SOL    HW225704   2.551   6.419   5.947
 8269SOL     OW25705   5.732   1.767   1.426
 8269SOL    HW125706   5.700   1.842   1.484
 8269SOL    HW225707   5.832   1.766   1.425
 8270SOL     OW25708   3.348   6.287   3.642
 8270SOL    HW125709   3.426   6.346   3.663
 8270SOL    HW225710   3.382   6.195   3.621
 8271SOL     OW25711   6.927   1.437   3.326
 8271SOL    HW125712   6.992   1.362   3.316
 8271SOL    HW225713   6.885   1.458   3.238
 8272SOL     OW25714   3.473   0.818   2.533
 8272SOL    HW125715   3.446   0.904   2.491
 8272SOL    HW225716   3.479   0.830   2.633
 8273SOL     OW25717   2.521   6.979   0.993
 8273SOL    HW125718   2.429   6.985   0.954
 8273SOL    HW225719   2.550   6.883   0.996
 8274SOL     OW25720   4.990   5.341   3.329
 8274SOL    HW125721   4.919   5.322   3.262
 8274SOL    HW225722   4.952   5.397   3.403
 8275SOL     OW25723   5.230   1.716   6.114
 8275SOL    HW125724   5.317   1.759   6.138
 8275SOL    HW225725   5.223   1.708   6.015
 8276SOL     OW25726   1.180   1.879   3.737
 8276SOL    HW125727   1.152   1.808   3.802
 8276SOL    HW225728   1.147   1.856   3.646
 8277SOL     OW25729   0.244   0.397   6.932
 8277SOL    HW125730   0.256   0.451   7.015
 8277SOL    HW225731   0.333   0.360   6.904
 8278SOL     OW25732   2.223   2.527   0.461
 8278SOL    HW125733   2.132   2.499   0.491
 8278SOL    HW225734   2.223   2.539   0.362
 8279SOL     OW25735   0.527   6.356   4.173
 8279SOL    HW125736   0.531   6.259   4.200
 8279SOL    HW225737   0.433   6.388   4.179
 8280SOL     OW25738   3.369   2.583   5.563
 8280SOL    HW125739   3.397   2.585   5.467
 8280SOL    HW225740   3.272   2.557   5.569
 8281SOL     OW25741   6.518   6.501   1.702
 8281SOL    HW125742   6.612   6.479   1.727
 8281SOL    HW225743   6.462   6.505   1.785
 8282SOL     OW25744   5.486   2.397   5.426
 8282SOL    HW125745   5.461   2.405   5.330
 8282SOL    HW225746   5.542   2.315   5.440
 8283SOL     OW25747   1.999   3.977   5.918
 8283SOL    HW125748   2.012   3.940   5.826
 8283SOL    HW225749   1.933   3.921   5.968
 8284SOL     OW25750   6.912   4.658   2.181
 8284SOL    HW125751   6.914   4.573   2.127
 8284SOL    HW225752   6.896   4.736   2.120
 8285SOL     OW25753   3.587   3.336   5.445
 8285SOL    HW125754   3.614   3.262   5.383
 8285SOL    HW225755   3.587   3.301   5.539
 8286SOL     OW25756   6.376   2.128   5.973
 8286SOL    HW125757   6.444   2.074   6.023
 8286SOL    HW225758   6.380   2.223   6.004
 8287SOL     OW25759   1.471   5.601   4.919
 8287SOL    HW125760   1.517   5.526   4.872
 8287SOL    HW225761   1.410   5.564   4.989
 8288SOL     OW25762   2.377   2.652   3.055
 8288SOL    HW125763   2.344   2.649   2.961
 8288SOL    HW225764   2.452   2.587   3.067
 8289SOL     OW25765   0.605   6.675   0.255
 8289SOL    HW125766   0.590   6.618   0.336
 8289SOL    HW225767   0.555   6.761   0.265
 8290SOL     OW25768   6.068   1.834   0.641
 8290SOL    HW125769   6.039   1.891   0.564
 8290SOL    HW225770   6.061   1.886   0.726
 8291SOL     OW25771   4.187   0.129   6.152
 8291SOL    HW125772   4.144   0.153   6.239
 8291SOL    HW225773   4.195   0.212   6.096
 8292SOL     OW25774   3.200   6.224   6.729
 8292SOL    HW125775   3.250   6.280   6.795
 8292SOL    HW225776   3.106   6.211   6.760
 8293SOL     OW25777   5.195   6.038   6.246
 8293SOL    HW125778   5.261   6.012   6.176
 8293SOL    HW225779   5.116   6.082   6.204
 8294SOL     OW25780   5.217   2.499   6.721
 8294SOL    HW125781   5.242   2.577   6.664
 8294SOL    HW225782   5.194   2.421   6.662
 8295SOL     OW25783   5.102   4.078   1.377
 8295SOL    HW125784   5.053   4.149   1.325
 8295SOL    HW225785   5.185   4.052   1.328
 8296SOL     OW25786   1.677   5.352   0.011
 8296SOL    HW125787   1.615   5.306   0.074
 8296SOL    HW225788   1.767   5.363   0.054
 8297SOL     OW25789   6.469   2.383   3.497
 8297SOL    HW125790   6.377   2.392   3.459
 8297SOL    HW225791   6.477   2.442   3.577
 8298SOL     OW25792   5.222   0.894   1.524
 8298SOL    HW125793   5.127   0.911   1.496
 8298SOL    HW225794   5.233   0.923   1.619
 8299SOL     OW25795   6.426   2.059   2.216
 8299SOL    HW125796   6.512   2.071   2.265
 8299SOL    HW225797   6.359   2.126   2.249
 8300SOL     OW25798   0.668   4.249   4.493
 8300SOL    HW125799   0.700   4.313   4.423
 8300SOL    HW225800   0.665   4.296   4.582
 8301SOL     OW25801   4.117   3.165   0.539
 8301SOL    HW125802   4.047   3.127   0.599
 8301SOL    HW225803   4.097   3.141   0.444
 8302SOL     OW25804   5.780   6.161   6.645
 8302SOL    HW125805   5.812   6.148   6.551
 8302SOL    HW225806   5.842   6.223   6.692
 8303SOL     OW25807   0.202   0.007   4.800
 8303SOL    HW125808   0.226   7.007   4.706
 8303SOL    HW225809   0.112   0.051   4.801
 8304SOL     OW25810   0.607   3.703   6.404
 8304SOL    HW125811   0.611   3.604   6.410
 8304SOL    HW225812   0.698   3.740   6.390
 8305SOL     OW25813   3.546   5.273   3.883
 8305SOL    HW125814   3.496   5.279   3.796
 8305SOL    HW225815   3.642   5.253   3.864
 8306SOL     OW25816   0.171   2.851   4.649
 8306SOL    HW125817   0.225   2.768   4.661
 8306SOL    HW225818   0.126   2.875   4.735
 8307SOL     OW25819   3.875   5.532   0.609
 8307SOL    HW125820   3.970   5.543   0.639
 8307SOL    HW225821   3.815   5.533   0.689
 8308SOL     OW25822   3.896   6.493   2.186
 8308SOL    HW125823   3.835   6.532   2.117
 8308SOL    HW225824   3.841   6.461   2.264
 8309SOL     OW25825   5.836   5.764   2.365
 8309SOL    HW125826   5.877   5.686   2.411
 8309SOL    HW225827   5.826   5.744   2.267
 8310SOL     OW25828   7.016   4.918   0.877
 8310SOL    HW125829   0.040   4.831   0.870
 8310SOL    HW225830   6.933   4.906   0.933
 8311SOL     OW25831   6.662   1.047   6.943
 8311SOL    HW125832   6.651   0.949   6.957
 8311SOL    HW225833   6.639   1.096   0.004
 8312SOL     OW25834   5.170   6.625   1.476
 8312SOL    HW125835   5.119   6.546   1.442
 8312SOL    HW225836   5.259   6.595   1.510
 8313SOL     OW25837   3.295   1.690   2.406
 8313SOL    HW125838   3.275   1.728   2.316
 8313SOL    HW225839   3.374   1.628   2.399
 8314SOL     OW25840   6.221   0.264   1.699
 8314SOL    HW125841   6.222   0.358   1.733
 8314SOL    HW225842   6.206   0.265   1.600
 8315SOL     OW25843   5.025   3.268   0.248
 8315SOL    HW125844   5.000   3.267   0.345
 8315SOL    HW225845   4.965   3.331   0.199
 8316SOL     OW25846   1.315   4.171   0.609
 8316SOL    HW125847   1.301   4.172   0.708
 8316SOL    HW225848   1.335   4.263   0.576
 8317SOL     OW25849   2.174   4.574   2.233
 8317SOL    HW125850   2.249   4.507   2.234
 8317SOL    HW225851   2.176   4.624   2.146
 8318SOL     OW25852   4.324   1.563   4.512
 8318SOL    HW125853   4.357   1.496   4.446
 8318SOL    HW225854   4.225   1.551   4.525
 8319SOL     OW25855   3.280   1.123   5.138
 8319SOL    HW125856   3.294   1.056   5.064
 8319SOL    HW225857   3.205   1.092   5.197
 8320SOL     OW25858   2.948   4.578   1.162
 8320SOL    HW125859   3.002   4.655   1.129
 8320SOL    HW225860   2.850   4.601   1.157
 8321SOL     OW25861   1.013   0.219   0.924
 8321SOL    HW125862   0.923   0.261   0.931
 8321SOL    HW225863   1.035   0.202   0.828
 8322SOL     OW25864   0.360   0.561   6.699
 8322SOL    HW125865   0.443   0.523   6.661
 8322SOL    HW225866   0.280   0.521   6.653
 8323SOL     OW25867   0.793   1.429   2.713
 8323SOL    HW125868   0.794   1.351   2.651
 8323SOL    HW225869   0.883   1.440   2.755
 8324SOL     OW25870   6.032   0.161   2.171
 8324SOL    HW125871   6.073   0.227   2.108
 8324SOL    HW225872   6.104   0.118   2.226
 8325SOL     OW25873   3.131   3.147   4.226
 8325SOL    HW125874   3.185   3.067   4.254
 8325SOL    HW225875   3.176   3.230   4.259
 8326SOL     OW25876   4.243   2.824   5.488
 8326SOL    HW125877   4.219   2.739   5.536
 8326SOL    HW225878   4.303   2.879   5.546
 8327SOL     OW25879   5.762   2.088   6.171
 8327SOL    HW125880   5.714   2.176   6.180
 8327SOL    HW225881   5.755   2.056   6.076
 8328SOL     OW25882   2.289   2.327   5.848
 8328SOL    HW125883   2.301   2.419   5.886
 8328SOL    HW225884   2.287   2.260   5.923
 8329SOL     OW25885   6.906   2.646   5.560
 8329SOL    HW125886   6.849   2.724   5.585
 8329SOL    HW225887   6.908   2.581   5.636
 8330SOL     OW25888   1.943   6.629   0.549
 8330SOL    HW125889   1.889   6.604   0.470
 8330SOL    HW225890   2.036   6.651   0.520
 8331SOL     OW25891   3.128   0.119   1.560
 8331SOL    HW125892   3.094   0.130   1.466
 8331SOL    HW225893   3.178   0.202   1.587
 8332SOL     OW25894   4.695   5.457   2.410
 8332SOL    HW125895   4.656   5.442   2.319
 8332SOL    HW225896   4.677   5.377   2.467
 8333SOL     OW25897   0.318   5.838   0.119
 8333SOL    HW125898   0.279   5.804   0.033
 8333SOL    HW225899   0.244   5.855   0.184
 8334SOL     OW25900   6.396   2.012   3.970
 8334SOL    HW125901   6.304   1.976   3.983
 8334SOL    HW225902   6.401   2.061   3.883
 8335SOL     OW25903   6.212   6.142   5.833
 8335SOL    HW125904   6.179   6.220   5.780
 8335SOL    HW225905   6.134   6.085   5.861
 8336SOL     OW25906   0.812   1.432   1.624
 8336SOL    HW125907   0.802   1.528   1.600
 8336SOL    HW225908   0.905   1.415   1.658
 8337SOL     OW25909   0.659   6.111   2.697
 8337SOL    HW125910   0.671   6.181   2.767
 8337SOL    HW225911   0.732   6.043   2.705
 8338SOL     OW25912   1.510   4.568   1.438
 8338SOL    HW125913   1.533   4.647   1.494
 8338SOL    HW225914   1.476   4.494   1.497
 8339SOL     OW25915   5.590   1.898   2.363
 8339SOL    HW125916   5.594   1.826   2.294
 8339SOL    HW225917   5.682   1.921   2.394
 8340SOL     OW25918   4.832   3.747   0.652
 8340SOL    HW125919   4.901   3.745   0.579
 8340SOL    HW225920   4.793   3.656   0.663
 8341SOL     OW25921   2.479   6.128   1.289
 8341SOL    HW125922   2.468   6.224   1.316
 8341SOL    HW225923   2.461   6.119   1.191
 8342SOL     OW25924   4.323   1.022   0.904
 8342SOL    HW125925   4.419   0.994   0.906
 8342SOL    HW225926   4.303   1.066   0.817
 8343SOL     OW25927   1.566   5.302   6.119
 8343SOL    HW125928   1.656   5.338   6.143
 8343SOL    HW225929   1.567   5.203   6.126
 8344SOL     OW25930   4.514   6.451   6.001
 8344SOL    HW125931   4.610   6.426   6.012
 8344SOL    HW225932   4.495   6.534   6.054
 8345SOL     OW25933   6.063   1.377   2.890
 8345SOL    HW125934   6.094   1.389   2.984
 8345SOL    HW225935   5.984   1.316   2.887
 8346SOL     OW25936   2.733   5.286   1.415
 8346SOL    HW125937   2.722   5.315   1.510
 8346SOL    HW225938   2.805   5.217   1.409
 8347SOL     OW25939   3.419   6.909   5.362
 8347SOL    HW125940   3.399   6.994   5.312
 8347SOL    HW225941   3.430   6.929   5.459
 8348SOL     OW25942   0.711   1.154   1.066
 8348SOL    HW125943   0.741   1.114   0.979
 8348SOL    HW225944   0.637   1.099   1.105
 8349SOL     OW25945   5.870   3.692   1.042
 8349SOL    HW125946   5.902   3.719   0.952
 8349SOL    HW225947   5.905   3.755   1.111
 8350SOL     OW25948   6.677   1.175   5.513
 8350SOL    HW125949   6.713   1.180   5.420
 8350SOL    HW225950   6.753   1.181   5.578
 8351SOL     OW25951   3.234   6.268   3.882
 8351SOL    HW125952   3.250   6.302   3.789
 8351SOL    HW225953   3.295   6.191   3.900
 8352SOL     OW25954   6.733   6.510   2.576
 8352SOL    HW125955   6.658   6.538   2.516
 8352SOL    HW225956   6.698   6.451   2.649
 8353SOL     OW25957   6.844   3.597   2.863
 8353SOL    HW125958   6.849   3.564   2.957
 8353SOL    HW225959   6.852   3.520   2.800
 8354SOL     OW25960   2.792   1.346   6.620
 8354SOL    HW125961   2.838   1.330   6.533
 8354SOL    HW225962   2.840   1.417   6.671
 8355SOL     OW25963   3.719   0.199   6.693
 8355SOL    HW125964   3.633   0.194   6.744
 8355SOL    HW225965   3.734   0.293   6.662
 8356SOL     OW25966   1.698   5.898   0.430
 8356SOL    HW125967   1.610   5.881   0.472
 8356SOL    HW225968   1.754   5.815   0.433
 8357SOL     OW25969   4.216   5.884   5.159
 8357SOL    HW125970   4.249   5.794   5.188
 8357SOL    HW225971   4.121   5.896   5.189
 8358SOL     OW25972   2.167   2.840   5.657
 8358SOL    HW125973   2.227   2.792   5.592
 8358SOL    HW225974   2.197   2.934   5.666
 8359SOL     OW25975   4.502   5.551   4.483
 8359SOL    HW125976   4.553   5.497   4.549
 8359SOL    HW225977   4.435   5.493   4.437
 8360SOL     OW25978   5.330   6.505   3.182
 8360SOL    HW125979   5.249   6.490   3.125
 8360SOL    HW225980   5.305   6.492   3.278
 8361SOL     OW25981   1.814   0.928   2.678
 8361SOL    HW125982   1.807   0.829   2.691
 8361SOL    HW225983   1.786   0.951   2.584
 8362SOL     OW25984   2.593   2.307   6.954
 8362SOL    HW125985   2.511   2.260   6.986
 8362SOL    HW225986   2.595   2.400   6.992
 8363SOL     OW25987   0.176   2.964   0.197
 8363SOL    HW125988   0.104   2.898   0.178
 8363SOL    HW225989   0.215   2.947   0.287
 8364SOL     OW25990   6.634   3.477   3.347
 8364SOL    HW125991   6.648   3.576   3.341
 8364SOL    HW225992   6.662   3.444   3.437
 8365SOL     OW25993   1.631   3.012   6.545
 8365SOL    HW125994   1.706   2.996   6.481
 8365SOL    HW225995   1.645   2.958   6.628
 8366SOL     OW25996   3.940   6.210   2.556
 8366SOL    HW125997   3.854   6.255   2.532
 8366SOL    HW225998   3.926   6.149   2.634
 8367SOL     OW25999   5.289   6.078   3.981
 8367SOL    HW126000   5.277   5.995   4.034
 8367SOL    HW226001   5.320   6.152   4.041
 8368SOL     OW26002   2.325   5.227   5.555
 8368SOL    HW126003   2.326   5.164   5.632
 8368SOL    HW226004   2.236   5.223   5.510
 8369SOL     OW26005   2.372   1.589   0.396
 8369SOL    HW126006   2.352   1.588   0.297
 8369SOL    HW226007   2.360   1.496   0.432
 8370SOL     OW26008   1.311   1.672   6.666
 8370SOL    HW126009   1.363   1.672   6.581
 8370SOL    HW226010   1.214   1.687   6.646
 8371SOL     OW26011   1.510   3.093   0.774
 8371SOL    HW126012   1.528   3.134   0.684
 8371SOL    HW226013   1.430   3.137   0.815
 8372SOL     OW26014   6.778   0.932   2.888
 8372SOL    HW126015   6.715   0.855   2.898
 8372SOL    HW226016   6.728   1.018   2.900
 8373SOL     OW26017   1.331   5.683   5.270
 8373SOL    HW126018   1.275   5.636   5.202
 8373SOL    HW226019   1.291   5.671   5.360
 8374SOL     OW26020   6.686   0.383   0.056
 8374SOL    HW126021   6.782   0.381   0.032
 8374SOL    HW226022   6.642   0.299   0.024
 8375SOL     OW26023   3.232   0.170   6.067
 8375SOL    HW126024   3.324   0.191   6.102
 8375SOL    HW226025   3.182   0.256   6.054
 8376SOL     OW26026   2.687   0.781   4.121
 8376SOL    HW126027   2.724   0.865   4.082
 8376SOL    HW226028   2.702   0.705   4.058
 8377SOL     OW26029   6.045   4.506   1.658
 8377SOL    HW126030   5.979   4.453   1.605
 8377SOL    HW226031   6.007   4.526   1.748
 8378SOL     OW26032   4.914   3.482   2.912
 8378SOL    HW126033   4.852   3.555   2.941
 8378SOL    HW226034   5.008   3.515   2.914
 8379SOL     OW26035   6.470   3.103   2.808
 8379SOL    HW126036   6.479   3.003   2.807
 8379SOL    HW226037   6.384   3.129   2.765
 8380SOL     OW26038   4.433   1.455   2.883
 8380SOL    HW126039   4.375   1.379   2.852
 8380SOL    HW226040   4.500   1.421   2.948
 8381SOL     OW26041   1.702   5.386   5.418
 8381SOL    HW126042   1.763   5.326   5.368
 8381SOL    HW226043   1.666   5.456   5.357
 8382SOL     OW26044   1.042   3.038   2.474
 8382SOL    HW126045   1.036   3.018   2.572
 8382SOL    HW226046   0.983   2.975   2.423
 8383SOL     OW26047   3.004   2.558   5.915
 8383SOL    HW126048   2.971   2.647   5.885
 8383SOL    HW226049   3.015   2.558   6.014
 8384SOL     OW26050   0.226   6.976   2.343
 8384SOL    HW126051   0.316   7.007   2.375
 8384SOL    HW226052   0.167   0.032   2.329
 8385SOL     OW26053   5.016   2.569   1.977
 8385SOL    HW126054   5.036   2.642   2.042
 8385SOL    HW226055   4.945   2.599   1.914
 8386SOL     OW26056   0.802   4.180   2.704
 8386SOL    HW126057   0.770   4.086   2.715
 8386SOL    HW226058   0.867   4.202   2.777
 8387SOL     OW26059   0.745   2.675   1.125
 8387SOL    HW126060   0.681   2.728   1.069
 8387SOL    HW226061   0.694   2.631   1.199
 8388SOL     OW26062   2.452   0.435   2.080
 8388SOL    HW126063   2.532   0.461   2.133
 8388SOL    HW226064   2.470   0.449   1.982
 8389SOL     OW26065   5.146   2.943   2.097
 8389SOL    HW126066   5.215   2.997   2.147
 8389SOL    HW226067   5.190   2.894   2.022
 8390SOL     OW26068   5.449   1.840   5.306
 8390SOL    HW126069   5.480   1.930   5.274
 8390SOL    HW226070   5.528   1.780   5.318
 8391SOL     OW26071   6.291   1.073   1.443
 8391SOL    HW126072   6.350   1.058   1.363
 8391SOL    HW226073   6.272   1.170   1.453
 8392SOL     OW26074   5.755   3.095   4.654
 8392SOL    HW126075   5.679   3.120   4.714
 8392SOL    HW226076   5.840   3.089   4.707
 8393SOL     OW26077   5.364   0.342   1.445
 8393SOL    HW126078   5.337   0.434   1.470
 8393SOL    HW226079   5.390   0.339   1.348
 8394SOL     OW26080   5.913   3.685   1.940
 8394SOL    HW126081   5.864   3.744   1.876
 8394SOL    HW226082   6.001   3.658   1.901
 8395SOL     OW26083   2.303   0.800   5.110
 8395SOL    HW126084   2.293   0.707   5.076
 8395SOL    HW226085   2.233   0.858   5.069
 8396SOL     OW26086   4.418   5.547   4.964
 8396SOL    HW126087   4.410   5.595   4.877
 8396SOL    HW226088   4.447   5.453   4.947
 8397SOL     OW26089   6.491   0.981   3.607
 8397SOL    HW126090   6.568   1.009   3.665
 8397SOL    HW226091   6.484   1.044   3.529
 8398SOL     OW26092   5.400   2.343   5.840
 8398SOL    HW126093   5.459   2.406   5.789
 8398SOL    HW226094   5.305   2.369   5.827
 8399SOL     OW26095   0.137   5.551   0.743
 8399SOL    HW126096   0.040   5.549   0.720
 8399SOL    HW226097   0.148   5.562   0.841
 8400SOL     OW26098   1.486   2.405   4.456
 8400SOL    HW126099   1.457   2.350   4.533
 8400SOL    HW226100   1.528   2.489   4.489
 8401SOL     OW26101   3.365   0.457   5.728
 8401SOL    HW126102   3.339   0.549   5.697
 8401SOL    HW226103   3.286   0.414   5.772
 8402SOL     OW26104   3.936   0.846   6.097
 8402SOL    HW126105   3.864   0.898   6.050
 8402SOL    HW226106   3.959   0.765   6.043
 8403SOL     OW26107   6.097   5.428   4.834
 8403SOL    HW126108   6.103   5.339   4.789
 8403SOL    HW226109   6.184   5.476   4.826
 8404SOL     OW26110   2.161   1.676   6.701
 8404SOL    HW126111   2.220   1.734   6.756
 8404SOL    HW226112   2.067   1.712   6.703
 8405SOL     OW26113   4.221   1.551   5.437
 8405SOL    HW126114   4.193   1.461   5.402
 8405SOL    HW226115   4.269   1.601   5.365
 8406SOL     OW26116   4.778   1.098   6.036
 8406SOL    HW126117   4.786   1.025   5.968
 8406SOL    HW226118   4.681   1.116   6.054
 8407SOL     OW26119   3.626   6.741   4.170
 8407SOL    HW126120   3.639   6.710   4.076
 8407SOL    HW226121   3.709   6.786   4.202
 8408SOL     OW26122   4.758   0.588   1.342
 8408SOL    HW126123   4.678   0.635   1.304
 8408SOL    HW226124   4.731   0.536   1.423
 8409SOL     OW26125   4.394   2.353   2.067
 8409SOL    HW126126   4.347   2.277   2.023
 8409SOL    HW226127   4.414   2.424   1.999
 8410SOL     OW26128   6.869   1.624   1.738
 8410SOL    HW126129   6.794   1.634   1.804
 8410SOL    HW226130   6.855   1.689   1.663
 8411SOL     OW26131   1.502   5.498   0.428
 8411SOL    HW126132   1.567   5.527   0.499
 8411SOL    HW226133   1.509   5.560   0.350
 8412SOL     OW26134   3.190   2.411   6.652
 8412SOL    HW126135   3.129   2.488   6.636
 8412SOL    HW226136   3.208   2.364   6.565
 8413SOL     OW26137   4.454   5.540   5.379
 8413SOL    HW126138   4.529   5.541   5.314
 8413SOL    HW226139   4.436   5.445   5.408
 8414SOL     OW26140   1.091   1.333   2.257
 8414SOL    HW126141   0.996   1.328   2.287
 8414SOL    HW226142   1.150   1.287   2.323
 8415SOL     OW26143   2.793   0.437   5.233
 8415SOL    HW126144   2.698   0.465   5.224
 8415SOL    HW226145   2.821   0.385   5.152
 8416SOL     OW26146   6.426   1.491   5.477
 8416SOL    HW126147   6.436   1.424   5.551
 8416SOL    HW226148   6.460   1.451   5.392
 8417SOL     OW26149   1.500   4.226   5.350
 8417SOL    HW126150   1.464   4.295   5.287
 8417SOL    HW226151   1.555   4.271   5.421
 8418SOL     OW26152   0.971   6.445   2.488
 8418SOL    HW126153   0.907   6.369   2.478
 8418SOL    HW226154   0.970   6.478   2.582
 8419SOL     OW26155   5.445   0.947   3.708
 8419SOL    HW126156   5.412   0.853   3.696
 8419SOL    HW226157   5.371   1.004   3.745
 8420SOL     OW26158   2.837   6.952   2.388
 8420SOL    HW126159   2.819   6.947   2.289
 8420SOL    HW226160   2.934   6.933   2.405
 8421SOL     OW26161   4.638   6.042   6.083
 8421SOL    HW126162   4.624   5.949   6.119
 8421SOL    HW226163   4.603   6.045   5.989
 8422SOL     OW26164   4.905   2.458   2.979
 8422SOL    HW126165   4.984   2.410   3.015
 8422SOL    HW226166   4.908   2.554   3.008
 8423SOL     OW26167   5.902   4.678   6.687
 8423SOL    HW126168   5.986   4.668   6.634
 8423SOL    HW226169   5.823   4.676   6.626
 8424SOL     OW26170   1.994   0.156   4.085
 8424SOL    HW126171   1.943   0.131   4.168
 8424SOL    HW226172   2.086   0.184   4.110
 8425SOL     OW26173   3.847   3.009   2.874
 8425SOL    HW126174   3.907   3.041   2.801
 8425SOL    HW226175   3.828   3.083   2.937
 8426SOL     OW26176   3.345   2.965   2.325
 8426SOL    HW126177   3.364   2.906   2.247
 8426SOL    HW226178   3.251   2.999   2.320
 8427SOL     OW26179   3.469   3.860   3.520
 8427SOL    HW126180   3.451   3.785   3.456
 8427SOL    HW226181   3.427   3.839   3.608
 8428SOL     OW26182   0.095   0.175   1.005
 8428SOL    HW126183   0.041   0.259   1.008
 8428SOL    HW226184   0.150   0.167   1.088
 8429SOL     OW26185   1.686   5.378   6.540
 8429SOL    HW126186   1.650   5.466   6.509
 8429SOL    HW226187   1.760   5.350   6.479
 8430SOL     OW26188   4.144   6.577   4.818
 8430SOL    HW126189   4.210   6.520   4.770
 8430SOL    HW226190   4.192   6.649   4.868
 8431SOL     OW26191   3.124   4.192   5.518
 8431SOL    HW126192   3.065   4.225   5.444
 8431SOL    HW226193   3.211   4.160   5.480
 8432SOL     OW26194   6.466   5.582   6.494
 8432SOL    HW126195   6.459   5.621   6.402
 8432SOL    HW226196   6.414   5.497   6.499
 8433SOL     OW26197   5.148   2.522   0.918
 8433SOL    HW126198   5.058   2.565   0.921
 8433SOL    HW226199   5.152   2.448   0.986
 8434SOL     OW26200   2.111   5.300   5.349
 8434SOL    HW126201   2.097   5.207   5.316
 8434SOL    HW226202   2.042   5.360   5.309
 8435SOL     OW26203   4.653   1.099   2.709
 8435SOL    HW126204   4.595   1.162   2.657
 8435SOL    HW226205   4.595   1.040   2.766
 8436SOL     OW26206   2.338   6.555   2.602
 8436SOL    HW126207   2.392   6.489   2.655
 8436SOL    HW226208   2.242   6.529   2.606
 8437SOL     OW26209   2.175   3.802   2.586
 8437SOL    HW126210   2.268   3.783   2.618
 8437SOL    HW226211   2.156   3.749   2.504
 8438SOL     OW26212   1.500   4.021   2.567
 8438SOL    HW126213   1.561   4.094   2.599
 8438SOL    HW226214   1.459   3.975   2.646
 8439SOL     OW26215   5.840   6.101   3.881
 8439SOL    HW126216   5.906   6.038   3.839
 8439SOL    HW226217   5.748   6.079   3.850
 8440SOL     OW26218   1.703   1.084   2.858
 8440SOL    HW126219   1.717   1.180   2.833
 8440SOL    HW226220   1.756   1.026   2.796
 8441SOL     OW26221   5.957   1.260   5.026
 8441SOL    HW126222   6.053   1.273   5.001
 8441SOL    HW226223   5.917   1.349   5.048
 8442SOL     OW26224   3.651   1.408   5.172
 8442SOL    HW126225   3.603   1.385   5.256
 8442SOL    HW226226   3.589   1.455   5.110
 8443SOL     OW26227   1.340   3.927   2.797
 8443SOL    HW126228   1.322   4.023   2.816
 8443SOL    HW226229   1.300   3.870   2.869
 8444SOL     OW26230   5.203   5.254   4.186
 8444SOL    HW126231   5.151   5.296   4.260
 8444SOL    HW226232   5.163   5.165   4.163
 8445SOL     OW26233   4.599   6.204   6.697
 8445SOL    HW126234   4.549   6.285   6.730
 8445SOL    HW226235   4.656   6.230   6.619
 8446SOL     OW26236   0.109   6.091   4.678
 8446SOL    HW126237   0.128   6.014   4.738
 8446SOL    HW226238   0.093   6.173   4.733
 8447SOL     OW26239   3.766   2.070   3.154
 8447SOL    HW126240   3.864   2.087   3.157
 8447SOL    HW226241   3.739   2.047   3.060
 8448SOL     OW26242   4.437   6.529   2.960
 8448SOL    HW126243   4.535   6.544   2.973
 8448SOL    HW226244   4.412   6.554   2.866
 8449SOL     OW26245   1.733   2.462   3.073
 8449SOL    HW126246   1.788   2.383   3.046
 8449SOL    HW226247   1.638   2.447   3.047
 8450SOL     OW26248   6.931   0.865   0.135
 8450SOL    HW126249   6.831   0.872   0.129
 8450SOL    HW226250   6.973   0.912   0.058
 8451SOL     OW26251   4.551   2.249   1.353
 8451SOL    HW126252   4.520   2.337   1.388
 8451SOL    HW226253   4.650   2.252   1.341
 8452SOL     OW26254   5.242   1.789   5.119
 8452SOL    HW126255   5.326   1.809   5.170
 8452SOL    HW226256   5.218   1.693   5.131
 8453SOL     OW26257   0.569   6.073   0.572
 8453SOL    HW126258   0.535   6.016   0.497
 8453SOL    HW226259   0.602   6.014   0.646
 8454SOL     OW26260   0.335   4.267   0.181
 8454SOL    HW126261   0.264   4.305   0.122
 8454SOL    HW226262   0.349   4.171   0.159
 8455SOL     OW26263   0.395   0.895   2.833
 8455SOL    HW126264   0.489   0.862   2.843
 8455SOL    HW226265   0.381   0.925   2.738
 8456SOL     OW26266   6.051   1.129   3.700
 8456SOL    HW126267   6.056   1.157   3.796
 8456SOL    HW226268   5.957   1.136   3.668
 8457SOL     OW26269   6.310   6.394   4.977
 8457SOL    HW126270   6.265   6.482   4.965
 8457SOL    HW226271   6.409   6.405   4.970
 8458SOL     OW26272   0.339   6.980   6.669
 8458SOL    HW126273   0.402   6.961   6.744
 8458SOL    HW226274   0.278   0.031   6.694
 8459SOL     OW26275   1.549   5.634   3.744
 8459SOL    HW126276   1.621   5.703   3.744
 8459SOL    HW226277   1.468   5.671   3.789
 8460SOL     OW26278   3.409   4.075   5.028
 8460SOL    HW126279   3.479   4.139   4.995
 8460SOL    HW226280   3.354   4.120   5.099
 8461SOL     OW26281   6.192   4.534   3.319
 8461SOL    HW126282   6.219   4.512   3.413
 8461SOL    HW226283   6.273   4.557   3.266
 8462SOL     OW26284   1.978   2.725   1.646
 8462SOL    HW126285   1.901   2.788   1.635
 8462SOL    HW226286   1.971   2.678   1.734
 8463SOL     OW26287   5.529   0.973   2.393
 8463SOL    HW126288   5.550   0.973   2.296
 8463SOL    HW226289   5.552   0.884   2.432
 8464SOL     OW26290   6.320   2.582   4.860
 8464SOL    HW126291   6.288   2.532   4.940
 8464SOL    HW226292   6.390   2.528   4.812
 8465SOL     OW26293   1.522   2.911   0.159
 8465SOL    HW126294   1.500   2.835   0.221
 8465SOL    HW226295   1.546   2.991   0.213
 8466SOL     OW26296   0.796   5.930   3.249
 8466SOL    HW126297   0.783   6.021   3.287
 8466SOL    HW226298   0.768   5.930   3.153
 8467SOL     OW26299   2.658   5.468   0.489
 8467SOL    HW126300   2.666   5.370   0.506
 8467SOL    HW226301   2.638   5.516   0.575
 8468SOL     OW26302   4.362   2.018   0.137
 8468SOL    HW126303   4.340   1.971   0.052
 8468SOL    HW226304   4.424   2.094   0.118
 8469SOL     OW26305   3.384   2.733   6.702
 8469SOL    HW126306   3.423   2.644   6.678
 8469SOL    HW226307   3.452   2.788   6.751
 8470SOL     OW26308   2.322   2.568   5.976
 8470SOL    HW126309   2.314   2.653   6.027
 8470SOL    HW226310   2.416   2.559   5.941
 8471SOL     OW26311   3.404   0.817   3.883
 8471SOL    HW126312   3.330   0.804   3.948
 8471SOL    HW226313   3.485   0.853   3.931
 8472SOL     OW26314   1.494   6.183   4.165
 8472SOL    HW126315   1.549   6.255   4.206
 8472SOL    HW226316   1.466   6.118   4.235
 8473SOL     OW26317   6.313   5.071   0.354
 8473SOL    HW126318   6.279   5.092   0.446
 8473SOL    HW226319   6.367   4.987   0.356
 8474SOL     OW26320   3.542   4.041   1.356
 8474SOL    HW126321   3.551   4.103   1.434
 8474SOL    HW226322   3.564   3.948   1.386
 8475SOL     OW26323   5.618   1.330   2.973
 8475SOL    HW126324   5.687   1.372   3.031
 8475SOL    HW226325   5.602   1.235   3.002
 8476SOL     OW26326   4.651   0.665   2.158
 8476SOL    HW126327   4.662   0.566   2.148
 8476SOL    HW226328   4.725   0.701   2.215
 8477SOL     OW26329   3.134   1.477   1.386
 8477SOL    HW126330   3.060   1.450   1.447
 8477SOL    HW226331   3.096   1.527   1.308
 8478SOL     OW26332   1.203   7.021   5.692
 8478SOL    HW126333   1.151   0.043   5.619
 8478SOL    HW226334   1.204   0.055   5.774
 8479SOL     OW26335   5.795   0.847   1.303
 8479SOL    HW126336   5.822   0.836   1.399
 8479SOL    HW226337   5.696   0.856   1.297
 8480SOL     OW26338   2.266   1.447   1.169
 8480SOL    HW126339   2.363   1.450   1.193
 8480SOL    HW226340   2.227   1.539   1.177
 8481SOL     OW26341   3.356   0.404   4.299
 8481SOL    HW126342   3.279   0.452   4.257
 8481SOL    HW226343   3.412   0.470   4.349
 8482SOL     OW26344   1.060   6.938   2.338
 8482SOL    HW126345   1.029   6.844   2.347
 8482SOL    HW226346   1.035   6.973   2.247
 8483SOL     OW26347   4.264   5.496   1.188
 8483SOL    HW126348   4.356   5.470   1.217
 8483SOL    HW226349   4.245   5.589   1.217
 8484SOL     OW26350   1.073   4.781   4.563
 8484SOL    HW126351   1.001   4.711   4.554
 8484SOL    HW226352   1.054   4.837   4.644
 8485SOL     OW26353   2.815   3.323   6.792
 8485SOL    HW126354   2.775   3.354   6.878
 8485SOL    HW226355   2.827   3.224   6.794
 8486SOL     OW26356   4.319   0.667   2.580
 8486SOL    HW126357   4.316   0.692   2.484
 8486SOL    HW226358   4.370   0.736   2.631
 8487SOL     OW26359   4.344   6.992   0.917
 8487SOL    HW126360   4.300   0.041   0.969
 8487SOL    HW226361   4.409   0.008   0.851
 8488SOL     OW26362   4.722   2.893   3.992
 8488SOL    HW126363   4.678   2.835   4.061
 8488SOL    HW226364   4.663   2.970   3.970
 8489SOL     OW26365   4.188   4.998   2.019
 8489SOL    HW126366   4.230   5.082   2.053
 8489SOL    HW226367   4.091   4.997   2.044
 8490SOL     OW26368   4.048   5.198   2.497
 8490SOL    HW126369   3.971   5.135   2.499
 8490SOL    HW226370   4.016   5.291   2.510
 8491SOL     OW26371   2.234   0.622   2.254
 8491SOL    HW126372   2.262   0.564   2.177
 8491SOL    HW226373   2.307   0.624   2.322
 8492SOL     OW26374   6.062   3.369   5.198
 8492SOL    HW126375   6.098   3.391   5.108
 8492SOL    HW226376   5.965   3.393   5.202
 8493SOL     OW26377   3.839   2.033   0.355
 8493SOL    HW126378   3.896   2.081   0.422
 8493SOL    HW226379   3.886   2.029   0.267
 8494SOL     OW26380   4.201   5.866   6.654
 8494SOL    HW126381   4.215   5.899   6.561
 8494SOL    HW226382   4.188   5.944   6.715
 8495SOL     OW26383   0.124   2.854   0.926
 8495SOL    HW126384   0.193   2.865   0.997
 8495SOL    HW226385   0.045   2.805   0.963
 8496SOL     OW26386   0.142   2.765   3.443
 8496SOL    HW126387   0.170   2.678   3.403
 8496SOL    HW226388   0.134   2.755   3.542
 8497SOL     OW26389   5.935   5.996   3.369
 8497SOL    HW126390   6.021   5.958   3.335
 8497SOL    HW226391   5.885   5.925   3.419
 8498SOL     OW26392   0.273   0.765   0.902
 8498SOL    HW126393   0.207   0.840   0.902
 8498SOL    HW226394   0.361   0.799   0.869
 8499SOL     OW26395   3.448   4.337   6.576
 8499SOL    HW126396   3.470   4.348   6.673
 8499SOL    HW226397   3.529   4.303   6.527
 8500SOL     OW26398   3.100   0.699   6.163
 8500SOL    HW126399   3.084   0.776   6.225
 8500SOL    HW226400   3.090   0.613   6.214
 8501SOL     OW26401   1.801   3.910   6.763
 8501SOL    HW126402   1.793   4.009   6.750
 8501SOL    HW226403   1.850   3.869   6.686
 8502SOL     OW26404   6.446   0.461   2.460
 8502SOL    HW126405   6.460   0.420   2.550
 8502SOL    HW226406   6.495   0.548   2.456
 8503SOL     OW26407   2.775   5.315   3.350
 8503SOL    HW126408   2.751   5.219   3.339
 8503SOL    HW226409   2.841   5.341   3.279
 8504SOL     OW26410   1.332   5.352   3.477
 8504SOL    HW126411   1.363   5.340   3.383
 8504SOL    HW226412   1.232   5.358   3.479
 8505SOL     OW26413   4.934   3.473   3.290
 8505SOL    HW126414   4.891   3.508   3.206
 8505SOL    HW226415   5.025   3.512   3.299
 8506SOL     OW26416   1.240   6.232   0.382
 8506SOL    HW126417   1.283   6.317   0.352
 8506SOL    HW226418   1.152   6.222   0.336
 8507SOL     OW26419   1.348   1.008   5.129
 8507SOL    HW126420   1.390   0.964   5.208
 8507SOL    HW226421   1.387   1.099   5.117
 8508SOL     OW26422   0.762   1.837   6.096
 8508SOL    HW126423   0.730   1.786   6.016
 8508SOL    HW226424   0.751   1.780   6.178
 8509SOL     OW26425   6.465   1.629   4.814
 8509SOL    HW126426   6.443   1.532   4.819
 8509SOL    HW226427   6.563   1.641   4.831
 8510SOL     OW26428   5.818   6.642   2.372
 8510SOL    HW126429   5.734   6.652   2.318
 8510SOL    HW226430   5.841   6.545   2.380
 8511SOL     OW26431   6.459   4.565   1.658
 8511SOL    HW126432   6.531   4.501   1.630
 8511SOL    HW226433   6.399   4.583   1.580
 8512SOL     OW26434   4.731   2.685   6.877
 8512SOL    HW126435   4.794   2.619   6.837
 8512SOL    HW226436   4.780   2.768   6.902
 8513SOL     OW26437   0.116   4.183   1.256
 8513SOL    HW126438   0.117   4.217   1.350
 8513SOL    HW226439   0.051   4.107   1.249
 8514SOL     OW26440   2.816   2.027   5.641
 8514SOL    HW126441   2.750   2.098   5.619
 8514SOL    HW226442   2.794   1.988   5.731
 8515SOL     OW26443   1.077   0.512   1.481
 8515SOL    HW126444   1.123   0.509   1.569
 8515SOL    HW226445   1.044   0.420   1.457
 8516SOL     OW26446   5.859   2.290   3.157
 8516SOL    HW126447   5.803   2.252   3.083
 8516SOL    HW226448   5.799   2.327   3.228
 8517SOL     OW26449   1.859   2.303   4.907
 8517SOL    HW126450   1.787   2.279   4.972
 8517SOL    HW226451   1.896   2.392   4.931
 8518SOL     OW26452   5.072   4.563   6.958
 8518SOL    HW126453   5.114   4.628   7.022
 8518SOL    HW226454   5.013   4.613   6.895
 8519SOL     OW26455   1.500   3.762   0.926
 8519SOL    HW126456   1.588   3.776   0.972
 8519SOL    HW226457   1.490   3.830   0.853
 8520SOL     OW26458   4.170   3.573   5.265
 8520SOL    HW126459   4.112   3.648   5.233
 8520SOL    HW226460   4.125   3.526   5.341
 8521SOL     OW26461   2.029   6.077   5.806
 8521SOL    HW126462   2.012   6.031   5.718
 8521SOL    HW226463   2.036   6.009   5.878
 8522SOL     OW26464   1.167   5.983   0.473
 8522SOL    HW126465   1.228   5.912   0.438
 8522SOL    HW226466   1.183   6.068   0.423
 8523SOL     OW26467   2.791   0.723   0.179
 8523SOL    HW126468   2.756   0.713   0.272
 8523SOL    HW226469   2.727   0.778   0.125
 8524SOL     OW26470   1.760   5.656   4.836
 8524SOL    HW126471   1.810   5.624   4.917
 8524SOL    HW226472   1.669   5.687   4.864
 8525SOL     OW26473   0.363   4.714   1.101
 8525SOL    HW126474   0.318   4.786   1.154
 8525SOL    HW226475   0.449   4.689   1.144
 8526SOL     OW26476   2.123   6.291   0.555
 8526SOL    HW126477   2.050   6.314   0.490
 8526SOL    HW226478   2.195   6.360   0.549
 8527SOL     OW26479   3.130   0.426   5.987
 8527SOL    HW126480   3.085   0.455   5.902
 8527SOL    HW226481   3.153   0.507   6.041
 8528SOL     OW26482   4.977   2.465   0.039
 8528SOL    HW126483   4.919   2.526   0.093
 8528SOL    HW226484   4.965   2.486   6.965
 8529SOL     OW26485   1.402   6.280   6.436
 8529SOL    HW126486   1.414   6.206   6.369
 8529SOL    HW226487   1.319   6.331   6.415
 8530SOL     OW26488   3.249   3.997   4.272
 8530SOL    HW126489   3.157   3.984   4.237
 8530SOL    HW226490   3.246   4.004   4.372
 8531SOL     OW26491   6.955   5.783   3.564
 8531SOL    HW126492   6.941   5.777   3.662
 8531SOL    HW226493   0.015   5.834   3.545
 8532SOL     OW26494   2.661   5.688   4.831
 8532SOL    HW126495   2.607   5.627   4.773
 8532SOL    HW226496   2.604   5.764   4.862
 8533SOL     OW26497   1.756   6.133   5.416
 8533SOL    HW126498   1.764   6.201   5.489
 8533SOL    HW226499   1.807   6.051   5.441
 8534SOL     OW26500   3.811   2.111   3.814
 8534SOL    HW126501   3.828   2.125   3.716
 8534SOL    HW226502   3.784   2.017   3.830
 8535SOL     OW26503   5.832   0.973   2.971
 8535SOL    HW126504   5.828   0.992   3.069
 8535SOL    HW226505   5.860   1.055   2.922
 8536SOL     OW26506   0.276   0.984   4.778
 8536SOL    HW126507   0.303   0.938   4.862
 8536SOL    HW226508   0.357   1.013   4.728
 8537SOL     OW26509   6.961   1.244   3.127
 8537SOL    HW126510   6.889   1.196   3.177
 8537SOL    HW226511   6.940   1.244   3.029
 8538SOL     OW26512   1.188   2.547   6.880
 8538SOL    HW126513   1.092   2.547   6.907
 8538SOL    HW226514   1.237   2.618   6.930
 8539SOL     OW26515   6.433   2.282   2.786
 8539SOL    HW126516   6.446   2.322   2.695
 8539SOL    HW226517   6.337   2.256   2.798
 8540SOL     OW26518   4.432   6.976   0.472
 8540SOL    HW126519   4.464   6.953   0.380
 8540SOL    HW226520   4.387   0.042   0.471
 8541SOL     OW26521   2.067   2.563   3.581
 8541SOL    HW126522   2.134   2.525   3.517
 8541SOL    HW226523   2.011   2.490   3.619
 8542SOL     OW26524   4.413   3.941   6.473
 8542SOL    HW126525   4.354   3.959   6.394
 8542SOL    HW226526   4.475   4.018   6.486
 8543SOL     OW26527   2.178   2.589   6.371
 8543SOL    HW126528   2.136   2.566   6.459
 8543SOL    HW226529   2.114   2.643   6.317
 8544SOL     OW26530   6.123   2.539   3.933
 8544SOL    HW126531   6.028   2.539   3.904
 8544SOL    HW226532   6.156   2.445   3.941
 8545SOL     OW26533   5.477   6.661   4.634
 8545SOL    HW126534   5.451   6.673   4.730
 8545SOL    HW226535   5.402   6.616   4.585
 8546SOL     OW26536   4.618   1.811   4.697
 8546SOL    HW126537   4.696   1.826   4.757
 8546SOL    HW226538   4.649   1.789   4.605
 8547SOL     OW26539   1.201   4.075   3.302
 8547SOL    HW126540   1.226   3.984   3.335
 8547SOL    HW226541   1.232   4.144   3.368
 8548SOL     OW26542   5.966   1.467   5.599
 8548SOL    HW126543   6.035   1.402   5.567
 8548SOL    HW226544   5.937   1.443   5.691
 8549SOL     OW26545   6.187   3.324   4.655
 8549SOL    HW126546   6.197   3.322   4.555
 8549SOL    HW226547   6.196   3.231   4.691
 8550SOL     OW26548   0.881   4.343   6.487
 8550SOL    HW126549   0.952   4.392   6.537
 8550SOL    HW226550   0.868   4.385   6.397
 8551SOL     OW26551   3.407   4.337   0.212
 8551SOL    HW126552   3.317   4.295   0.213
 8551SOL    HW226553   3.477   4.266   0.206
 8552SOL     OW26554   2.125   6.482   4.107
 8552SOL    HW126555   2.164   6.572   4.128
 8552SOL    HW226556   2.095   6.480   4.012
 8553SOL     OW26557   5.867   0.056   0.476
 8553SOL    HW126558   5.796   7.018   0.510
 8553SOL    HW226559   5.833   0.105   0.396
 8554SOL     OW26560   6.385   3.971   6.828
 8554SOL    HW126561   6.381   4.050   6.889
 8554SOL    HW226562   6.471   3.972   6.777
 8555SOL     OW26563   1.503   6.825   3.686
 8555SOL    HW126564   1.414   6.846   3.645
 8555SOL    HW226565   1.535   6.737   3.652
 8556SOL     OW26566   6.016   0.620   3.266
 8556SOL    HW126567   6.050   0.695   3.323
 8556SOL    HW226568   5.952   0.655   3.199
 8557SOL     OW26569   0.377   0.394   1.571
 8557SOL    HW126570   0.406   0.484   1.539
 8557SOL    HW226571   0.380   0.329   1.495
 8558SOL     OW26572   1.404   5.020   1.814
 8558SOL    HW126573   1.373   4.950   1.750
 8558SOL    HW226574   1.415   5.107   1.766
 8559SOL     OW26575   1.205   0.324   0.529
 8559SOL    HW126576   1.138   0.271   0.580
 8559SOL    HW226577   1.297   0.298   0.559
 8560SOL     OW26578   6.219   1.750   0.166
 8560SOL    HW126579   6.134   1.725   0.213
 8560SOL    HW226580   6.198   1.786   0.076
 8561SOL     OW26581   4.701   6.490   3.572
 8561SOL    HW126582   4.625   6.474   3.509
 8561SOL    HW226583   4.688   6.436   3.656
 8562SOL     OW26584   3.235   6.474   4.253
 8562SOL    HW126585   3.177   6.555   4.246
 8562SOL    HW226586   3.331   6.502   4.257
 8563SOL     OW26587   2.377   3.032   6.424
 8563SOL    HW126588   2.463   2.981   6.424
 8563SOL    HW226589   2.315   2.992   6.491
 8564SOL     OW26590   1.420   0.216   3.426
 8564SOL    HW126591   1.471   0.165   3.495
 8564SOL    HW226592   1.409   0.311   3.455
 8565SOL     OW26593   3.536   6.761   2.159
 8565SOL    HW126594   3.459   6.734   2.216
 8565SOL    HW226595   3.616   6.778   2.216
 8566SOL     OW26596   1.899   2.793   3.513
 8566SOL    HW126597   1.958   2.724   3.554
 8566SOL    HW226598   1.854   2.755   3.432
 8567SOL     OW26599   5.311   0.591   1.551
 8567SOL    HW126600   5.249   0.669   1.549
 8567SOL    HW226601   5.315   0.553   1.643
 8568SOL     OW26602   5.539   1.153   0.377
 8568SOL    HW126603   5.617   1.214   0.360
 8568SOL    HW226604   5.563   1.088   0.449
 8569SOL     OW26605   4.045   1.597   4.529
 8569SOL    HW126606   4.035   1.693   4.556
 8569SOL    HW226607   4.039   1.589   4.430
 8570SOL     OW26608   0.037   4.091   0.123
 8570SOL    HW126609   7.009   4.054   0.046
 8570SOL    HW226610   0.075   4.180   0.098
 8571SOL     OW26611   6.675   4.024   5.513
 8571SOL    HW126612   6.631   3.937   5.494
 8571SOL    HW226613   6.608   4.098   5.503
 8572SOL     OW26614   2.511   4.992   4.963
 8572SOL    HW126615   2.511   5.035   4.873
 8572SOL    HW226616   2.604   4.991   4.999
 8573SOL     OW26617   3.429   6.132   5.535
 8573SOL    HW126618   3.441   6.088   5.447
 8573SOL    HW226619   3.442   6.065   5.608
 8574SOL     OW26620   0.560   4.059   5.108
 8574SOL    HW126621   0.651   4.032   5.141
 8574SOL    HW226622   0.499   4.070   5.186
 8575SOL     OW26623   3.591   3.182   0.046
 8575SOL    HW126624   3.589   3.182   0.146
 8575SOL    HW226625   3.631   3.097   0.014
 8576SOL     OW26626   1.837   0.055   1.364
 8576SOL    HW126627   1.751   0.049   1.313
 8576SOL    HW226628   1.869   0.150   1.365
 8577SOL     OW26629   6.773   6.106   3.295
 8577SOL    HW126630   6.780   6.140   3.389
 8577SOL    HW226631   6.835   6.028   3.284
 8578SOL     OW26632   4.264   6.665   3.732
 8578SOL    HW126633   4.286   6.606   3.654
 8578SOL    HW226634   4.165   6.677   3.739
 8579SOL     OW26635   1.050   4.749   3.121
 8579SOL    HW126636   1.007   4.741   3.211
 8579SOL    HW226637   1.032   4.665   3.069
 8580SOL     OW26638   2.430   4.481   6.789
 8580SOL    HW126639   2.402   4.387   6.771
 8580SOL    HW226640   2.523   4.494   6.755
 8581SOL     OW26641   3.242   2.138   1.548
 8581SOL    HW126642   3.337   2.161   1.527
 8581SOL    HW226643   3.240   2.061   1.612
 8582SOL     OW26644   4.170   3.729   1.546
 8582SOL    HW126645   4.171   3.781   1.631
 8582SOL    HW226646   4.263   3.723   1.510
 8583SOL     OW26647   6.206   0.022   6.506
 8583SOL    HW126648   6.262   6.982   6.558
 8583SOL    HW226649   6.109   0.002   6.521
 8584SOL     OW26650   6.596   5.565   0.504
 8584SOL    HW126651   6.688   5.556   0.467
 8584SOL    HW226652   6.534   5.504   0.455
 8585SOL     OW26653   0.085   1.338   0.460
 8585SOL    HW126654   0.068   1.279   0.539
 8585SOL    HW226655   0.177   1.378   0.468
 8586SOL     OW26656   4.025   5.699   3.740
 8586SOL    HW126657   3.927   5.694   3.757
 8586SOL    HW226658   4.045   5.781   3.685
 8587SOL     OW26659   0.300   1.646   1.182
 8587SOL    HW126660   0.258   1.735   1.197
 8587SOL    HW226661   0.364   1.651   1.106
 8588SOL     OW26662   4.924   2.521   6.750
 8588SOL    HW126663   4.878   2.543   6.664
 8588SOL    HW226664   5.018   2.556   6.747
 8589SOL     OW26665   3.248   2.119   4.512
 8589SOL    HW126666   3.335   2.089   4.550
 8589SOL    HW226667   3.180   2.124   4.584
 8590SOL     OW26668   5.959   4.740   5.434
 8590SOL    HW126669   5.934   4.768   5.341
 8590SOL    HW226670   5.958   4.820   5.494
 8591SOL     OW26671   0.635   3.433   6.393
 8591SOL    HW126672   0.618   3.343   6.352
 8591SOL    HW226673   0.734   3.451   6.391
 8592SOL     OW26674   6.007   4.881   0.072
 8592SOL    HW126675   5.918   4.837   0.079
 8592SOL    HW226676   6.004   4.970   0.118
 8593SOL     OW26677   1.217   0.593   2.913
 8593SOL    HW126678   1.220   0.493   2.903
 8593SOL    HW226679   1.243   0.636   2.827
 8594SOL     OW26680   3.926   3.790   4.444
 8594SOL    HW126681   3.830   3.790   4.474
 8594SOL    HW226682   3.946   3.706   4.394
 8595SOL     OW26683   1.857   1.652   2.311
 8595SOL    HW126684   1.823   1.731   2.260
 8595SOL    HW226685   1.823   1.568   2.269
 8596SOL     OW26686   6.022   5.544   2.077
 8596SOL    HW126687   5.951   5.478   2.051
 8596SOL    HW226688   6.112   5.502   2.066
 8597SOL     OW26689   1.883   1.515   1.455
 8597SOL    HW126690   1.981   1.525   1.441
 8597SOL    HW226691   1.835   1.587   1.405
 8598SOL     OW26692   5.319   5.003   0.815
 8598SOL    HW126693   5.235   5.019   0.868
 8598SOL    HW226694   5.388   4.962   0.875
 8599SOL     OW26695   1.766   3.299   2.303
 8599SOL    HW126696   1.712   3.277   2.384
 8599SOL    HW226697   1.862   3.310   2.329
 8600SOL     OW26698   6.656   4.091   6.574
 8600SOL    HW126699   6.593   4.164   6.600
 8600SOL    HW226700   6.739   4.130   6.535
 8601SOL     OW26701   0.259   0.048   4.322
 8601SOL    HW126702   0.185   0.115   4.335
 8601SOL    HW226703   0.340   0.095   4.287
 8602SOL     OW26704   3.358   5.938   2.168
 8602SOL    HW126705   3.414   6.020   2.165
 8602SOL    HW226706   3.261   5.963   2.175
 8603SOL     OW26707   4.092   3.305   0.872
 8603SOL    HW126708   4.092   3.351   0.783
 8603SOL    HW226709   4.003   3.319   0.916
 8604SOL     OW26710   4.996   2.694   2.792
 8604SOL    HW126711   5.062   2.620   2.779
 8604SOL    HW226712   4.935   2.699   2.713
 8605SOL     OW26713   2.088   6.695   1.807
 8605SOL    HW126714   2.016   6.765   1.808
 8605SOL    HW226715   2.164   6.726   1.751
 8606SOL     OW26716   4.040   4.561   5.550
 8606SOL    HW126717   4.027   4.599   5.458
 8606SOL    HW226718   4.134   4.528   5.559
 8607SOL     OW26719   4.328   5.848   1.376
 8607SOL    HW126720   4.360   5.893   1.460
 8607SOL    HW226721   4.229   5.853   1.370
 8608SOL     OW26722   4.958   6.115   2.065
 8608SOL    HW126723   4.937   6.017   2.067
 8608SOL    HW226724   4.930   6.152   1.976
 8609SOL     OW26725   3.630   0.855   4.805
 8609SOL    HW126726   3.560   0.850   4.734
 8609SOL    HW226727   3.607   0.793   4.879
 8610SOL     OW26728   0.266   6.447   4.145
 8610SOL    HW126729   0.238   6.510   4.218
 8610SOL    HW226730   0.198   6.374   4.136
 8611SOL     OW26731   1.927   2.079   3.519
 8611SOL    HW126732   1.987   2.106   3.594
 8611SOL    HW226733   1.960   1.992   3.480
 8612SOL     OW26734   4.362   3.155   5.364
 8612SOL    HW126735   4.396   3.249   5.358
 8612SOL    HW226736   4.275   3.148   5.316
 8613SOL     OW26737   1.306   1.345   1.044
 8613SOL    HW126738   1.396   1.389   1.048
 8613SOL    HW226739   1.317   1.246   1.055
 8614SOL     OW26740   0.905   1.847   3.211
 8614SOL    HW126741   1.005   1.853   3.206
 8614SOL    HW226742   0.865   1.920   3.157
 8615SOL     OW26743   4.484   2.524   5.061
 8615SOL    HW126744   4.435   2.524   5.148
 8615SOL    HW226745   4.419   2.515   4.986
 8616SOL     OW26746   1.238   4.047   0.338
 8616SOL    HW126747   1.329   4.045   0.296
 8616SOL    HW226748   1.242   4.100   0.423
 8617SOL     OW26749   5.759   3.137   1.406
 8617SOL    HW126750   5.755   3.140   1.506
 8617SOL    HW226751   5.823   3.206   1.373
 8618SOL     OW26752   4.608   0.355   3.752
 8618SOL    HW126753   4.627   0.366   3.654
 8618SOL    HW226754   4.683   0.305   3.795
 8619SOL     OW26755   4.466   5.550   7.005
 8619SOL    HW126756   4.484   5.527   0.076
 8619SOL    HW226757   4.474   5.649   6.993
 8620SOL     OW26758   6.627   6.551   3.052
 8620SOL    HW126759   6.539   6.598   3.060
 8620SOL    HW226760   6.689   6.605   2.994
 8621SOL     OW26761   5.711   0.778   3.193
 8621SOL    HW126762   5.616   0.795   3.167
 8621SOL    HW226763   5.766   0.760   3.111
 8622SOL     OW26764   5.048   4.907   0.307
 8622SOL    HW126765   4.980   4.980   0.318
 8622SOL    HW226766   5.085   4.881   0.396
 8623SOL     OW26767   6.473   3.399   2.583
 8623SOL    HW126768   6.501   3.404   2.679
 8623SOL    HW226769   6.517   3.320   2.540
 8624SOL     OW26770   0.411   4.387   2.941
 8624SOL    HW126771   0.351   4.319   2.899
 8624SOL    HW226772   0.480   4.416   2.875
 8625SOL     OW26773   3.541   0.452   4.630
 8625SOL    HW126774   3.625   0.455   4.684
 8625SOL    HW226775   3.550   0.513   4.551
 8626SOL     OW26776   3.132   3.552   3.045
 8626SOL    HW126777   3.145   3.618   3.119
 8626SOL    HW226778   3.052   3.578   2.991
 8627SOL     OW26779   1.874   0.183   6.986
 8627SOL    HW126780   1.816   0.108   7.018
 8627SOL    HW226781   1.822   0.242   6.924
 8628SOL     OW26782   5.316   0.823   6.949
 8628SOL    HW126783   5.366   0.832   0.011
 8628SOL    HW226784   5.220   0.803   6.967
 8629SOL     OW26785   1.458   4.371   4.142
 8629SOL    HW126786   1.426   4.277   4.147
 8629SOL    HW226787   1.528   4.386   4.212
 8630SOL     OW26788   5.619   4.540   4.000
 8630SOL    HW126789   5.688   4.583   3.941
 8630SOL    HW226790   5.543   4.603   4.013
 8631SOL     OW26791   3.599   5.882   4.976
 8631SOL    HW126792   3.582   5.977   5.006
 8631SOL    HW226793   3.589   5.876   4.877
 8632SOL     OW26794   4.352   0.326   3.505
 8632SOL    HW126795   4.289   0.363   3.437
 8632SOL    HW226796   4.439   0.374   3.498
 8633SOL     OW26797   6.480   0.859   3.919
 8633SOL    HW126798   6.489   0.760   3.925
 8633SOL    HW226799   6.393   0.882   3.875
 8634SOL     OW26800   6.668   5.301   1.899
 8634SOL    HW126801   6.658   5.401   1.900
 8634SOL    HW226802   6.585   5.259   1.862
 8635SOL     OW26803   5.794   3.967   5.341
 8635SOL    HW126804   5.790   3.948   5.242
 8635SOL    HW226805   5.723   3.914   5.387
 8636SOL     OW26806   6.176   5.624   0.755
 8636SOL    HW126807   6.131   5.618   0.844
 8636SOL    HW226808   6.125   5.686   0.695
 8637SOL     OW26809   2.336   0.819   1.307
 8637SOL    HW126810   2.315   0.857   1.217
 8637SOL    HW226811   2.408   0.873   1.350
 8638SOL     OW26812   3.674   4.617   0.406
 8638SOL    HW126813   3.626   4.673   0.474
 8638SOL    HW226814   3.747   4.565   0.450
 8639SOL     OW26815   6.848   2.986   2.688
 8639SOL    HW126816   6.844   2.916   2.616
 8639SOL    HW226817   6.820   2.945   2.775
 8640SOL     OW26818   5.387   5.535   0.735
 8640SOL    HW126819   5.313   5.557   0.672
 8640SOL    HW226820   5.471   5.518   0.683
 8641SOL     OW26821   6.024   4.884   3.447
 8641SOL    HW126822   5.956   4.912   3.380
 8641SOL    HW226823   6.003   4.793   3.481
 8642SOL     OW26824   4.437   1.386   1.271
 8642SOL    HW126825   4.363   1.345   1.219
 8642SOL    HW226826   4.433   1.353   1.366
 8643SOL     OW26827   4.694   0.628   5.914
 8643SOL    HW126828   4.761   0.702   5.912
 8643SOL    HW226829   4.602   0.668   5.924
 8644SOL     OW26830   6.374   3.303   5.094
 8644SOL    HW126831   6.327   3.336   5.013
 8644SOL    HW226832   6.368   3.372   5.166
 8645SOL     OW26833   6.166   4.857   1.921
 8645SOL    HW126834   6.178   4.956   1.911
 8645SOL    HW226835   6.078   4.839   1.966
 8646SOL     OW26836   5.125   0.743   0.298
 8646SOL    HW126837   5.074   0.828   0.312
 8646SOL    HW226838   5.134   0.695   0.386
 8647SOL     OW26839   4.552   5.283   0.483
 8647SOL    HW126840   4.516   5.238   0.565
 8647SOL    HW226841   4.520   5.235   0.401
 8648SOL     OW26842   5.329   1.673   4.184
 8648SOL    HW126843   5.308   1.711   4.274
 8648SOL    HW226844   5.301   1.737   4.113
 8649SOL     OW26845   6.614   4.472   5.593
 8649SOL    HW126846   6.686   4.430   5.649
 8649SOL    HW226847   6.622   4.440   5.499
 8650SOL     OW26848   2.135   4.995   2.999
 8650SOL    HW126849   2.163   4.945   3.081
 8650SOL    HW226850   2.040   4.972   2.978
 8651SOL     OW26851   3.292   1.393   0.979
 8651SOL    HW126852   3.252   1.458   1.043
 8651SOL    HW226853   3.391   1.407   0.975
 8652SOL     OW26854   1.175   3.540   3.903
 8652SOL    HW126855   1.272   3.557   3.886
 8652SOL    HW226856   1.165   3.455   3.955
 8653SOL     OW26857   6.861   3.424   6.879
 8653SOL    HW126858   6.776   3.401   6.927
 8653SOL    HW226859   6.851   3.512   6.834
 8654SOL     OW26860   0.605   7.023   3.504
 8654SOL    HW126861   0.689   6.969   3.515
 8654SOL    HW226862   0.628   0.095   3.489
 8655SOL     OW26863   6.405   6.007   4.353
 8655SOL    HW126864   6.325   5.987   4.410
 8655SOL    HW226865   6.403   6.103   4.324
 8656SOL     OW26866   5.852   2.131   1.195
 8656SOL    HW126867   5.938   2.080   1.204
 8656SOL    HW226868   5.822   2.161   1.286
 8657SOL     OW26869   3.613   4.087   6.701
 8657SOL    HW126870   3.542   4.058   6.765
 8657SOL    HW226871   3.685   4.135   6.751
 8658SOL     OW26872   6.642   5.184   0.160
 8658SOL    HW126873   6.633   5.208   0.257
 8658SOL    HW226874   6.697   5.100   0.152
 8659SOL     OW26875   5.384   0.596   4.666
 8659SOL    HW126876   5.288   0.590   4.690
 8659SOL    HW226877   5.396   0.573   4.569
 8660SOL     OW26878   5.862   4.192   1.159
 8660SOL    HW126879   5.956   4.172   1.133
 8660SOL    HW226880   5.801   4.126   1.115
 8661SOL     OW26881   6.946   4.063   1.701
 8661SOL    HW126882   6.853   4.028   1.705
 8661SOL    HW226883   6.998   4.012   1.632
 8662SOL     OW26884   0.106   6.943   0.645
 8662SOL    HW126885   0.150   6.968   0.732
 8662SOL    HW226886   0.175   6.911   0.580
 8663SOL     OW26887   2.243   5.698   0.049
 8663SOL    HW126888   2.198   5.787   0.035
 8663SOL    HW226889   2.293   5.674   6.990
 8664SOL     OW26890   4.438   5.813   7.004
 8664SOL    HW126891   4.502   5.883   6.973
 8664SOL    HW226892   4.374   5.854   0.046
 8665SOL     OW26893   5.518   5.339   5.371
 8665SOL    HW126894   5.581   5.389   5.430
 8665SOL    HW226895   5.497   5.250   5.413
 8666SOL     OW26896   5.071   2.644   4.214
 8666SOL    HW126897   5.033   2.669   4.303
 8666SOL    HW226898   5.014   2.574   4.172
 8667SOL     OW26899   4.610   1.692   3.992
 8667SOL    HW126900   4.595   1.780   4.038
 8667SOL    HW226901   4.695   1.652   4.026
 8668SOL     OW26902   3.765   1.853   3.863
 8668SOL    HW126903   3.671   1.841   3.897
 8668SOL    HW226904   3.777   1.798   3.780
 8669SOL     OW26905   4.106   0.476   5.462
 8669SOL    HW126906   4.151   0.527   5.389
 8669SOL    HW226907   4.012   0.454   5.435
 8670SOL     OW26908   3.880   5.472   4.345
 8670SOL    HW126909   3.832   5.541   4.291
 8670SOL    HW226910   3.945   5.516   4.407
 8671SOL     OW26911   5.864   6.901   3.550
 8671SOL    HW126912   5.805   6.943   3.619
 8671SOL    HW226913   5.864   6.801   3.563
 8672SOL     OW26914   3.899   4.876   4.730
 8672SOL    HW126915   3.893   4.777   4.730
 8672SOL    HW226916   3.824   4.915   4.676
 8673SOL     OW26917   5.637   2.086   0.546
 8673SOL    HW126918   5.618   2.110   0.641
 8673SOL    HW226919   5.552   2.088   0.494
 8674SOL     OW26920   0.123   0.010   3.200
 8674SOL    HW126921   0.188   0.049   3.135
 8674SOL    HW226922   0.138   0.048   3.291
 8675SOL     OW26923   2.089   0.873   2.542
 8675SOL    HW126924   2.178   0.904   2.511
 8675SOL    HW226925   2.025   0.950   2.542
 8676SOL     OW26926   4.597   0.302   2.860
 8676SOL    HW126927   4.680   0.285   2.806
 8676SOL    HW226928   4.606   0.260   2.950
 8677SOL     OW26929   2.789   4.293   5.581
 8677SOL    HW126930   2.827   4.204   5.556
 8677SOL    HW226931   2.864   4.356   5.603
 8678SOL     OW26932   0.863   6.608   6.087
 8678SOL    HW126933   0.823   6.691   6.127
 8678SOL    HW226934   0.896   6.548   6.159
 8679SOL     OW26935   6.861   2.607   4.932
 8679SOL    HW126936   6.948   2.654   4.948
 8679SOL    HW226937   6.790   2.648   4.989
 8680SOL     OW26938   1.416   3.433   6.692
 8680SOL    HW126939   1.425   3.524   6.652
 8680SOL    HW226940   1.485   3.372   6.654
 8681SOL     OW26941   3.613   4.205   0.636
 8681SOL    HW126942   3.607   4.186   0.539
 8681SOL    HW226943   3.522   4.201   0.678
 8682SOL     OW26944   2.176   6.316   3.144
 8682SOL    HW126945   2.144   6.284   3.055
 8682SOL    HW226946   2.098   6.334   3.203
 8683SOL     OW26947   6.947   3.256   0.359
 8683SOL    HW126948   6.952   3.352   0.387
 8683SOL    HW226949   0.005   3.232   0.307
 8684SOL     OW26950   6.382   3.177   4.086
 8684SOL    HW126951   6.478   3.206   4.087
 8684SOL    HW226952   6.332   3.232   4.020
 8685SOL     OW26953   0.835   2.282   6.117
 8685SOL    HW126954   0.892   2.309   6.195
 8685SOL    HW226955   0.893   2.269   6.037
 8686SOL     OW26956   6.693   2.165   3.557
 8686SOL    HW126957   6.610   2.220   3.550
 8686SOL    HW226958   6.703   2.132   3.651
 8687SOL     OW26959   3.409   0.159   3.140
 8687SOL    HW126960   3.349   0.226   3.184
 8687SOL    HW226961   3.505   0.181   3.160
 8688SOL     OW26962   2.455   0.392   1.778
 8688SOL    HW126963   2.462   0.316   1.714
 8688SOL    HW226964   2.433   0.476   1.727
 8689SOL     OW26965   4.250   5.741   0.313
 8689SOL    HW126966   4.172   5.711   0.369
 8689SOL    HW226967   4.335   5.717   0.359
 8690SOL     OW26968   0.298   1.253   2.694
 8690SOL    HW126969   0.358   1.319   2.739
 8690SOL    HW226970   0.221   1.301   2.652
 8691SOL     OW26971   5.163   2.223   0.223
 8691SOL    HW126972   5.170   2.299   0.287
 8691SOL    HW226973   5.080   2.170   0.244
 8692SOL     OW26974   2.415   1.868   4.063
 8692SOL    HW126975   2.409   1.772   4.034
 8692SOL    HW226976   2.349   1.922   4.011
 8693SOL     OW26977   5.311   2.292   0.757
 8693SOL    HW126978   5.327   2.212   0.815
 8693SOL    HW226979   5.340   2.375   0.806
 8694SOL     OW26980   4.932   0.186   6.048
 8694SOL    HW126981   4.848   0.230   6.081
 8694SOL    HW226982   5.011   0.224   6.096
 8695SOL     OW26983   4.724   4.717   5.605
 8695SOL    HW126984   4.761   4.624   5.608
 8695SOL    HW226985   4.765   4.771   5.678
 8696SOL     OW26986   2.522   5.939   1.527
 8696SOL    HW126987   2.621   5.941   1.545
 8696SOL    HW226988   2.501   5.999   1.451
 8697SOL     OW26989   6.293   4.324   0.938
 8697SOL    HW126990   6.333   4.315   0.847
 8697SOL    HW226991   6.339   4.398   0.988
 8698SOL     OW26992   5.498   6.089   4.249
 8698SOL    HW126993   5.487   5.998   4.210
 8698SOL    HW226994   5.594   6.103   4.273
 8699SOL     OW26995   1.348   1.782   5.284
 8699SOL    HW126996   1.269   1.797   5.226
 8699SOL    HW226997   1.350   1.849   5.358
 8700SOL     OW26998   3.269   1.038   5.581
 8700SOL    HW126999   3.298   1.073   5.492
 8700SOL    HW227000   3.235   1.113   5.637
 8701SOL     OW27001   0.436   1.956   4.928
 8701SOL    HW127002   0.469   2.027   4.991
 8701SOL    HW227003   0.482   1.870   4.949
 8702SOL     OW27004   5.199   5.626   0.220
 8702SOL    HW127005   5.162   5.552   0.277
 8702SOL    HW227006   5.298   5.628   0.229
 8703SOL     OW27007   2.675   5.742   0.927
 8703SOL    HW127008   2.639   5.673   0.865
 8703SOL    HW227009   2.599   5.794   0.966
 8704SOL     OW27010   0.308   4.748   2.013
 8704SOL    HW127011   0.263   4.796   2.088
 8704SOL    HW227012   0.275   4.654   2.009
 8705SOL     OW27013   4.899   0.433   5.765
 8705SOL    HW127014   4.829   0.500   5.738
 8705SOL    HW227015   4.917   0.441   5.863
 8706SOL     OW27016   5.279   1.793   0.402
 8706SOL    HW127017   5.189   1.807   0.442
 8706SOL    HW227018   5.277   1.714   0.341
 8707SOL     OW27019   5.207   2.611   5.852
 8707SOL    HW127020   5.135   2.550   5.885
 8707SOL    HW227021   5.168   2.701   5.831
 8708SOL     OW27022   4.164   1.392   1.112
 8708SOL    HW127023   4.111   1.426   1.190
 8708SOL    HW227024   4.143   1.446   1.031
 8709SOL     OW27025   6.957   3.920   1.207
 8709SOL    HW127026   7.020   3.891   1.136
 8709SOL    HW227027   6.938   3.843   1.269
 8710SOL     OW27028   1.787   3.237   3.327
 8710SOL    HW127029   1.770   3.237   3.229
 8710SOL    HW227030   1.840   3.156   3.352
 8711SOL     OW27031   6.948   0.934   3.624
 8711SOL    HW127032   7.002   1.013   3.654
 8711SOL    HW227033   6.914   0.885   3.703
 8712SOL     OW27034   3.135   1.862   5.020
 8712SOL    HW127035   3.118   1.774   5.066
 8712SOL    HW227036   3.066   1.928   5.049
 8713SOL     OW27037   6.989   4.186   3.765
 8713SOL    HW127038   7.003   4.130   3.846
 8713SOL    HW227039   6.990   4.127   3.684
 8714SOL     OW27040   1.544   1.070   5.842
 8714SOL    HW127041   1.637   1.059   5.877
 8714SOL    HW227042   1.483   1.096   5.918
 8715SOL     OW27043   5.993   2.092   1.522
 8715SOL    HW127044   6.051   2.035   1.463
 8715SOL    HW227045   5.897   2.079   1.497
 8716SOL     OW27046   0.880   1.804   0.878
 8716SOL    HW127047   0.821   1.884   0.883
 8716SOL    HW227048   0.941   1.802   0.957
 8717SOL     OW27049   3.947   3.774   1.338
 8717SOL    HW127050   4.007   3.773   1.258
 8717SOL    HW227051   4.001   3.758   1.421
 8718SOL     OW27052   6.169   2.915   5.440
 8718SOL    HW127053   6.127   2.994   5.396
 8718SOL    HW227054   6.135   2.830   5.399
 8719SOL     OW27055   0.292   0.145   5.677
 8719SOL    HW127056   0.321   0.092   5.598
 8719SOL    HW227057   0.355   0.222   5.691
 8720SOL     OW27058   5.432   4.236   5.391
 8720SOL    HW127059   5.379   4.243   5.306
 8720SOL    HW227060   5.371   4.246   5.469
 8721SOL     OW27061   7.002   2.698   4.493
 8721SOL    HW127062   6.986   2.748   4.408
 8721SOL    HW227063   0.017   2.760   4.561
 8722SOL     OW27064   3.923   2.534   0.367
 8722SOL    HW127065   3.909   2.476   0.287
 8722SOL    HW227066   3.835   2.552   0.411
 8723SOL     OW27067   6.646   5.223   1.484
 8723SOL    HW127068   6.711   5.153   1.453
 8723SOL    HW227069   6.608   5.270   1.404
 8724SOL     OW27070   5.473   0.478   6.163
 8724SOL    HW127071   5.558   0.519   6.196
 8724SOL    HW227072   5.482   0.455   6.067
 8725SOL     OW27073   2.502   6.110   0.355
 8725SOL    HW127074   2.420   6.118   0.298
 8725SOL    HW227075   2.498   6.024   0.407
 8726SOL     OW27076   6.153   0.341   1.400
 8726SOL    HW127077   6.123   0.436   1.409
 8726SOL    HW227078   6.149   0.314   1.304
 8727SOL     OW27079   6.418   6.315   1.231
 8727SOL    HW127080   6.484   6.356   1.293
 8727SOL    HW227081   6.328   6.357   1.245
 8728SOL     OW27082   2.715   6.801   5.137
 8728SOL    HW127083   2.789   6.765   5.080
 8728SOL    HW227084   2.750   6.823   5.228
 8729SOL     OW27085   4.992   6.027   4.220
 8729SOL    HW127086   4.933   6.102   4.250
 8729SOL    HW227087   5.087   6.057   4.222
 8730SOL     OW27088   0.364   5.901   1.993
 8730SOL    HW127089   0.329   5.816   2.031
 8730SOL    HW227090   0.301   5.935   1.923
 8731SOL     OW27091   1.484   1.345   2.327
 8731SOL    HW127092   1.432   1.375   2.247
 8731SOL    HW227093   1.579   1.327   2.302
 8732SOL     OW27094   5.624   3.666   1.797
 8732SOL    HW127095   5.583   3.703   1.714
 8732SOL    HW227096   5.667   3.740   1.849
 8733SOL     OW27097   1.056   6.436   1.624
 8733SOL    HW127098   0.981   6.497   1.598
 8733SOL    HW227099   1.101   6.471   1.706
 8734SOL     OW27100   6.879   5.712   1.353
 8734SOL    HW127101   6.934   5.732   1.272
 8734SOL    HW227102   6.818   5.789   1.372
 8735SOL     OW27103   0.029   1.875   6.681
 8735SOL    HW127104   0.057   1.890   6.587
 8735SOL    HW227105   0.002   1.779   6.693
 8736SOL     OW27106   0.384   4.780   6.774
 8736SOL    HW127107   0.382   4.681   6.784
 8736SOL    HW227108   0.442   4.804   6.696
 8737SOL     OW27109   3.957   5.595   6.143
 8737SOL    HW127110   3.904   5.559   6.220
 8737SOL    HW227111   3.909   5.575   6.058
 8738SOL     OW27112   1.053   3.809   4.136
 8738SOL    HW127113   1.112   3.748   4.189
 8738SOL    HW227114   1.007   3.873   4.197
 8739SOL     OW27115   0.221   3.155   5.425
 8739SOL    HW127116   0.275   3.076   5.395
 8739SOL    HW227117   0.283   3.227   5.455
 8740SOL     OW27118   2.157   6.474   0.900
 8740SOL    HW127119   2.140   6.391   0.847
 8740SOL    HW227120   2.182   6.549   0.838
 8741SOL     OW27121   1.474   3.416   2.699
 8741SOL    HW127122   1.432   3.506   2.686
 8741SOL    HW227123   1.562   3.427   2.744
 8742SOL     OW27124   4.435   6.874   1.564
 8742SOL    HW127125   4.335   6.877   1.568
 8742SOL    HW227126   4.469   6.816   1.638
 8743SOL     OW27127   2.535   5.117   2.987
 8743SOL    HW127128   2.453   5.174   2.978
 8743SOL    HW227129   2.533   5.071   3.076
 8744SOL     OW27130   4.243   2.217   6.190
 8744SOL    HW127131   4.279   2.302   6.226
 8744SOL    HW227132   4.183   2.174   6.257
 8745SOL     OW27133   6.642   2.280   6.124
 8745SOL    HW127134   6.546   2.306   6.124
 8745SOL    HW227135   6.684   2.308   6.211
 8746SOL     OW27136   5.516   4.860   5.545
 8746SOL    HW127137   5.555   4.823   5.460
 8746SOL    HW227138   5.521   4.790   5.616
 8747SOL     OW27139   1.777   2.264   3.932
 8747SOL    HW127140   1.743   2.171   3.922
 8747SOL    HW227141   1.871   2.263   3.964
 8748SOL     OW27142   1.493   6.931   6.847
 8748SOL    HW127143   1.400   6.905   6.871
 8748SOL    HW227144   1.508   0.003   6.872
 8749SOL     OW27145   3.833   0.332   3.478
 8749SOL    HW127146   3.853   0.414   3.424
 8749SOL    HW227147   3.756   0.350   3.538
 8750SOL     OW27148   1.918   1.451   5.381
 8750SOL    HW127149   1.962   1.514   5.318
 8750SOL    HW227150   1.972   1.446   5.466
 8751SOL     OW27151   1.170   6.999   2.581
 8751SOL    HW127152   1.150   6.988   2.483
 8751SOL    HW227153   1.202   6.913   2.619
 8752SOL     OW27154   1.493   2.315   6.286
 8752SOL    HW127155   1.464   2.243   6.222
 8752SOL    HW227156   1.476   2.285   6.380
 8753SOL     OW27157   4.911   1.653   4.467
 8753SOL    HW127158   4.951   1.743   4.449
 8753SOL    HW227159   4.936   1.623   4.559
 8754SOL     OW27160   1.501   1.856   5.783
 8754SOL    HW127161   1.405   1.863   5.754
 8754SOL    HW227162   1.525   1.760   5.796
 8755SOL     OW27163   1.995   1.526   0.663
 8755SOL    HW127164   1.928   1.579   0.716
 8755SOL    HW227165   2.010   1.438   0.708
 8756SOL     OW27166   2.189   3.117   4.096
 8756SOL    HW127167   2.140   3.034   4.121
 8756SOL    HW227168   2.223   3.109   4.002
 8757SOL     OW27169   4.671   6.285   5.022
 8757SOL    HW127170   4.699   6.217   5.090
 8757SOL    HW227171   4.571   6.284   5.013
 8758SOL     OW27172   6.322   6.675   1.080
 8758SOL    HW127173   6.270   6.639   1.158
 8758SOL    HW227174   6.273   6.655   0.995
 8759SOL     OW27175   5.010   0.757   5.413
 8759SOL    HW127176   4.944   0.731   5.343
 8759SOL    HW227177   4.987   0.848   5.449
 8760SOL     OW27178   1.690   2.100   3.666
 8760SOL    HW127179   1.621   2.173   3.671
 8760SOL    HW227180   1.764   2.128   3.605
 8761SOL     OW27181   4.491   6.929   0.161
 8761SOL    HW127182   4.422   6.861   0.134
 8761SOL    HW227183   4.473   7.015   0.113
 8762SOL     OW27184   1.108   4.522   0.729
 8762SOL    HW127185   1.142   4.481   0.645
 8762SOL    HW227186   1.094   4.620   0.714
 8763SOL     OW27187   0.635   6.551   6.320
 8763SOL    HW127188   0.687   6.505   6.392
 8763SOL    HW227189   0.666   6.646   6.312
 8764SOL     OW27190   4.205   1.983   4.913
 8764SOL    HW127191   4.152   2.034   4.845
 8764SOL    HW227192   4.196   1.885   4.895
 8765SOL     OW27193   5.929   0.461   4.205
 8765SOL    HW127194   5.990   0.537   4.227
 8765SOL    HW227195   5.976   0.398   4.144
 8766SOL     OW27196   2.179   4.738   2.432
 8766SOL    HW127197   2.095   4.789   2.448
 8766SOL    HW227198   2.163   4.666   2.366
 8767SOL     OW27199   4.195   1.144   3.893
 8767SOL    HW127200   4.267   1.097   3.944
 8767SOL    HW227201   4.228   1.233   3.862
 8768SOL     OW27202   1.631   3.291   6.596
 8768SOL    HW127203   1.709   3.289   6.658
 8768SOL    HW227204   1.614   3.199   6.561
 8769SOL     OW27205   1.889   0.145   5.669
 8769SOL    HW127206   1.821   0.181   5.605
 8769SOL    HW227207   1.957   0.216   5.689
 8770SOL     OW27208   5.357   2.996   1.802
 8770SOL    HW127209   5.375   3.024   1.707
 8770SOL    HW227210   5.381   3.071   1.864
 8771SOL     OW27211   0.591   1.490   6.520
 8771SOL    HW127212   0.671   1.435   6.495
 8771SOL    HW227213   0.519   1.430   6.553
 8772SOL     OW27214   5.549   1.164   6.880
 8772SOL    HW127215   5.590   1.246   6.838
 8772SOL    HW227216   5.620   1.111   6.926
 8773SOL     OW27217   2.329   2.678   2.804
 8773SOL    HW127218   2.419   2.687   2.762
 8773SOL    HW227219   2.258   2.698   2.737
 8774SOL     OW27220   1.262   1.002   1.031
 8774SOL    HW127221   1.187   1.049   1.076
 8774SOL    HW227222   1.349   1.043   1.060
 8775SOL     OW27223   6.651   0.214   3.616
 8775SOL    HW127224   6.574   0.189   3.557
 8775SOL    HW227225   6.731   0.233   3.560
 8776SOL     OW27226   3.175   2.945   4.880
 8776SOL    HW127227   3.121   3.029   4.889
 8776SOL    HW227228   3.206   2.915   4.970
 8777SOL     OW27229   6.322   6.191   1.688
 8777SOL    HW127230   6.327   6.157   1.594
 8777SOL    HW227231   6.362   6.283   1.692
 8778SOL     OW27232   0.350   2.148   3.532
 8778SOL    HW127233   0.362   2.059   3.488
 8778SOL    HW227234   0.342   2.135   3.631
 8779SOL     OW27235   0.948   4.988   0.622
 8779SOL    HW127236   0.887   4.914   0.596
 8779SOL    HW227237   0.903   5.047   0.688
 8780SOL     OW27238   1.153   5.658   4.662
 8780SOL    HW127239   1.165   5.751   4.696
 8780SOL    HW227240   1.181   5.653   4.567
 8781SOL     OW27241   0.391   1.959   2.422
 8781SOL    HW127242   0.310   2.018   2.423
 8781SOL    HW227243   0.412   1.935   2.327
 8782SOL     OW27244   4.237   1.286   2.854
 8782SOL    HW127245   4.266   1.227   2.929
 8782SOL    HW227246   4.200   1.230   2.780
 8783SOL     OW27247   5.834   3.436   4.624
 8783SOL    HW127248   5.880   3.373   4.562
 8783SOL    HW227249   5.741   3.455   4.591
 8784SOL     OW27250   5.293   4.737   5.147
 8784SOL    HW127251   5.315   4.834   5.136
 8784SOL    HW227252   5.360   4.681   5.097
 8785SOL     OW27253   6.408   4.597   6.141
 8785SOL    HW127254   6.464   4.625   6.063
 8785SOL    HW227255   6.312   4.619   6.123
 8786SOL     OW27256   1.751   6.947   0.059
 8786SOL    HW127257   1.750   6.867   7.024
 8786SOL    HW227258   1.666   6.950   0.111
 8787SOL     OW27259   1.358   3.683   1.142
 8787SOL    HW127260   1.409   3.730   1.070
 8787SOL    HW227261   1.348   3.744   1.221
 8788SOL     OW27262   1.109   1.490   5.365
 8788SOL    HW127263   1.178   1.418   5.369
 8788SOL    HW227264   1.054   1.478   5.283
 8789SOL     OW27265   0.307   0.141   6.482
 8789SOL    HW127266   0.246   0.090   6.421
 8789SOL    HW227267   0.359   0.077   6.539
 8790SOL     OW27268   5.519   1.607   0.037
 8790SOL    HW127269   5.605   1.557   0.053
 8790SOL    HW227270   5.523   1.695   0.084
 8791SOL     OW27271   4.938   6.738   5.646
 8791SOL    HW127272   4.887   6.749   5.560
 8791SOL    HW227273   4.883   6.686   5.711
 8792SOL     OW27274   5.037   0.123   3.058
 8792SOL    HW127275   5.003   0.159   2.971
 8792SOL    HW227276   4.967   0.064   3.098
 8793SOL     OW27277   1.221   5.935   4.115
 8793SOL    HW127278   1.225   6.002   4.189
 8793SOL    HW227279   1.255   5.847   4.147
 8794SOL     OW27280   2.033   6.486   2.561
 8794SOL    HW127281   2.052   6.475   2.658
 8794SOL    HW227282   1.966   6.418   2.531
 8795SOL     OW27283   2.292   6.197   5.893
 8795SOL    HW127284   2.224   6.145   5.842
 8795SOL    HW227285   2.276   6.295   5.881
 8796SOL     OW27286   5.165   2.242   5.043
 8796SOL    HW127287   5.071   2.222   5.071
 8796SOL    HW227288   5.212   2.156   5.024
 8797SOL     OW27289   0.584   6.994   6.872
 8797SOL    HW127290   0.563   6.905   6.914
 8797SOL    HW227291   0.601   0.037   6.944
 8798SOL     OW27292   4.786   3.684   5.450
 8798SOL    HW127293   4.764   3.712   5.357
 8798SOL    HW227294   4.865   3.622   5.449
 8799SOL     OW27295   3.063   5.216   2.998
 8799SOL    HW127296   3.011   5.250   2.920
 8799SOL    HW227297   3.160   5.210   2.973
 8800SOL     OW27298   4.852   4.815   6.807
 8800SOL    HW127299   4.819   4.795   6.715
 8800SOL    HW227300   4.785   4.782   6.874
 8801SOL     OW27301   2.556   0.926   4.915
 8801SOL    HW127302   2.518   0.999   4.858
 8801SOL    HW227303   2.519   0.838   4.885
 8802SOL     OW27304   2.691   6.404   2.564
 8802SOL    HW127305   2.665   6.500   2.569
 8802SOL    HW227306   2.768   6.387   2.625
 8803SOL     OW27307   3.739   6.037   0.669
 8803SOL    HW127308   3.825   6.052   0.718
 8803SOL    HW227309   3.725   6.111   0.603
 8804SOL     OW27310   4.915   0.403   0.861
 8804SOL    HW127311   4.921   0.420   0.763
 8804SOL    HW227312   4.895   0.489   0.908
 8805SOL     OW27313   0.571   0.462   3.008
 8805SOL    HW127314   0.538   0.390   3.069
 8805SOL    HW227315   0.493   0.504   2.961
 8806SOL     OW27316   1.978   4.847   6.792
 8806SOL    HW127317   1.903   4.789   6.762
 8806SOL    HW227318   2.056   4.835   6.730
 8807SOL     OW27319   1.412   6.106   6.245
 8807SOL    HW127320   1.451   6.119   6.153
 8807SOL    HW227321   1.316   6.080   6.236
 8808SOL     OW27322   5.650   1.585   0.976
 8808SOL    HW127323   5.577   1.573   0.909
 8808SOL    HW227324   5.735   1.608   0.928
 8809SOL     OW27325   6.078   4.096   1.419
 8809SOL    HW127326   6.102   4.059   1.509
 8809SOL    HW227327   5.999   4.046   1.382
 8810SOL     OW27328   4.000   1.563   4.257
 8810SOL    HW127329   3.943   1.482   4.276
 8810SOL    HW227330   3.945   1.632   4.211
 8811SOL     OW27331   1.209   1.310   2.738
 8811SOL    HW127332   1.218   1.228   2.795
 8811SOL    HW227333   1.148   1.375   2.782
 8812SOL     OW27334   2.160   0.985   1.078
 8812SOL    HW127335   2.159   1.072   1.127
 8812SOL    HW227336   2.116   0.996   0.989
 8813SOL     OW27337   2.111   6.221   1.479
 8813SOL    HW127338   2.066   6.187   1.396
 8813SOL    HW227339   2.051   6.287   1.525
 8814SOL     OW27340   6.212   1.033   6.148
 8814SOL    HW127341   6.310   1.023   6.130
 8814SOL    HW227342   6.199   1.077   6.236
 8815SOL     OW27343   0.285   6.060   2.462
 8815SOL    HW127344   0.326   6.136   2.512
 8815SOL    HW227345   0.312   6.064   2.365
 8816SOL     OW27346   0.998   5.839   1.522
 8816SOL    HW127347   0.923   5.826   1.586
 8816SOL    HW227348   0.983   5.921   1.468
 8817SOL     OW27349   1.679   5.100   5.535
 8817SOL    HW127350   1.729   5.131   5.453
 8817SOL    HW227351   1.666   5.177   5.597
 8818SOL     OW27352   0.412   5.465   4.000
 8818SOL    HW127353   0.377   5.375   4.024
 8818SOL    HW227354   0.479   5.456   3.926
 8819SOL     OW27355   4.765   6.514   4.265
 8819SOL    HW127356   4.740   6.518   4.362
 8819SOL    HW227357   4.780   6.606   4.230
 8820SOL     OW27358   1.229   2.460   3.762
 8820SOL    HW127359   1.247   2.525   3.688
 8820SOL    HW227360   1.265   2.495   3.848
 8821SOL     OW27361   2.138   0.801   6.337
 8821SOL    HW127362   2.227   0.758   6.351
 8821SOL    HW227363   2.142   0.863   6.259
 8822SOL     OW27364   0.201   2.319   3.134
 8822SOL    HW127365   0.140   2.275   3.201
 8822SOL    HW227366   0.286   2.267   3.128
 8823SOL     OW27367   1.967   6.161   1.820
 8823SOL    HW127368   2.009   6.251   1.825
 8823SOL    HW227369   2.027   6.094   1.865
 8824SOL     OW27370   3.886   4.255   0.694
 8824SOL    HW127371   3.790   4.227   0.699
 8824SOL    HW227372   3.944   4.174   0.686
 8825SOL     OW27373   0.822   1.551   2.156
 8825SOL    HW127374   0.857   1.545   2.249
 8825SOL    HW227375   0.835   1.464   2.109
 8826SOL     OW27376   5.061   1.717   6.778
 8826SOL    HW127377   5.151   1.741   6.813
 8826SOL    HW227378   5.040   1.622   6.801
 8827SOL     OW27379   1.348   1.878   2.993
 8827SOL    HW127380   1.254   1.851   3.016
 8827SOL    HW227381   1.409   1.800   3.007
 8828SOL     OW27382   2.617   6.660   2.551
 8828SOL    HW127383   2.518   6.650   2.542
 8828SOL    HW227384   2.639   6.704   2.638
 8829SOL     OW27385   0.147   2.034   0.595
 8829SOL    HW127386   0.172   2.003   0.503
 8829SOL    HW227387   0.091   2.116   0.588
 8830SOL     OW27388   0.609   2.278   0.900
 8830SOL    HW127389   0.529   2.253   0.846
 8830SOL    HW227390   0.646   2.365   0.866
 8831SOL     OW27391   6.648   0.689   2.949
 8831SOL    HW127392   6.723   0.628   2.976
 8831SOL    HW227393   6.576   0.683   3.018
 8832SOL     OW27394   6.197   0.802   2.603
 8832SOL    HW127395   6.245   0.733   2.657
 8832SOL    HW227396   6.115   0.761   2.562
 8833SOL     OW27397   2.240   4.476   3.650
 8833SOL    HW127398   2.160   4.423   3.680
 8833SOL    HW227399   2.306   4.415   3.607
 8834SOL     OW27400   5.760   3.873   5.084
 8834SOL    HW127401   5.663   3.847   5.086
 8834SOL    HW227402   5.787   3.890   4.989
 8835SOL     OW27403   0.134   6.777   6.527
 8835SOL    HW127404   0.207   6.798   6.591
 8835SOL    HW227405   0.047   6.811   6.564
 8836SOL     OW27406   4.705   1.534   0.604
 8836SOL    HW127407   4.612   1.496   0.608
 8836SOL    HW227408   4.730   1.569   0.695
 8837SOL     OW27409   0.073   1.026   2.167
 8837SOL    HW127410   7.002   1.009   2.193
 8837SOL    HW227411   0.119   1.077   2.239
 8838SOL     OW27412   2.254   5.413   4.066
 8838SOL    HW127413   2.204   5.385   3.984
 8838SOL    HW227414   2.348   5.437   4.041
 8839SOL     OW27415   6.527   6.910   3.916
 8839SOL    HW127416   6.572   6.821   3.907
 8839SOL    HW227417   6.433   6.903   3.882
 8840SOL     OW27418   5.422   2.336   2.280
 8840SOL    HW127419   5.472   2.421   2.264
 8840SOL    HW227420   5.443   2.301   2.371
 8841SOL     OW27421   1.708   1.606   5.145
 8841SOL    HW127422   1.643   1.585   5.218
 8841SOL    HW227423   1.669   1.677   5.085
 8842SOL     OW27424   2.253   2.962   1.817
 8842SOL    HW127425   2.222   3.052   1.787
 8842SOL    HW227426   2.329   2.931   1.759
 8843SOL     OW27427   0.276   3.356   5.096
 8843SOL    HW127428   0.338   3.321   5.166
 8843SOL    HW227429   0.326   3.371   5.011
 8844SOL     OW27430   6.802   1.355   6.580
 8844SOL    HW127431   6.735   1.286   6.610
 8844SOL    HW227432   6.871   1.367   6.652
 8845SOL     OW27433   5.682   4.567   0.135
 8845SOL    HW127434   5.755   4.536   0.073
 8845SOL    HW227435   5.607   4.501   0.133
 8846SOL     OW27436   1.945   4.735   3.689
 8846SOL    HW127437   1.850   4.711   3.670
 8846SOL    HW227438   1.959   4.743   3.787
 8847SOL     OW27439   2.938   0.513   2.798
 8847SOL    HW127440   2.956   0.553   2.888
 8847SOL    HW227441   2.986   0.566   2.728
 8848SOL     OW27442   1.381   0.665   3.148
 8848SOL    HW127443   1.341   0.628   3.064
 8848SOL    HW227444   1.310   0.672   3.218
 8849SOL     OW27445   3.277   0.157   0.963
 8849SOL    HW127446   3.183   0.190   0.975
 8849SOL    HW227447   3.294   0.080   1.024
 8850SOL     OW27448   3.567   2.887   6.812
 8850SOL    HW127449   3.533   2.981   6.817
 8850SOL    HW227450   3.624   2.868   6.892
 8851SOL     OW27451   1.202   3.161   3.018
 8851SOL    HW127452   1.257   3.156   3.102
 8851SOL    HW227453   1.188   3.256   2.993
 8852SOL     OW27454   0.653   1.693   5.868
 8852SOL    HW127455   0.633   1.735   5.779
 8852SOL    HW227456   0.742   1.648   5.865
 8853SOL     OW27457   4.654   0.924   0.632
 8853SOL    HW127458   4.747   0.888   0.630
 8853SOL    HW227459   4.624   0.947   0.539
 8854SOL     OW27460   0.819   3.174   4.948
 8854SOL    HW127461   0.822   3.251   4.884
 8854SOL    HW227462   0.909   3.164   4.992
 8855SOL     OW27463   5.493   5.164   1.251
 8855SOL    HW127464   5.429   5.162   1.173
 8855SOL    HW227465   5.543   5.251   1.249
 8856SOL     OW27466   0.214   6.278   5.377
 8856SOL    HW127467   0.150   6.355   5.381
 8856SOL    HW227468   0.173   6.198   5.420
 8857SOL     OW27469   6.474   1.572   5.808
 8857SOL    HW127470   6.409   1.614   5.872
 8857SOL    HW227471   6.424   1.525   5.735
 8858SOL     OW27472   6.676   5.957   4.474
 8858SOL    HW127473   6.578   5.963   4.452
 8858SOL    HW227474   6.694   5.870   4.519
 8859SOL     OW27475   1.231   6.766   3.995
 8859SOL    HW127476   1.146   6.736   3.951
 8859SOL    HW227477   1.216   6.854   4.039
 8860SOL     OW27478   0.702   3.631   2.377
 8860SOL    HW127479   0.724   3.651   2.282
 8860SOL    HW227480   0.606   3.653   2.395
 8861SOL     OW27481   4.776   2.566   0.988
 8861SOL    HW127482   4.840   2.634   0.952
 8861SOL    HW227483   4.691   2.612   1.016
 8862SOL     OW27484   4.748   4.550   4.694
 8862SOL    HW127485   4.824   4.598   4.736
 8862SOL    HW227486   4.680   4.526   4.764
 8863SOL     OW27487   2.035   4.047   3.251
 8863SOL    HW127488   2.106   4.118   3.248
 8863SOL    HW227489   2.044   3.995   3.336
 8864SOL     OW27490   6.271   1.628   5.256
 8864SOL    HW127491   6.335   1.652   5.329
 8864SOL    HW227492   6.298   1.675   5.171
 8865SOL     OW27493   2.634   1.526   6.909
 8865SOL    HW127494   2.535   1.536   6.904
 8865SOL    HW227495   2.668   1.563   6.995
 8866SOL     OW27496   5.686   6.316   1.791
 8866SOL    HW127497   5.603   6.297   1.843
 8866SOL    HW227498   5.690   6.256   1.711
 8867SOL     OW27499   6.327   4.198   2.876
 8867SOL    HW127500   6.315   4.294   2.852
 8867SOL    HW227501   6.302   4.141   2.798
 8868SOL     OW27502   0.133   3.396   3.597
 8868SOL    HW127503   0.186   3.322   3.556
 8868SOL    HW227504   0.063   3.358   3.657
 8869SOL     OW27505   3.778   6.683   3.279
 8869SOL    HW127506   3.865   6.661   3.323
 8869SOL    HW227507   3.792   6.759   3.215
 8870SOL     OW27508   1.122   0.833   3.525
 8870SOL    HW127509   1.039   0.888   3.535
 8870SOL    HW227510   1.202   0.889   3.544
 8871SOL     OW27511   7.020   0.825   2.943
 8871SOL    HW127512   6.936   0.866   2.908
 8871SOL    HW227513   0.063   0.898   2.962
 8872SOL     OW27514   6.541   5.093   4.354
 8872SOL    HW127515   6.466   5.055   4.409
 8872SOL    HW227516   6.530   5.064   4.259
 8873SOL     OW27517   2.266   1.195   2.856
 8873SOL    HW127518   2.277   1.114   2.797
 8873SOL    HW227519   2.214   1.265   2.807
 8874SOL     OW27520   3.319   6.493   0.709
 8874SOL    HW127521   3.317   6.418   0.643
 8874SOL    HW227522   3.350   6.577   0.663
 8875SOL     OW27523   6.906   3.333   4.000
 8875SOL    HW127524   6.946   3.286   4.079
 8875SOL    HW227525   6.902   3.431   4.019
 8876SOL     OW27526   3.845   0.595   6.358
 8876SOL    HW127527   3.938   0.581   6.326
 8876SOL    HW227528   3.836   0.687   6.396
 8877SOL     OW27529   1.694   3.843   1.303
 8877SOL    HW127530   1.667   3.937   1.325
 8877SOL    HW227531   1.793   3.840   1.289
 8878SOL     OW27532   5.097   3.791   1.034
 8878SOL    HW127533   5.005   3.820   1.006
 8878SOL    HW227534   5.132   3.722   0.971
 8879SOL     OW27535   5.962   5.052   2.891
 8879SOL    HW127536   5.986   5.149   2.885
 8879SOL    HW227537   5.951   5.026   2.987
 8880SOL     OW27538   3.954   0.826   4.272
 8880SOL    HW127539   3.944   0.735   4.230
 8880SOL    HW227540   3.956   0.815   4.372
 8881SOL     OW27541   4.463   5.214   4.495
 8881SOL    HW127542   4.447   5.116   4.506
 8881SOL    HW227543   4.537   5.229   4.431
 8882SOL     OW27544   4.421   0.445   0.548
 8882SOL    HW127545   4.441   0.530   0.597
 8882SOL    HW227546   4.438   0.367   0.609
 8883SOL     OW27547   6.605   6.100   4.873
 8883SOL    HW127548   6.656   6.018   4.849
 8883SOL    HW227549   6.520   6.103   4.820
 8884SOL     OW27550   5.122   3.353   5.196
 8884SOL    HW127551   5.206   3.365   5.248
 8884SOL    HW227552   5.087   3.260   5.209
 8885SOL     OW27553   5.952   6.101   0.919
 8885SOL    HW127554   5.986   6.039   0.989
 8885SOL    HW227555   6.008   6.184   0.918
 8886SOL     OW27556   4.400   6.116   6.234
 8886SOL    HW127557   4.456   6.095   6.154
 8886SOL    HW227558   4.381   6.214   6.238
 8887SOL     OW27559   4.740   0.682   1.630
 8887SOL    HW127560   4.728   0.663   1.728
 8887SOL    HW227561   4.838   0.691   1.610
 8888SOL     OW27562   2.239   1.973   2.977
 8888SOL    HW127563   2.259   1.970   2.878
 8888SOL    HW227564   2.284   1.895   3.022
 8889SOL     OW27565   1.102   5.857   6.520
 8889SOL    HW127566   1.177   5.804   6.479
 8889SOL    HW227567   1.139   5.929   6.577
 8890SOL     OW27568   0.489   6.445   0.108
 8890SOL    HW127569   0.542   6.433   0.024
 8890SOL    HW227570   0.551   6.467   0.184
 8891SOL     OW27571   6.314   3.776   7.015
 8891SOL    HW127572   6.321   3.818   6.924
 8891SOL    HW227573   6.272   3.841   0.054
 8892SOL     OW27574   3.437   5.466   4.029
 8892SOL    HW127575   3.493   5.400   3.979
 8892SOL    HW227576   3.411   5.426   4.117
 8893SOL     OW27577   1.133   5.118   4.386
 8893SOL    HW127578   1.124   5.173   4.469
 8893SOL    HW227579   1.190   5.038   4.406
 8894SOL     OW27580   5.024   1.775   0.488
 8894SOL    HW127581   4.940   1.822   0.462
 8894SOL    HW227582   5.005   1.711   0.563
 8895SOL     OW27583   0.063   3.741   0.520
 8895SOL    HW127584   0.085   3.695   0.607
 8895SOL    HW227585   0.147   3.759   0.470
 8896SOL     OW27586   0.340   2.631   4.693
 8896SOL    HW127587   0.322   2.545   4.645
 8896SOL    HW227588   0.438   2.649   4.693
 8897SOL     OW27589   1.899   4.084   4.094
 8897SOL    HW127590   1.867   4.050   4.182
 8897SOL    HW227591   1.908   4.008   4.029
 8898SOL     OW27592   4.386   4.773   2.896
 8898SOL    HW127593   4.300   4.745   2.938
 8898SOL    HW227594   4.444   4.693   2.882
 8899SOL     OW27595   1.131   3.566   4.633
 8899SOL    HW127596   1.120   3.484   4.577
 8899SOL    HW227597   1.134   3.541   4.729
 8900SOL     OW27598   4.976   2.528   3.577
 8900SOL    HW127599   4.973   2.592   3.501
 8900SOL    HW227600   4.899   2.465   3.572
 8901SOL     OW27601   1.669   3.496   4.634
 8901SOL    HW127602   1.754   3.461   4.595
 8901SOL    HW227603   1.594   3.434   4.612
 8902SOL     OW27604   0.371   4.696   0.451
 8902SOL    HW127605   0.345   4.792   0.466
 8902SOL    HW227606   0.387   4.652   0.539
 8903SOL     OW27607   1.195   6.350   5.373
 8903SOL    HW127608   1.132   6.410   5.324
 8903SOL    HW227609   1.146   6.267   5.400
 8904SOL     OW27610   0.501   0.872   3.207
 8904SOL    HW127611   0.426   0.937   3.215
 8904SOL    HW227612   0.472   0.782   3.241
 8905SOL     OW27613   1.213   3.579   2.377
 8905SOL    HW127614   1.276   3.608   2.305
 8905SOL    HW227615   1.157   3.656   2.405
 8906SOL     OW27616   6.269   0.402   0.169
 8906SOL    HW127617   6.190   0.360   0.212
 8906SOL    HW227618   6.297   0.483   0.220
 8907SOL     OW27619   2.869   3.402   5.254
 8907SOL    HW127620   2.925   3.462   5.197
 8907SOL    HW227621   2.920   3.318   5.274
 8908SOL     OW27622   1.311   4.867   6.832
 8908SOL    HW127623   1.292   4.899   6.739
 8908SOL    HW227624   1.378   4.927   6.875
 8909SOL     OW27625   2.299   6.677   0.773
 8909SOL    HW127626   2.311   6.773   0.744
 8909SOL    HW227627   2.369   6.653   0.840
 8910SOL     OW27628   2.208   0.442   3.523
 8910SOL    HW127629   2.270   0.512   3.488
 8910SOL    HW227630   2.116   0.480   3.532
 8911SOL     OW27631   4.353   2.412   3.753
 8911SOL    HW127632   4.378   2.323   3.792
 8911SOL    HW227633   4.435   2.460   3.723
 8912SOL     OW27634   3.672   3.812   4.531
 8912SOL    HW127635   3.674   3.717   4.563
 8912SOL    HW227636   3.583   3.831   4.489
 8913SOL     OW27637   5.333   6.652   6.600
 8913SOL    HW127638   5.275   6.573   6.620
 8913SOL    HW227639   5.277   6.734   6.596
 8914SOL     OW27640   4.458   5.219   6.587
 8914SOL    HW127641   4.447   5.314   6.617
 8914SOL    HW227642   4.452   5.215   6.487
 8915SOL     OW27643   1.509   1.271   3.453
 8915SOL    HW127644   1.605   1.250   3.437
 8915SOL    HW227645   1.501   1.339   3.526
 8916SOL     OW27646   4.468   1.434   0.535
 8916SOL    HW127647   4.454   1.348   0.485
 8916SOL    HW227648   4.460   1.511   0.472
 8917SOL     OW27649   5.714   1.833   0.563
 8917SOL    HW127650   5.783   1.823   0.635
 8917SOL    HW227651   5.688   1.929   0.555
 8918SOL     OW27652   1.146   3.438   2.943
 8918SOL    HW127653   1.083   3.437   3.020
 8918SOL    HW227654   1.099   3.405   2.861
 8919SOL     OW27655   6.676   3.731   1.294
 8919SOL    HW127656   6.678   3.681   1.207
 8919SOL    HW227657   6.708   3.672   1.367
 8920SOL     OW27658   6.274   1.549   6.833
 8920SOL    HW127659   6.285   1.453   6.858
 8920SOL    HW227660   6.357   1.581   6.787
 8921SOL     OW27661   2.031   2.749   2.176
 8921SOL    HW127662   2.056   2.833   2.226
 8921SOL    HW227663   2.070   2.752   2.084
 8922SOL     OW27664   3.897   6.632   3.838
 8922SOL    HW127665   3.803   6.659   3.859
 8922SOL    HW227666   3.919   6.660   3.745
 8923SOL     OW27667   2.183   2.205   4.484
 8923SOL    HW127668   2.210   2.193   4.579
 8923SOL    HW227669   2.092   2.166   4.469
 8924SOL     OW27670   5.688   5.407   5.132
 8924SOL    HW127671   5.658   5.439   5.221
 8924SOL    HW227672   5.653   5.468   5.061
 8925SOL     OW27673   1.300   6.626   3.241
 8925SOL    HW127674   1.353   6.584   3.167
 8925SOL    HW227675   1.208   6.648   3.208
 8926SOL     OW27676   5.519   2.377   6.663
 8926SOL    HW127677   5.445   2.381   6.731
 8926SOL    HW227678   5.495   2.312   6.591
 8927SOL     OW27679   1.179   1.365   5.762
 8927SOL    HW127680   1.247   1.354   5.690
 8927SOL    HW227681   1.088   1.372   5.721
 8928SOL     OW27682   1.445   6.437   5.392
 8928SOL    HW127683   1.500   6.422   5.474
 8928SOL    HW227684   1.359   6.387   5.399
 8929SOL     OW27685   6.750   3.090   4.834
 8929SOL    HW127686   6.736   3.061   4.739
 8929SOL    HW227687   6.700   3.175   4.850
 8930SOL     OW27688   2.272   4.203   3.511
 8930SOL    HW127689   2.296   4.180   3.417
 8930SOL    HW227690   2.221   4.127   3.553
 8931SOL     OW27691   3.913   2.480   1.260
 8931SOL    HW127692   3.849   2.461   1.334
 8931SOL    HW227693   3.963   2.396   1.237
 8932SOL     OW27694   0.191   3.350   3.235
 8932SOL    HW127695   0.266   3.333   3.298
 8932SOL    HW227696   0.164   3.447   3.238
 8933SOL     OW27697   3.579   1.709   5.440
 8933SOL    HW127698   3.631   1.709   5.526
 8933SOL    HW227699   3.642   1.722   5.363
 8934SOL     OW27700   3.735   5.792   3.211
 8934SOL    HW127701   3.738   5.782   3.112
 8934SOL    HW227702   3.714   5.887   3.234
 8935SOL     OW27703   0.576   4.667   1.251
 8935SOL    HW127704   0.636   4.591   1.277
 8935SOL    HW227705   0.526   4.700   1.331
 8936SOL     OW27706   2.156   2.222   0.710
 8936SOL    HW127707   2.184   2.140   0.761
 8936SOL    HW227708   2.157   2.301   0.772
 8937SOL     OW27709   0.749   5.799   5.454
 8937SOL    HW127710   0.713   5.874   5.398
 8937SOL    HW227711   0.823   5.834   5.513
 8938SOL     OW27712   5.588   5.412   1.221
 8938SOL    HW127713   5.613   5.457   1.307
 8938SOL    HW227714   5.671   5.384   1.173
 8939SOL     OW27715   5.181   2.061   4.528
 8939SOL    HW127716   5.175   2.154   4.493
 8939SOL    HW227717   5.110   2.046   4.597
 8940SOL     OW27718   5.477   0.645   2.885
 8940SOL    HW127719   5.565   0.607   2.860
 8940SOL    HW227720   5.466   0.642   2.984
 8941SOL     OW27721   5.324   2.186   6.056
 8941SOL    HW127722   5.368   2.227   5.976
 8941SOL    HW227723   5.361   2.094   6.071
 8942SOL     OW27724   0.432   2.303   5.696
 8942SOL    HW127725   0.417   2.206   5.676
 8942SOL    HW227726   0.521   2.331   5.661
 8943SOL     OW27727   5.273   3.979   1.207
 8943SOL    HW127728   5.338   4.016   1.140
 8943SOL    HW227729   5.217   3.908   1.163
 8944SOL     OW27730   4.164   5.497   0.566
 8944SOL    HW127731   4.208   5.529   0.650
 8944SOL    HW227732   4.193   5.403   0.546
 8945SOL     OW27733   2.171   1.132   4.405
 8945SOL    HW127734   2.213   1.197   4.342
 8945SOL    HW227735   2.155   1.045   4.357
 8946SOL     OW27736   3.646   1.814   4.253
 8946SOL    HW127737   3.735   1.801   4.210
 8946SOL    HW227738   3.611   1.905   4.232
 8947SOL     OW27739   4.359   4.158   5.367
 8947SOL    HW127740   4.343   4.060   5.380
 8947SOL    HW227741   4.273   4.203   5.343
 8948SOL     OW27742   6.465   5.509   3.161
 8948SOL    HW127743   6.529   5.555   3.222
 8948SOL    HW227744   6.375   5.553   3.167
 8949SOL     OW27745   1.918   6.243   0.372
 8949SOL    HW127746   1.831   6.205   0.403
 8949SOL    HW227747   1.976   6.170   0.335
 8950SOL     OW27748   4.658   2.704   4.158
 8950SOL    HW127749   4.620   2.613   4.142
 8950SOL    HW227750   4.670   2.719   4.256
 8951SOL     OW27751   1.602   2.472   5.598
 8951SOL    HW127752   1.609   2.553   5.541
 8951SOL    HW227753   1.627   2.391   5.544
 8952SOL     OW27754   6.694   0.760   2.454
 8952SOL    HW127755   6.728   0.827   2.520
 8952SOL    HW227756   6.594   0.762   2.451
 8953SOL     OW27757   1.129   3.655   6.861
 8953SOL    HW127758   1.158   3.732   6.804
 8953SOL    HW227759   1.207   3.621   6.913
 8954SOL     OW27760   2.028   6.066   6.244
 8954SOL    HW127761   1.936   6.029   6.233
 8954SOL    HW227762   2.093   6.008   6.196
 8955SOL     OW27763   6.470   4.063   3.409
 8955SOL    HW127764   6.492   4.008   3.490
 8955SOL    HW227765   6.446   4.001   3.333
 8956SOL     OW27766   1.326   0.847   5.921
 8956SOL    HW127767   1.274   0.762   5.932
 8956SOL    HW227768   1.405   0.845   5.982
 8957SOL     OW27769   3.219   4.889   2.116
 8957SOL    HW127770   3.120   4.898   2.123
 8957SOL    HW227771   3.244   4.847   2.029
 8958SOL     OW27772   1.991   6.687   4.543
 8958SOL    HW127773   2.019   6.647   4.630
 8958SOL    HW227774   1.980   6.615   4.475
 8959SOL     OW27775   1.989   4.725   0.515
 8959SOL    HW127776   1.930   4.780   0.457
 8959SOL    HW227777   2.050   4.670   0.459
 8960SOL     OW27778   3.751   5.552   1.133
 8960SOL    HW127779   3.844   5.586   1.117
 8960SOL    HW227780   3.753   5.485   1.208
 8961SOL     OW27781   0.706   1.922   3.718
 8961SOL    HW127782   0.625   1.870   3.691
 8961SOL    HW227783   0.781   1.904   3.654
 8962SOL     OW27784   5.651   0.385   3.409
 8962SOL    HW127785   5.635   0.287   3.414
 8962SOL    HW227786   5.743   0.406   3.443
 8963SOL     OW27787   5.888   0.997   4.109
 8963SOL    HW127788   5.986   0.980   4.110
 8963SOL    HW227789   5.842   0.928   4.166
 8964SOL     OW27790   5.630   5.041   2.676
 8964SOL    HW127791   5.608   5.136   2.653
 8964SOL    HW227792   5.643   4.989   2.592
 8965SOL     OW27793   1.403   5.243   1.647
 8965SOL    HW127794   1.390   5.339   1.620
 8965SOL    HW227795   1.378   5.183   1.571
 8966SOL     OW27796   2.553   2.835   5.753
 8966SOL    HW127797   2.573   2.932   5.735
 8966SOL    HW227798   2.511   2.826   5.843
 8967SOL     OW27799   4.055   0.312   0.086
 8967SOL    HW127800   4.075   0.224   0.043
 8967SOL    HW227801   3.960   0.336   0.070
 8968SOL     OW27802   4.471   5.661   1.655
 8968SOL    HW127803   4.492   5.741   1.711
 8968SOL    HW227804   4.554   5.609   1.637
 8969SOL     OW27805   6.460   0.689   4.232
 8969SOL    HW127806   6.553   0.704   4.265
 8969SOL    HW227807   6.396   0.694   4.310
 8970SOL     OW27808   3.810   2.025   1.772
 8970SOL    HW127809   3.898   2.072   1.779
 8970SOL    HW227810   3.736   2.090   1.791
 8971SOL     OW27811   4.271   5.596   2.343
 8971SOL    HW127812   4.186   5.598   2.290
 8971SOL    HW227813   4.275   5.677   2.401
 8972SOL     OW27814   5.616   0.456   5.106
 8972SOL    HW127815   5.564   0.540   5.115
 8972SOL    HW227816   5.621   0.429   5.010
 8973SOL     OW27817   1.408   5.186   0.127
 8973SOL    HW127818   1.321   5.228   0.101
 8973SOL    HW227819   1.421   5.102   0.074
 8974SOL     OW27820   0.610   3.477   4.804
 8974SOL    HW127821   0.591   3.501   4.709
 8974SOL    HW227822   0.559   3.394   4.829
 8975SOL     OW27823   2.879   0.027   0.519
 8975SOL    HW127824   2.787   0.064   0.524
 8975SOL    HW227825   2.874   6.951   0.513
 8976SOL     OW27826   1.059   5.538   4.096
 8976SOL    HW127827   1.013   5.453   4.121
 8976SOL    HW227828   1.066   5.544   3.997
 8977SOL     OW27829   6.023   1.507   6.226
 8977SOL    HW127830   6.075   1.426   6.253
 8977SOL    HW227831   5.926   1.492   6.244
 8978SOL     OW27832   6.151   6.911   0.752
 8978SOL    HW127833   6.224   6.916   0.820
 8978SOL    HW227834   6.069   6.872   0.794
 8979SOL     OW27835   1.945   4.085   4.894
 8979SOL    HW127836   1.884   4.103   4.817
 8979SOL    HW227837   2.036   4.122   4.875
 8980SOL     OW27838   3.525   2.959   4.455
 8980SOL    HW127839   3.474   2.931   4.537
 8980SOL    HW227840   3.618   2.982   4.480
 8981SOL     OW27841   3.906   1.904   5.104
 8981SOL    HW127842   3.904   1.818   5.156
 8981SOL    HW227843   3.953   1.974   5.158
 8982SOL     OW27844   2.783   4.370   0.926
 8982SOL    HW127845   2.735   4.454   0.949
 8982SOL    HW227846   2.749   4.333   0.840
 8983SOL     OW27847   4.399   5.264   0.206
 8983SOL    HW127848   4.318   5.309   0.168
 8983SOL    HW227849   4.477   5.282   0.146
 8984SOL     OW27850   1.693   5.768   3.138
 8984SOL    HW127851   1.742   5.825   3.071
 8984SOL    HW227852   1.609   5.734   3.098
 8985SOL     OW27853   4.039   2.957   6.539
 8985SOL    HW127854   4.090   2.907   6.609
 8985SOL    HW227855   4.102   3.010   6.482
 8986SOL     OW27856   3.842   5.501   2.721
 8986SOL    HW127857   3.923   5.500   2.780
 8986SOL    HW227858   3.760   5.489   2.776
 8987SOL     OW27859   5.481   6.253   1.960
 8987SOL    HW127860   5.475   6.160   1.995
 8987SOL    HW227861   5.403   6.306   1.994
 8988SOL     OW27862   0.739   5.290   4.505
 8988SOL    HW127863   0.809   5.232   4.546
 8988SOL    HW227864   0.741   5.381   4.547
 8989SOL     OW27865   3.793   2.862   6.472
 8989SOL    HW127866   3.887   2.898   6.476
 8989SOL    HW227867   3.781   2.792   6.542
 8990SOL     OW27868   6.862   5.535   3.603
 8990SOL    HW127869   6.805   5.521   3.521
 8990SOL    HW227870   6.892   5.630   3.607
 8991SOL     OW27871   1.323   2.282   5.061
 8991SOL    HW127872   1.377   2.324   5.134
 8991SOL    HW227873   1.371   2.202   5.026
 8992SOL     OW27874   6.010   1.868   6.562
 8992SOL    HW127875   5.928   1.915   6.530
 8992SOL    HW227876   6.069   1.933   6.609
 8993SOL     OW27877   4.843   2.633   6.277
 8993SOL    HW127878   4.769   2.595   6.221
 8993SOL    HW227879   4.928   2.585   6.256
 8994SOL     OW27880   1.618   5.203   4.343
 8994SOL    HW127881   1.568   5.129   4.297
 8994SOL    HW227882   1.644   5.272   4.275
 8995SOL     OW27883   6.887   1.801   1.095
 8995SOL    HW127884   6.974   1.756   1.075
 8995SOL    HW227885   6.854   1.848   1.014
 8996SOL     OW27886   5.008   4.822   6.095
 8996SOL    HW127887   4.950   4.747   6.062
 8996SOL    HW227888   5.087   4.784   6.142
 8997SOL     OW27889   4.832   1.315   4.651
 8997SOL    HW127890   4.931   1.329   4.638
 8997SOL    HW227891   4.810   1.325   4.747
 8998SOL     OW27892   6.330   3.895   4.484
 8998SOL    HW127893   6.334   3.960   4.408
 8998SOL    HW227894   6.236   3.886   4.516
 8999SOL     OW27895   4.473   6.749   5.879
 8999SOL    HW127896   4.470   6.757   5.979
 8999SOL    HW227897   4.539   6.816   5.843
 9000SOL     OW27898   1.945   4.079   1.746
 9000SOL    HW127899   1.948   4.147   1.819
 9000SOL    HW227900   1.982   4.119   1.662
 9001SOL     OW27901   0.589   5.108   2.212
 9001SOL    HW127902   0.668   5.086   2.269
 9001SOL    HW227903   0.505   5.098   2.266
 9002SOL     OW27904   1.117   4.486   6.592
 9002SOL    HW127905   1.198   4.529   6.552
 9002SOL    HW227906   1.077   4.548   6.660
 9003SOL     OW27907   5.828   1.189   1.516
 9003SOL    HW127908   5.781   1.134   1.585
 9003SOL    HW227909   5.771   1.268   1.492
 9004SOL     OW27910   4.151   4.484   0.487
 9004SOL    HW127911   4.227   4.483   0.422
 9004SOL    HW227912   4.185   4.464   0.579
 9005SOL     OW27913   5.766   0.986   5.664
 9005SOL    HW127914   5.724   1.071   5.631
 9005SOL    HW227915   5.806   1.001   5.755
 9006SOL     OW27916   3.326   6.768   0.602
 9006SOL    HW127917   3.426   6.766   0.608
 9006SOL    HW227918   3.295   6.861   0.585
 9007SOL     OW27919   2.563   1.514   2.915
 9007SOL    HW127920   2.544   1.437   2.975
 9007SOL    HW227921   2.658   1.509   2.884
 9008SOL     OW27922   0.293   5.785   3.016
 9008SOL    HW127923   0.249   5.830   2.938
 9008SOL    HW227924   0.363   5.721   2.982
 9009SOL     OW27925   4.007   5.359   0.328
 9009SOL    HW127926   3.953   5.430   0.373
 9009SOL    HW227927   4.020   5.383   0.231
 9010SOL     OW27928   1.899   6.666   4.192
 9010SOL    HW127929   1.831   6.621   4.133
 9010SOL    HW227930   1.931   6.602   4.261
 9011SOL     OW27931   3.975   0.908   2.690
 9011SOL    HW127932   3.883   0.939   2.668
 9011SOL    HW227933   3.987   0.905   2.790
 9012SOL     OW27934   1.721   5.940   0.087
 9012SOL    HW127935   1.629   5.907   0.068
 9012SOL    HW227936   1.717   6.036   0.113
 9013SOL     OW27937   1.710   6.490   4.062
 9013SOL    HW127938   1.718   6.424   3.988
 9013SOL    HW227939   1.623   6.539   4.054
 9014SOL     OW27940   5.676   2.277   2.882
 9014SOL    HW127941   5.619   2.197   2.867
 9014SOL    HW227942   5.741   2.285   2.806
 9015SOL     OW27943   5.372   2.065   0.429
 9015SOL    HW127944   5.303   2.123   0.472
 9015SOL    HW227945   5.339   1.970   0.428
 9016SOL     OW27946   5.426   5.480   6.238
 9016SOL    HW127947   5.383   5.408   6.184
 9016SOL    HW227948   5.447   5.558   6.180
 9017SOL     OW27949   3.223   0.303   4.904
 9017SOL    HW127950   3.300   0.278   4.963
 9017SOL    HW227951   3.249   0.380   4.846
 9018SOL     OW27952   3.966   3.307   6.254
 9018SOL    HW127953   4.029   3.236   6.221
 9018SOL    HW227954   4.019   3.387   6.283
 9019SOL     OW27955   0.320   2.984   3.359
 9019SOL    HW127956   0.273   2.904   3.396
 9019SOL    HW227957   0.322   3.056   3.429
 9020SOL     OW27958   5.897   6.091   1.807
 9020SOL    HW127959   5.804   6.118   1.831
 9020SOL    HW227960   5.917   6.002   1.848
 9021SOL     OW27961   7.009   0.758   3.957
 9021SOL    HW127962   0.001   0.681   4.019
 9021SOL    HW227963   6.912   0.785   3.961
 9022SOL     OW27964   4.274   2.808   6.121
 9022SOL    HW127965   4.194   2.761   6.159
 9022SOL    HW227966   4.344   2.818   6.191
 9023SOL     OW27967   5.086   3.583   0.867
 9023SOL    HW127968   5.129   3.501   0.906
 9023SOL    HW227969   5.078   3.572   0.768
 9024SOL     OW27970   1.862   5.054   6.496
 9024SOL    HW127971   1.841   4.957   6.488
 9024SOL    HW227972   1.817   5.104   6.421
 9025SOL     OW27973   0.519   5.564   0.737
 9025SOL    HW127974   0.494   5.504   0.660
 9025SOL    HW227975   0.498   5.659   0.714
 9026SOL     OW27976   4.183   1.652   0.287
 9026SOL    HW127977   4.180   1.580   0.356
 9026SOL    HW227978   4.265   1.708   0.302
 9027SOL     OW27979   6.912   3.726   3.535
 9027SOL    HW127980   6.866   3.672   3.605
 9027SOL    HW227981   6.859   3.809   3.516
 9028SOL     OW27982   3.510   4.204   5.592
 9028SOL    HW127983   3.490   4.123   5.536
 9028SOL    HW227984   3.509   4.285   5.534
 9029SOL     OW27985   4.270   6.784   4.944
 9029SOL    HW127986   4.213   6.862   4.968
 9029SOL    HW227987   4.355   6.817   4.901
 9030SOL     OW27988   2.689   1.940   3.615
 9030SOL    HW127989   2.663   1.923   3.710
 9030SOL    HW227990   2.788   1.931   3.605
 9031SOL     OW27991   4.457   0.526   4.531
 9031SOL    HW127992   4.397   0.581   4.473
 9031SOL    HW227993   4.434   0.429   4.520
 9032SOL     OW27994   4.608   3.590   1.702
 9032SOL    HW127995   4.577   3.682   1.676
 9032SOL    HW227996   4.695   3.597   1.752
 9033SOL     OW27997   1.412   5.796   3.428
 9033SOL    HW127998   1.472   5.717   3.438
 9033SOL    HW227999   1.427   5.859   3.504
 9034SOL     OW28000   3.446   6.217   4.610
 9034SOL    HW128001   3.438   6.118   4.598
 9034SOL    HW228002   3.506   6.255   4.540
 9035SOL     OW28003   1.346   5.108   0.647
 9035SOL    HW128004   1.432   5.152   0.674
 9035SOL    HW228005   1.283   5.108   0.724
 9036SOL     OW28006   1.273   3.685   5.990
 9036SOL    HW128007   1.361   3.639   5.977
 9036SOL    HW228008   1.203   3.618   6.016
 9037SOL     OW28009   0.636   2.261   2.739
 9037SOL    HW128010   0.675   2.171   2.758
 9037SOL    HW228011   0.591   2.296   2.821
 9038SOL     OW28012   4.472   2.875   5.937
 9038SOL    HW128013   4.472   2.953   5.875
 9038SOL    HW228014   4.402   2.887   6.007
 9039SOL     OW28015   3.387   5.194   0.013
 9039SOL    HW128016   3.409   5.104   7.000
 9039SOL    HW228017   3.468   5.253   0.010
 9040SOL     OW28018   1.901   1.968   0.866
 9040SOL    HW128019   1.976   2.010   0.917
 9040SOL    HW228020   1.814   1.993   0.908
 9041SOL     OW28021   0.182   2.367   1.006
 9041SOL    HW128022   0.230   2.433   1.065
 9041SOL    HW228023   0.171   2.406   0.915
 9042SOL     OW28024   4.129   5.832   6.098
 9042SOL    HW128025   4.084   5.745   6.116
 9042SOL    HW228026   4.062   5.899   6.067
 9043SOL     OW28027   3.066   1.862   0.242
 9043SOL    HW128028   3.146   1.886   0.295
 9043SOL    HW228029   3.058   1.923   0.163
 9044SOL     OW28030   0.848   0.644   6.377
 9044SOL    HW128031   0.834   0.703   6.298
 9044SOL    HW228032   0.895   0.694   6.449
 9045SOL     OW28033   4.423   0.476   3.107
 9045SOL    HW128034   4.387   0.544   3.170
 9045SOL    HW228035   4.350   0.416   3.077
 9046SOL     OW28036   3.057   3.969   2.893
 9046SOL    HW128037   3.024   4.064   2.887
 9046SOL    HW228038   3.028   3.919   2.811
 9047SOL     OW28039   1.114   4.284   6.265
 9047SOL    HW128040   1.032   4.324   6.223
 9047SOL    HW228041   1.096   4.265   6.361
 9048SOL     OW28042   6.359   1.676   6.085
 9048SOL    HW128043   6.398   1.643   6.171
 9048SOL    HW228044   6.268   1.714   6.102
 9049SOL     OW28045   3.152   6.521   6.332
 9049SOL    HW128046   3.215   6.468   6.388
 9049SOL    HW228047   3.062   6.524   6.377
 9050SOL     OW28048   0.616   4.588   1.696
 9050SOL    HW128049   0.688   4.647   1.658
 9050SOL    HW228050   0.527   4.617   1.661
 9051SOL     OW28051   2.597   2.055   0.745
 9051SOL    HW128052   2.616   2.078   0.650
 9051SOL    HW228053   2.585   1.956   0.754
 9052SOL     OW28054   1.566   3.202   5.428
 9052SOL    HW128055   1.619   3.267   5.373
 9052SOL    HW228056   1.614   3.114   5.430
 9053SOL     OW28057   1.565   1.698   0.714
 9053SOL    HW128058   1.555   1.600   0.732
 9053SOL    HW228059   1.475   1.737   0.693
 9054SOL     OW28060   2.367   5.862   3.452
 9054SOL    HW128061   2.340   5.944   3.402
 9054SOL    HW228062   2.290   5.799   3.457
 9055SOL     OW28063   0.111   3.803   4.650
 9055SOL    HW128064   0.123   3.900   4.627
 9055SOL    HW228065   0.117   3.792   4.750
 9056SOL     OW28066   6.588   1.860   2.678
 9056SOL    HW128067   6.576   1.940   2.737
 9056SOL    HW228068   6.677   1.819   2.696
 9057SOL     OW28069   4.540   1.861   4.199
 9057SOL    HW128070   4.511   1.954   4.179
 9057SOL    HW228071   4.464   1.810   4.239
 9058SOL     OW28072   1.965   0.586   6.409
 9058SOL    HW128073   1.897   0.608   6.478
 9058SOL    HW228074   2.015   0.669   6.383
 9059SOL     OW28075   1.346   1.863   2.346
 9059SOL    HW128076   1.402   1.781   2.341
 9059SOL    HW228077   1.376   1.929   2.276
 9060SOL     OW28078   5.757   2.581   4.740
 9060SOL    HW128079   5.808   2.660   4.708
 9060SOL    HW228080   5.753   2.512   4.668
 9061SOL     OW28081   4.805   5.695   2.478
 9061SOL    HW128082   4.762   5.609   2.450
 9061SOL    HW228083   4.775   5.769   2.418
 9062SOL     OW28084   1.607   5.421   1.134
 9062SOL    HW128085   1.543   5.444   1.206
 9062SOL    HW228086   1.564   5.435   1.045
 9063SOL     OW28087   3.203   1.817   2.194
 9063SOL    HW128088   3.276   1.864   2.145
 9063SOL    HW228089   3.170   1.740   2.139
 9064SOL     OW28090   6.224   3.174   6.996
 9064SOL    HW128091   6.159   3.242   6.962
 9064SOL    HW228092   6.309   3.180   6.944
 9065SOL     OW28093   2.548   0.942   0.288
 9065SOL    HW128094   2.483   0.991   0.346
 9065SOL    HW228095   2.632   0.925   0.339
 9066SOL     OW28096   4.702   6.799   0.035
 9066SOL    HW128097   4.760   6.763   0.108
 9066SOL    HW228098   4.650   6.877   0.069
 9067SOL     OW28099   1.889   6.807   3.384
 9067SOL    HW128100   1.798   6.847   3.397
 9067SOL    HW228101   1.944   6.823   3.466
 9068SOL     OW28102   1.881   5.726   7.011
 9068SOL    HW128103   1.942   5.782   6.955
 9068SOL    HW228104   1.808   5.783   0.025
 9069SOL     OW28105   1.760   2.315   6.641
 9069SOL    HW128106   1.756   2.343   6.545
 9069SOL    HW228107   1.669   2.289   6.672
 9070SOL     OW28108   1.389   4.497   3.738
 9070SOL    HW128109   1.424   4.574   3.686
 9070SOL    HW228110   1.289   4.504   3.745
 9071SOL     OW28111   5.993   6.715   6.739
 9071SOL    HW128112   5.986   6.671   6.828
 9071SOL    HW228113   5.930   6.670   6.675
 9072SOL     OW28114   5.729   4.408   6.285
 9072SOL    HW128115   5.642   4.394   6.237
 9072SOL    HW228116   5.803   4.411   6.219
 9073SOL     OW28117   2.054   0.543   1.977
 9073SOL    HW128118   2.066   0.501   2.067
 9073SOL    HW228119   2.014   0.477   1.913
 9074SOL     OW28120   1.375   6.886   2.964
 9074SOL    HW128121   1.438   6.949   3.009
 9074SOL    HW228122   1.360   6.916   2.869
 9075SOL     OW28123   6.686   1.037   2.585
 9075SOL    HW128124   6.779   1.062   2.610
 9075SOL    HW228125   6.621   1.084   2.645
 9076SOL     OW28126   6.334   1.343   5.677
 9076SOL    HW128127   6.281   1.354   5.760
 9076SOL    HW228128   6.311   1.256   5.633
 9077SOL     OW28129   6.107   6.523   2.105
 9077SOL    HW128130   6.053   6.454   2.153
 9077SOL    HW228131   6.200   6.488   2.093
 9078SOL     OW28132   3.713   2.885   4.764
 9078SOL    HW128133   3.780   2.942   4.716
 9078SOL    HW228134   3.732   2.789   4.746
 9079SOL     OW28135   3.662   0.645   5.809
 9079SOL    HW128136   3.755   0.619   5.834
 9079SOL    HW228137   3.597   0.602   5.871
 9080SOL     OW28138   4.945   2.166   0.524
 9080SOL    HW128139   5.041   2.194   0.525
 9080SOL    HW228140   4.925   2.118   0.438
 9081SOL     OW28141   5.540   6.779   2.062
 9081SOL    HW128142   5.631   6.811   2.085
 9081SOL    HW228143   5.516   6.701   2.119
 9082SOL     OW28144   3.568   1.566   3.299
 9082SOL    HW128145   3.570   1.643   3.363
 9082SOL    HW228146   3.598   1.597   3.208
 9083SOL     OW28147   4.444   4.957   4.568
 9083SOL    HW128148   4.515   4.889   4.548
 9083SOL    HW228149   4.357   4.912   4.583
 9084SOL     OW28150   3.234   3.383   3.242
 9084SOL    HW128151   3.189   3.439   3.172
 9084SOL    HW228152   3.165   3.344   3.303
 9085SOL     OW28153   0.665   2.352   0.620
 9085SOL    HW128154   0.627   2.350   0.528
 9085SOL    HW228155   0.650   2.264   0.664
 9086SOL     OW28156   0.246   4.039   0.798
 9086SOL    HW128157   0.306   3.960   0.786
 9086SOL    HW228158   0.287   4.103   0.861
 9087SOL     OW28159   4.812   3.942   1.692
 9087SOL    HW128160   4.746   3.871   1.716
 9087SOL    HW228161   4.790   4.026   1.741
 9088SOL     OW28162   4.873   6.801   0.493
 9088SOL    HW128163   4.900   6.738   0.565
 9088SOL    HW228164   4.822   6.751   0.422
 9089SOL     OW28165   4.674   0.125   5.734
 9089SOL    HW128166   4.658   0.218   5.766
 9089SOL    HW228167   4.771   0.113   5.713
 9090SOL     OW28168   6.293   1.491   4.324
 9090SOL    HW128169   6.305   1.458   4.418
 9090SOL    HW228170   6.377   1.476   4.272
 9091SOL     OW28171   3.118   3.347   6.739
 9091SOL    HW128172   3.140   3.381   6.831
 9091SOL    HW228173   3.021   3.323   6.735
 9092SOL     OW28174   0.028   2.560   0.009
 9092SOL    HW128175   0.093   2.535   0.081
 9092SOL    HW228176   0.045   2.505   6.951
 9093SOL     OW28177   1.591   5.960   5.658
 9093SOL    HW128178   1.549   5.902   5.728
 9093SOL    HW228179   1.656   5.905   5.605
 9094SOL     OW28180   0.780   3.594   1.861
 9094SOL    HW128181   0.875   3.579   1.833
 9094SOL    HW228182   0.724   3.516   1.831
 9095SOL     OW28183   6.485   6.058   5.135
 9095SOL    HW128184   6.529   6.070   5.047
 9095SOL    HW228185   6.502   6.138   5.192
 9096SOL     OW28186   6.673   5.880   3.088
 9096SOL    HW128187   6.754   5.839   3.045
 9096SOL    HW228188   6.667   5.976   3.062
 9097SOL     OW28189   1.649   2.135   5.907
 9097SOL    HW128190   1.723   2.177   5.960
 9097SOL    HW228191   1.578   2.203   5.891
 9098SOL     OW28192   1.803   3.688   4.158
 9098SOL    HW128193   1.797   3.652   4.252
 9098SOL    HW228194   1.748   3.631   4.097
 9099SOL     OW28195   2.992   2.568   6.545
 9099SOL    HW128196   3.009   2.629   6.467
 9099SOL    HW228197   2.936   2.617   6.613
 9100SOL     OW28198   0.711   4.581   3.384
 9100SOL    HW128199   0.687   4.544   3.295
 9100SOL    HW228200   0.739   4.507   3.445
 9101SOL     OW28201   0.892   2.667   1.565
 9101SOL    HW128202   0.873   2.627   1.654
 9101SOL    HW228203   0.898   2.594   1.497
 9102SOL     OW28204   4.317   6.785   3.373
 9102SOL    HW128205   4.302   6.698   3.325
 9102SOL    HW228206   4.409   6.785   3.413
 9103SOL     OW28207   6.322   1.227   0.502
 9103SOL    HW128208   6.229   1.190   0.511
 9103SOL    HW228209   6.329   1.279   0.417
 9104SOL     OW28210   5.944   1.639   0.001
 9104SOL    HW128211   5.983   1.727   6.998
 9104SOL    HW228212   5.923   1.585   6.944
 9105SOL     OW28213   2.147   0.757   6.007
 9105SOL    HW128214   2.147   0.849   6.046
 9105SOL    HW228215   2.062   0.742   5.957
 9106SOL     OW28216   1.603   4.258   0.741
 9106SOL    HW128217   1.560   4.322   0.804
 9106SOL    HW228218   1.534   4.216   0.682
 9107SOL     OW28219   2.656   1.680   0.131
 9107SOL    HW128220   2.685   1.775   0.120
 9107SOL    HW228221   2.671   1.651   0.226
 9108SOL     OW28222   5.646   5.555   6.482
 9108SOL    HW128223   5.679   5.501   6.405
 9108SOL    HW228224   5.548   5.536   6.496
 9109SOL     OW28225   5.073   3.628   2.534
 9109SOL    HW128226   5.013   3.551   2.554
 9109SOL    HW228227   5.044   3.672   2.448
 9110SOL     OW28228   1.316   6.348   4.393
 9110SOL    HW128229   1.374   6.328   4.472
 9110SOL    HW228230   1.341   6.437   4.356
 9111SOL     OW28231   4.596   2.520   6.119
 9111SOL    HW128232   4.513   2.502   6.173
 9111SOL    HW228233   4.570   2.552   6.028
 9112SOL     OW28234   1.080   5.295   1.673
 9112SOL    HW128235   1.090   5.237   1.754
 9112SOL    HW228236   1.062   5.389   1.701
 9113SOL     OW28237   5.511   1.261   3.983
 9113SOL    HW128238   5.578   1.297   4.047
 9113SOL    HW228239   5.552   1.186   3.930
 9114SOL     OW28240   1.466   6.068   5.410
 9114SOL    HW128241   1.565   6.068   5.422
 9114SOL    HW228242   1.422   6.063   5.500
 9115SOL     OW28243   5.464   4.213   3.803
 9115SOL    HW128244   5.525   4.148   3.848
 9115SOL    HW228245   5.514   4.266   3.735
 9116SOL     OW28246   1.650   6.977   3.369
 9116SOL    HW128247   1.551   6.959   3.372
 9116SOL    HW228248   1.665   0.050   3.348
 9117SOL     OW28249   2.856   6.419   0.187
 9117SOL    HW128250   2.771   6.440   0.139
 9117SOL    HW228251   2.890   6.501   0.232
 9118SOL     OW28252   6.236   4.499   2.140
 9118SOL    HW128253   6.335   4.484   2.135
 9118SOL    HW228254   6.216   4.567   2.211
 9119SOL     OW28255   3.377   0.297   0.343
 9119SOL    HW128256   3.400   0.382   0.295
 9119SOL    HW228257   3.374   0.314   0.442
 9120SOL     OW28258   5.861   3.880   4.833
 9120SOL    HW128259   5.867   3.967   4.783
 9120SOL    HW228260   5.809   3.815   4.780
 9121SOL     OW28261   3.027   0.682   4.831
 9121SOL    HW128262   3.034   0.686   4.731
 9121SOL    HW228263   2.937   0.645   4.856
 9122SOL     OW28264   1.573   3.460   1.851
 9122SOL    HW128265   1.496   3.461   1.915
 9122SOL    HW228266   1.643   3.525   1.882
 9123SOL     OW28267   7.022   0.125   4.333
 9123SOL    HW128268   6.974   0.177   4.263
 9123SOL    HW228269   6.968   0.044   4.357
 9124SOL     OW28270   2.525   5.596   0.736
 9124SOL    HW128271   2.490   5.507   0.767
 9124SOL    HW228272   2.460   5.636   0.671
 9125SOL     OW28273   4.962   5.937   1.156
 9125SOL    HW128274   4.962   5.837   1.163
 9125SOL    HW228275   4.867   5.970   1.151
 9126SOL     OW28276   4.049   4.738   0.646
 9126SOL    HW128277   4.082   4.785   0.728
 9126SOL    HW228278   4.106   4.659   0.627
 9127SOL     OW28279   6.768   4.743   4.558
 9127SOL    HW128280   6.692   4.807   4.567
 9127SOL    HW228281   6.733   4.649   4.561
 9128SOL     OW28282   5.708   4.445   5.901
 9128SOL    HW128283   5.778   4.440   5.972
 9128SOL    HW228284   5.750   4.473   5.815
 9129SOL     OW28285   0.913   3.328   0.757
 9129SOL    HW128286   0.917   3.291   0.850
 9129SOL    HW228287   0.819   3.352   0.735
 9130SOL     OW28288   2.856   3.840   5.037
 9130SOL    HW128289   2.766   3.860   4.997
 9130SOL    HW228290   2.927   3.859   4.970
 9131SOL     OW28291   4.700   2.459   0.277
 9131SOL    HW128292   4.623   2.485   0.335
 9131SOL    HW228293   4.769   2.531   0.279
 9132SOL     OW28294   0.060   3.964   3.577
 9132SOL    HW128295   0.019   3.878   3.606
 9132SOL    HW228296   0.032   3.984   3.483
 9133SOL     OW28297   5.372   0.805   0.876
 9133SOL    HW128298   5.420   0.885   0.838
 9133SOL    HW228299   5.276   0.807   0.846
 9134SOL     OW28300   4.615   4.694   0.798
 9134SOL    HW128301   4.672   4.612   0.791
 9134SOL    HW228302   4.602   4.719   0.894
 9135SOL     OW28303   6.195   6.443   2.490
 9135SOL    HW128304   6.244   6.477   2.410
 9135SOL    HW228305   6.175   6.345   2.478
 9136SOL     OW28306   6.572   4.496   0.184
 9136SOL    HW128307   6.510   4.418   0.172
 9136SOL    HW228308   6.550   4.567   0.118
 9137SOL     OW28309   5.017   6.162   5.797
 9137SOL    HW128310   5.077   6.173   5.717
 9137SOL    HW228311   5.038   6.076   5.842
 9138SOL     OW28312   2.677   3.387   0.006
 9138SOL    HW128313   2.654   3.386   0.103
 9138SOL    HW228314   2.670   3.481   6.995
 9139SOL     OW28315   6.698   0.052   0.470
 9139SOL    HW128316   6.758   0.121   0.511
 9139SOL    HW228317   6.674   7.008   0.539
 9140SOL     OW28318   1.661   3.906   3.560
 9140SOL    HW128319   1.677   3.971   3.634
 9140SOL    HW228320   1.667   3.812   3.595
 9141SOL     OW28321   7.005   5.355   4.795
 9141SOL    HW128322   0.016   5.448   4.804
 9141SOL    HW228323   6.993   5.315   4.886
 9142SOL     OW28324   1.179   4.218   4.598
 9142SOL    HW128325   1.096   4.178   4.637
 9142SOL    HW228326   1.253   4.213   4.666
 9143SOL     OW28327   6.938   4.395   2.036
 9143SOL    HW128328   6.865   4.332   2.064
 9143SOL    HW228329   6.951   4.389   1.937
 9144SOL     OW28330   2.693   4.794   5.196
 9144SOL    HW128331   2.713   4.880   5.151
 9144SOL    HW228332   2.725   4.718   5.139
 9145SOL     OW28333   1.499   6.158   5.984
 9145SOL    HW128334   1.453   6.086   5.931
 9145SOL    HW228335   1.576   6.193   5.931
 9146SOL     OW28336   5.427   2.874   3.141
 9146SOL    HW128337   5.423   2.913   3.048
 9146SOL    HW228338   5.447   2.947   3.206
 9147SOL     OW28339   4.306   6.995   5.255
 9147SOL    HW128340   4.333   0.067   5.255
 9147SOL    HW228341   4.220   6.985   5.205
 9148SOL     OW28342   5.672   5.563   1.415
 9148SOL    HW128343   5.652   5.529   1.507
 9148SOL    HW228344   5.699   5.659   1.421
 9149SOL     OW28345   0.324   4.000   1.224
 9149SOL    HW128346   0.302   3.902   1.221
 9149SOL    HW228347   0.241   4.053   1.239
 9150SOL     OW28348   2.541   3.370   0.261
 9150SOL    HW128349   2.476   3.445   0.260
 9150SOL    HW228350   2.493   3.283   0.248
 9151SOL     OW28351   1.197   3.307   4.202
 9151SOL    HW128352   1.254   3.253   4.264
 9151SOL    HW228353   1.210   3.275   4.108
 9152SOL     OW28354   1.650   4.231   2.644
 9152SOL    HW128355   1.635   4.325   2.612
 9152SOL    HW228356   1.741   4.224   2.685
 9153SOL     OW28357   0.382   3.158   6.190
 9153SOL    HW128358   0.305   3.130   6.246
 9153SOL    HW228359   0.351   3.225   6.122
 9154SOL     OW28360   5.866   5.301   3.065
 9154SOL    HW128361   5.774   5.292   3.102
 9154SOL    HW228362   5.933   5.291   3.139
 9155SOL     OW28363   1.277   6.382   2.857
 9155SOL    HW128364   1.321   6.311   2.801
 9155SOL    HW228365   1.337   6.462   2.861
 9156SOL     OW28366   6.509   3.974   6.227
 9156SOL    HW128367   6.418   4.013   6.239
 9156SOL    HW228368   6.576   4.031   6.275
 9157SOL     OW28369   1.812   4.514   6.363
 9157SOL    HW128370   1.817   4.437   6.427
 9157SOL    HW228371   1.805   4.480   6.270
 9158SOL     OW28372   6.559   4.086   4.656
 9158SOL    HW128373   6.655   4.077   4.681
 9158SOL    HW228374   6.503   4.088   4.739
 9159SOL     OW28375   2.466   1.438   4.134
 9159SOL    HW128376   2.378   1.395   4.157
 9159SOL    HW228377   2.536   1.367   4.122
 9160SOL     OW28378   1.113   3.852   1.118
 9160SOL    HW128379   1.073   3.920   1.180
 9160SOL    HW228380   1.131   3.768   1.168
 9161SOL     OW28381   6.758   4.151   2.076
 9161SOL    HW128382   6.759   4.053   2.100
 9161SOL    HW228383   6.688   4.167   2.006
 9162SOL     OW28384   4.244   2.233   1.852
 9162SOL    HW128385   4.166   2.236   1.915
 9162SOL    HW228386   4.285   2.142   1.856
 9163SOL     OW28387   2.065   2.274   3.341
 9163SOL    HW128388   1.978   2.246   3.381
 9163SOL    HW228389   2.092   2.208   3.271
 9164SOL     OW28390   2.514   6.293   6.699
 9164SOL    HW128391   2.474   6.287   6.790
 9164SOL    HW228392   2.446   6.266   6.630
 9165SOL     OW28393   5.874   1.998   5.508
 9165SOL    HW128394   5.864   2.097   5.502
 9165SOL    HW228395   5.870   1.958   5.416
 9166SOL     OW28396   4.880   6.399   1.613
 9166SOL    HW128397   4.948   6.390   1.540
 9166SOL    HW228398   4.790   6.373   1.578
 9167SOL     OW28399   1.873   1.497   4.910
 9167SOL    HW128400   1.810   1.514   4.985
 9167SOL    HW228401   1.858   1.404   4.875
 9168SOL     OW28402   6.243   6.117   4.975
 9168SOL    HW128403   6.250   6.216   4.990
 9168SOL    HW228404   6.324   6.072   5.011
 9169SOL     OW28405   0.012   6.529   1.631
 9169SOL    HW128406   0.072   6.452   1.611
 9169SOL    HW228407   0.061   6.597   1.685
 9170SOL     OW28408   1.675   0.733   6.025
 9170SOL    HW128409   1.756   0.679   6.050
 9170SOL    HW228410   1.701   0.830   6.018
 9171SOL     OW28411   3.831   5.487   6.350
 9171SOL    HW128412   3.736   5.506   6.373
 9171SOL    HW228413   3.867   5.417   6.411
 9172SOL     OW28414   4.502   1.984   4.901
 9172SOL    HW128415   4.411   2.025   4.894
 9172SOL    HW228416   4.524   1.938   4.815
 9173SOL     OW28417   5.591   3.616   4.804
 9173SOL    HW128418   5.597   3.592   4.707
 9173SOL    HW228419   5.501   3.654   4.824
 9174SOL     OW28420   6.770   5.081   1.253
 9174SOL    HW128421   6.768   5.177   1.228
 9174SOL    HW228422   6.864   5.048   1.254
 9175SOL     OW28423   2.296   0.052   0.280
 9175SOL    HW128424   2.358   0.122   0.316
 9175SOL    HW228425   2.202   0.075   0.303
 9176SOL     OW28426   1.760   1.907   2.210
 9176SOL    HW128427   1.810   1.919   2.296
 9176SOL    HW228428   1.666   1.940   2.223
 9177SOL     OW28429   0.350   5.406   3.568
 9177SOL    HW128430   0.352   5.314   3.530
 9177SOL    HW228431   0.264   5.450   3.542
 9178SOL     OW28432   1.426   4.464   1.710
 9178SOL    HW128433   1.328   4.457   1.691
 9178SOL    HW228434   1.439   4.496   1.804
 9179SOL     OW28435   3.109   5.336   4.100
 9179SOL    HW128436   3.167   5.333   4.181
 9179SOL    HW228437   3.165   5.346   4.019
 9180SOL     OW28438   0.435   1.708   5.392
 9180SOL    HW128439   0.382   1.790   5.414
 9180SOL    HW228440   0.497   1.687   5.468
 9181SOL     OW28441   2.220   2.466   3.386
 9181SOL    HW128442   2.147   2.401   3.370
 9181SOL    HW228443   2.273   2.480   3.302
 9182SOL     OW28444   0.764   1.911   2.375
 9182SOL    HW128445   0.709   1.850   2.316
 9182SOL    HW228446   0.703   1.977   2.420
 9183SOL     OW28447   1.895   1.861   6.183
 9183SOL    HW128448   1.884   1.763   6.201
 9183SOL    HW228449   1.906   1.876   6.085
 9184SOL     OW28450   4.114   3.432   0.578
 9184SOL    HW128451   4.049   3.472   0.514
 9184SOL    HW228452   4.136   3.339   0.550
 9185SOL     OW28453   1.890   0.602   6.077
 9185SOL    HW128454   1.888   0.563   5.985
 9185SOL    HW228455   1.976   0.578   6.121
 9186SOL     OW28456   4.777   0.990   6.317
 9186SOL    HW128457   4.784   1.010   6.219
 9186SOL    HW228458   4.825   1.061   6.369
 9187SOL     OW28459   5.677   2.544   1.089
 9187SOL    HW128460   5.750   2.613   1.087
 9187SOL    HW228461   5.633   2.545   1.179
 9188SOL     OW28462   1.764   0.362   1.811
 9188SOL    HW128463   1.735   0.451   1.776
 9188SOL    HW228464   1.708   0.337   1.890
 9189SOL     OW28465   4.333   1.348   5.900
 9189SOL    HW128466   4.312   1.397   5.984
 9189SOL    HW228467   4.248   1.313   5.860
 9190SOL     OW28468   5.241   1.749   5.430
 9190SOL    HW128469   5.323   1.790   5.390
 9190SOL    HW228470   5.261   1.718   5.523
 9191SOL     OW28471   5.564   0.254   1.022
 9191SOL    HW128472   5.564   0.169   1.075
 9191SOL    HW228473   5.658   0.276   0.995
 9192SOL     OW28474   4.959   3.769   3.794
 9192SOL    HW128475   4.877   3.813   3.829
 9192SOL    HW228476   4.938   3.724   3.707
 9193SOL     OW28477   3.800   2.926   3.394
 9193SOL    HW128478   3.873   2.989   3.420
 9193SOL    HW228479   3.752   2.962   3.314
 9194SOL     OW28480   4.491   5.619   2.595
 9194SOL    HW128481   4.393   5.634   2.612
 9194SOL    HW228482   4.509   5.521   2.592
 9195SOL     OW28483   0.310   2.501   2.837
 9195SOL    HW128484   0.214   2.475   2.850
 9195SOL    HW228485   0.326   2.520   2.740
 9196SOL     OW28486   5.058   6.740   4.103
 9196SOL    HW128487   5.081   6.783   4.016
 9196SOL    HW228488   5.022   6.809   4.166
 9197SOL     OW28489   4.137   2.370   5.802
 9197SOL    HW128490   4.104   2.424   5.724
 9197SOL    HW228491   4.142   2.429   5.883
 9198SOL     OW28492   5.957   2.243   5.240
 9198SOL    HW128493   5.922   2.302   5.167
 9198SOL    HW228494   5.902   2.255   5.323
 9199SOL     OW28495   2.047   2.796   6.193
 9199SOL    HW128496   1.986   2.834   6.262
 9199SOL    HW228497   2.005   2.806   6.103
 9200SOL     OW28498   5.589   6.195   0.839
 9200SOL    HW128499   5.622   6.186   0.933
 9200SOL    HW228500   5.585   6.104   0.797
 9201SOL     OW28501   1.043   3.761   2.502
 9201SOL    HW128502   1.038   3.861   2.502
 9201SOL    HW228503   1.056   3.728   2.595
 9202SOL     OW28504   3.002   5.709   3.876
 9202SOL    HW128505   2.955   5.655   3.946
 9202SOL    HW228506   3.101   5.694   3.883
 9203SOL     OW28507   4.339   0.633   6.107
 9203SOL    HW128508   4.337   0.613   6.206
 9203SOL    HW228509   4.320   0.549   6.056
 9204SOL     OW28510   5.162   4.667   2.415
 9204SOL    HW128511   5.070   4.649   2.380
 9204SOL    HW228512   5.179   4.610   2.495
 9205SOL     OW28513   4.853   3.348   1.876
 9205SOL    HW128514   4.924   3.307   1.932
 9205SOL    HW228515   4.851   3.305   1.786
 9206SOL     OW28516   0.780   5.888   3.715
 9206SOL    HW128517   0.862   5.922   3.760
 9206SOL    HW228518   0.708   5.873   3.783
 9207SOL     OW28519   4.215   6.360   6.924
 9207SOL    HW128520   4.310   6.391   6.934
 9207SOL    HW228521   4.181   6.388   6.834
 9208SOL     OW28522   4.794   4.141   1.909
 9208SOL    HW128523   4.803   4.083   1.990
 9208SOL    HW228524   4.701   4.178   1.904
 9209SOL     OW28525   4.107   6.997   2.802
 9209SOL    HW128526   4.180   6.941   2.764
 9209SOL    HW228527   4.031   6.938   2.829
 9210SOL     OW28528   1.031   6.653   0.699
 9210SOL    HW128529   0.964   6.638   0.626
 9210SOL    HW228530   1.068   6.565   0.729
 9211SOL     OW28531   5.008   1.358   6.257
 9211SOL    HW128532   4.941   1.321   6.194
 9211SOL    HW228533   5.010   1.458   6.249
 9212SOL     OW28534   5.554   3.815   5.363
 9212SOL    HW128535   5.501   3.834   5.280
 9212SOL    HW228536   5.510   3.859   5.441
 9213SOL     OW28537   6.592   6.954   2.381
 9213SOL    HW128538   6.546   6.960   2.293
 9213SOL    HW228539   6.685   6.920   2.368
 9214SOL     OW28540   1.929   2.297   5.398
 9214SOL    HW128541   1.980   2.334   5.476
 9214SOL    HW228542   1.990   2.242   5.341
 9215SOL     OW28543   0.266   2.728   3.031
 9215SOL    HW128544   0.224   2.677   2.957
 9215SOL    HW228545   0.223   2.702   3.118
 9216SOL     OW28546   2.590   5.709   3.906
 9216SOL    HW128547   2.533   5.786   3.936
 9216SOL    HW228548   2.672   5.744   3.861
 9217SOL     OW28549   3.718   1.397   6.783
 9217SOL    HW128550   3.645   1.455   6.819
 9217SOL    HW228551   3.780   1.452   6.726
 9218SOL     OW28552   5.368   5.492   6.490
 9218SOL    HW128553   5.272   5.470   6.503
 9218SOL    HW228554   5.390   5.487   6.393
 9219SOL     OW28555   3.241   2.178   5.525
 9219SOL    HW128556   3.157   2.217   5.485
 9219SOL    HW228557   3.241   2.079   5.510
 9220SOL     OW28558   0.399   6.493   3.465
 9220SOL    HW128559   0.431   6.568   3.407
 9220SOL    HW228560   0.429   6.507   3.559
 9221SOL     OW28561   2.385   1.358   0.550
 9221SOL    HW128562   2.482   1.354   0.571
 9221SOL    HW228563   2.332   1.369   0.634
 9222SOL     OW28564   1.454   3.323   4.580
 9222SOL    HW128565   1.418   3.406   4.538
 9222SOL    HW228566   1.482   3.259   4.508
 9223SOL     OW28567   7.014   3.106   5.148
 9223SOL    HW128568   6.978   3.197   5.129
 9223SOL    HW228569   0.079   3.113   5.193
 9224SOL     OW28570   2.281   4.870   3.208
 9224SOL    HW128571   2.277   4.786   3.152
 9224SOL    HW228572   2.341   4.855   3.286
 9225SOL     OW28573   5.985   5.527   6.083
 9225SOL    HW128574   5.961   5.431   6.103
 9225SOL    HW228575   5.970   5.545   5.986
 9226SOL     OW28576   1.061   0.770   0.277
 9226SOL    HW128577   1.142   0.792   0.223
 9226SOL    HW228578   1.074   0.681   0.321
 9227SOL     OW28579   3.135   3.848   0.502
 9227SOL    HW128580   3.110   3.945   0.500
 9227SOL    HW228581   3.090   3.801   0.427
 9228SOL     OW28582   3.846   3.404   5.134
 9228SOL    HW128583   3.762   3.376   5.088
 9228SOL    HW228584   3.842   3.502   5.154
 9229SOL     OW28585   6.675   5.172   0.459
 9229SOL    HW128586   6.743   5.099   0.460
 9229SOL    HW228587   6.595   5.145   0.513
 9230SOL     OW28588   4.203   1.258   5.018
 9230SOL    HW128589   4.187   1.163   4.989
 9230SOL    HW228590   4.198   1.318   4.938
 9231SOL     OW28591   6.947   6.224   2.366
 9231SOL    HW128592   6.979   6.200   2.274
 9231SOL    HW228593   6.851   6.250   2.361
 9232SOL     OW28594   1.046   5.091   2.591
 9232SOL    HW128595   1.091   5.146   2.521
 9232SOL    HW228596   0.955   5.128   2.609
 9233SOL     OW28597   1.204   6.349   5.653
 9233SOL    HW128598   1.266   6.276   5.681
 9233SOL    HW228599   1.187   6.344   5.555
 9234SOL     OW28600   2.489   3.532   6.434
 9234SOL    HW128601   2.529   3.455   6.384
 9234SOL    HW228602   2.430   3.497   6.507
 9235SOL     OW28603   1.748   2.170   3.308
 9235SOL    HW128604   1.650   2.154   3.301
 9235SOL    HW228605   1.786   2.113   3.381
 9236SOL     OW28606   1.447   3.048   6.343
 9236SOL    HW128607   1.499   3.006   6.269
 9236SOL    HW228608   1.493   3.031   6.431
 9237SOL     OW28609   5.978   5.507   2.911
 9237SOL    HW128610   5.948   5.420   2.950
 9237SOL    HW228611   6.054   5.491   2.848
 9238SOL     OW28612   1.838   3.062   4.632
 9238SOL    HW128613   1.895   3.141   4.610
 9238SOL    HW228614   1.796   3.075   4.722
 9239SOL     OW28615   0.983   4.661   6.782
 9239SOL    HW128616   1.003   4.621   6.871
 9239SOL    HW228617   0.886   4.651   6.762
 9240SOL     OW28618   4.391   1.515   3.350
 9240SOL    HW128619   4.463   1.447   3.359
 9240SOL    HW228620   4.361   1.544   3.441
 9241SOL     OW28621   5.633   6.973   0.608
 9241SOL    HW128622   5.573   7.015   0.676
 9241SOL    HW228623   5.598   6.994   0.516
 9242SOL     OW28624   1.746   2.327   0.745
 9242SOL    HW128625   1.778   2.235   0.721
 9242SOL    HW228626   1.789   2.355   0.831
 9243SOL     OW28627   1.570   0.170   0.128
 9243SOL    HW128628   1.546   0.079   0.161
 9243SOL    HW228629   1.592   0.166   0.031
 9244SOL     OW28630   3.684   6.628   6.216
 9244SOL    HW128631   3.587   6.602   6.224
 9244SOL    HW228632   3.722   6.641   6.307
 9245SOL     OW28633   1.111   4.963   2.943
 9245SOL    HW128634   1.125   4.915   2.857
 9245SOL    HW228635   1.073   4.901   3.011
 9246SOL     OW28636   4.944   6.982   6.669
 9246SOL    HW128637   4.885   6.905   6.694
 9246SOL    HW228638   4.888   0.036   6.641
 9247SOL     OW28639   4.088   5.517   2.850
 9247SOL    HW128640   4.157   5.574   2.895
 9247SOL    HW228641   4.112   5.421   2.861
 9248SOL     OW28642   2.218   0.725   6.785
 9248SOL    HW128643   2.259   0.689   6.869
 9248SOL    HW228644   2.287   0.726   6.712
 9249SOL     OW28645   2.179   6.681   0.377
 9249SOL    HW128646   2.107   6.728   0.325
 9249SOL    HW228647   2.251   6.651   0.314
 9250SOL     OW28648   0.095   2.885   3.847
 9250SOL    HW128649   0.064   2.878   3.942
 9250SOL    HW228650   0.016   2.898   3.787
 9251SOL     OW28651   2.878   1.999   0.806
 9251SOL    HW128652   2.871   2.018   0.708
 9251SOL    HW228653   2.931   1.916   0.820
 9252SOL     OW28654   5.748   1.113   5.090
 9252SOL    HW128655   5.732   1.128   5.188
 9252SOL    HW228656   5.833   1.157   5.063
 9253SOL     OW28657   1.169   5.751   4.992
 9253SOL    HW128658   1.245   5.692   4.962
 9253SOL    HW228659   1.157   5.826   4.926
 9254SOL     OW28660   0.330   5.146   2.316
 9254SOL    HW128661   0.242   5.155   2.362
 9254SOL    HW228662   0.341   5.218   2.249
 9255SOL     OW28663   6.899   4.424   0.785
 9255SOL    HW128664   6.978   4.482   0.805
 9255SOL    HW228665   6.921   4.329   0.809
 9256SOL     OW28666   3.073   6.636   1.190
 9256SOL    HW128667   3.151   6.575   1.205
 9256SOL    HW228668   3.045   6.632   1.094
 9257SOL     OW28669   5.701   5.882   4.587
 9257SOL    HW128670   5.628   5.850   4.527
 9257SOL    HW228671   5.789   5.847   4.554
 9258SOL     OW28672   3.539   5.238   0.783
 9258SOL    HW128673   3.451   5.278   0.757
 9258SOL    HW228674   3.533   5.206   0.878
 9259SOL     OW28675   0.806   2.072   0.012
 9259SOL    HW128676   0.795   1.985   0.059
 9259SOL    HW228677   0.817   2.057   6.938
 9260SOL     OW28678   5.111   3.966   4.762
 9260SOL    HW128679   5.152   3.957   4.671
 9260SOL    HW228680   5.074   3.878   4.790
 9261SOL     OW28681   2.866   2.091   1.230
 9261SOL    HW128682   2.835   2.037   1.152
 9261SOL    HW228683   2.855   2.038   1.314
 9262SOL     OW28684   6.797   6.172   6.005
 9262SOL    HW128685   6.765   6.084   6.040
 9262SOL    HW228686   6.738   6.245   6.040
 9263SOL     OW28687   1.794   4.515   3.050
 9263SOL    HW128688   1.749   4.605   3.047
 9263SOL    HW228689   1.890   4.526   3.077
 9264SOL     OW28690   5.455   4.189   6.526
 9264SOL    HW128691   5.499   4.225   6.608
 9264SOL    HW228692   5.398   4.260   6.485
 9265SOL     OW28693   6.039   1.615   1.682
 9265SOL    HW128694   6.098   1.664   1.746
 9265SOL    HW228695   5.949   1.602   1.722
 9266SOL     OW28696   1.594   4.550   1.159
 9266SOL    HW128697   1.567   4.562   1.254
 9266SOL    HW228698   1.692   4.563   1.150
 9267SOL     OW28699   0.061   0.518   4.438
 9267SOL    HW128700   7.001   0.544   4.390
 9267SOL    HW228701   0.075   0.579   4.516
 9268SOL     OW28702   0.467   6.959   1.376
 9268SOL    HW128703   0.391   6.912   1.332
 9268SOL    HW228704   0.550   6.902   1.369
 9269SOL     OW28705   3.637   1.006   0.216
 9269SOL    HW128706   3.606   0.934   0.153
 9269SOL    HW228707   3.721   1.047   0.180
 9270SOL     OW28708   2.728   0.457   6.708
 9270SOL    HW128709   2.697   0.517   6.635
 9270SOL    HW228710   2.777   0.510   6.776
 9271SOL     OW28711   1.589   5.581   5.218
 9271SOL    HW128712   1.507   5.629   5.250
 9271SOL    HW228713   1.563   5.512   5.151
 9272SOL     OW28714   6.914   6.649   6.125
 9272SOL    HW128715   6.997   6.655   6.181
 9272SOL    HW228716   6.937   6.608   6.037
 9273SOL     OW28717   5.509   4.051   3.303
 9273SOL    HW128718   5.528   4.149   3.314
 9273SOL    HW228719   5.498   4.009   3.393
 9274SOL     OW28720   0.826   3.170   0.461
 9274SOL    HW128721   0.871   3.099   0.407
 9274SOL    HW228722   0.865   3.259   0.437
 9275SOL     OW28723   5.491   0.808   0.490
 9275SOL    HW128724   5.552   0.873   0.535
 9275SOL    HW228725   5.397   0.825   0.518
 9276SOL     OW28726   2.810   5.079   0.328
 9276SOL    HW128727   2.735   5.112   0.385
 9276SOL    HW228728   2.870   5.020   0.382
 9277SOL     OW28729   4.798   5.163   2.422
 9277SOL    HW128730   4.702   5.159   2.393
 9277SOL    HW228731   4.844   5.239   2.378
 9278SOL     OW28732   0.636   6.889   5.221
 9278SOL    HW128733   0.545   6.854   5.245
 9278SOL    HW228734   0.684   6.916   5.304
 9279SOL     OW28735   3.347   5.287   1.727
 9279SOL    HW128736   3.372   5.351   1.800
 9279SOL    HW228737   3.322   5.339   1.645
 9280SOL     OW28738   1.866   6.467   3.025
 9280SOL    HW128739   1.932   6.537   3.052
 9280SOL    HW228740   1.880   6.385   3.080
 9281SOL     OW28741   2.108   5.950   0.844
 9281SOL    HW128742   2.052   5.867   0.850
 9281SOL    HW228743   2.192   5.936   0.896
 9282SOL     OW28744   3.211   6.661   4.979
 9282SOL    HW128745   3.272   6.704   4.913
 9282SOL    HW228746   3.262   6.642   5.063
 9283SOL     OW28747   4.405   6.471   1.028
 9283SOL    HW128748   4.363   6.562   1.023
 9283SOL    HW228749   4.395   6.435   1.121
 9284SOL     OW28750   4.398   4.277   5.652
 9284SOL    HW128751   4.410   4.218   5.572
 9284SOL    HW228752   4.420   4.225   5.735
 9285SOL     OW28753   0.570   5.549   2.976
 9285SOL    HW128754   0.520   5.474   2.933
 9285SOL    HW228755   0.667   5.540   2.955
 9286SOL     OW28756   4.164   6.903   1.515
 9286SOL    HW128757   4.118   6.931   1.599
 9286SOL    HW228758   4.161   6.978   1.449
 9287SOL     OW28759   4.167   3.962   5.917
 9287SOL    HW128760   4.239   3.894   5.906
 9287SOL    HW228761   4.158   4.014   5.832
 9288SOL     OW28762   3.629   1.712   1.827
 9288SOL    HW128763   3.725   1.688   1.832
 9288SOL    HW228764   3.589   1.710   1.919
 9289SOL     OW28765   4.631   6.909   0.643
 9289SOL    HW128766   4.566   6.960   0.586
 9289SOL    HW228767   4.695   6.859   0.585
 9290SOL     OW28768   5.351   1.399   4.302
 9290SOL    HW128769   5.378   1.473   4.242
 9290SOL    HW228770   5.394   1.412   4.392
 9291SOL     OW28771   0.814   3.847   6.009
 9291SOL    HW128772   0.720   3.880   6.000
 9291SOL    HW228773   0.877   3.916   5.975
 9292SOL     OW28774   0.920   0.766   6.608
 9292SOL    HW128775   0.973   0.773   6.692
 9292SOL    HW228776   0.873   0.853   6.591
 9293SOL     OW28777   5.066   2.504   3.844
 9293SOL    HW128778   5.029   2.514   3.752
 9293SOL    HW228779   4.994   2.526   3.911
 9294SOL     OW28780   4.447   0.155   6.087
 9294SOL    HW128781   4.358   0.119   6.115
 9294SOL    HW228782   4.471   0.117   5.997
 9295SOL     OW28783   6.466   1.018   4.958
 9295SOL    HW128784   6.424   0.927   4.964
 9295SOL    HW228785   6.412   1.076   4.897
 9296SOL     OW28786   2.290   5.065   6.095
 9296SOL    HW128787   2.355   5.104   6.030
 9296SOL    HW228788   2.340   5.015   6.166
 9297SOL     OW28789   6.268   5.833   2.492
 9297SOL    HW128790   6.346   5.788   2.449
 9297SOL    HW228791   6.300   5.894   2.564
 9298SOL     OW28792   1.206   4.217   6.550
 9298SOL    HW128793   1.150   4.177   6.622
 9298SOL    HW228794   1.201   4.317   6.555
 9299SOL     OW28795   2.144   2.702   4.426
 9299SOL    HW128796   2.103   2.742   4.509
 9299SOL    HW228797   2.105   2.612   4.410
 9300SOL     OW28798   1.990   5.747   5.178
 9300SOL    HW128799   1.894   5.773   5.164
 9300SOL    HW228800   1.999   5.697   5.264
 9301SOL     OW28801   0.202   4.028   4.282
 9301SOL    HW128802   0.111   3.988   4.275
 9301SOL    HW228803   0.230   4.030   4.378
 9302SOL     OW28804   2.119   3.673   4.643
 9302SOL    HW128805   2.083   3.714   4.559
 9302SOL    HW228806   2.172   3.742   4.692
 9303SOL     OW28807   2.579   4.580   0.285
 9303SOL    HW128808   2.514   4.599   0.359
 9303SOL    HW228809   2.532   4.582   0.197
 9304SOL     OW28810   5.097   5.459   6.540
 9304SOL    HW128811   5.095   5.414   6.451
 9304SOL    HW228812   5.076   5.392   6.611
 9305SOL     OW28813   1.680   2.108   0.970
 9305SOL    HW128814   1.717   2.197   0.997
 9305SOL    HW228815   1.592   2.121   0.924
 9306SOL     OW28816   0.117   6.251   4.937
 9306SOL    HW128817   0.036   6.310   4.938
 9306SOL    HW228818   0.121   6.199   5.023
 9307SOL     OW28819   1.923   3.527   1.483
 9307SOL    HW128820   1.988   3.520   1.407
 9307SOL    HW228821   1.973   3.548   1.567
 9308SOL     OW28822   2.164   3.237   1.806
 9308SOL    HW128823   2.244   3.295   1.821
 9308SOL    HW228824   2.083   3.281   1.845
 9309SOL     OW28825   5.087   5.180   6.671
 9309SOL    HW128826   5.182   5.180   6.702
 9309SOL    HW228827   5.077   5.115   6.595
 9310SOL     OW28828   6.040   5.566   6.538
 9310SOL    HW128829   6.041   5.614   6.450
 9310SOL    HW228830   5.959   5.595   6.589
 9311SOL     OW28831   5.088   3.771   0.512
 9311SOL    HW128832   5.120   3.720   0.432
 9311SOL    HW228833   5.167   3.802   0.566
 9312SOL     OW28834   0.211   3.017   3.070
 9312SOL    HW128835   0.210   2.931   3.020
 9312SOL    HW228836   0.260   3.006   3.157
 9313SOL     OW28837   0.381   0.427   2.420
 9313SOL    HW128838   0.449   0.476   2.473
 9313SOL    HW228839   0.298   0.482   2.412
 9314SOL     OW28840   5.109   4.523   1.344
 9314SOL    HW128841   5.090   4.620   1.360
 9314SOL    HW228842   5.188   4.495   1.400
 9315SOL     OW28843   5.020   6.256   6.058
 9315SOL    HW128844   5.066   6.345   6.049
 9315SOL    HW228845   5.028   6.206   5.971
 9316SOL     OW28846   5.037   0.915   6.425
 9316SOL    HW128847   5.086   0.980   6.368
 9316SOL    HW228848   4.943   0.905   6.391
 9317SOL     OW28849   3.545   6.150   3.134
 9317SOL    HW128850   3.571   6.145   3.037
 9317SOL    HW228851   3.455   6.108   3.147
 9318SOL     OW28852   3.851   7.014   1.942
 9318SOL    HW128853   3.755   7.000   1.916
 9318SOL    HW228854   3.859   7.012   2.042
 9319SOL     OW28855   4.248   2.352   6.883
 9319SOL    HW128856   4.199   2.397   6.958
 9319SOL    HW228857   4.341   2.329   6.912
 9320SOL     OW28858   6.517   6.750   6.836
 9320SOL    HW128859   6.499   6.652   6.827
 9320SOL    HW228860   6.489   6.781   6.927
 9321SOL     OW28861   0.382   2.787   4.951
 9321SOL    HW128862   0.360   2.747   4.862
 9321SOL    HW228863   0.297   2.814   4.996
 9322SOL     OW28864   5.669   3.002   6.966
 9322SOL    HW128865   5.754   2.980   7.014
 9322SOL    HW228866   5.591   2.982   0.002
 9323SOL     OW28867   0.794   2.018   5.792
 9323SOL    HW128868   0.726   2.054   5.855
 9323SOL    HW228869   0.816   2.088   5.724
 9324SOL     OW28870   0.785   4.049   1.736
 9324SOL    HW128871   0.806   4.106   1.815
 9324SOL    HW228872   0.687   4.055   1.716
 9325SOL     OW28873   0.950   4.133   3.696
 9325SOL    HW128874   0.929   4.036   3.678
 9325SOL    HW228875   0.873   4.174   3.745
 9326SOL     OW28876   4.194   4.104   1.459
 9326SOL    HW128877   4.097   4.079   1.460
 9326SOL    HW228878   4.243   4.045   1.395
 9327SOL     OW28879   2.770   0.907   3.267
 9327SOL    HW128880   2.847   0.936   3.211
 9327SOL    HW228881   2.699   0.867   3.209
 9328SOL     OW28882   2.386   0.570   3.856
 9328SOL    HW128883   2.315   0.563   3.927
 9328SOL    HW228884   2.433   0.483   3.848
 9329SOL     OW28885   0.053   5.350   0.015
 9329SOL    HW128886   0.112   5.304   0.081
 9329SOL    HW228887   7.001   5.290   7.014
 9330SOL     OW28888   6.717   6.248   6.987
 9330SOL    HW128889   6.744   6.198   0.046
 9330SOL    HW228890   6.631   6.295   7.003
 9331SOL     OW28891   1.941   3.521   3.737
 9331SOL    HW128892   1.994   3.445   3.698
 9331SOL    HW228893   1.949   3.520   3.836
 9332SOL     OW28894   5.829   5.933   0.721
 9332SOL    HW128895   5.912   5.884   0.692
 9332SOL    HW228896   5.853   6.002   0.789
 9333SOL     OW28897   3.450   3.454   1.090
 9333SOL    HW128898   3.377   3.443   1.157
 9333SOL    HW228899   3.423   3.412   1.003
 9334SOL     OW28900   5.973   5.990   5.779
 9334SOL    HW128901   5.953   5.898   5.814
 9334SOL    HW228902   5.973   5.988   5.679
 9335SOL     OW28903   0.917   3.140   1.719
 9335SOL    HW128904   0.902   3.050   1.758
 9335SOL    HW228905   1.000   3.139   1.662
 9336SOL     OW28906   5.470   0.472   5.865
 9336SOL    HW128907   5.370   0.466   5.871
 9336SOL    HW228908   5.495   0.559   5.822
 9337SOL     OW28909   2.283   1.004   5.864
 9337SOL    HW128910   2.356   0.941   5.837
 9337SOL    HW228911   2.247   1.050   5.783
 9338SOL     OW28912   5.452   6.547   0.196
 9338SOL    HW128913   5.517   6.614   0.160
 9338SOL    HW228914   5.501   6.477   0.247
 9339SOL     OW28915   7.015   3.969   5.793
 9339SOL    HW128916   6.963   3.887   5.820
 9339SOL    HW228917   6.969   4.050   5.829
 9340SOL     OW28918   3.256   4.850   1.206
 9340SOL    HW128919   3.336   4.794   1.181
 9340SOL    HW228920   3.236   4.838   1.303
 9341SOL     OW28921   5.102   4.958   6.519
 9341SOL    HW128922   5.021   4.951   6.461
 9341SOL    HW228923   5.183   4.931   6.466
 9342SOL     OW28924   3.185   0.147   4.398
 9342SOL    HW128925   3.279   0.164   4.369
 9342SOL    HW228926   3.180   0.062   4.449
 9343SOL     OW28927   4.502   3.841   1.051
 9343SOL    HW128928   4.597   3.837   1.083
 9343SOL    HW228929   4.459   3.751   1.063
 9344SOL     OW28930   5.901   0.222   5.501
 9344SOL    HW128931   5.931   0.188   5.412
 9344SOL    HW228932   5.925   0.319   5.509
 9345SOL     OW28933   0.143   4.993   0.548
 9345SOL    HW128934   0.236   4.980   0.514
 9345SOL    HW228935   0.109   5.083   0.520
 9346SOL     OW28936   5.833   6.239   1.369
 9346SOL    HW128937   5.838   6.162   1.306
 9346SOL    HW228938   5.892   6.222   1.448
 9347SOL     OW28939   3.717   5.573   0.822
 9347SOL    HW128940   3.695   5.520   0.903
 9347SOL    HW228941   3.672   5.663   0.828
 9348SOL     OW28942   2.616   5.612   2.272
 9348SOL    HW128943   2.646   5.537   2.213
 9348SOL    HW228944   2.516   5.617   2.271
 9349SOL     OW28945   0.068   6.277   2.014
 9349SOL    HW128946   7.000   6.316   2.022
 9349SOL    HW228947   0.135   6.350   2.003
 9350SOL     OW28948   6.815   0.628   6.598
 9350SOL    HW128949   6.859   0.550   6.641
 9350SOL    HW228950   6.716   0.623   6.612
 9351SOL     OW28951   4.011   2.992   5.675
 9351SOL    HW128952   4.099   3.027   5.643
 9351SOL    HW228953   4.026   2.932   5.754
 9352SOL     OW28954   3.563   3.016   6.396
 9352SOL    HW128955   3.548   3.107   6.434
 9352SOL    HW228956   3.645   2.977   6.437
 9353SOL     OW28957   0.381   3.798   0.769
 9353SOL    HW128958   0.408   3.784   0.864
 9353SOL    HW228959   0.362   3.710   0.726
 9354SOL     OW28960   4.609   1.608   1.867
 9354SOL    HW128961   4.658   1.630   1.952
 9354SOL    HW228962   4.674   1.609   1.791
 9355SOL     OW28963   6.448   0.995   3.130
 9355SOL    HW128964   6.378   1.044   3.080
 9355SOL    HW228965   6.462   1.038   3.219
 9356SOL     OW28966   4.109   4.789   2.707
 9356SOL    HW128967   4.205   4.760   2.704
 9356SOL    HW228968   4.073   4.793   2.614
 9357SOL     OW28969   3.482   3.013   0.586
 9357SOL    HW128970   3.427   2.960   0.522
 9357SOL    HW228971   3.450   3.108   0.588
 9358SOL     OW28972   5.432   4.343   2.106
 9358SOL    HW128973   5.437   4.430   2.156
 9358SOL    HW228974   5.523   4.318   2.075
 9359SOL     OW28975   5.500   4.366   6.149
 9359SOL    HW128976   5.433   4.329   6.214
 9359SOL    HW228977   5.504   4.308   6.068
 9360SOL     OW28978   1.784   0.330   5.473
 9360SOL    HW128979   1.835   0.354   5.390
 9360SOL    HW228980   1.693   0.370   5.469
 9361SOL     OW28981   2.616   0.355   2.500
 9361SOL    HW128982   2.558   0.389   2.573
 9361SOL    HW228983   2.633   0.428   2.434
 9362SOL     OW28984   1.920   1.648   2.902
 9362SOL    HW128985   1.899   1.591   2.982
 9362SOL    HW228986   2.018   1.641   2.883
 9363SOL     OW28987   2.326   6.403   1.725
 9363SOL    HW128988   2.243   6.382   1.776
 9363SOL    HW228989   2.399   6.340   1.752
 9364SOL     OW28990   5.587   5.122   0.485
 9364SOL    HW128991   5.607   5.043   0.543
 9364SOL    HW228992   5.642   5.115   0.401
 9365SOL     OW28993   1.997   1.159   5.312
 9365SOL    HW128994   1.916   1.207   5.345
 9365SOL    HW228995   2.079   1.197   5.355
 9366SOL     OW28996   3.097   2.177   0.920
 9366SOL    HW128997   3.017   2.145   0.869
 9366SOL    HW228998   3.111   2.119   1.000
 9367SOL     OW28999   0.020   5.998   3.243
 9367SOL    HW129000   7.004   5.964   3.158
 9367SOL    HW229001   0.057   5.922   3.296
 9368SOL     OW29002   3.778   2.889   1.142
 9368SOL    HW129003   3.796   2.937   1.056
 9368SOL    HW229004   3.726   2.805   1.122
 9369SOL     OW29005   0.324   2.324   5.180
 9369SOL    HW129006   0.306   2.290   5.273
 9369SOL    HW229007   0.240   2.363   5.142
 9370SOL     OW29008   6.144   0.796   3.430
 9370SOL    HW129009   6.242   0.796   3.410
 9370SOL    HW229010   6.131   0.802   3.529
 9371SOL     OW29011   0.846   6.584   0.523
 9371SOL    HW129012   0.855   6.501   0.468
 9371SOL    HW229013   0.750   6.607   0.533
 9372SOL     OW29014   6.970   6.258   6.409
 9372SOL    HW129015   6.970   6.220   6.501
 9372SOL    HW229016   6.881   6.301   6.391
 9373SOL     OW29017   4.339   1.591   3.618
 9373SOL    HW129018   4.266   1.650   3.653
 9373SOL    HW229019   4.424   1.611   3.666
 9374SOL     OW29020   5.317   3.829   0.684
 9374SOL    HW129021   5.352   3.876   0.765
 9374SOL    HW229022   5.344   3.733   0.686
 9375SOL     OW29023   0.821   1.255   4.123
 9375SOL    HW129024   0.892   1.201   4.078
 9375SOL    HW229025   0.861   1.339   4.160
 9376SOL     OW29026   2.078   3.019   2.032
 9376SOL    HW129027   1.996   2.975   1.996
 9376SOL    HW229028   2.152   3.014   1.965
 9377SOL     OW29029   5.944   5.616   3.869
 9377SOL    HW129030   5.888   5.540   3.901
 9377SOL    HW229031   6.036   5.583   3.848
 9378SOL     OW29032   2.929   6.314   0.791
 9378SOL    HW129033   3.010   6.255   0.792
 9378SOL    HW229034   2.857   6.271   0.736
 9379SOL     OW29035   5.388   4.515   4.770
 9379SOL    HW129036   5.462   4.460   4.733
 9379SOL    HW229037   5.353   4.577   4.699
 9380SOL     OW29038   5.835   6.394   6.406
 9380SOL    HW129039   5.866   6.299   6.417
 9380SOL    HW229040   5.881   6.435   6.327
 9381SOL     OW29041   2.718   1.091   6.740
 9381SOL    HW129042   2.730   1.190   6.729
 9381SOL    HW229043   2.704   1.070   6.837
 9382SOL     OW29044   4.650   2.251   2.435
 9382SOL    HW129045   4.566   2.288   2.397
 9382SOL    HW229046   4.687   2.182   2.373
 9383SOL     OW29047   4.794   5.796   5.360
 9383SOL    HW129048   4.831   5.712   5.398
 9383SOL    HW229049   4.853   5.873   5.386
 9384SOL     OW29050   5.240   5.789   1.281
 9384SOL    HW129051   5.278   5.858   1.342
 9384SOL    HW229052   5.313   5.725   1.254
 9385SOL     OW29053   3.753   1.216   3.198
 9385SOL    HW129054   3.747   1.272   3.280
 9385SOL    HW229055   3.672   1.157   3.191
 9386SOL     OW29056   3.434   6.931   4.231
 9386SOL    HW129057   3.441   6.931   4.330
 9386SOL    HW229058   3.506   6.873   4.193
 9387SOL     OW29059   4.085   0.082   6.955
 9387SOL    HW129060   4.139   0.075   6.871
 9387SOL    HW229061   3.988   0.074   6.933
 9388SOL     OW29062   0.141   0.528   2.871
 9388SOL    HW129063   0.057   0.582   2.873
 9388SOL    HW229064   0.218   0.587   2.897
 9389SOL     OW29065   2.875   0.786   6.529
 9389SOL    HW129066   2.930   0.714   6.572
 9389SOL    HW229067   2.785   0.789   6.572
 9390SOL     OW29068   3.317   5.847   2.478
 9390SOL    HW129069   3.375   5.896   2.543
 9390SOL    HW229070   3.373   5.815   2.401
 9391SOL     OW29071   0.371   1.179   5.379
 9391SOL    HW129072   0.386   1.278   5.373
 9391SOL    HW229073   0.284   1.155   5.336
 9392SOL     OW29074   1.214   6.514   4.789
 9392SOL    HW129075   1.126   6.471   4.769
 9392SOL    HW229076   1.276   6.447   4.830
 9393SOL     OW29077   3.761   2.219   5.214
 9393SOL    HW129078   3.805   2.215   5.125
 9393SOL    HW229079   3.677   2.164   5.213
 9394SOL     OW29080   5.419   2.252   2.563
 9394SOL    HW129081   5.417   2.152   2.562
 9394SOL    HW229082   5.326   2.288   2.573
 9395SOL     OW29083   1.695   3.206   6.997
 9395SOL    HW129084   1.738   3.153   0.046
 9395SOL    HW229085   1.766   3.243   6.937
 9396SOL     OW29086   6.762   0.278   6.529
 9396SOL    HW129087   6.664   0.292   6.547
 9396SOL    HW229088   6.816   0.326   6.597
 9397SOL     OW29089   3.059   0.331   0.937
 9397SOL    HW129090   2.999   0.410   0.943
 9397SOL    HW229091   3.043   0.284   0.850
 9398SOL     OW29092   2.777   1.921   6.337
 9398SOL    HW129093   2.823   1.835   6.358
 9398SOL    HW229094   2.685   1.920   6.376
 9399SOL     OW29095   6.999   1.079   5.429
 9399SOL    HW129096   0.056   1.069   5.488
 9399SOL    HW229097   6.963   0.989   5.406
 9400SOL     OW29098   5.200   2.461   2.834
 9400SOL    HW129099   5.222   2.506   2.920
 9400SOL    HW229100   5.163   2.370   2.852
 9401SOL     OW29101   3.087   0.193   3.030
 9401SOL    HW129102   3.163   0.139   2.994
 9401SOL    HW229103   3.014   0.198   2.962
 9402SOL     OW29104   2.446   4.887   6.268
 9402SOL    HW129105   2.496   4.856   6.348
 9402SOL    HW229106   2.470   4.830   6.189
 9403SOL     OW29107   5.033   0.919   4.012
 9403SOL    HW129108   5.003   0.914   4.107
 9403SOL    HW229109   4.974   0.982   3.961
 9404SOL     OW29110   0.563   4.036   6.066
 9404SOL    HW129111   0.586   4.077   6.155
 9404SOL    HW229112   0.550   4.108   5.999
 9405SOL     OW29113   5.777   6.917   1.148
 9405SOL    HW129114   5.813   6.861   1.073
 9405SOL    HW229115   5.755   6.858   1.226
 9406SOL     OW29116   0.094   1.623   4.995
 9406SOL    HW129117   0.193   1.635   4.983
 9406SOL    HW229118   0.073   1.610   5.091
 9407SOL     OW29119   3.321   6.149   2.816
 9407SOL    HW129120   3.316   6.100   2.903
 9407SOL    HW229121   3.379   6.229   2.826
 9408SOL     OW29122   4.159   1.903   6.261
 9408SOL    HW129123   4.163   1.825   6.199
 9408SOL    HW229124   4.068   1.945   6.257
 9409SOL     OW29125   5.549   4.357   3.146
 9409SOL    HW129126   5.539   4.358   3.245
 9409SOL    HW229127   5.604   4.436   3.118
 9410SOL     OW29128   4.438   6.564   2.684
 9410SOL    HW129129   4.524   6.604   2.653
 9410SOL    HW229130   4.369   6.573   2.613
 9411SOL     OW29131   5.021   5.520   0.854
 9411SOL    HW129132   4.926   5.543   0.836
 9411SOL    HW229133   5.078   5.603   0.844
 9412SOL     OW29134   6.202   2.729   1.413
 9412SOL    HW129135   6.186   2.661   1.484
 9412SOL    HW229136   6.157   2.700   1.328
 9413SOL     OW29137   3.919   5.971   5.621
 9413SOL    HW129138   3.843   5.969   5.685
 9413SOL    HW229139   3.962   6.061   5.623
 9414SOL     OW29140   2.343   1.898   1.845
 9414SOL    HW129141   2.296   1.837   1.909
 9414SOL    HW229142   2.401   1.962   1.896
 9415SOL     OW29143   2.768   0.113   1.977
 9415SOL    HW129144   2.800   0.187   2.037
 9415SOL    HW229145   2.678   0.082   2.008
 9416SOL     OW29146   0.841   2.901   1.788
 9416SOL    HW129147   0.746   2.914   1.817
 9416SOL    HW229148   0.873   2.812   1.820
 9417SOL     OW29149   2.493   5.888   4.935
 9417SOL    HW129150   2.404   5.901   4.893
 9417SOL    HW229151   2.534   5.977   4.956
 9418SOL     OW29152   3.559   4.806   0.585
 9418SOL    HW129153   3.645   4.852   0.605
 9418SOL    HW229154   3.525   4.836   0.496
 9419SOL     OW29155   3.813   6.691   5.669
 9419SOL    HW129156   3.750   6.709   5.745
 9419SOL    HW229157   3.777   6.734   5.586
 9420SOL     OW29158   0.486   1.229   4.251
 9420SOL    HW129159   0.422   1.170   4.201
 9420SOL    HW229160   0.575   1.183   4.258
 9421SOL     OW29161   1.727   4.189   5.540
 9421SOL    HW129162   1.755   4.267   5.484
 9421SOL    HW229163   1.743   4.210   5.637
 9422SOL     OW29164   3.931   1.153   2.228
 9422SOL    HW129165   3.994   1.187   2.298
 9422SOL    HW229166   3.874   1.081   2.268
 9423SOL     OW29167   4.684   1.079   4.965
 9423SOL    HW129168   4.599   1.103   5.012
 9423SOL    HW229169   4.662   1.030   4.880
 9424SOL     OW29170   3.051   6.341   4.646
 9424SOL    HW129171   3.055   6.397   4.563
 9424SOL    HW229172   3.012   6.251   4.624
 9425SOL     OW29173   1.348   3.090   4.689
 9425SOL    HW129174   1.383   3.174   4.649
 9425SOL    HW229175   1.367   3.089   4.787
 9426SOL     OW29176   3.528   7.020   0.129
 9426SOL    HW129177   3.462   0.009   0.055
 9426SOL    HW229178   3.603   6.962   0.097
 9427SOL     OW29179   2.904   5.159   4.145
 9427SOL    HW129180   2.865   5.164   4.237
 9427SOL    HW229181   2.947   5.246   4.123
 9428SOL     OW29182   5.168   6.346   2.931
 9428SOL    HW129183   5.129   6.404   2.860
 9428SOL    HW229184   5.208   6.265   2.890
 9429SOL     OW29185   0.336   3.795   2.389
 9429SOL    HW129186   0.361   3.892   2.399
 9429SOL    HW229187   0.381   3.742   2.461
 9430SOL     OW29188   5.859   6.736   1.639
 9430SOL    HW129189   5.958   6.734   1.656
 9430SOL    HW229190   5.811   6.695   1.716
 9431SOL     OW29191   6.620   4.611   2.008
 9431SOL    HW129192   6.544   4.642   1.951
 9431SOL    HW229193   6.702   4.663   1.986
 9432SOL     OW29194   6.369   6.773   4.180
 9432SOL    HW129195   6.435   6.845   4.163
 9432SOL    HW229196   6.312   6.798   4.259
 9433SOL     OW29197   3.165   5.005   4.775
 9433SOL    HW129198   3.168   5.102   4.797
 9433SOL    HW229199   3.128   4.954   4.852
 9434SOL     OW29200   4.934   5.051   2.642
 9434SOL    HW129201   5.013   4.991   2.650
 9434SOL    HW229202   4.889   5.036   2.554
 9435SOL     OW29203   1.441   0.809   4.337
 9435SOL    HW129204   1.505   0.761   4.398
 9435SOL    HW229205   1.487   0.886   4.294
 9436SOL     OW29206   2.430   2.632   6.351
 9436SOL    HW129207   2.339   2.593   6.365
 9436SOL    HW229208   2.472   2.650   6.440
 9437SOL     OW29209   1.217   5.226   4.141
 9437SOL    HW129210   1.178   5.199   4.229
 9437SOL    HW229211   1.143   5.247   4.076
 9438SOL     OW29212   1.070   6.152   2.564
 9438SOL    HW129213   1.135   6.117   2.497
 9438SOL    HW229214   1.100   6.125   2.656
 9439SOL     OW29215   0.438   2.741   1.727
 9439SOL    HW129216   0.500   2.697   1.662
 9439SOL    HW229217   0.492   2.778   1.803
 9440SOL     OW29218   5.081   6.453   5.529
 9440SOL    HW129219   5.136   6.534   5.548
 9440SOL    HW229220   4.992   6.461   5.573
 9441SOL     OW29221   1.648   4.495   5.248
 9441SOL    HW129222   1.603   4.565   5.304
 9441SOL    HW229223   1.724   4.455   5.300
 9442SOL     OW29224   0.244   3.769   1.931
 9442SOL    HW129225   0.207   3.847   1.982
 9442SOL    HW229226   0.260   3.796   1.836
 9443SOL     OW29227   1.985   3.871   1.955
 9443SOL    HW129228   1.994   3.907   2.048
 9443SOL    HW229229   2.016   3.941   1.890
 9444SOL     OW29230   0.168   3.661   6.939
 9444SOL    HW129231   0.147   3.728   6.867
 9444SOL    HW229232   0.151   3.569   6.904
 9445SOL     OW29233   6.052   3.367   1.593
 9445SOL    HW129234   5.986   3.396   1.663
 9445SOL    HW229235   6.107   3.445   1.565
 9446SOL     OW29236   6.347   5.991   1.456
 9446SOL    HW129237   6.409   5.957   1.385
 9446SOL    HW229238   6.343   5.925   1.531
 9447SOL     OW29239   5.777   2.941   2.202
 9447SOL    HW129240   5.841   2.920   2.276
 9447SOL    HW229241   5.809   3.021   2.151
 9448SOL     OW29242   6.262   6.707   0.503
 9448SOL    HW129243   6.179   6.761   0.489
 9448SOL    HW229244   6.239   6.609   0.503
 9449SOL     OW29245   6.718   5.446   5.237
 9449SOL    HW129246   6.651   5.398   5.294
 9449SOL    HW229247   6.747   5.529   5.283
 9450SOL     OW29248   3.252   4.883   4.190
 9450SOL    HW129249   3.168   4.896   4.138
 9450SOL    HW229250   3.231   4.867   4.286
 9451SOL     OW29251   4.561   4.792   6.151
 9451SOL    HW129252   4.644   4.758   6.107
 9451SOL    HW229253   4.501   4.716   6.174
 9452SOL     OW29254   2.278   4.240   1.455
 9452SOL    HW129255   2.317   4.331   1.464
 9452SOL    HW229256   2.349   4.175   1.429
 9453SOL     OW29257   3.412   5.178   2.407
 9453SOL    HW129258   3.393   5.174   2.309
 9453SOL    HW229259   3.353   5.246   2.450
 9454SOL     OW29260   2.061   2.901   5.317
 9454SOL    HW129261   2.000   2.935   5.387
 9454SOL    HW229262   2.137   2.965   5.305
 9455SOL     OW29263   3.501   1.806   2.108
 9455SOL    HW129264   3.462   1.885   2.155
 9455SOL    HW229265   3.594   1.827   2.079
 9456SOL     OW29266   1.091   3.040   1.332
 9456SOL    HW129267   1.010   2.981   1.337
 9456SOL    HW229268   1.107   3.082   1.422
 9457SOL     OW29269   0.656   3.394   0.696
 9457SOL    HW129270   0.604   3.436   0.770
 9457SOL    HW229271   0.611   3.310   0.666
 9458SOL     OW29272   6.841   5.753   4.930
 9458SOL    HW129273   6.756   5.717   4.967
 9458SOL    HW229274   6.916   5.735   4.994
 9459SOL     OW29275   5.770   5.687   2.113
 9459SOL    HW129276   5.684   5.680   2.062
 9459SOL    HW229277   5.837   5.624   2.075
 9460SOL     OW29278   1.179   2.414   5.395
 9460SOL    HW129279   1.213   2.502   5.362
 9460SOL    HW229280   1.203   2.343   5.329
 9461SOL     OW29281   1.148   1.008   3.824
 9461SOL    HW129282   1.106   0.918   3.814
 9461SOL    HW229283   1.213   1.023   3.750
 9462SOL     OW29284   0.858   3.329   2.230
 9462SOL    HW129285   0.937   3.286   2.187
 9462SOL    HW229286   0.885   3.367   2.318
 9463SOL     OW29287   5.308   1.567   0.258
 9463SOL    HW129288   5.211   1.549   0.246
 9463SOL    HW229289   5.357   1.550   0.173
 9464SOL     OW29290   5.785   0.421   6.110
 9464SOL    HW129291   5.759   0.473   6.029
 9464SOL    HW229292   5.783   0.481   6.190
 9465SOL     OW29293   6.153   0.889   4.196
 9465SOL    HW129294   6.238   0.836   4.194
 9465SOL    HW229295   6.170   0.980   4.159
 9466SOL     OW29296   3.012   2.506   6.200
 9466SOL    HW129297   3.055   2.594   6.221
 9466SOL    HW229298   3.080   2.433   6.208
 9467SOL     OW29299   1.972   3.398   1.906
 9467SOL    HW129300   2.057   3.415   1.956
 9467SOL    HW229301   1.901   3.369   1.970
 9468SOL     OW29302   6.781   2.997   5.975
 9468SOL    HW129303   6.713   3.066   6.000
 9468SOL    HW229304   6.827   3.024   5.891
 9469SOL     OW29305   6.347   4.965   2.154
 9469SOL    HW129306   6.342   4.905   2.075
 9469SOL    HW229307   6.369   4.912   2.236
 9470SOL     OW29308   5.295   3.423   0.984
 9470SOL    HW129309   5.381   3.473   0.977
 9470SOL    HW229310   5.313   3.331   1.018
 9471SOL     OW29311   0.137   1.988   5.693
 9471SOL    HW129312   0.191   2.021   5.771
 9471SOL    HW229313   0.051   2.039   5.688
 9472SOL     OW29314   6.211   4.243   3.692
 9472SOL    HW129315   6.287   4.219   3.753
 9472SOL    HW229316   6.132   4.272   3.746
 9473SOL     OW29317   2.956   5.151   5.324
 9473SOL    HW129318   2.921   5.079   5.384
 9473SOL    HW229319   3.054   5.137   5.310
 9474SOL     OW29320   4.545   5.318   2.663
 9474SOL    HW129321   4.455   5.311   2.620
 9474SOL    HW229322   4.539   5.289   2.759
 9475SOL     OW29323   2.358   3.526   1.485
 9475SOL    HW129324   2.398   3.613   1.512
 9475SOL    HW229325   2.263   3.522   1.514
 9476SOL     OW29326   3.612   3.753   5.544
 9476SOL    HW129327   3.547   3.693   5.497
 9476SOL    HW229328   3.658   3.702   5.616
 9477SOL     OW29329   1.307   2.616   1.469
 9477SOL    HW129330   1.229   2.669   1.503
 9477SOL    HW229331   1.338   2.554   1.541
 9478SOL     OW29332   5.616   4.726   5.331
 9478SOL    HW129333   5.710   4.744   5.303
 9478SOL    HW229334   5.600   4.627   5.334
 9479SOL     OW29335   6.210   5.873   6.060
 9479SOL    HW129336   6.266   5.804   6.013
 9479SOL    HW229337   6.251   5.964   6.046
 9480SOL     OW29338   5.568   4.890   6.899
 9480SOL    HW129339   5.487   4.920   6.950
 9480SOL    HW229340   5.621   4.971   6.870
 9481SOL     OW29341   0.399   3.681   2.139
 9481SOL    HW129342   0.382   3.714   2.232
 9481SOL    HW229343   0.331   3.718   2.077
 9482SOL     OW29344   4.215   0.542   2.121
 9482SOL    HW129345   4.257   0.495   2.199
 9482SOL    HW229346   4.122   0.571   2.146
 9483SOL     OW29347   1.634   1.895   7.021
 9483SOL    HW129348   1.717   1.950   7.010
 9483SOL    HW229349   1.592   1.878   6.932
 9484SOL     OW29350   6.727   1.695   3.701
 9484SOL    HW129351   6.805   1.745   3.662
 9484SOL    HW229352   6.745   1.674   3.797
 9485SOL     OW29353   1.112   0.554   2.548
 9485SOL    HW129354   1.113   0.609   2.464
 9485SOL    HW229355   1.174   0.476   2.537
 9486SOL     OW29356   3.028   5.983   1.941
 9486SOL    HW129357   3.121   6.012   1.921
 9486SOL    HW229358   3.024   5.946   2.034
 9487SOL     OW29359   2.920   3.291   4.110
 9487SOL    HW129360   2.975   3.236   4.173
 9487SOL    HW229361   2.826   3.298   4.144
 9488SOL     OW29362   1.674   6.721   1.177
 9488SOL    HW129363   1.763   6.738   1.134
 9488SOL    HW229364   1.609   6.690   1.108
 9489SOL     OW29365   3.821   4.903   0.625
 9489SOL    HW129366   3.887   4.828   0.629
 9489SOL    HW229367   3.860   4.979   0.573
 9490SOL     OW29368   4.723   1.374   1.535
 9490SOL    HW129369   4.751   1.281   1.559
 9490SOL    HW229370   4.776   1.405   1.456
 9491SOL     OW29371   5.669   4.786   6.554
 9491SOL    HW129372   5.630   4.711   6.607
 9491SOL    HW229373   5.637   4.779   6.459
 9492SOL     OW29374   2.996   3.947   1.781
 9492SOL    HW129375   3.080   3.919   1.736
 9492SOL    HW229376   3.018   4.008   1.857
 9493SOL     OW29377   4.680   6.575   3.139
 9493SOL    HW129378   4.697   6.669   3.167
 9493SOL    HW229379   4.646   6.523   3.218
 9494SOL     OW29380   4.077   3.382   5.439
 9494SOL    HW129381   4.106   3.312   5.504
 9494SOL    HW229382   4.002   3.435   5.478
 9495SOL     OW29383   6.196   2.361   5.331
 9495SOL    HW129384   6.244   2.286   5.377
 9495SOL    HW229385   6.121   2.325   5.276
 9496SOL     OW29386   5.902   4.291   0.127
 9496SOL    HW129387   5.933   4.253   0.040
 9496SOL    HW229388   5.960   4.256   0.201
 9497SOL     OW29389   5.816   5.758   6.287
 9497SOL    HW129390   5.803   5.664   6.317
 9497SOL    HW229391   5.728   5.805   6.286
 9498SOL     OW29392   3.808   0.920   6.347
 9498SOL    HW129393   3.712   0.912   6.322
 9498SOL    HW229394   3.865   0.913   6.264
 9499SOL     OW29395   3.796   4.508   5.328
 9499SOL    HW129396   3.891   4.540   5.329
 9499SOL    HW229397   3.786   4.435   5.260
 9500SOL     OW29398   5.043   6.037   1.612
 9500SOL    HW129399   5.076   6.085   1.693
 9500SOL    HW229400   5.069   6.087   1.530
 9501SOL     OW29401   3.053   1.578   5.049
 9501SOL    HW129402   3.112   1.497   5.047
 9501SOL    HW229403   2.995   1.580   4.968
 9502SOL     OW29404   6.099   2.746   5.669
 9502SOL    HW129405   6.153   2.813   5.617
 9502SOL    HW229406   6.014   2.789   5.699
 9503SOL     OW29407   1.431   6.672   1.349
 9503SOL    HW129408   1.491   6.749   1.328
 9503SOL    HW229409   1.352   6.704   1.401
 9504SOL     OW29410   0.573   2.894   6.525
 9504SOL    HW129411   0.648   2.840   6.487
 9504SOL    HW229412   0.610   2.967   6.582
 9505SOL     OW29413   5.801   2.843   3.018
 9505SOL    HW129414   5.820   2.806   2.927
 9505SOL    HW229415   5.739   2.781   3.067
 9506SOL     OW29416   6.526   4.021   0.566
 9506SOL    HW129417   6.500   3.926   0.546
 9506SOL    HW229418   6.625   4.030   0.562
 9507SOL     OW29419   0.882   1.861   3.502
 9507SOL    HW129420   0.913   1.775   3.542
 9507SOL    HW229421   0.912   1.866   3.406
 9508SOL     OW29422   6.184   2.200   0.652
 9508SOL    HW129423   6.175   2.136   0.729
 9508SOL    HW229424   6.109   2.185   0.588
 9509SOL     OW29425   2.524   6.116   5.750
 9509SOL    HW129426   2.433   6.142   5.783
 9509SOL    HW229427   2.567   6.055   5.816
 9510SOL     OW29428   6.573   4.807   3.428
 9510SOL    HW129429   6.480   4.841   3.423
 9510SOL    HW229430   6.633   4.879   3.464
 9511SOL     OW29431   0.664   1.608   0.752
 9511SOL    HW129432   0.637   1.672   0.680
 9511SOL    HW229433   0.751   1.636   0.791
 9512SOL     OW29434   0.972   2.357   3.953
 9512SOL    HW129435   1.039   2.422   3.918
 9512SOL    HW229436   0.995   2.265   3.922
 9513SOL     OW29437   2.350   4.346   3.932
 9513SOL    HW129438   2.445   4.313   3.934
 9513SOL    HW229439   2.289   4.274   3.963
 9514SOL     OW29440   2.260   2.700   6.815
 9514SOL    HW129441   2.176   2.723   6.865
 9514SOL    HW229442   2.294   2.611   6.846
 9515SOL     OW29443   2.079   5.472   6.617
 9515SOL    HW129444   2.013   5.547   6.616
 9515SOL    HW229445   2.077   5.424   6.530
 9516SOL     OW29446   4.897   3.585   4.079
 9516SOL    HW129447   4.919   3.503   4.132
 9516SOL    HW229448   4.960   3.593   4.002
 9517SOL     OW29449   0.635   5.475   2.391
 9517SOL    HW129450   0.723   5.517   2.369
 9517SOL    HW229451   0.633   5.450   2.488
 9518SOL     OW29452   1.068   2.363   6.256
 9518SOL    HW129453   1.081   2.446   6.203
 9518SOL    HW229454   1.137   2.295   6.228
 9519SOL     OW29455   3.535   3.582   3.249
 9519SOL    HW129456   3.492   3.657   3.199
 9519SOL    HW229457   3.522   3.497   3.198
 9520SOL     OW29458   6.531   0.153   5.578
 9520SOL    HW129459   6.488   0.062   5.584
 9520SOL    HW229460   6.460   0.223   5.584
 9521SOL     OW29461   3.671   0.377   1.350
 9521SOL    HW129462   3.693   0.292   1.303
 9521SOL    HW229463   3.645   0.447   1.283
 9522SOL     OW29464   3.776   6.311   2.353
 9522SOL    HW129465   3.694   6.368   2.360
 9522SOL    HW229466   3.758   6.235   2.291
 9523SOL     OW29467   2.670   5.264   3.965
 9523SOL    HW129468   2.727   5.186   3.991
 9523SOL    HW229469   2.693   5.292   3.872
 9524SOL     OW29470   1.810   4.384   1.355
 9524SOL    HW129471   1.853   4.466   1.394
 9524SOL    HW229472   1.711   4.394   1.358
 9525SOL     OW29473   1.994   3.108   5.807
 9525SOL    HW129474   2.067   3.156   5.857
 9525SOL    HW229475   1.933   3.176   5.766
 9526SOL     OW29476   5.318   4.414   6.877
 9526SOL    HW129477   5.323   4.409   6.976
 9526SOL    HW229478   5.277   4.501   6.850
 9527SOL     OW29479   4.073   6.832   3.250
 9527SOL    HW129480   4.133   6.818   3.329
 9527SOL    HW229481   4.037   6.925   3.252
 9528SOL     OW29482   5.606   1.786   1.196
 9528SOL    HW129483   5.630   1.703   1.145
 9528SOL    HW229484   5.642   1.779   1.289
 9529SOL     OW29485   6.525   1.512   1.560
 9529SOL    HW129486   6.558   1.557   1.643
 9529SOL    HW229487   6.477   1.578   1.503
 9530SOL     OW29488   0.792   5.430   3.929
 9530SOL    HW129489   0.778   5.481   4.014
 9530SOL    HW229490   0.706   5.387   3.902
 9531SOL     OW29491   3.693   5.242   2.471
 9531SOL    HW129492   3.687   5.341   2.461
 9531SOL    HW229493   3.610   5.200   2.435
 9532SOL     OW29494   6.159   5.240   2.349
 9532SOL    HW129495   6.210   5.252   2.264
 9532SOL    HW229496   6.116   5.326   2.375
 9533SOL     OW29497   2.051   4.571   3.134
 9533SOL    HW129498   2.035   4.641   3.203
 9533SOL    HW229499   2.121   4.602   3.071
 9534SOL     OW29500   5.610   4.426   4.598
 9534SOL    HW129501   5.614   4.342   4.652
 9534SOL    HW229502   5.702   4.455   4.574
 9535SOL     OW29503   1.028   1.065   5.946
 9535SOL    HW129504   1.050   1.138   6.010
 9535SOL    HW229505   0.944   1.088   5.897
 9536SOL     OW29506   4.015   3.766   5.074
 9536SOL    HW129507   4.036   3.848   5.127
 9536SOL    HW229508   4.034   3.783   4.977
 9537SOL     OW29509   1.508   1.584   3.376
 9537SOL    HW129510   1.415   1.548   3.381
 9537SOL    HW229511   1.504   1.683   3.360
 9538SOL     OW29512   3.755   1.088   4.731
 9538SOL    HW129513   3.758   1.180   4.771
 9538SOL    HW229514   3.721   1.023   4.799
 9539SOL     OW29515   4.002   3.084   2.667
 9539SOL    HW129516   4.089   3.080   2.618
 9539SOL    HW229517   3.928   3.101   2.602
 9540SOL     OW29518   4.694   4.750   3.961
 9540SOL    HW129519   4.744   4.685   4.018
 9540SOL    HW229520   4.744   4.766   3.876
 9541SOL     OW29521   1.763   5.830   5.507
 9541SOL    HW129522   1.848   5.874   5.536
 9541SOL    HW229523   1.761   5.735   5.539
 9542SOL     OW29524   6.163   4.217   4.048
 9542SOL    HW129525   6.217   4.159   4.109
 9542SOL    HW229526   6.199   4.310   4.051
 9543SOL     OW29527   2.291   0.512   6.047
 9543SOL    HW129528   2.250   0.477   6.131
 9543SOL    HW229529   2.254   0.603   6.028
 9544SOL     OW29530   5.221   3.564   4.080
 9544SOL    HW129531   5.223   3.554   4.180
 9544SOL    HW229532   5.295   3.510   4.040
 9545SOL     OW29533   1.703   4.807   2.016
 9545SOL    HW129534   1.707   4.858   1.930
 9545SOL    HW229535   1.743   4.716   2.003
 9546SOL     OW29536   2.921   2.273   6.467
 9546SOL    HW129537   2.931   2.233   6.376
 9546SOL    HW229538   2.967   2.362   6.469
 9547SOL     OW29539   3.737   6.409   3.883
 9547SOL    HW129540   3.672   6.451   3.819
 9547SOL    HW229541   3.814   6.472   3.897
 9548SOL     OW29542   1.046   4.567   0.008
 9548SOL    HW129543   1.104   4.628   0.061
 9548SOL    HW229544   1.017   4.490   0.066
 9549SOL     OW29545   4.122   2.705   1.197
 9549SOL    HW129546   4.032   2.748   1.198
 9549SOL    HW229547   4.117   2.616   1.243
 9550SOL     OW29548   5.267   2.840   1.540
 9550SOL    HW129549   5.276   2.892   1.625
 9550SOL    HW229550   5.183   2.786   1.543
 9551SOL     OW29551   6.870   2.335   6.660
 9551SOL    HW129552   6.836   2.426   6.635
 9551SOL    HW229553   6.844   2.269   6.591
 9552SOL     OW29554   3.189   1.895   6.852
 9552SOL    HW129555   3.286   1.877   6.866
 9552SOL    HW229556   3.161   1.858   6.763
 9553SOL     OW29557   5.348   1.724   6.863
 9553SOL    HW129558   5.345   1.823   6.872
 9553SOL    HW229559   5.396   1.684   6.941
 9554SOL     OW29560   2.275   6.728   4.124
 9554SOL    HW129561   2.343   6.799   4.106
 9554SOL    HW229562   2.286   6.694   4.218
 9555SOL     OW29563   6.901   0.392   3.895
 9555SOL    HW129564   6.944   0.409   3.983
 9555SOL    HW229565   6.815   0.443   3.889
 9556SOL     OW29566   2.155   4.627   0.309
 9556SOL    HW129567   2.145   4.556   0.239
 9556SOL    HW229568   2.235   4.607   0.366
 9557SOL     OW29569   5.000   0.379   1.718
 9557SOL    HW129570   4.973   0.312   1.649
 9557SOL    HW229571   4.945   0.366   1.800
 9558SOL     OW29572   5.213   6.374   6.271
 9558SOL    HW129573   5.158   6.319   6.334
 9558SOL    HW229574   5.175   6.466   6.265
 9559SOL     OW29575   1.690   4.288   0.127
 9559SOL    HW129576   1.632   4.369   0.125
 9559SOL    HW229577   1.771   4.307   0.183
 9560SOL     OW29578   3.300   6.640   2.269
 9560SOL    HW129579   3.238   6.666   2.194
 9560SOL    HW229580   3.285   6.544   2.293
 9561SOL     OW29581   1.026   1.216   0.836
 9561SOL    HW129582   1.004   1.282   0.764
 9561SOL    HW229583   1.052   1.129   0.794
 9562SOL     OW29584   3.295   5.638   3.879
 9562SOL    HW129585   3.305   5.601   3.787
 9562SOL    HW229586   3.323   5.569   3.946
 9563SOL     OW29587   0.843   6.062   1.265
 9563SOL    HW129588   0.913   6.000   1.228
 9563SOL    HW229589   0.762   6.010   1.289
 9564SOL     OW29590   1.295   6.776   0.573
 9564SOL    HW129591   1.221   6.744   0.633
 9564SOL    HW229592   1.255   6.818   0.491
 9565SOL     OW29593   3.499   1.571   4.202
 9565SOL    HW129594   3.548   1.658   4.197
 9565SOL    HW229595   3.490   1.532   4.110
 9566SOL     OW29596   2.192   0.003   0.707
 9566SOL    HW129597   2.285   0.012   0.670
 9566SOL    HW229598   2.188   0.047   0.797
 9567SOL     OW29599   6.935   4.671   1.268
 9567SOL    HW129600   7.018   4.645   1.219
 9567SOL    HW229601   6.959   4.705   1.359
 9568SOL     OW29602   4.081   1.588   6.633
 9568SOL    HW129603   4.121   1.600   6.724
 9568SOL    HW229604   4.112   1.662   6.573
 9569SOL     OW29605   5.493   0.690   2.189
 9569SOL    HW129606   5.506   0.756   2.116
 9569SOL    HW229607   5.528   0.601   2.160
 9570SOL     OW29608   6.938   3.248   1.209
 9570SOL    HW129609   7.014   3.206   1.258
 9570SOL    HW229610   6.880   3.177   1.170
 9571SOL     OW29611   3.162   2.279   6.912
 9571SOL    HW129612   3.067   2.248   6.911
 9571SOL    HW229613   3.189   2.308   6.820
 9572SOL     OW29614   2.108   3.907   3.498
 9572SOL    HW129615   2.084   3.810   3.493
 9572SOL    HW229616   2.127   3.932   3.593
 9573SOL     OW29617   6.524   0.951   4.641
 9573SOL    HW129618   6.441   0.936   4.693
 9573SOL    HW229619   6.534   1.048   4.620
 9574SOL     OW29620   3.748   3.074   1.518
 9574SOL    HW129621   3.725   3.011   1.591
 9574SOL    HW229622   3.666   3.121   1.486
 9575SOL     OW29623   6.171   6.431   1.592
 9575SOL    HW129624   6.094   6.425   1.656
 9575SOL    HW229625   6.225   6.512   1.613
 9576SOL     OW29626   0.857   0.076   0.175
 9576SOL    HW129627   0.794   0.009   0.212
 9576SOL    HW229628   0.813   0.125   0.100
 9577SOL     OW29629   6.373   5.174   1.949
 9577SOL    HW129630   6.288   5.185   1.897
 9577SOL    HW229631   6.352   5.138   2.040
 9578SOL     OW29632   1.461   2.563   2.792
 9578SOL    HW129633   1.481   2.519   2.880
 9578SOL    HW229634   1.466   2.494   2.719
 9579SOL     OW29635   5.823   6.372   2.335
 9579SOL    HW129636   5.731   6.361   2.297
 9579SOL    HW229637   5.886   6.310   2.290
 9580SOL     OW29638   4.668   4.824   1.925
 9580SOL    HW129639   4.662   4.922   1.907
 9580SOL    HW229640   4.751   4.805   1.977
 9581SOL     OW29641   5.932   1.224   0.144
 9581SOL    HW129642   6.011   1.273   0.109
 9581SOL    HW229643   5.961   1.156   0.211
 9582SOL     OW29644   4.486   5.788   4.298
 9582SOL    HW129645   4.553   5.861   4.309
 9582SOL    HW229646   4.509   5.712   4.359
 9583SOL     OW29647   3.407   4.484   1.662
 9583SOL    HW129648   3.473   4.532   1.720
 9583SOL    HW229649   3.455   4.414   1.609
 9584SOL     OW29650   2.203   4.270   4.242
 9584SOL    HW129651   2.247   4.338   4.301
 9584SOL    HW229652   2.206   4.302   4.147
 9585SOL     OW29653   4.891   5.571   1.379
 9585SOL    HW129654   4.970   5.591   1.437
 9585SOL    HW229655   4.915   5.587   1.283
 9586SOL     OW29656   4.500   5.277   1.815
 9586SOL    HW129657   4.541   5.225   1.741
 9586SOL    HW229658   4.400   5.267   1.812
 9587SOL     OW29659   2.956   6.398   1.615
 9587SOL    HW129660   2.976   6.304   1.588
 9587SOL    HW229661   2.955   6.457   1.534
 9588SOL     OW29662   6.436   5.569   0.764
 9588SOL    HW129663   6.341   5.598   0.750
 9588SOL    HW229664   6.491   5.593   0.684
 9589SOL     OW29665   1.714   3.989   6.466
 9589SOL    HW129666   1.805   3.950   6.468
 9589SOL    HW229667   1.647   3.919   6.442
 9590SOL     OW29668   4.803   1.335   2.012
 9590SOL    HW129669   4.710   1.309   1.987
 9590SOL    HW229670   4.808   1.434   2.023
 9591SOL     OW29671   3.162   0.330   6.449
 9591SOL    HW129672   3.133   0.245   6.491
 9591SOL    HW229673   3.144   0.327   6.351
 9592SOL     OW29674   2.667   4.474   6.596
 9592SOL    HW129675   2.703   4.381   6.580
 9592SOL    HW229676   2.608   4.500   6.519
 9593SOL     OW29677   1.370   1.988   5.003
 9593SOL    HW129678   1.294   1.935   5.041
 9593SOL    HW229679   1.350   2.011   4.908
 9594SOL     OW29680   0.830   5.661   4.101
 9594SOL    HW129681   0.840   5.756   4.070
 9594SOL    HW229682   0.919   5.615   4.098
 9595SOL     OW29683   0.120   3.151   3.906
 9595SOL    HW129684   0.119   3.051   3.899
 9595SOL    HW229685   0.130   3.190   3.814
 9596SOL     OW29686   0.264   6.256   0.784
 9596SOL    HW129687   0.358   6.255   0.817
 9596SOL    HW229688   0.215   6.176   0.821
 9597SOL     OW29689   0.929   3.851   3.004
 9597SOL    HW129690   0.852   3.789   3.019
 9597SOL    HW229691   0.909   3.940   3.046
 9598SOL     OW29692   1.367   3.577   3.059
 9598SOL    HW129693   1.305   3.512   3.015
 9598SOL    HW229694   1.438   3.604   2.993
 9599SOL     OW29695   3.327   0.338   3.634
 9599SOL    HW129696   3.299   0.327   3.730
 9599SOL    HW229697   3.304   0.255   3.583
 9600SOL     OW29698   3.284   0.602   1.136
 9600SOL    HW129699   3.327   0.519   1.099
 9600SOL    HW229700   3.208   0.577   1.196
 9601SOL     OW29701   6.740   4.282   1.284
 9601SOL    HW129702   6.752   4.369   1.236
 9601SOL    HW229703   6.650   4.245   1.262
 9602SOL     OW29704   5.017   3.904   5.337
 9602SOL    HW129705   5.061   3.818   5.361
 9602SOL    HW229706   4.933   3.885   5.286
 9603SOL     OW29707   5.262   6.650   5.670
 9603SOL    HW129708   5.328   6.670   5.597
 9603SOL    HW229709   5.243   6.734   5.721
 9604SOL     OW29710   5.282   0.033   0.587
 9604SOL    HW129711   5.197   0.083   0.608
 9604SOL    HW229712   5.347   0.046   0.662
 9605SOL     OW29713   6.568   5.632   3.759
 9605SOL    HW129714   6.565   5.647   3.858
 9605SOL    HW229715   6.600   5.716   3.714
 9606SOL     OW29716   1.375   1.115   6.562
 9606SOL    HW129717   1.407   1.209   6.573
 9606SOL    HW229718   1.289   1.103   6.612
 9607SOL     OW29719   3.685   2.373   5.999
 9607SOL    HW129720   3.740   2.322   5.933
 9607SOL    HW229721   3.615   2.426   5.950
 9608SOL     OW29722   6.603   4.159   2.801
 9608SOL    HW129723   6.514   4.175   2.845
 9608SOL    HW229724   6.588   4.125   2.708
 9609SOL     OW29725   4.105   2.600   6.244
 9609SOL    HW129726   4.121   2.594   6.343
 9609SOL    HW229727   4.043   2.527   6.216
 9610SOL     OW29728   1.560   3.712   2.921
 9610SOL    HW129729   1.605   3.801   2.929
 9610SOL    HW229730   1.620   3.649   2.871
 9611SOL     OW29731   1.918   0.338   1.439
 9611SOL    HW129732   2.003   0.300   1.475
 9611SOL    HW229733   1.901   0.427   1.481
 9612SOL     OW29734   0.552   2.998   2.810
 9612SOL    HW129735   0.544   2.940   2.729
 9612SOL    HW229736   0.625   3.065   2.796
 9613SOL     OW29737   6.256   6.342   3.723
 9613SOL    HW129738   6.161   6.369   3.735
 9613SOL    HW229739   6.311   6.423   3.700
 9614SOL     OW29740   4.959   1.848   2.852
 9614SOL    HW129741   4.961   1.751   2.827
 9614SOL    HW229742   4.990   1.858   2.947
 9615SOL     OW29743   2.487   2.513   1.174
 9615SOL    HW129744   2.556   2.583   1.153
 9615SOL    HW229745   2.524   2.423   1.152
 9616SOL     OW29746   3.724   2.944   0.477
 9616SOL    HW129747   3.632   2.977   0.498
 9616SOL    HW229748   3.724   2.844   0.476
 9617SOL     OW29749   2.165   2.735   3.940
 9617SOL    HW129750   2.149   2.636   3.932
 9617SOL    HW229751   2.201   2.770   3.853
 9618SOL     OW29752   3.135   1.101   0.696
 9618SOL    HW129753   3.172   1.035   0.630
 9618SOL    HW229754   3.048   1.067   0.731
 9619SOL     OW29755   2.322   0.881   5.450
 9619SOL    HW129756   2.251   0.938   5.489
 9619SOL    HW229757   2.394   0.938   5.411
 9620SOL     OW29758   5.177   0.211   4.598
 9620SOL    HW129759   5.206   0.246   4.687
 9620SOL    HW229760   5.118   0.277   4.553
 9621SOL     OW29761   1.563   2.581   2.328
 9621SOL    HW129762   1.571   2.641   2.407
 9621SOL    HW229763   1.496   2.618   2.264
 9622SOL     OW29764   6.166   1.236   1.191
 9622SOL    HW129765   6.184   1.140   1.171
 9622SOL    HW229766   6.251   1.282   1.216
 9623SOL     OW29767   3.571   3.165   6.068
 9623SOL    HW129768   3.573   3.070   6.098
 9623SOL    HW229769   3.660   3.189   6.028
 9624SOL     OW29770   6.097   3.284   3.002
 9624SOL    HW129771   6.065   3.343   3.075
 9624SOL    HW229772   6.059   3.192   3.014
 9625SOL     OW29773   6.050   6.230   0.497
 9625SOL    HW129774   6.048   6.204   0.400
 9625SOL    HW229775   6.106   6.165   0.548
 9626SOL     OW29776   3.806   5.580   6.907
 9626SOL    HW129777   3.895   5.626   6.906
 9626SOL    HW229778   3.735   5.647   6.887
 9627SOL     OW29779   1.571   5.907   6.416
 9627SOL    HW129780   1.504   5.974   6.385
 9627SOL    HW229781   1.656   5.954   6.439
 9628SOL     OW29782   4.662   5.904   1.037
 9628SOL    HW129783   4.636   5.999   1.050
 9628SOL    HW229784   4.589   5.844   1.069
 9629SOL     OW29785   2.864   0.182   1.181
 9629SOL    HW129786   2.831   0.094   1.216
 9629SOL    HW229787   2.938   0.216   1.239
 9630SOL     OW29788   6.743   0.366   5.893
 9630SOL    HW129789   6.709   0.283   5.939
 9630SOL    HW229790   6.745   0.351   5.795
 9631SOL     OW29791   6.405   6.828   6.542
 9631SOL    HW129792   6.458   6.803   6.624
 9631SOL    HW229793   6.468   6.849   6.468
 9632SOL     OW29794   1.531   6.554   1.986
 9632SOL    HW129795   1.487   6.467   2.010
 9632SOL    HW229796   1.628   6.550   2.008
 9633SOL     OW29797   6.266   5.381   6.597
 9633SOL    HW129798   6.181   5.434   6.586
 9633SOL    HW229799   6.264   5.335   6.686
 9634SOL     OW29800   0.983   6.680   4.562
 9634SOL    HW129801   1.082   6.697   4.566
 9634SOL    HW229802   0.962   6.594   4.610
 9635SOL     OW29803   2.299   5.162   4.660
 9635SOL    HW129804   2.300   5.176   4.759
 9635SOL    HW229805   2.383   5.117   4.632
 9636SOL     OW29806   4.583   1.551   4.957
 9636SOL    HW129807   4.602   1.648   4.973
 9636SOL    HW229808   4.552   1.538   4.863
 9637SOL     OW29809   1.883   1.754   6.709
 9637SOL    HW129810   1.872   1.735   6.806
 9637SOL    HW229811   1.874   1.853   6.693
 9638SOL     OW29812   6.562   3.113   5.189
 9638SOL    HW129813   6.610   3.111   5.278
 9638SOL    HW229814   6.549   3.208   5.161
 9639SOL     OW29815   4.056   1.255   2.481
 9639SOL    HW129816   4.145   1.217   2.455
 9639SOL    HW229817   4.046   1.346   2.441
 9640SOL     OW29818   2.067   2.544   2.567
 9640SOL    HW129819   2.044   2.560   2.471
 9640SOL    HW229820   2.084   2.631   2.613
 9641SOL     OW29821   6.019   6.256   0.226
 9641SOL    HW129822   6.087   6.280   0.156
 9641SOL    HW229823   5.964   6.179   0.194
 9642SOL     OW29824   2.925   0.768   4.276
 9642SOL    HW129825   2.918   0.796   4.372
 9642SOL    HW229826   2.838   0.786   4.230
 9643SOL     OW29827   4.833   4.883   3.712
 9643SOL    HW129828   4.750   4.938   3.722
 9643SOL    HW229829   4.904   4.938   3.669
 9644SOL     OW29830   1.734   2.439   6.374
 9644SOL    HW129831   1.817   2.401   6.333
 9644SOL    HW229832   1.655   2.384   6.346
 9645SOL     OW29833   2.925   5.260   4.952
 9645SOL    HW129834   3.016   5.276   4.913
 9645SOL    HW229835   2.894   5.344   4.997
 9646SOL     OW29836   3.790   5.095   2.663
 9646SOL    HW129837   3.714   5.030   2.660
 9646SOL    HW229838   3.772   5.171   2.602
 9647SOL     OW29839   6.440   3.280   0.597
 9647SOL    HW129840   6.519   3.277   0.536
 9647SOL    HW229841   6.434   3.193   0.647
 9648SOL     OW29842   4.780   3.209   0.814
 9648SOL    HW129843   4.692   3.197   0.769
 9648SOL    HW229844   4.766   3.223   0.912
 9649SOL     OW29845   2.077   5.755   0.607
 9649SOL    HW129846   2.003   5.714   0.554
 9649SOL    HW229847   2.080   5.713   0.698
 9650SOL     OW29848   6.762   5.897   1.619
 9650SOL    HW129849   6.847   5.883   1.670
 9650SOL    HW229850   6.700   5.821   1.637
 9651SOL     OW29851   0.806   0.996   6.517
 9651SOL    HW129852   0.850   1.031   6.435
 9651SOL    HW229853   0.707   1.010   6.510
 9652SOL     OW29854   0.284   5.416   3.059
 9652SOL    HW129855   0.315   5.496   3.110
 9652SOL    HW229856   0.336   5.335   3.088
 9653SOL     OW29857   6.089   5.005   4.428
 9653SOL    HW129858   6.173   4.963   4.461
 9653SOL    HW229859   6.109   5.060   4.346
 9654SOL     OW29860   2.460   2.859   1.643
 9654SOL    HW129861   2.546   2.842   1.691
 9654SOL    HW229862   2.474   2.849   1.544
 9655SOL     OW29863   6.800   1.986   0.036
 9655SOL    HW129864   6.752   1.948   0.115
 9655SOL    HW229865   6.898   1.990   0.055
 9656SOL     OW29866   3.334   0.476   3.093
 9656SOL    HW129867   3.344   0.531   3.009
 9656SOL    HW229868   3.254   0.509   3.144
 9657SOL     OW29869   6.323   0.579   4.729
 9657SOL    HW129870   6.303   0.482   4.743
 9657SOL    HW229871   6.344   0.622   4.817
 9658SOL     OW29872   6.688   2.417   2.065
 9658SOL    HW129873   6.671   2.323   2.094
 9658SOL    HW229874   6.750   2.461   2.130
 9659SOL     OW29875   0.412   4.517   0.037
 9659SOL    HW129876   0.318   4.551   0.035
 9659SOL    HW229877   0.453   4.537   0.127
 9660SOL     OW29878   0.655   5.138   0.592
 9660SOL    HW129879   0.670   5.097   0.502
 9660SOL    HW229880   0.600   5.221   0.581
 9661SOL     OW29881   4.155   6.367   0.736
 9661SOL    HW129882   4.222   6.295   0.719
 9661SOL    HW229883   4.105   6.348   0.820
 9662SOL     OW29884   6.453   1.093   4.244
 9662SOL    HW129885   6.415   1.078   4.335
 9662SOL    HW229886   6.379   1.100   4.177
 9663SOL     OW29887   2.451   5.713   2.942
 9663SOL    HW129888   2.544   5.687   2.917
 9663SOL    HW229889   2.401   5.634   2.977
 9664SOL     OW29890   3.697   6.117   2.153
 9664SOL    HW129891   3.621   6.055   2.133
 9664SOL    HW229892   3.679   6.205   2.109
 9665SOL     OW29893   5.516   4.135   4.514
 9665SOL    HW129894   5.454   4.167   4.585
 9665SOL    HW229895   5.464   4.088   4.443
 9666SOL     OW29896   5.807   4.886   3.622
 9666SOL    HW129897   5.713   4.920   3.614
 9666SOL    HW229898   5.866   4.938   3.561
 9667SOL     OW29899   4.031   3.709   3.953
 9667SOL    HW129900   4.087   3.663   4.022
 9667SOL    HW229901   4.016   3.804   3.980
 9668SOL     OW29902   0.206   0.848   5.641
 9668SOL    HW129903   0.116   0.815   5.669
 9668SOL    HW229904   0.239   0.795   5.563
 9669SOL     OW29905   1.341   5.724   0.740
 9669SOL    HW129906   1.243   5.736   0.760
 9669SOL    HW229907   1.351   5.669   0.658
 9670SOL     OW29908   5.122   4.929   7.022
 9670SOL    HW129909   5.055   5.003   7.014
 9670SOL    HW229910   5.134   4.885   6.933
 9671SOL     OW29911   6.834   5.933   5.612
 9671SOL    HW129912   6.765   5.865   5.588
 9671SOL    HW229913   6.839   5.943   5.711
 9672SOL     OW29914   0.444   6.173   4.573
 9672SOL    HW129915   0.516   6.202   4.511
 9672SOL    HW229916   0.365   6.142   4.519
 9673SOL     OW29917   3.169   4.259   6.793
 9673SOL    HW129918   3.222   4.195   6.738
 9673SOL    HW229919   3.149   4.341   6.739
 9674SOL     OW29920   3.479   5.941   2.695
 9674SOL    HW129921   3.422   6.016   2.729
 9674SOL    HW229922   3.568   5.978   2.665
 9675SOL     OW29923   6.791   1.921   1.958
 9675SOL    HW129924   6.826   1.939   2.050
 9675SOL    HW229925   6.867   1.895   1.898
 9676SOL     OW29926   0.260   3.399   4.438
 9676SOL    HW129927   0.325   3.474   4.428
 9676SOL    HW229928   0.295   3.318   4.391
 9677SOL     OW29929   1.774   3.124   6.200
 9677SOL    HW129930   1.783   3.222   6.184
 9677SOL    HW229931   1.708   3.085   6.137
 9678SOL     OW29932   3.262   3.096   3.533
 9678SOL    HW129933   3.186   3.162   3.533
 9678SOL    HW229934   3.263   3.046   3.447
 9679SOL     OW29935   1.156   2.781   1.903
 9679SOL    HW129936   1.212   2.717   1.851
 9679SOL    HW229937   1.212   2.858   1.933
 9680SOL     OW29938   5.957   5.881   3.722
 9680SOL    HW129939   6.009   5.807   3.763
 9680SOL    HW229940   5.920   5.851   3.634
 9681SOL     OW29941   2.360   0.673   2.955
 9681SOL    HW129942   2.427   0.725   2.900
 9681SOL    HW229943   2.270   0.716   2.946
 9682SOL     OW29944   5.732   4.344   2.869
 9682SOL    HW129945   5.756   4.312   2.777
 9682SOL    HW229946   5.666   4.282   2.911
 9683SOL     OW29947   4.636   5.997   6.936
 9683SOL    HW129948   4.703   5.923   6.935
 9683SOL    HW229949   4.627   6.035   6.844
 9684SOL     OW29950   1.050   3.533   4.885
 9684SOL    HW129951   0.970   3.510   4.940
 9684SOL    HW229952   1.117   3.581   4.942
 9685SOL     OW29953   1.219   3.071   0.482
 9685SOL    HW129954   1.194   3.142   0.548
 9685SOL    HW229955   1.312   3.039   0.501
 9686SOL     OW29956   6.380   0.853   1.949
 9686SOL    HW129957   6.450   0.900   2.003
 9686SOL    HW229958   6.403   0.860   1.852
 9687SOL     OW29959   2.963   0.318   4.072
 9687SOL    HW129960   3.039   0.336   4.009
 9687SOL    HW229961   2.918   0.233   4.046
 9688SOL     OW29962   6.827   1.352   2.843
 9688SOL    HW129963   6.842   1.406   2.760
 9688SOL    HW229964   6.795   1.412   2.916
 9689SOL     OW29965   2.419   6.243   6.434
 9689SOL    HW129966   2.500   6.185   6.424
 9689SOL    HW229967   2.369   6.247   6.348
 9690SOL     OW29968   6.561   4.879   1.089
 9690SOL    HW129969   6.497   4.807   1.063
 9690SOL    HW229970   6.513   4.948   1.142
 9691SOL     OW29971   2.011   5.018   2.218
 9691SOL    HW129972   1.955   4.937   2.202
 9691SOL    HW229973   1.960   5.082   2.275
 9692SOL     OW29974   2.694   5.667   1.793
 9692SOL    HW129975   2.676   5.695   1.888
 9692SOL    HW229976   2.791   5.646   1.783
 9693SOL     OW29977   6.139   6.169   1.931
 9693SOL    HW129978   6.051   6.146   1.889
 9693SOL    HW229979   6.210   6.171   1.861
 9694SOL     OW29980   1.542   2.637   6.714
 9694SOL    HW129981   1.478   2.567   6.680
 9694SOL    HW229982   1.602   2.596   6.783
 9695SOL     OW29983   6.642   4.377   1.530
 9695SOL    HW129984   6.675   4.456   1.477
 9695SOL    HW229985   6.692   4.295   1.501
 9696SOL     OW29986   4.069   3.453   1.535
 9696SOL    HW129987   4.046   3.393   1.612
 9696SOL    HW229988   4.109   3.538   1.570
 9697SOL     OW29989   0.951   5.635   0.128
 9697SOL    HW129990   0.924   5.588   0.044
 9697SOL    HW229991   0.926   5.579   0.207
 9698SOL     OW29992   5.809   1.964   4.776
 9698SOL    HW129993   5.894   1.991   4.820
 9698SOL    HW229994   5.820   1.966   4.677
 9699SOL     OW29995   1.553   3.287   0.205
 9699SOL    HW129996   1.561   3.261   0.109
 9699SOL    HW229997   1.639   3.326   0.237
 9700SOL     OW29998   3.360   3.709   4.884
 9700SOL    HW129999   3.351   3.787   4.822
 9700SOL    HW230000   3.402   3.740   4.969
 9701SOL     OW30001   4.802   5.473   4.769
 9701SOL    HW130002   4.728   5.439   4.710
 9701SOL    HW230003   4.890   5.460   4.723
 9702SOL     OW30004   4.542   0.991   0.381
 9702SOL    HW130005   4.539   1.087   0.351
 9702SOL    HW230006   4.502   0.933   0.309
 9703SOL     OW30007   2.879   5.805   4.190
 9703SOL    HW130008   2.792   5.847   4.215
 9703SOL    HW230009   2.861   5.718   4.144
 9704SOL     OW30010   3.717   0.202   3.152
 9704SOL    HW130011   3.667   0.289   3.156
 9704SOL    HW230012   3.792   0.209   3.087
 9705SOL     OW30013   3.335   4.224   0.503
 9705SOL    HW130014   3.257   4.168   0.476
 9705SOL    HW230015   3.319   4.319   0.475
 9706SOL     OW30016   5.439   3.019   2.921
 9706SOL    HW130017   5.508   3.074   2.874
 9706SOL    HW230018   5.366   2.995   2.857
 9707SOL     OW30019   2.816   5.709   2.454
 9707SOL    HW130020   2.777   5.718   2.362
 9707SOL    HW230021   2.894   5.770   2.463
 9708SOL     OW30022   2.384   1.515   3.494
 9708SOL    HW130023   2.400   1.433   3.439
 9708SOL    HW230024   2.287   1.539   3.489
 9709SOL     OW30025   1.771   6.013   2.996
 9709SOL    HW130026   1.700   6.083   3.005
 9709SOL    HW230027   1.749   5.953   2.920
 9710SOL     OW30028   0.466   0.607   3.344
 9710SOL    HW130029   0.495   0.638   3.435
 9710SOL    HW230030   0.441   0.510   3.349
 9711SOL     OW30031   1.263   3.797   5.388
 9711SOL    HW130032   1.175   3.805   5.342
 9711SOL    HW230033   1.283   3.883   5.436
 9712SOL     OW30034   4.957   1.901   3.900
 9712SOL    HW130035   4.878   1.873   3.955
 9712SOL    HW230036   4.929   1.912   3.805
 9713SOL     OW30037   6.889   5.068   2.794
 9713SOL    HW130038   6.794   5.050   2.766
 9713SOL    HW230039   6.931   5.130   2.728
 9714SOL     OW30040   2.039   2.284   1.241
 9714SOL    HW130041   2.133   2.296   1.209
 9714SOL    HW230042   2.039   2.264   1.339
 9715SOL     OW30043   5.044   5.663   4.977
 9715SOL    HW130044   5.040   5.745   5.034
 9715SOL    HW230045   4.973   5.598   5.005
 9716SOL     OW30046   4.432   2.154   6.458
 9716SOL    HW130047   4.467   2.078   6.513
 9716SOL    HW230048   4.358   2.200   6.508
 9717SOL     OW30049   5.795   5.411   3.996
 9717SOL    HW130050   5.845   5.327   4.020
 9717SOL    HW230051   5.699   5.400   4.021
 9718SOL     OW30052   4.339   3.379   1.492
 9718SOL    HW130053   4.364   3.379   1.589
 9718SOL    HW230054   4.242   3.397   1.482
 9719SOL     OW30055   0.452   2.018   0.080
 9719SOL    HW130056   0.414   1.988   7.016
 9719SOL    HW230057   0.479   1.937   0.133
 9720SOL     OW30058   6.453   0.447   2.012
 9720SOL    HW130059   6.470   0.506   1.933
 9720SOL    HW230060   6.484   0.493   2.095
 9721SOL     OW30061   6.754   3.840   2.444
 9721SOL    HW130062   6.673   3.871   2.493
 9721SOL    HW230063   6.827   3.907   2.455
 9722SOL     OW30064   0.834   0.490   4.143
 9722SOL    HW130065   0.780   0.574   4.136
 9722SOL    HW230066   0.773   0.411   4.145
 9723SOL     OW30067   0.599   0.643   3.705
 9723SOL    HW130068   0.526   0.711   3.701
 9723SOL    HW230069   0.570   0.566   3.763
 9724SOL     OW30070   3.718   2.534   1.464
 9724SOL    HW130071   3.754   2.617   1.504
 9724SOL    HW230072   3.703   2.465   1.535
 9725SOL     OW30073   4.235   3.264   5.669
 9725SOL    HW130074   4.288   3.179   5.671
 9725SOL    HW230075   4.220   3.296   5.762
 9726SOL     OW30076   4.831   6.722   4.897
 9726SOL    HW130077   4.851   6.649   4.962
 9726SOL    HW230078   4.904   6.726   4.828
 9727SOL     OW30079   1.261   2.618   5.927
 9727SOL    HW130080   1.331   2.587   5.862
 9727SOL    HW230081   1.302   2.630   6.017
 9728SOL     OW30082   2.492   5.880   0.087
 9728SOL    HW130083   2.537   5.855   0.173
 9728SOL    HW230084   2.401   5.916   0.106
 9729SOL     OW30085   2.816   5.182   2.838
 9729SOL    HW130086   2.717   5.180   2.850
 9729SOL    HW230087   2.851   5.088   2.829
 9730SOL     OW30088   6.360   2.965   3.065
 9730SOL    HW130089   6.381   3.042   3.125
 9730SOL    HW230090   6.282   2.989   3.007
 9731SOL     OW30091   3.662   4.691   0.971
 9731SOL    HW130092   3.650   4.618   0.902
 9731SOL    HW230093   3.729   4.757   0.938
 9732SOL     OW30094   6.646   6.359   2.781
 9732SOL    HW130095   6.556   6.399   2.801
 9732SOL    HW230096   6.691   6.335   2.867
 9733SOL     OW30097   4.936   4.396   5.652
 9733SOL    HW130098   4.996   4.375   5.730
 9733SOL    HW230099   4.844   4.418   5.685
 9734SOL     OW30100   5.267   2.493   4.346
 9734SOL    HW130101   5.346   2.458   4.296
 9734SOL    HW230102   5.235   2.577   4.303
 9735SOL     OW30103   1.588   4.752   1.625
 9735SOL    HW130104   1.649   4.695   1.680
 9735SOL    HW230105   1.616   4.848   1.633
 9736SOL     OW30106   3.995   1.063   0.517
 9736SOL    HW130107   3.961   0.974   0.546
 9736SOL    HW230108   4.084   1.052   0.472
 9737SOL     OW30109   4.009   2.227   5.067
 9737SOL    HW130110   4.084   2.290   5.049
 9737SOL    HW230111   4.044   2.145   5.113
 9738SOL     OW30112   1.239   1.068   2.873
 9738SOL    HW130113   1.165   1.001   2.880
 9738SOL    HW230114   1.325   1.021   2.853
 9739SOL     OW30115   5.839   4.691   2.004
 9739SOL    HW130116   5.803   4.745   1.928
 9739SOL    HW230117   5.850   4.750   2.084
 9740SOL     OW30118   6.780   4.451   2.729
 9740SOL    HW130119   6.808   4.523   2.794
 9740SOL    HW230120   6.701   4.483   2.677
 9741SOL     OW30121   4.408   2.377   2.339
 9741SOL    HW130122   4.309   2.375   2.354
 9741SOL    HW230123   4.427   2.368   2.241
 9742SOL     OW30124   5.237   1.123   3.805
 9742SOL    HW130125   5.144   1.146   3.833
 9742SOL    HW230126   5.295   1.205   3.809
 9743SOL     OW30127   1.576   3.058   6.046
 9743SOL    HW130128   1.480   3.087   6.052
 9743SOL    HW230129   1.584   2.985   5.978
 9744SOL     OW30130   2.090   1.083   1.937
 9744SOL    HW130131   2.055   1.025   1.863
 9744SOL    HW230132   2.160   1.145   1.901
 9745SOL     OW30133   0.097   2.545   5.127
 9745SOL    HW130134   0.184   2.572   5.171
 9745SOL    HW230135   0.024   2.549   5.195
 9746SOL     OW30136   6.247   0.900   4.724
 9746SOL    HW130137   6.173   0.925   4.785
 9746SOL    HW230138   6.259   0.801   4.725
 9747SOL     OW30139   0.600   7.012   6.134
 9747SOL    HW130140   0.680   0.016   6.081
 9747SOL    HW230141   0.588   0.049   6.212
 9748SOL     OW30142   0.542   6.038   4.123
 9748SOL    HW130143   0.510   6.080   4.038
 9748SOL    HW230144   0.632   5.996   4.107
 9749SOL     OW30145   0.527   4.233   4.071
 9749SOL    HW130146   0.445   4.268   4.116
 9749SOL    HW230147   0.562   4.155   4.122
 9750SOL     OW30148   3.938   4.845   3.744
 9750SOL    HW130149   3.849   4.891   3.743
 9750SOL    HW230150   3.961   4.816   3.651
 9751SOL     OW30151   1.706   2.765   0.473
 9751SOL    HW130152   1.761   2.751   0.555
 9751SOL    HW230153   1.714   2.685   0.414
 9752SOL     OW30154   4.530   1.173   6.046
 9752SOL    HW130155   4.544   1.249   6.109
 9752SOL    HW230156   4.466   1.201   5.974
 9753SOL     OW30157   7.000   5.401   5.315
 9753SOL    HW130158   6.925   5.394   5.250
 9753SOL    HW230159   0.007   5.497   5.320
 9754SOL     OW30160   1.193   1.395   6.507
 9754SOL    HW130161   1.291   1.393   6.488
 9754SOL    HW230162   1.177   1.395   6.606
 9755SOL     OW30163   3.595   5.034   5.377
 9755SOL    HW130164   3.639   4.944   5.383
 9755SOL    HW230165   3.503   5.029   5.415
 9756SOL     OW30166   5.910   2.358   6.506
 9756SOL    HW130167   5.854   2.378   6.587
 9756SOL    HW230168   5.886   2.422   6.433
 9757SOL     OW30169   6.149   2.234   3.719
 9757SOL    HW130170   6.152   2.322   3.673
 9757SOL    HW230171   6.128   2.248   3.816
 9758SOL     OW30172   3.028   0.518   0.091
 9758SOL    HW130173   2.951   0.567   0.132
 9758SOL    HW230174   3.006   0.421   0.083
 9759SOL     OW30175   3.135   6.145   0.765
 9759SOL    HW130176   3.155   6.139   0.667
 9759SOL    HW230177   3.208   6.101   0.817
 9760SOL     OW30178   6.089   4.515   5.838
 9760SOL    HW130179   6.103   4.503   5.740
 9760SOL    HW230180   6.066   4.611   5.857
 9761SOL     OW30181   5.327   5.472   1.706
 9761SOL    HW130182   5.343   5.559   1.752
 9761SOL    HW230183   5.414   5.424   1.693
 9762SOL     OW30184   2.436   1.432   5.137
 9762SOL    HW130185   2.431   1.337   5.107
 9762SOL    HW230186   2.432   1.492   5.057
 9763SOL     OW30187   2.567   1.756   0.714
 9763SOL    HW130188   2.542   1.678   0.771
 9763SOL    HW230189   2.488   1.784   0.660
 9764SOL     OW30190   1.117   2.079   2.030
 9764SOL    HW130191   1.058   2.118   1.959
 9764SOL    HW230192   1.213   2.098   2.008
 9765SOL     OW30193   0.572   1.909   5.218
 9765SOL    HW130194   0.474   1.913   5.238
 9765SOL    HW230195   0.613   1.998   5.234
 9766SOL     OW30196   2.819   0.171   2.562
 9766SOL    HW130197   2.748   0.236   2.536
 9766SOL    HW230198   2.803   0.084   2.514
 9767SOL     OW30199   5.127   0.398   5.010
 9767SOL    HW130200   5.075   0.324   5.053
 9767SOL    HW230201   5.154   0.465   5.079
 9768SOL     OW30202   4.482   2.521   2.585
 9768SOL    HW130203   4.458   2.473   2.500
 9768SOL    HW230204   4.502   2.617   2.565
 9769SOL     OW30205   0.885   1.962   1.519
 9769SOL    HW130206   0.810   2.010   1.475
 9769SOL    HW230207   0.931   1.904   1.452
 9770SOL     OW30208   5.693   4.995   6.169
 9770SOL    HW130209   5.750   5.032   6.096
 9770SOL    HW230210   5.708   4.896   6.176
 9771SOL     OW30211   3.752   5.805   5.996
 9771SOL    HW130212   3.812   5.744   5.945
 9771SOL    HW230213   3.681   5.752   6.042
 9772SOL     OW30214   6.264   0.536   1.768
 9772SOL    HW130215   6.327   0.544   1.690
 9772SOL    HW230216   6.266   0.621   1.820
 9773SOL     OW30217   6.213   5.645   3.094
 9773SOL    HW130218   6.119   5.629   3.065
 9773SOL    HW230219   6.214   5.713   3.167
 9774SOL     OW30220   7.002   4.676   3.408
 9774SOL    HW130221   6.949   4.734   3.345
 9774SOL    HW230222   6.996   4.581   3.378
 9775SOL     OW30223   2.386   2.700   4.583
 9775SOL    HW130224   2.463   2.637   4.575
 9775SOL    HW230225   2.336   2.703   4.496
 9776SOL     OW30226   0.657   5.808   4.815
 9776SOL    HW130227   0.739   5.790   4.870
 9776SOL    HW230228   0.661   5.901   4.779
 9777SOL     OW30229   5.498   4.606   5.965
 9777SOL    HW130230   5.577   4.546   5.961
 9777SOL    HW230231   5.429   4.566   6.025
 9778SOL     OW30232   4.545   0.533   2.493
 9778SOL    HW130233   4.453   0.558   2.521
 9778SOL    HW230234   4.585   0.608   2.439
 9779SOL     OW30235   2.674   1.854   5.868
 9779SOL    HW130236   2.600   1.826   5.807
 9779SOL    HW230237   2.638   1.914   5.939
 9780SOL     OW30238   3.532   4.573   0.189
 9780SOL    HW130239   3.497   4.480   0.189
 9780SOL    HW230240   3.578   4.592   0.276
 9781SOL     OW30241   1.727   4.912   4.385
 9781SOL    HW130242   1.719   4.833   4.444
 9781SOL    HW230243   1.761   4.990   4.437
 9782SOL     OW30244   6.567   0.703   1.182
 9782SOL    HW130245   6.592   0.609   1.162
 9782SOL    HW230246   6.645   0.750   1.224
 9783SOL     OW30247   4.991   1.179   2.158
 9783SOL    HW130248   4.939   1.239   2.098
 9783SOL    HW230249   5.055   1.124   2.105
 9784SOL     OW30250   4.832   0.719   3.763
 9784SOL    HW130251   4.788   0.690   3.848
 9784SOL    HW230252   4.814   0.815   3.747
 9785SOL     OW30253   0.465   3.181   1.785
 9785SOL    HW130254   0.435   3.138   1.870
 9785SOL    HW230255   0.550   3.231   1.801
 9786SOL     OW30256   2.731   6.371   4.979
 9786SOL    HW130257   2.722   6.401   4.884
 9786SOL    HW230258   2.825   6.341   4.995
 9787SOL     OW30259   5.358   3.983   2.154
 9787SOL    HW130260   5.323   4.060   2.100
 9787SOL    HW230261   5.456   3.993   2.166
 9788SOL     OW30262   0.087   1.346   5.436
 9788SOL    HW130263   0.054   1.251   5.441
 9788SOL    HW230264   0.111   1.377   5.528
 9789SOL     OW30265   2.232   5.907   4.854
 9789SOL    HW130266   2.182   5.890   4.769
 9789SOL    HW230267   2.168   5.939   4.924
 9790SOL     OW30268   6.212   1.734   4.479
 9790SOL    HW130269   6.129   1.680   4.483
 9790SOL    HW230270   6.291   1.674   4.464
 9791SOL     OW30271   0.771   2.495   0.907
 9791SOL    HW130272   0.859   2.514   0.863
 9791SOL    HW230273   0.778   2.514   1.005
 9792SOL     OW30274   4.369   5.519   1.449
 9792SOL    HW130275   4.391   5.586   1.519
 9792SOL    HW230276   4.271   5.500   1.450
 9793SOL     OW30277   4.663   6.107   2.132
 9793SOL    HW130278   4.757   6.110   2.099
 9793SOL    HW230279   4.643   6.190   2.183
 9794SOL     OW30280   3.701   2.675   6.660
 9794SOL    HW130281   3.655   2.591   6.690
 9794SOL    HW230282   3.661   2.754   6.706
 9795SOL     OW30283   1.575   3.341   4.300
 9795SOL    HW130284   1.661   3.290   4.288
 9795SOL    HW230285   1.500   3.276   4.310
 9796SOL     OW30286   3.424   4.989   6.814
 9796SOL    HW130287   3.331   4.958   6.794
 9796SOL    HW230288   3.446   5.067   6.755
 9797SOL     OW30289   4.698   3.086   5.318
 9797SOL    HW130290   4.678   2.989   5.332
 9797SOL    HW230291   4.636   3.141   5.373
 9798SOL     OW30292   1.733   1.946   1.214
 9798SOL    HW130293   1.712   2.006   1.137
 9798SOL    HW230294   1.668   1.962   1.288
 9799SOL     OW30295   3.031   4.090   2.002
 9799SOL    HW130296   2.985   4.049   2.080
 9799SOL    HW230297   3.022   4.190   2.006
 9800SOL     OW30298   4.210   5.082   6.588
 9800SOL    HW130299   4.302   5.121   6.588
 9800SOL    HW230300   4.167   5.098   6.677
 9801SOL     OW30301   4.700   5.011   0.044
 9801SOL    HW130302   4.689   5.080   6.996
 9801SOL    HW230303   4.612   4.994   0.089
 9802SOL     OW30304   6.749   3.460   0.785
 9802SOL    HW130305   6.680   3.490   0.851
 9802SOL    HW230306   6.753   3.526   0.710
 9803SOL     OW30307   6.264   0.610   6.719
 9803SOL    HW130308   6.357   0.604   6.754
 9803SOL    HW230309   6.199   0.579   6.789
 9804SOL     OW30310   5.553   5.302   4.474
 9804SOL    HW130311   5.531   5.334   4.566
 9804SOL    HW230312   5.556   5.379   4.411
 9805SOL     OW30313   2.698   4.887   0.113
 9805SOL    HW130314   2.747   4.911   0.196
 9805SOL    HW230315   2.709   4.960   0.045
 9806SOL     OW30316   6.795   1.565   3.112
 9806SOL    HW130317   6.739   1.617   3.177
 9806SOL    HW230318   6.850   1.628   3.057
 9807SOL     OW30319   3.748   2.548   0.850
 9807SOL    HW130320   3.840   2.585   0.865
 9807SOL    HW230321   3.693   2.563   0.932
 9808SOL     OW30322   1.321   1.397   4.914
 9808SOL    HW130323   1.307   1.492   4.939
 9808SOL    HW230324   1.234   1.348   4.917
 9809SOL     OW30325   1.258   0.884   4.898
 9809SOL    HW130326   1.160   0.870   4.904
 9809SOL    HW230327   1.291   0.927   4.982
 9810SOL     OW30328   3.928   0.792   3.402
 9810SOL    HW130329   3.946   0.886   3.433
 9810SOL    HW230330   3.886   0.740   3.477
 9811SOL     OW30331   0.917   6.809   2.733
 9811SOL    HW130332   0.878   6.901   2.734
 9811SOL    HW230333   1.015   6.815   2.715
 9812SOL     OW30334   4.927   2.535   5.260
 9812SOL    HW130335   4.974   2.593   5.327
 9812SOL    HW230336   4.892   2.453   5.305
 9813SOL     OW30337   6.576   4.758   0.285
 9813SOL    HW130338   6.586   4.665   0.320
 9813SOL    HW230339   6.501   4.760   0.218
 9814SOL     OW30340   6.970   0.197   5.588
 9814SOL    HW130341   0.026   0.243   5.550
 9814SOL    HW230342   6.969   0.208   5.687
 9815SOL     OW30343   6.541   3.859   2.981
 9815SOL    HW130344   6.609   3.790   3.008
 9815SOL    HW230345   6.566   3.896   2.892
 9816SOL     OW30346   0.118   6.602   6.309
 9816SOL    HW130347   0.124   6.654   6.395
 9816SOL    HW230348   0.209   6.598   6.267
 9817SOL     OW30349   2.899   6.809   6.571
 9817SOL    HW130350   2.875   6.716   6.542
 9817SOL    HW230351   2.889   6.872   6.494
 9818SOL     OW30352   0.798   6.617   3.138
 9818SOL    HW130353   0.783   6.716   3.135
 9818SOL    HW230354   0.805   6.587   3.233
 9819SOL     OW30355   6.856   3.500   4.875
 9819SOL    HW130356   6.901   3.436   4.938
 9819SOL    HW230357   6.882   3.477   4.781
 9820SOL     OW30358   4.420   2.066   6.053
 9820SOL    HW130359   4.511   2.070   6.093
 9820SOL    HW230360   4.356   2.115   6.112
 9821SOL     OW30361   3.978   3.248   1.382
 9821SOL    HW130362   3.920   3.181   1.429
 9821SOL    HW230363   4.030   3.300   1.450
 9822SOL     OW30364   3.730   6.423   5.637
 9822SOL    HW130365   3.779   6.510   5.642
 9822SOL    HW230366   3.741   6.384   5.545
 9823SOL     OW30367   2.469   6.945   3.210
 9823SOL    HW130368   2.432   6.853   3.198
 9823SOL    HW230369   2.434   7.006   3.139
 9824SOL     OW30370   0.967   6.096   5.212
 9824SOL    HW130371   0.979   5.997   5.211
 9824SOL    HW230372   1.048   6.140   5.174
 9825SOL     OW30373   5.741   6.647   5.044
 9825SOL    HW130374   5.647   6.650   5.010
 9825SOL    HW230375   5.744   6.683   5.137
 9826SOL     OW30376   1.928   5.485   5.050
 9826SOL    HW130377   1.946   5.455   4.956
 9826SOL    HW230378   2.006   5.537   5.084
 9827SOL     OW30379   1.326   4.799   1.649
 9827SOL    HW130380   1.425   4.785   1.652
 9827SOL    HW230381   1.296   4.802   1.553
 9828SOL     OW30382   4.450   2.415   4.382
 9828SOL    HW130383   4.436   2.484   4.311
 9828SOL    HW230384   4.391   2.337   4.364
 9829SOL     OW30385   4.420   5.666   5.611
 9829SOL    HW130386   4.328   5.704   5.597
 9829SOL    HW230387   4.443   5.604   5.536
 9830SOL     OW30388   6.157   1.924   3.188
 9830SOL    HW130389   6.122   2.009   3.227
 9830SOL    HW230390   6.123   1.914   3.094
 9831SOL     OW30391   0.505   3.934   2.767
 9831SOL    HW130392   0.510   3.928   2.867
 9831SOL    HW230393   0.596   3.926   2.728
 9832SOL     OW30394   4.522   5.397   4.717
 9832SOL    HW130395   4.492   5.331   4.648
 9832SOL    HW230396   4.511   5.358   4.808
 9833SOL     OW30397   3.828   3.625   3.476
 9833SOL    HW130398   3.918   3.646   3.515
 9833SOL    HW230399   3.790   3.708   3.435
 9834SOL     OW30400   2.804   6.556   6.091
 9834SOL    HW130401   2.752   6.470   6.098
 9834SOL    HW230402   2.900   6.535   6.071
 9835SOL     OW30403   3.979   3.978   4.031
 9835SOL    HW130404   3.910   4.044   4.003
 9835SOL    HW230405   3.993   3.983   4.130
 9836SOL     OW30406   0.220   4.227   6.015
 9836SOL    HW130407   0.244   4.168   6.093
 9836SOL    HW230408   0.301   4.244   5.960
 9837SOL     OW30409   5.688   2.050   3.039
 9837SOL    HW130410   5.601   2.001   3.027
 9837SOL    HW230411   5.764   1.987   3.022
 9838SOL     OW30412   2.208   6.972   1.286
 9838SOL    HW130413   2.145   6.974   1.209
 9838SOL    HW230414   2.276   0.021   1.276
 9839SOL     OW30415   5.166   0.080   3.776
 9839SOL    HW130416   5.215   0.136   3.843
 9839SOL    HW230417   5.131   0.138   3.703
 9840SOL     OW30418   6.132   1.625   6.591
 9840SOL    HW130419   6.081   1.708   6.571
 9840SOL    HW230420   6.150   1.620   6.689
 9841SOL     OW30421   0.254   6.568   2.938
 9841SOL    HW130422   0.263   6.546   2.841
 9841SOL    HW230423   0.159   6.593   2.958
 9842SOL     OW30424   3.283   1.001   6.478
 9842SOL    HW130425   3.367   1.009   6.531
 9842SOL    HW230426   3.304   0.965   6.387
 9843SOL     OW30427   0.354   0.209   1.342
 9843SOL    HW130428   0.396   0.233   1.255
 9843SOL    HW230429   0.377   0.114   1.365
 9844SOL     OW30430   4.538   0.154   4.055
 9844SOL    HW130431   4.470   0.083   4.071
 9844SOL    HW230432   4.582   0.139   3.966
 9845SOL     OW30433   1.861   3.579   2.581
 9845SOL    HW130434   1.800   3.645   2.539
 9845SOL    HW230435   1.924   3.543   2.513
 9846SOL     OW30436   5.645   2.547   1.847
 9846SOL    HW130437   5.573   2.610   1.876
 9846SOL    HW230438   5.718   2.546   1.915
 9847SOL     OW30439   4.298   4.256   6.745
 9847SOL    HW130440   4.299   4.195   6.825
 9847SOL    HW230441   4.226   4.325   6.757
 9848SOL     OW30442   3.269   4.358   5.701
 9848SOL    HW130443   3.358   4.365   5.656
 9848SOL    HW230444   3.201   4.325   5.635
 9849SOL     OW30445   0.434   2.416   4.425
 9849SOL    HW130446   0.412   2.377   4.336
 9849SOL    HW230447   0.352   2.454   4.466
 9850SOL     OW30448   1.471   0.499   4.438
 9850SOL    HW130449   1.393   0.441   4.462
 9850SOL    HW230450   1.490   0.562   4.514
 9851SOL     OW30451   3.783   5.379   4.954
 9851SOL    HW130452   3.873   5.408   4.987
 9851SOL    HW230453   3.761   5.290   4.995
 9852SOL     OW30454   2.209   0.396   0.173
 9852SOL    HW130455   2.235   0.491   0.189
 9852SOL    HW230456   2.110   0.386   0.185
 9853SOL     OW30457   7.005   4.413   3.316
 9853SOL    HW130458   6.905   4.414   3.321
 9853SOL    HW230459   0.016   4.340   3.376
 9854SOL     OW30460   0.877   4.436   6.228
 9854SOL    HW130461   0.874   4.534   6.210
 9854SOL    HW230462   0.785   4.398   6.222
 9855SOL     OW30463   1.104   4.989   0.990
 9855SOL    HW130464   1.086   5.007   1.087
 9855SOL    HW230465   1.197   5.017   0.968
 9856SOL     OW30466   5.834   4.095   3.240
 9856SOL    HW130467   5.807   4.118   3.334
 9856SOL    HW230468   5.758   4.115   3.178
 9857SOL     OW30469   4.400   0.227   5.244
 9857SOL    HW130470   4.454   0.183   5.173
 9857SOL    HW230471   4.341   0.297   5.203
 9858SOL     OW30472   6.722   6.228   2.248
 9858SOL    HW130473   6.731   6.290   2.170
 9858SOL    HW230474   6.631   6.238   2.288
 9859SOL     OW30475   6.948   5.097   3.068
 9859SOL    HW130476   0.016   5.060   3.078
 9859SOL    HW230477   6.916   5.083   2.974
 9860SOL     OW30478   1.454   3.077   4.966
 9860SOL    HW130479   1.430   3.174   4.965
 9860SOL    HW230480   1.553   3.067   4.955
 9861SOL     OW30481   3.426   2.134   2.833
 9861SOL    HW130482   3.455   2.110   2.740
 9861SOL    HW230483   3.502   2.120   2.896
 9862SOL     OW30484   1.016   4.069   0.140
 9862SOL    HW130485   1.083   4.029   0.201
 9862SOL    HW230486   0.978   4.152   0.181
 9863SOL     OW30487   4.263   5.991   0.947
 9863SOL    HW130488   4.303   6.038   1.026
 9863SOL    HW230489   4.333   5.976   0.878
 9864SOL     OW30490   2.265   5.506   5.476
 9864SOL    HW130491   2.269   5.478   5.572
 9864SOL    HW230492   2.223   5.433   5.422
 9865SOL     OW30493   0.940   5.550   5.740
 9865SOL    HW130494   1.023   5.517   5.784
 9865SOL    HW230495   0.861   5.528   5.797
 9866SOL     OW30496   6.863   5.043   5.371
 9866SOL    HW130497   6.943   5.052   5.431
 9866SOL    HW230498   6.893   5.035   5.276
 9867SOL     OW30499   4.012   1.818   2.367
 9867SOL    HW130500   4.086   1.877   2.334
 9867SOL    HW230501   4.034   1.784   2.458
 9868SOL     OW30502   2.455   4.593   4.001
 9868SOL    HW130503   2.404   4.508   3.990
 9868SOL    HW230504   2.439   4.651   3.922
 9869SOL     OW30505   6.348   2.835   1.064
 9869SOL    HW130506   6.373   2.880   1.150
 9869SOL    HW230507   6.279   2.890   1.017
 9870SOL     OW30508   2.374   2.191   2.283
 9870SOL    HW130509   2.334   2.245   2.358
 9870SOL    HW230510   2.424   2.251   2.221
 9871SOL     OW30511   6.235   5.353   3.712
 9871SOL    HW130512   6.161   5.360   3.646
 9871SOL    HW230513   6.297   5.279   3.686
 9872SOL     OW30514   0.551   4.890   6.233
 9872SOL    HW130515   0.618   4.867   6.304
 9872SOL    HW230516   0.598   4.914   6.148
 9873SOL     OW30517   1.372   1.544   5.604
 9873SOL    HW130518   1.442   1.521   5.536
 9873SOL    HW230519   1.303   1.603   5.561
 9874SOL     OW30520   0.138   2.803   5.071
 9874SOL    HW130521   0.121   2.708   5.097
 9874SOL    HW230522   0.125   2.862   5.151
 9875SOL     OW30523   6.506   6.024   1.220
 9875SOL    HW130524   6.467   6.115   1.228
 9875SOL    HW230525   6.591   6.020   1.272
 9876SOL     OW30526   1.133   6.304   3.307
 9876SOL    HW130527   1.149   6.372   3.235
 9876SOL    HW230528   1.060   6.242   3.278
 9877SOL     OW30529   0.999   5.164   5.093
 9877SOL    HW130530   0.945   5.088   5.056
 9877SOL    HW230531   1.000   5.158   5.193
 9878SOL     OW30532   3.252   2.854   6.490
 9878SOL    HW130533   3.339   2.867   6.444
 9878SOL    HW230534   3.269   2.828   6.586
 9879SOL     OW30535   6.839   5.006   5.905
 9879SOL    HW130536   6.791   4.944   5.968
 9879SOL    HW230537   6.823   4.976   5.811
 9880SOL     OW30538   2.417   1.203   0.894
 9880SOL    HW130539   2.345   1.272   0.886
 9880SOL    HW230540   2.476   1.226   0.972
 9881SOL     OW30541   6.413   1.252   3.911
 9881SOL    HW130542   6.391   1.326   3.975
 9881SOL    HW230543   6.512   1.239   3.908
 9882SOL     OW30544   3.482   3.050   5.400
 9882SOL    HW130545   3.529   3.023   5.317
 9882SOL    HW230546   3.549   3.076   5.469
 9883SOL     OW30547   1.976   0.375   2.217
 9883SOL    HW130548   1.914   0.309   2.174
 9883SOL    HW230549   2.061   0.330   2.241
 9884SOL     OW30550   3.039   2.296   5.382
 9884SOL    HW130551   3.095   2.329   5.306
 9884SOL    HW230552   2.978   2.369   5.413
 9885SOL     OW30553   4.961   3.154   5.307
 9885SOL    HW130554   5.009   3.076   5.348
 9885SOL    HW230555   4.862   3.142   5.317
 9886SOL     OW30556   3.528   6.002   1.632
 9886SOL    HW130557   3.483   5.993   1.543
 9886SOL    HW230558   3.504   6.091   1.672
 9887SOL     OW30559   3.108   1.371   0.037
 9887SOL    HW130560   3.145   1.304   6.997
 9887SOL    HW230561   3.026   1.413   7.023
 9888SOL     OW30562   6.376   6.570   3.660
 9888SOL    HW130563   6.351   6.649   3.715
 9888SOL    HW230564   6.476   6.563   3.656
 9889SOL     OW30565   0.022   6.199   3.432
 9889SOL    HW130566   0.014   6.280   3.375
 9889SOL    HW230567   0.021   6.117   3.375
 9890SOL     OW30568   1.045   3.488   1.802
 9890SOL    HW130569   1.081   3.473   1.710
 9890SOL    HW230570   1.047   3.401   1.853
 9891SOL     OW30571   5.610   5.368   1.656
 9891SOL    HW130572   5.582   5.299   1.723
 9891SOL    HW230573   5.679   5.428   1.695
 9892SOL     OW30574   1.456   5.066   4.168
 9892SOL    HW130575   1.356   5.077   4.171
 9892SOL    HW230576   1.486   5.065   4.072
 9893SOL     OW30577   5.501   4.817   4.564
 9893SOL    HW130578   5.430   4.746   4.561
 9893SOL    HW230579   5.590   4.774   4.583
 9894SOL     OW30580   4.684   2.856   5.498
 9894SOL    HW130581   4.637   2.913   5.566
 9894SOL    HW230582   4.758   2.805   5.542
 9895SOL     OW30583   5.434   2.007   6.870
 9895SOL    HW130584   5.533   2.010   6.885
 9895SOL    HW230585   5.391   2.082   6.919
 9896SOL     OW30586   4.517   2.981   0.029
 9896SOL    HW130587   4.446   2.912   0.014
 9896SOL    HW230588   4.505   3.022   0.119
 9897SOL     OW30589   0.016   1.710   3.891
 9897SOL    HW130590   0.001   1.752   3.801
 9897SOL    HW230591   6.956   1.716   3.946
 9898SOL     OW30592   1.119   5.131   5.628
 9898SOL    HW130593   1.044   5.161   5.686
 9898SOL    HW230594   1.120   5.031   5.624
 9899SOL     OW30595   4.884   5.278   2.154
 9899SOL    HW130596   4.896   5.178   2.159
 9899SOL    HW230597   4.856   5.303   2.061
 9900SOL     OW30598   0.805   3.622   3.382
 9900SOL    HW130599   0.769   3.529   3.379
 9900SOL    HW230600   0.905   3.620   3.379
 9901SOL     OW30601   2.530   1.735   5.668
 9901SOL    HW130602   2.603   1.725   5.600
 9901SOL    HW230603   2.445   1.761   5.622
 9902SOL     OW30604   4.844   3.439   7.001
 9902SOL    HW130605   4.820   3.370   6.932
 9902SOL    HW230606   4.844   3.529   6.958
 9903SOL     OW30607   3.589   0.971   1.270
 9903SOL    HW130608   3.645   1.031   1.327
 9903SOL    HW230609   3.509   1.021   1.239
 9904SOL     OW30610   7.019   0.052   2.157
 9904SOL    HW130611   6.931   0.062   2.204
 9904SOL    HW230612   0.045   0.139   2.161
 9905SOL     OW30613   1.780   6.015   6.557
 9905SOL    HW130614   1.870   5.982   6.586
 9905SOL    HW230615   1.723   6.031   6.637
 9906SOL     OW30616   3.832   3.930   5.736
 9906SOL    HW130617   3.738   3.895   5.742
 9906SOL    HW230618   3.887   3.888   5.808
 9907SOL     OW30619   1.590   6.451   3.040
 9907SOL    HW130620   1.688   6.471   3.039
 9907SOL    HW230621   1.544   6.512   2.975
 9908SOL     OW30622   0.848   3.448   5.055
 9908SOL    HW130623   0.754   3.419   5.071
 9908SOL    HW230624   0.906   3.415   5.129
 9909SOL     OW30625   3.626   0.024   2.874
 9909SOL    HW130626   3.616   6.957   2.915
 9909SOL    HW230627   3.536   0.065   2.860
 9910SOL     OW30628   0.929   4.261   1.595
 9910SOL    HW130629   0.898   4.194   1.663
 9910SOL    HW230630   0.851   4.316   1.564
 9911SOL     OW30631   3.671   4.910   3.225
 9911SOL    HW130632   3.585   4.877   3.186
 9911SOL    HW230633   3.651   4.974   3.299
 9912SOL     OW30634   4.256   0.105   1.150
 9912SOL    HW130635   4.179   0.098   1.213
 9912SOL    HW230636   4.339   0.073   1.195
 9913SOL     OW30637   4.249   2.335   2.671
 9913SOL    HW130638   4.316   2.270   2.707
 9913SOL    HW230639   4.294   2.400   2.611
 9914SOL     OW30640   1.771   5.573   5.611
 9914SOL    HW130641   1.746   5.501   5.546
 9914SOL    HW230642   1.808   5.531   5.694
 9915SOL     OW30643   5.460   3.408   4.317
 9915SOL    HW130644   5.549   3.364   4.326
 9915SOL    HW230645   5.470   3.495   4.270
 9916SOL     OW30646   2.633   3.292   0.696
 9916SOL    HW130647   2.688   3.263   0.774
 9916SOL    HW230648   2.566   3.221   0.674
 9917SOL     OW30649   2.164   3.372   5.234
 9917SOL    HW130650   2.127   3.445   5.177
 9917SOL    HW230651   2.180   3.291   5.177
 9918SOL     OW30652   2.105   0.987   5.071
 9918SOL    HW130653   2.069   1.025   5.156
 9918SOL    HW230654   2.151   1.060   5.020
 9919SOL     OW30655   6.991   5.249   2.625
 9919SOL    HW130656   0.023   5.254   2.542
 9919SOL    HW230657   0.011   5.302   2.697
 9920SOL     OW30658   4.265   6.751   2.133
 9920SOL    HW130659   4.336   6.779   2.197
 9920SOL    HW230660   4.240   6.656   2.150
 9921SOL     OW30661   4.699   7.007   3.526
 9921SOL    HW130662   4.639   0.010   3.601
 9921SOL    HW230663   4.780   6.960   3.563
 9922SOL     OW30664   4.790   3.403   1.407
 9922SOL    HW130665   4.777   3.305   1.398
 9922SOL    HW230666   4.717   3.451   1.357
 9923SOL     OW30667   6.475   0.934   6.105
 9923SOL    HW130668   6.504   1.020   6.147
 9923SOL    HW230669   6.496   0.858   6.166
 9924SOL     OW30670   5.173   1.023   2.785
 9924SOL    HW130671   5.094   0.969   2.758
 9924SOL    HW230672   5.217   0.981   2.864
 9925SOL     OW30673   2.982   2.258   4.775
 9925SOL    HW130674   3.026   2.276   4.863
 9925SOL    HW230675   3.014   2.171   4.739
 9926SOL     OW30676   1.622   1.233   0.143
 9926SOL    HW130677   1.662   1.324   0.161
 9926SOL    HW230678   1.531   1.244   0.104
 9927SOL     OW30679   0.588   2.118   2.474
 9927SOL    HW130680   0.575   2.171   2.558
 9927SOL    HW230681   0.516   2.049   2.467
 9928SOL     OW30682   6.651   3.305   2.796
 9928SOL    HW130683   6.574   3.244   2.814
 9928SOL    HW230684   6.717   3.258   2.736
 9929SOL     OW30685   1.526   4.055   5.823
 9929SOL    HW130686   1.606   4.059   5.763
 9929SOL    HW230687   1.485   4.146   5.829
 9930SOL     OW30688   0.594   5.745   0.173
 9930SOL    HW130689   0.685   5.777   0.148
 9930SOL    HW230690   0.525   5.813   0.146
 9931SOL     OW30691   2.722   5.519   6.911
 9931SOL    HW130692   2.716   5.575   6.994
 9931SOL    HW230693   2.669   5.435   6.925
 9932SOL     OW30694   1.959   2.430   0.545
 9932SOL    HW130695   1.939   2.341   0.585
 9932SOL    HW230696   1.929   2.502   0.607
 9933SOL     OW30697   0.841   1.357   2.400
 9933SOL    HW130698   0.874   1.452   2.397
 9933SOL    HW230699   0.750   1.352   2.358
 9934SOL     OW30700   4.674   1.615   6.904
 9934SOL    HW130701   4.690   1.709   6.933
 9934SOL    HW230702   4.753   1.582   6.853
 9935SOL     OW30703   2.814   2.467   0.994
 9935SOL    HW130704   2.892   2.471   1.057
 9935SOL    HW230705   2.791   2.371   0.976
 9936SOL     OW30706   6.076   6.221   6.112
 9936SOL    HW130707   6.045   6.139   6.065
 9936SOL    HW230708   6.106   6.197   6.205
 9937SOL     OW30709   1.197   0.071   3.397
 9937SOL    HW130710   1.292   0.099   3.407
 9937SOL    HW230711   1.185   0.022   3.311
 9938SOL     OW30712   6.934   1.406   3.850
 9938SOL    HW130713   6.990   1.395   3.768
 9938SOL    HW230714   6.992   1.427   3.928
 9939SOL     OW30715   3.199   4.169   1.359
 9939SOL    HW130716   3.136   4.231   1.313
 9939SOL    HW230717   3.216   4.089   1.301
 9940SOL     OW30718   0.407   0.867   3.695
 9940SOL    HW130719   0.328   0.881   3.754
 9940SOL    HW230720   0.385   0.897   3.602
 9941SOL     OW30721   5.554   4.877   0.638
 9941SOL    HW130722   5.539   4.844   0.731
 9941SOL    HW230723   5.486   4.836   0.577
 9942SOL     OW30724   5.574   5.240   2.933
 9942SOL    HW130725   5.600   5.157   2.884
 9942SOL    HW230726   5.588   5.320   2.874
 9943SOL     OW30727   1.602   3.932   6.038
 9943SOL    HW130728   1.662   3.855   6.013
 9943SOL    HW230729   1.573   3.980   5.955
 9944SOL     OW30730   1.188   5.486   6.258
 9944SOL    HW130731   1.111   5.547   6.239
 9944SOL    HW230732   1.188   5.412   6.191
 9945SOL     OW30733   6.485   3.880   6.491
 9945SOL    HW130734   6.521   3.973   6.498
 9945SOL    HW230735   6.462   3.860   6.396
 9946SOL     OW30736   5.072   2.259   1.579
 9946SOL    HW130737   4.984   2.214   1.592
 9946SOL    HW230738   5.118   2.267   1.667
 9947SOL     OW30739   0.465   1.917   3.368
 9947SOL    HW130740   0.520   1.991   3.330
 9947SOL    HW230741   0.392   1.893   3.304
 9948SOL     OW30742   5.564   0.231   4.570
 9948SOL    HW130743   5.465   0.222   4.560
 9948SOL    HW230744   5.602   0.275   4.489
 9949SOL     OW30745   6.534   4.563   2.671
 9949SOL    HW130746   6.576   4.649   2.699
 9949SOL    HW230747   6.451   4.547   2.724
 9950SOL     OW30748   5.016   4.109   5.146
 9950SOL    HW130749   4.947   4.074   5.083
 9950SOL    HW230750   5.047   4.035   5.206
 9951SOL     OW30751   6.995   1.838   3.226
 9951SOL    HW130752   7.017   1.778   3.303
 9951SOL    HW230753   6.919   1.898   3.252
 9952SOL     OW30754   1.234   4.966   2.132
 9952SOL    HW130755   1.333   4.962   2.121
 9952SOL    HW230756   1.190   4.944   2.044
 9953SOL     OW30757   6.014   3.507   4.022
 9953SOL    HW130758   5.986   3.472   4.111
 9953SOL    HW230759   5.935   3.545   3.975
 9954SOL     OW30760   3.808   0.841   0.803
 9954SOL    HW130761   3.732   0.892   0.844
 9954SOL    HW230762   3.894   0.885   0.826
 9955SOL     OW30763   5.702   4.497   1.319
 9955SOL    HW130764   5.790   4.520   1.362
 9955SOL    HW230765   5.709   4.511   1.220
 9956SOL     OW30766   2.208   3.101   3.608
 9956SOL    HW130767   2.154   3.152   3.674
 9956SOL    HW230768   2.209   3.004   3.632
 9957SOL     OW30769   5.535   0.360   0.481
 9957SOL    HW130770   5.603   0.380   0.552
 9957SOL    HW230771   5.525   0.438   0.420
 9958SOL     OW30772   5.783   5.778   0.206
 9958SOL    HW130773   5.848   5.706   0.232
 9958SOL    HW230774   5.752   5.761   0.112
 9959SOL     OW30775   5.087   5.420   0.489
 9959SOL    HW130776   5.118   5.346   0.428
 9959SOL    HW230777   5.051   5.380   0.573
 9960SOL     OW30778   6.939   0.398   0.420
 9960SOL    HW130779   0.009   0.371   0.396
 9960SOL    HW230780   6.940   0.490   0.458
 9961SOL     OW30781   3.315   5.390   0.877
 9961SOL    HW130782   3.383   5.406   0.949
 9961SOL    HW230783   3.224   5.383   0.918
 9962SOL     OW30784   3.359   0.661   1.567
 9962SOL    HW130785   3.374   0.566   1.593
 9962SOL    HW230786   3.441   0.695   1.520
 9963SOL     OW30787   0.884   0.651   5.919
 9963SOL    HW130788   0.906   0.694   5.831
 9963SOL    HW230789   0.854   0.721   5.983
 9964SOL     OW30790   4.386   4.557   6.198
 9964SOL    HW130791   4.381   4.608   6.284
 9964SOL    HW230792   4.304   4.575   6.144
 9965SOL     OW30793   2.903   5.171   3.627
 9965SOL    HW130794   2.873   5.076   3.631
 9965SOL    HW230795   2.903   5.202   3.532
 9966SOL     OW30796   3.396   4.896   2.443
 9966SOL    HW130797   3.400   4.996   2.441
 9966SOL    HW230798   3.435   4.860   2.358
 9967SOL     OW30799   6.494   0.129   3.372
 9967SOL    HW130800   6.486   0.047   3.317
 9967SOL    HW230801   6.466   0.209   3.319
 9968SOL     OW30802   4.299   6.772   0.033
 9968SOL    HW130803   4.253   6.686   0.053
 9968SOL    HW230804   4.304   6.784   6.957
 9969SOL     OW30805   0.596   5.679   4.246
 9969SOL    HW130806   0.688   5.669   4.208
 9969SOL    HW230807   0.584   5.771   4.282
 9970SOL     OW30808   6.721   3.403   1.971
 9970SOL    HW130809   6.666   3.472   1.925
 9970SOL    HW230810   6.703   3.406   2.069
 9971SOL     OW30811   0.448   5.153   4.083
 9971SOL    HW130812   0.514   5.210   4.131
 9971SOL    HW230813   0.357   5.194   4.090
 9972SOL     OW30814   3.251   4.109   6.189
 9972SOL    HW130815   3.237   4.015   6.220
 9972SOL    HW230816   3.164   4.159   6.194
 9973SOL     OW30817   2.325   2.378   3.115
 9973SOL    HW130818   2.305   2.287   3.151
 9973SOL    HW230819   2.249   2.409   3.057
 9974SOL     OW30820   1.093   2.277   3.085
 9974SOL    HW130821   1.173   2.228   3.049
 9974SOL    HW230822   1.095   2.372   3.053
 9975SOL     OW30823   2.444   4.637   0.015
 9975SOL    HW130824   2.467   4.731   7.014
 9975SOL    HW230825   2.443   4.580   6.956
 9976SOL     OW30826   3.836   5.124   5.828
 9976SOL    HW130827   3.863   5.065   5.753
 9976SOL    HW230828   3.777   5.197   5.793
 9977SOL     OW30829   4.690   6.703   5.482
 9977SOL    HW130830   4.626   6.779   5.466
 9977SOL    HW230831   4.675   6.665   5.573
 9978SOL     OW30832   0.818   3.268   6.694
 9978SOL    HW130833   0.780   3.337   6.755
 9978SOL    HW230834   0.889   3.308   6.637
 9979SOL     OW30835   3.484   3.584   5.374
 9979SOL    HW130836   3.410   3.586   5.307
 9979SOL    HW230837   3.536   3.499   5.365
 9980SOL     OW30838   2.039   1.695   1.205
 9980SOL    HW130839   2.031   1.763   1.277
 9980SOL    HW230840   2.111   1.722   1.141
 9981SOL     OW30841   5.980   2.047   0.242
 9981SOL    HW130842   5.927   1.963   0.236
 9981SOL    HW230843   6.076   2.028   0.221
 9982SOL     OW30844   1.935   2.114   4.233
 9982SOL    HW130845   1.931   2.135   4.136
 9982SOL    HW230846   1.910   2.195   4.286
 9983SOL     OW30847   0.929   3.521   2.421
 9983SOL    HW130848   0.999   3.592   2.435
 9983SOL    HW230849   0.842   3.565   2.398
 9984SOL     OW30850   0.353   4.936   1.332
 9984SOL    HW130851   0.450   4.953   1.317
 9984SOL    HW230852   0.332   4.944   1.430
 9985SOL     OW30853   4.890   4.422   0.131
 9985SOL    HW130854   4.920   4.415   0.036
 9985SOL    HW230855   4.886   4.331   0.172
 9986SOL     OW30856   5.717   5.379   0.364
 9986SOL    HW130857   5.775   5.300   0.386
 9986SOL    HW230858   5.693   5.376   0.267
 9987SOL     OW30859   5.799   2.760   1.586
 9987SOL    HW130860   5.824   2.729   1.495
 9987SOL    HW230861   5.702   2.740   1.603
 9988SOL     OW30862   5.820   6.455   4.052
 9988SOL    HW130863   5.737   6.427   4.004
 9988SOL    HW230864   5.797   6.488   4.144
 9989SOL     OW30865   0.058   5.662   2.167
 9989SOL    HW130866   0.084   5.583   2.222
 9989SOL    HW230867   6.986   5.653   2.139
 9990SOL     OW30868   6.974   6.664   3.708
 9990SOL    HW130869   6.981   6.652   3.609
 9990SOL    HW230870   6.964   6.761   3.730
 9991SOL     OW30871   1.862   5.242   3.070
 9991SOL    HW130872   1.917   5.219   3.150
 9991SOL    HW230873   1.918   5.289   3.002
 9992SOL     OW30874   2.236   5.141   0.663
 9992SOL    HW130875   2.146   5.097   0.668
 9992SOL    HW230876   2.308   5.071   0.662
 9993SOL     OW30877   3.877   6.270   4.474
 9993SOL    HW130878   3.878   6.329   4.554
 9993SOL    HW230879   3.925   6.315   4.399
 9994SOL     OW30880   6.018   5.171   4.647
 9994SOL    HW130881   6.045   5.126   4.562
 9994SOL    HW230882   5.941   5.122   4.687
 9995SOL     OW30883   3.527   0.924   5.108
 9995SOL    HW130884   3.568   0.833   5.115
 9995SOL    HW230885   3.435   0.916   5.069
 9996SOL     OW30886   3.125   3.620   0.689
 9996SOL    HW130887   3.135   3.682   0.610
 9996SOL    HW230888   3.038   3.639   0.735
 9997SOL     OW30889   6.261   2.689   3.379
 9997SOL    HW130890   6.345   2.744   3.376
 9997SOL    HW230891   6.188   2.738   3.331
 9998SOL     OW30892   4.732   4.712   2.702
 9998SOL    HW130893   4.811   4.741   2.755
 9998SOL    HW230894   4.763   4.658   2.623
 9999SOL     OW30895   1.005   6.722   3.828
 9999SOL    HW130896   0.946   6.801   3.812
 9999SOL    HW230897   0.951   6.638   3.820
10000SOL     OW30898   4.903   2.482   1.250
10000SOL    HW130899   4.992   2.526   1.264
10000SOL    HW230900   4.878   2.488   1.154
10001SOL     OW30901   3.958   5.768   1.820
10001SOL    HW130902   3.897   5.826   1.766
10001SOL    HW230903   4.040   5.820   1.845
10002SOL     OW30904   3.153   1.363   1.773
10002SOL    HW130905   3.190   1.425   1.704
10002SOL    HW230906   3.074   1.405   1.818
10003SOL     OW30907   1.338   1.010   3.599
10003SOL    HW130908   1.410   1.005   3.669
10003SOL    HW230909   1.379   0.992   3.509
10004SOL     OW30910   5.977   4.210   4.896
10004SOL    HW130911   6.016   4.158   4.820
10004SOL    HW230912   6.046   4.224   4.966
10005SOL     OW30913   2.320   5.426   3.314
10005SOL    HW130914   2.406   5.474   3.331
10005SOL    HW230915   2.313   5.347   3.375
10006SOL     OW30916   5.906   0.517   5.444
10006SOL    HW130917   5.935   0.562   5.528
10006SOL    HW230918   5.863   0.583   5.382
10007SOL     OW30919   1.356   4.969   4.440
10007SOL    HW130920   1.391   4.915   4.516
10007SOL    HW230921   1.416   5.048   4.425
10008SOL     OW30922   3.924   1.478   5.787
10008SOL    HW130923   3.847   1.536   5.817
10008SOL    HW230924   3.999   1.537   5.758
10009SOL     OW30925   1.052   3.549   2.143
10009SOL    HW130926   0.969   3.494   2.150
10009SOL    HW230927   1.098   3.551   2.231
10010SOL     OW30928   2.629   3.681   0.310
10010SOL    HW130929   2.693   3.702   0.235
10010SOL    HW230930   2.666   3.717   0.395
10011SOL     OW30931   1.877   3.056   0.187
10011SOL    HW130932   1.918   3.139   0.225
10011SOL    HW230933   1.808   3.021   0.250
10012SOL     OW30934   6.143   2.444   3.334
10012SOL    HW130935   6.184   2.532   3.358
10012SOL    HW230936   6.074   2.458   3.263
10013SOL     OW30937   0.137   6.110   5.170
10013SOL    HW130938   0.146   6.200   5.213
10013SOL    HW230939   0.192   6.044   5.220
10014SOL     OW30940   0.857   0.430   3.301
10014SOL    HW130941   0.818   0.499   3.363
10014SOL    HW230942   0.916   0.476   3.234
10015SOL     OW30943   4.311   5.092   5.887
10015SOL    HW130944   4.234   5.086   5.951
10015SOL    HW230945   4.326   5.003   5.845
10016SOL     OW30946   2.033   0.384   3.950
10016SOL    HW130947   2.024   0.290   3.983
10016SOL    HW230948   2.117   0.392   3.896
10017SOL     OW30949   2.497   2.525   2.577
10017SOL    HW130950   2.412   2.564   2.541
10017SOL    HW230951   2.548   2.480   2.504
10018SOL     OW30952   6.685   3.248   5.754
10018SOL    HW130953   6.764   3.187   5.765
10018SOL    HW230954   6.636   3.255   5.840
10019SOL     OW30955   0.620   1.915   1.992
10019SOL    HW130956   0.620   1.895   2.090
10019SOL    HW230957   0.555   1.855   1.946
10020SOL     OW30958   6.241   0.687   2.273
10020SOL    HW130959   6.174   0.754   2.306
10020SOL    HW230960   6.197   0.628   2.206
10021SOL     OW30961   1.131   3.246   2.327
10021SOL    HW130962   1.099   3.171   2.384
10021SOL    HW230963   1.122   3.332   2.377
10022SOL     OW30964   2.626   5.244   6.926
10022SOL    HW130965   2.708   5.189   6.941
10022SOL    HW230966   2.577   5.256   7.012
10023SOL     OW30967   0.780   0.466   6.127
10023SOL    HW130968   0.818   0.510   6.045
10023SOL    HW230969   0.792   0.526   6.206
10024SOL     OW30970   1.743   4.837   2.504
10024SOL    HW130971   1.785   4.914   2.456
10024SOL    HW230972   1.711   4.866   2.594
10025SOL     OW30973   1.161   4.415   1.695
10025SOL    HW130974   1.113   4.348   1.638
10025SOL    HW230975   1.125   4.411   1.788
10026SOL     OW30976   4.996   1.884   4.315
10026SOL    HW130977   4.984   1.965   4.257
10026SOL    HW230978   5.092   1.875   4.340
10027SOL     OW30979   2.642   1.649   5.256
10027SOL    HW130980   2.666   1.552   5.251
10027SOL    HW230981   2.714   1.703   5.212
10028SOL     OW30982   4.221   0.607   1.220
10028SOL    HW130983   4.135   0.653   1.245
10028SOL    HW230984   4.204   0.543   1.146
10029SOL     OW30985   0.323   3.581   4.892
10029SOL    HW130986   0.407   3.607   4.845
10029SOL    HW230987   0.275   3.511   4.839
10030SOL     OW30988   2.612   0.029   4.784
10030SOL    HW130989   2.666   0.017   4.701
10030SOL    HW230990   2.515   0.036   4.760
10031SOL     OW30991   2.818   4.794   3.649
10031SOL    HW130992   2.897   4.827   3.597
10031SOL    HW230993   2.760   4.872   3.674
10032SOL     OW30994   2.988   6.273   5.034
10032SOL    HW130995   3.062   6.303   4.974
10032SOL    HW230996   3.026   6.215   5.106
10033SOL     OW30997   2.943   1.407   3.478
10033SOL    HW130998   3.020   1.461   3.444
10033SOL    HW230999   2.869   1.409   3.411
10034SOL     OW31000   2.457   0.838   3.799
10034SOL    HW131001   2.494   0.828   3.707
10034SOL    HW231002   2.414   0.752   3.827
10035SOL     OW31003   6.273   2.710   2.509
10035SOL    HW131004   6.215   2.721   2.429
10035SOL    HW231005   6.236   2.637   2.567
10036SOL     OW31006   7.008   0.914   6.881
10036SOL    HW131007   0.061   0.970   6.849
10036SOL    HW231008   0.000   0.818   6.858
10037SOL     OW31009   6.443   0.056   6.750
10037SOL    HW131010   6.522   0.014   6.796
10037SOL    HW231011   6.364   7.019   6.758
10038SOL     OW31012   4.499   6.571   6.402
10038SOL    HW131013   4.506   6.658   6.451
10038SOL    HW231014   4.591   6.534   6.386
10039SOL     OW31015   6.621   5.654   2.846
10039SOL    HW131016   6.697   5.718   2.833
10039SOL    HW231017   6.652   5.577   2.903
10040SOL     OW31018   3.242   6.486   0.967
10040SOL    HW131019   3.279   6.502   0.875
10040SOL    HW231020   3.146   6.511   0.969
10041SOL     OW31021   6.962   5.262   5.044
10041SOL    HW131022   6.933   5.167   5.044
10041SOL    HW231023   7.016   5.281   5.126
10042SOL     OW31024   0.540   0.431   5.001
10042SOL    HW131025   0.469   0.364   4.981
10042SOL    HW231026   0.569   0.475   4.916
10043SOL     OW31027   0.809   0.619   3.499
10043SOL    HW131028   0.749   0.608   3.578
10043SOL    HW231029   0.904   0.614   3.528
10044SOL     OW31030   2.855   1.578   6.135
10044SOL    HW131031   2.763   1.616   6.140
10044SOL    HW231032   2.920   1.651   6.114
10045SOL     OW31033   3.827   6.868   5.222
10045SOL    HW131034   3.739   6.846   5.179
10045SOL    HW231035   3.889   6.791   5.212
10046SOL     OW31036   0.016   2.564   1.491
10046SOL    HW131037   0.011   2.622   1.410
10046SOL    HW231038   0.003   2.619   1.573
10047SOL     OW31039   0.097   2.214   4.517
10047SOL    HW131040   0.140   2.126   4.539
10047SOL    HW231041   0.001   2.199   4.495
10048SOL     OW31042   4.077   1.825   1.494
10048SOL    HW131043   4.102   1.913   1.533
10048SOL    HW231044   4.143   1.756   1.522
10049SOL     OW31045   1.446   0.047   5.185
10049SOL    HW131046   1.463   6.975   5.209
10049SOL    HW231047   1.442   0.056   5.085
10050SOL     OW31048   5.028   2.918   3.755
10050SOL    HW131049   5.087   2.948   3.830
10050SOL    HW231050   5.075   2.848   3.701
10051SOL     OW31051   5.877   2.893   5.181
10051SOL    HW131052   5.935   2.813   5.195
10051SOL    HW231053   5.933   2.975   5.183
10052SOL     OW31054   0.478   3.061   1.531
10052SOL    HW131055   0.569   3.023   1.512
10052SOL    HW231056   0.478   3.103   1.622
10053SOL     OW31057   2.827   5.760   3.684
10053SOL    HW131058   2.898   5.748   3.754
10053SOL    HW231059   2.841   5.692   3.612
10054SOL     OW31060   3.838   5.712   4.945
10054SOL    HW131061   3.756   5.759   4.977
10054SOL    HW231062   3.858   5.740   4.851
10055SOL     OW31063   6.024   2.704   5.268
10055SOL    HW131064   5.945   2.648   5.294
10055SOL    HW231065   6.092   2.648   5.222
10056SOL     OW31066   6.574   4.931   1.404
10056SOL    HW131067   6.599   4.839   1.376
10056SOL    HW231068   6.633   4.998   1.358
10057SOL     OW31069   3.434   2.110   4.071
10057SOL    HW131070   3.511   2.134   4.130
10057SOL    HW231071   3.349   2.116   4.123
10058SOL     OW31072   0.786   5.279   3.665
10058SOL    HW131073   0.779   5.242   3.758
10058SOL    HW231074   0.789   5.379   3.669
10059SOL     OW31075   5.851   0.836   0.975
10059SOL    HW131076   5.906   0.816   1.056
10059SOL    HW231077   5.910   0.840   0.895
10060SOL     OW31078   2.727   2.802   1.638
10060SOL    HW131079   2.814   2.809   1.590
10060SOL    HW231080   2.734   2.736   1.713
10061SOL     OW31081   6.069   1.299   4.259
10061SOL    HW131082   5.997   1.335   4.200
10061SOL    HW231083   6.139   1.369   4.273
10062SOL     OW31084   6.708   6.298   3.067
10062SOL    HW131085   6.670   6.387   3.089
10062SOL    HW231086   6.748   6.257   3.149
10063SOL     OW31087   1.066   3.021   3.589
10063SOL    HW131088   1.077   2.922   3.602
10063SOL    HW231089   0.970   3.045   3.602
10064SOL     OW31090   5.726   6.608   4.259
10064SOL    HW131091   5.736   6.629   4.356
10064SOL    HW231092   5.645   6.551   4.246
10065SOL     OW31093   1.596   6.388   3.360
10065SOL    HW131094   1.555   6.371   3.271
10065SOL    HW231095   1.618   6.300   3.403
10066SOL     OW31096   0.698   6.740   3.575
10066SOL    HW131097   0.621   6.790   3.615
10066SOL    HW231098   0.768   6.725   3.645
10067SOL     OW31099   4.159   4.764   4.316
10067SOL    HW131100   4.132   4.684   4.263
10067SOL    HW231101   4.081   4.826   4.326
10068SOL     OW31102   5.101   3.597   5.107
10068SOL    HW131103   5.007   3.622   5.085
10068SOL    HW231104   5.103   3.504   5.145
10069SOL     OW31105   2.764   1.573   3.197
10069SOL    HW131106   2.707   1.610   3.124
10069SOL    HW231107   2.771   1.640   3.271
10070SOL     OW31108   0.860   6.884   4.714
10070SOL    HW131109   0.794   6.837   4.774
10070SOL    HW231110   0.890   6.821   4.642
10071SOL     OW31111   5.381   5.909   4.748
10071SOL    HW131112   5.385   5.827   4.804
10071SOL    HW231113   5.471   5.928   4.709
10072SOL     OW31114   1.036   6.501   3.123
10072SOL    HW131115   1.036   6.417   3.070
10072SOL    HW231116   0.943   6.537   3.131
10073SOL     OW31117   6.951   4.692   6.165
10073SOL    HW131118   6.910   4.783   6.169
10073SOL    HW231119   6.941   4.647   6.253
10074SOL     OW31120   2.376   0.422   6.452
10074SOL    HW131121   2.302   0.355   6.446
10074SOL    HW231122   2.464   0.375   6.449
10075SOL     OW31123   0.770   2.500   4.084
10075SOL    HW131124   0.784   2.598   4.095
10075SOL    HW231125   0.841   2.463   4.024
10076SOL     OW31126   5.226   6.968   4.606
10076SOL    HW131127   5.307   6.959   4.664
10076SOL    HW231128   5.187   0.036   4.616
10077SOL     OW31129   4.583   1.808   5.993
10077SOL    HW131130   4.592   1.712   5.966
10077SOL    HW231131   4.548   1.861   5.916
10078SOL     OW31132   5.905   0.030   5.715
10078SOL    HW131133   5.897   0.095   5.639
10078SOL    HW231134   5.902   6.961   5.679
10079SOL     OW31135   0.377   3.159   1.276
10079SOL    HW131136   0.429   3.135   1.359
10079SOL    HW231137   0.439   3.165   1.198
10080SOL     OW31138   2.183   2.744   0.078
10080SOL    HW131139   2.090   2.721   0.107
10080SOL    HW231140   2.194   2.844   0.081
10081SOL     OW31141   0.950   0.462   6.542
10081SOL    HW131142   0.894   0.509   6.474
10081SOL    HW231143   0.985   0.528   6.608
10082SOL     OW31144   5.968   2.181   2.011
10082SOL    HW131145   5.877   2.138   2.005
10082SOL    HW231146   5.957   2.280   2.007
10083SOL     OW31147   4.883   0.367   3.994
10083SOL    HW131148   4.835   0.426   4.059
10083SOL    HW231149   4.890   0.275   4.033
10084SOL     OW31150   2.642   1.215   5.515
10084SOL    HW131151   2.653   1.151   5.592
10084SOL    HW231152   2.601   1.300   5.549
10085SOL     OW31153   0.565   5.743   2.545
10085SOL    HW131154   0.665   5.735   2.543
10085SOL    HW231155   0.536   5.766   2.638
10086SOL     OW31156   6.156   4.247   2.084
10086SOL    HW131157   6.186   4.338   2.114
10086SOL    HW231158   6.149   4.246   1.985
10087SOL     OW31159   1.583   0.471   3.983
10087SOL    HW131160   1.582   0.427   4.073
10087SOL    HW231161   1.624   0.562   3.991
10088SOL     OW31162   0.296   6.948   4.562
10088SOL    HW131163   0.288   6.989   4.471
10088SOL    HW231164   0.344   6.860   4.555
10089SOL     OW31165   1.642   2.552   1.803
10089SOL    HW131166   1.735   2.543   1.768
10089SOL    HW231167   1.610   2.463   1.836
10090SOL     OW31168   1.141   3.963   0.852
10090SOL    HW131169   1.135   3.917   0.940
10090SOL    HW231170   1.161   4.060   0.866
10091SOL     OW31171   1.111   2.942   4.860
10091SOL    HW131172   1.202   2.932   4.901
10091SOL    HW231173   1.091   2.861   4.804
10092SOL     OW31174   1.848   3.816   5.230
10092SOL    HW131175   1.939   3.796   5.194
10092SOL    HW231176   1.817   3.905   5.198
10093SOL     OW31177   6.252   5.437   5.926
10093SOL    HW131178   6.248   5.423   6.025
10093SOL    HW231179   6.160   5.451   5.891
10094SOL     OW31180   2.002   1.576   2.530
10094SOL    HW131181   1.987   1.480   2.554
10094SOL    HW231182   1.971   1.593   2.436
10095SOL     OW31183   7.023   0.954   5.985
10095SOL    HW131184   0.019   0.857   5.968
10095SOL    HW231185   6.926   0.971   5.971
10096SOL     OW31186   0.652   5.444   2.662
10096SOL    HW131187   0.685   5.512   2.727
10096SOL    HW231188   0.584   5.385   2.706
10097SOL     OW31189   1.249   0.687   0.892
10097SOL    HW131190   1.169   0.628   0.900
10097SOL    HW231191   1.235   0.769   0.948
10098SOL     OW31192   2.402   4.911   6.917
10098SOL    HW131193   2.325   4.865   6.872
10098SOL    HW231194   2.373   5.002   6.948
10099SOL     OW31195   6.785   4.760   5.341
10099SOL    HW131196   6.686   4.761   5.351
10099SOL    HW231197   6.819   4.854   5.330
10100SOL     OW31198   4.991   0.825   4.580
10100SOL    HW131199   5.029   0.912   4.614
10100SOL    HW231200   4.950   0.775   4.657
10101SOL     OW31201   0.102   4.729   2.371
10101SOL    HW131202   0.010   4.695   2.355
10101SOL    HW231203   0.135   4.696   2.460
10102SOL     OW31204   3.119   1.754   1.792
10102SOL    HW131205   3.189   1.824   1.781
10102SOL    HW231206   3.162   1.665   1.803
10103SOL     OW31207   2.693   1.555   5.884
10103SOL    HW131208   2.697   1.655   5.891
10103SOL    HW231209   2.762   1.515   5.944
10104SOL     OW31210   1.033   5.525   5.270
10104SOL    HW131211   1.008   5.481   5.184
10104SOL    HW231212   0.961   5.509   5.338
10105SOL     OW31213   1.776   0.355   6.811
10105SOL    HW131214   1.739   0.443   6.840
10105SOL    HW231215   1.844   0.369   6.739
10106SOL     OW31216   5.356   5.925   0.564
10106SOL    HW131217   5.443   5.954   0.603
10106SOL    HW231218   5.342   5.969   0.475
10107SOL     OW31219   5.728   1.613   5.894
10107SOL    HW131220   5.655   1.634   5.829
10107SOL    HW231221   5.693   1.550   5.963
10108SOL     OW31222   6.942   6.990   0.321
10108SOL    HW131223   6.960   6.903   0.367
10108SOL    HW231224   6.845   7.010   0.324
10109SOL     OW31225   4.329   5.460   3.941
10109SOL    HW131226   4.334   5.530   4.011
10109SOL    HW231227   4.259   5.393   3.966
10110SOL     OW31228   3.981   0.655   5.900
10110SOL    HW131229   4.029   0.640   5.814
10110SOL    HW231230   3.943   0.568   5.932
10111SOL     OW31231   0.342   3.131   2.592
10111SOL    HW131232   0.301   3.218   2.567
10111SOL    HW231233   0.386   3.139   2.681
10112SOL     OW31234   4.719   4.286   5.968
10112SOL    HW131235   4.713   4.340   6.052
10112SOL    HW231236   4.635   4.232   5.957
10113SOL     OW31237   3.824   0.074   6.929
10113SOL    HW131238   3.798   0.106   7.020
10113SOL    HW231239   3.802   0.145   6.862
10114SOL     OW31240   5.270   1.080   0.996
10114SOL    HW131241   5.240   1.066   0.902
10114SOL    HW231242   5.227   1.162   1.033
10115SOL     OW31243   1.825   2.409   3.701
10115SOL    HW131244   1.766   2.476   3.655
10115SOL    HW231245   1.772   2.360   3.770
10116SOL     OW31246   0.890   1.107   1.430
10116SOL    HW131247   0.950   1.094   1.509
10116SOL    HW231248   0.800   1.070   1.449
10117SOL     OW31249   5.586   0.205   5.856
10117SOL    HW131250   5.566   0.303   5.854
10117SOL    HW231251   5.581   0.169   5.763
10118SOL     OW31252   6.844   5.519   2.105
10118SOL    HW131253   6.788   5.532   2.024
10118SOL    HW231254   6.817   5.435   2.152
10119SOL     OW31255   2.519   0.719   5.611
10119SOL    HW131256   2.452   0.763   5.551
10119SOL    HW231257   2.497   0.622   5.619
10120SOL     OW31258   6.901   3.005   3.745
10120SOL    HW131259   6.861   2.968   3.661
10120SOL    HW231260   6.838   2.990   3.822
10121SOL     OW31261   6.143   4.527   4.884
10121SOL    HW131262   6.226   4.478   4.911
10121SOL    HW231263   6.131   4.522   4.785
10122SOL     OW31264   5.703   3.452   0.290
10122SOL    HW131265   5.626   3.424   0.231
10122SOL    HW231266   5.681   3.430   0.385
10123SOL     OW31267   6.877   6.254   0.678
10123SOL    HW131268   6.974   6.262   0.658
10123SOL    HW231269   6.861   6.176   0.738
10124SOL     OW31270   3.173   4.014   0.024
10124SOL    HW131271   3.166   4.108   0.059
10124SOL    HW231272   3.087   3.990   7.002
10125SOL     OW31273   1.556   0.289   2.028
10125SOL    HW131274   1.552   0.388   2.012
10125SOL    HW231275   1.485   0.263   2.094
10126SOL     OW31276   6.468   5.285   0.802
10126SOL    HW131277   6.500   5.378   0.822
10126SOL    HW231278   6.395   5.289   0.735
10127SOL     OW31279   3.226   5.682   5.233
10127SOL    HW131280   3.323   5.683   5.209
10127SOL    HW231281   3.195   5.587   5.244
10128SOL     OW31282   0.157   2.134   0.874
10128SOL    HW131283   0.156   2.201   0.948
10128SOL    HW231284   0.069   2.135   0.827
10129SOL     OW31285   5.928   2.165   3.578
10129SOL    HW131286   6.017   2.160   3.622
10129SOL    HW231287   5.938   2.143   3.481
10130SOL     OW31288   6.694   5.719   2.238
10130SOL    HW131289   6.742   5.807   2.242
10130SOL    HW231290   6.742   5.658   2.176
10131SOL     OW31291   0.473   1.065   1.877
10131SOL    HW131292   0.409   1.117   1.933
10131SOL    HW231293   0.533   1.127   1.827
10132SOL     OW31294   2.888   6.346   2.796
10132SOL    HW131295   2.842   6.376   2.879
10132SOL    HW231296   2.984   6.327   2.816
10133SOL     OW31297   4.544   6.000   3.526
10133SOL    HW131298   4.622   5.942   3.548
10133SOL    HW231299   4.459   5.953   3.550
10134SOL     OW31300   0.116   1.349   3.661
10134SOL    HW131301   0.193   1.402   3.698
10134SOL    HW231302   0.121   1.350   3.561
10135SOL     OW31303   3.966   5.028   2.848
10135SOL    HW131304   4.031   4.961   2.812
10135SOL    HW231305   3.891   5.041   2.783
10136SOL     OW31306   6.238   0.469   3.370
10136SOL    HW131307   6.287   0.530   3.433
10136SOL    HW231308   6.152   0.512   3.342
10137SOL     OW31309   6.387   5.558   4.425
10137SOL    HW131310   6.456   5.489   4.402
10137SOL    HW231311   6.356   5.603   4.341
10138SOL     OW31312   6.162   1.889   6.950
10138SOL    HW131313   6.236   1.883   6.884
10138SOL    HW231314   6.130   1.984   6.956
10139SOL     OW31315   3.520   2.960   3.263
10139SOL    HW131316   3.424   2.976   3.243
10139SOL    HW231317   3.571   2.950   3.178
10140SOL     OW31318   6.857   5.261   6.916
10140SOL    HW131319   6.899   5.171   6.905
10140SOL    HW231320   6.805   5.284   6.834
10141SOL     OW31321   1.854   1.404   4.299
10141SOL    HW131322   1.937   1.452   4.270
10141SOL    HW231323   1.880   1.321   4.348
10142SOL     OW31324   3.927   5.813   4.692
10142SOL    HW131325   4.010   5.839   4.741
10142SOL    HW231326   3.944   5.815   4.593
10143SOL     OW31327   4.926   0.260   1.385
10143SOL    HW131328   4.960   0.310   1.305
10143SOL    HW231329   4.826   0.261   1.384
10144SOL     OW31330   3.231   5.945   4.525
10144SOL    HW131331   3.164   5.923   4.454
10144SOL    HW231332   3.184   5.983   4.604
10145SOL     OW31333   2.932   5.842   5.868
10145SOL    HW131334   2.931   5.869   5.964
10145SOL    HW231335   2.839   5.832   5.835
10146SOL     OW31336   4.298   5.425   4.345
10146SOL    HW131337   4.223   5.485   4.370
10146SOL    HW231338   4.271   5.330   4.357
10147SOL     OW31339   4.906   4.160   3.900
10147SOL    HW131340   4.978   4.198   3.843
10147SOL    HW231341   4.913   4.060   3.902
10148SOL     OW31342   6.078   5.762   0.551
10148SOL    HW131343   6.041   5.819   0.477
10148SOL    HW231344   6.167   5.727   0.525
10149SOL     OW31345   4.048   2.217   1.409
10149SOL    HW131346   4.093   2.146   1.464
10149SOL    HW231347   4.073   2.205   1.313
10150SOL     OW31348   5.070   4.265   0.573
10150SOL    HW131349   5.142   4.271   0.641
10150SOL    HW231350   4.997   4.205   0.607
10151SOL     OW31351   1.278   7.006   6.227
10151SOL    HW131352   1.265   0.078   6.203
10151SOL    HW231353   1.376   6.984   6.224
10152SOL     OW31354   0.687   4.942   3.804
10152SOL    HW131355   0.679   4.912   3.709
10152SOL    HW231356   0.683   4.862   3.865
10153SOL     OW31357   4.922   6.024   3.747
10153SOL    HW131358   5.015   6.047   3.719
10153SOL    HW231359   4.889   6.091   3.813
10154SOL     OW31360   6.607   5.486   5.999
10154SOL    HW131361   6.573   5.472   5.906
10154SOL    HW231362   6.680   5.555   5.997
10155SOL     OW31363   4.286   0.976   5.785
10155SOL    HW131364   4.200   0.927   5.773
10155SOL    HW231365   4.267   1.072   5.807
10156SOL     OW31366   5.287   0.112   2.200
10156SOL    HW131367   5.345   0.046   2.151
10156SOL    HW231368   5.309   0.110   2.297
10157SOL     OW31369   5.890   1.079   6.294
10157SOL    HW131370   5.890   0.992   6.345
10157SOL    HW231371   5.980   1.092   6.252
10158SOL     OW31372   4.335   3.356   0.248
10158SOL    HW131373   4.361   3.438   0.299
10158SOL    HW231374   4.371   3.362   0.155
10159SOL     OW31375   2.320   2.353   6.192
10159SOL    HW131376   2.327   2.353   6.292
10159SOL    HW231377   2.256   2.425   6.164
10160SOL     OW31378   0.395   4.943   3.565
10160SOL    HW131379   0.390   4.954   3.664
10160SOL    HW231380   0.454   4.865   3.543
10161SOL     OW31381   3.282   5.189   6.282
10161SOL    HW131382   3.232   5.115   6.326
10161SOL    HW231383   3.245   5.277   6.312
10162SOL     OW31384   2.434   2.946   6.009
10162SOL    HW131385   2.388   3.027   5.973
10162SOL    HW231386   2.371   2.894   6.067
10163SOL     OW31387   6.562   3.985   5.916
10163SOL    HW131388   6.566   3.890   5.886
10163SOL    HW231389   6.489   3.996   5.983
10164SOL     OW31390   6.289   3.025   5.146
10164SOL    HW131391   6.297   3.125   5.153
10164SOL    HW231392   6.377   2.987   5.119
10165SOL     OW31393   0.670   2.104   4.360
10165SOL    HW131394   0.722   2.113   4.275
10165SOL    HW231395   0.704   2.168   4.428
10166SOL     OW31396   2.577   1.809   1.625
10166SOL    HW131397   2.500   1.810   1.688
10166SOL    HW231398   2.638   1.886   1.644
10167SOL     OW31399   5.110   0.877   6.693
10167SOL    HW131400   5.071   0.889   6.602
10167SOL    HW231401   5.131   0.967   6.732
10168SOL     OW31402   6.608   4.123   4.330
10168SOL    HW131403   6.594   4.208   4.381
10168SOL    HW231404   6.628   4.049   4.394
10169SOL     OW31405   6.480   4.887   2.922
10169SOL    HW131406   6.554   4.876   2.856
10169SOL    HW231407   6.398   4.918   2.875
10170SOL     OW31408   1.007   3.862   5.218
10170SOL    HW131409   0.918   3.872   5.173
10170SOL    HW231410   1.076   3.914   5.168
10171SOL     OW31411   6.381   4.263   5.549
10171SOL    HW131412   6.458   4.311   5.592
10171SOL    HW231413   6.312   4.244   5.618
10172SOL     OW31414   4.870   0.437   2.636
10172SOL    HW131415   4.805   0.513   2.636
10172SOL    HW231416   4.927   0.441   2.718
10173SOL     OW31417   1.566   1.458   1.104
10173SOL    HW131418   1.547   1.417   1.193
10173SOL    HW231419   1.651   1.511   1.110
10174SOL     OW31420   6.064   4.677   2.859
10174SOL    HW131421   6.031   4.736   2.786
10174SOL    HW231422   6.058   4.725   2.946
10175SOL     OW31423   6.265   2.222   5.079
10175SOL    HW131424   6.263   2.131   5.119
10175SOL    HW231425   6.336   2.277   5.124
10176SOL     OW31426   1.917   3.454   6.463
10176SOL    HW131427   1.997   3.397   6.486
10176SOL    HW231428   1.876   3.489   6.547
10177SOL     OW31429   2.870   6.776   0.429
10177SOL    HW131430   2.938   6.807   0.362
10177SOL    HW231431   2.901   6.690   0.470
10178SOL     OW31432   5.821   2.514   4.426
10178SOL    HW131433   5.914   2.540   4.451
10178SOL    HW231434   5.809   2.415   4.437
10179SOL     OW31435   1.464   2.227   6.554
10179SOL    HW131436   1.418   2.285   6.621
10179SOL    HW231437   1.429   2.134   6.560
10180SOL     OW31438   2.499   5.648   5.691
10180SOL    HW131439   2.409   5.605   5.701
10180SOL    HW231440   2.494   5.716   5.618
10181SOL     OW31441   6.240   3.160   1.634
10181SOL    HW131442   6.195   3.240   1.592
10181SOL    HW231443   6.186   3.078   1.614
10182SOL     OW31444   6.019   0.962   1.499
10182SOL    HW131445   5.956   1.039   1.494
10182SOL    HW231446   6.110   0.991   1.468
10183SOL     OW31447   1.039   1.773   6.605
10183SOL    HW131448   0.989   1.857   6.582
10183SOL    HW231449   1.025   1.705   6.533
10184SOL     OW31450   4.996   1.620   6.210
10184SOL    HW131451   5.083   1.670   6.213
10184SOL    HW231452   4.925   1.679   6.172
10185SOL     OW31453   4.799   7.010   1.075
10185SOL    HW131454   4.857   0.004   1.156
10185SOL    HW231455   4.763   6.917   1.079
10186SOL     OW31456   4.766   2.874   2.966
10186SOL    HW131457   4.712   2.791   2.950
10186SOL    HW231458   4.808   2.904   2.880
10187SOL     OW31459   0.584   2.195   1.957
10187SOL    HW131460   0.602   2.131   2.032
10187SOL    HW231461   0.621   2.158   1.872
10188SOL     OW31462   3.783   6.515   0.585
10188SOL    HW131463   3.712   6.445   0.578
10188SOL    HW231464   3.775   6.563   0.672
10189SOL     OW31465   2.314   6.626   5.019
10189SOL    HW131466   2.279   6.535   4.997
10189SOL    HW231467   2.402   6.616   5.066
10190SOL     OW31468   4.463   2.646   0.265
10190SOL    HW131469   4.397   2.614   0.333
10190SOL    HW231470   4.455   2.745   0.255
10191SOL     OW31471   5.141   4.549   6.484
10191SOL    HW131472   5.050   4.530   6.521
10191SOL    HW231473   5.199   4.588   6.556
10192SOL     OW31474   3.389   0.901   4.658
10192SOL    HW131475   3.307   0.955   4.679
10192SOL    HW231476   3.370   0.840   4.581
10193SOL     OW31477   4.482   4.184   0.779
10193SOL    HW131478   4.502   4.087   0.790
10193SOL    HW231479   4.388   4.195   0.747
10194SOL     OW31480   6.104   4.309   5.388
10194SOL    HW131481   6.070   4.371   5.317
10194SOL    HW231482   6.201   4.293   5.373
10195SOL     OW31483   0.002   4.777   1.505
10195SOL    HW131484   0.048   4.703   1.553
10195SOL    HW231485   6.983   4.838   1.572
10196SOL     OW31486   6.883   1.316   4.936
10196SOL    HW131487   6.944   1.354   4.866
10196SOL    HW231488   6.914   1.224   4.961
10197SOL     OW31489   6.676   0.884   5.667
10197SOL    HW131490   6.595   0.942   5.656
10197SOL    HW231491   6.720   0.870   5.578
10198SOL     OW31492   3.790   0.159   2.453
10198SOL    HW131493   3.721   0.180   2.522
10198SOL    HW231494   3.875   0.205   2.475
10199SOL     OW31495   1.111   2.903   5.482
10199SOL    HW131496   1.039   2.877   5.546
10199SOL    HW231497   1.087   2.990   5.438
10200SOL     OW31498   5.877   2.891   1.332
10200SOL    HW131499   5.810   2.945   1.382
10200SOL    HW231500   5.966   2.898   1.377
10201SOL     OW31501   0.953   4.358   1.205
10201SOL    HW131502   1.010   4.296   1.259
10201SOL    HW231503   0.922   4.311   1.122
10202SOL     OW31504   3.891   1.409   5.495
10202SOL    HW131505   3.964   1.474   5.476
10202SOL    HW231506   3.863   1.417   5.591
10203SOL     OW31507   5.926   2.822   4.910
10203SOL    HW131508   5.942   2.727   4.884
10203SOL    HW231509   5.896   2.826   5.006
10204SOL     OW31510   5.097   0.034   6.328
10204SOL    HW131511   5.024   0.093   6.361
10204SOL    HW231512   5.111   6.982   6.392
10205SOL     OW31513   1.259   0.803   6.709
10205SOL    HW131514   1.358   0.788   6.703
10205SOL    HW231515   1.218   0.783   6.620
10206SOL     OW31516   1.210   1.009   5.757
10206SOL    HW131517   1.128   1.041   5.803
10206SOL    HW231518   1.257   0.943   5.815
10207SOL     OW31519   1.444   1.596   5.879
10207SOL    HW131520   1.416   1.580   5.784
10207SOL    HW231521   1.490   1.514   5.914
10208SOL     OW31522   6.283   4.845   4.858
10208SOL    HW131523   6.212   4.779   4.878
10208SOL    HW231524   6.260   4.933   4.900
10209SOL     OW31525   6.769   0.003   6.518
10209SOL    HW131526   6.750   0.100   6.507
10209SOL    HW231527   6.722   6.975   6.447
10210SOL     OW31528   4.065   5.901   1.450
10210SOL    HW131529   4.007   5.869   1.375
10210SOL    HW231530   4.022   5.980   1.494
10211SOL     OW31531   4.205   6.149   5.361
10211SOL    HW131532   4.177   6.217   5.294
10211SOL    HW231533   4.127   6.123   5.418
10212SOL     OW31534   0.815   0.108   6.005
10212SOL    HW131535   0.895   0.055   5.979
10212SOL    HW231536   0.789   0.169   5.930
10213SOL     OW31537   4.967   2.013   0.296
10213SOL    HW131538   5.004   1.926   0.329
10213SOL    HW231539   4.906   1.996   0.219
10214SOL     OW31540   0.292   2.867   1.455
10214SOL    HW131541   0.220   2.823   1.509
10214SOL    HW231542   0.344   2.929   1.514
10215SOL     OW31543   3.438   3.272   2.602
10215SOL    HW131544   3.353   3.223   2.587
10215SOL    HW231545   3.499   3.259   2.524
10216SOL     OW31546   6.549   0.170   1.976
10216SOL    HW131547   6.641   0.201   1.951
10216SOL    HW231548   6.502   0.244   2.025
10217SOL     OW31549   2.974   1.183   3.185
10217SOL    HW131550   3.035   1.164   3.262
10217SOL    HW231551   2.946   1.096   3.143
10218SOL     OW31552   1.268   2.747   2.906
10218SOL    HW131553   1.350   2.696   2.881
10218SOL    HW231554   1.253   2.821   2.841
10219SOL     OW31555   0.680   0.995   2.259
10219SOL    HW131556   0.696   1.092   2.274
10219SOL    HW231557   0.582   0.979   2.249
10220SOL     OW31558   3.407   2.708   1.628
10220SOL    HW131559   3.366   2.618   1.641
10220SOL    HW231560   3.504   2.697   1.603
10221SOL     OW31561   1.047   6.045   3.078
10221SOL    HW131562   0.983   5.970   3.097
10221SOL    HW231563   1.135   6.026   3.123
10222SOL     OW31564   3.379   4.026   4.698
10222SOL    HW131565   3.360   4.076   4.782
10222SOL    HW231566   3.476   4.035   4.675
10223SOL     OW31567   0.925   5.524   1.770
10223SOL    HW131568   0.879   5.597   1.821
10223SOL    HW231569   0.882   5.436   1.792
10224SOL     OW31570   6.119   4.248   3.077
10224SOL    HW131571   6.151   4.248   2.982
10224SOL    HW231572   6.164   4.321   3.128
10225SOL     OW31573   2.259   3.510   6.141
10225SOL    HW131574   2.278   3.481   6.235
10225SOL    HW231575   2.344   3.504   6.087
10226SOL     OW31576   4.252   2.889   0.269
10226SOL    HW131577   4.209   2.801   0.290
10226SOL    HW231578   4.183   2.962   0.273
10227SOL     OW31579   5.513   3.920   1.345
10227SOL    HW131580   5.416   3.938   1.333
10227SOL    HW231581   5.560   3.928   1.258
10228SOL     OW31582   5.270   0.506   0.820
10228SOL    HW131583   5.175   0.536   0.831
10228SOL    HW231584   5.329   0.559   0.880
10229SOL     OW31585   0.460   3.576   4.360
10229SOL    HW131586   0.545   3.552   4.407
10229SOL    HW231587   0.477   3.649   4.294
10230SOL     OW31588   6.829   6.391   2.037
10230SOL    HW131589   6.814   6.422   1.944
10230SOL    HW231590   6.881   6.459   2.088
10231SOL     OW31591   1.739   5.502   3.285
10231SOL    HW131592   1.728   5.574   3.216
10231SOL    HW231593   1.664   5.508   3.351
10232SOL     OW31594   4.778   5.870   3.598
10232SOL    HW131595   4.809   5.863   3.503
10232SOL    HW231596   4.841   5.927   3.650
10233SOL     OW31597   4.334   4.267   6.355
10233SOL    HW131598   4.325   4.300   6.262
10233SOL    HW231599   4.288   4.178   6.364
10234SOL     OW31600   7.018   0.629   1.801
10234SOL    HW131601   0.021   0.724   1.818
10234SOL    HW231602   6.973   0.623   1.712
10235SOL     OW31603   1.253   1.437   3.337
10235SOL    HW131604   1.165   1.417   3.292
10235SOL    HW231605   1.269   1.371   3.410
10236SOL     OW31606   2.618   6.812   1.814
10236SOL    HW131607   2.618   6.717   1.782
10236SOL    HW231608   2.524   6.842   1.831
10237SOL     OW31609   0.090   3.437   6.458
10237SOL    HW131610   0.012   3.374   6.467
10237SOL    HW231611   0.142   3.414   6.376
10238SOL     OW31612   3.599   5.957   1.249
10238SOL    HW131613   3.650   5.913   1.322
10238SOL    HW231614   3.654   5.958   1.165
10239SOL     OW31615   1.689   2.947   4.423
10239SOL    HW131616   1.715   2.939   4.519
10239SOL    HW231617   1.614   2.884   4.403
10240SOL     OW31618   2.862   6.361   1.100
10240SOL    HW131619   2.764   6.352   1.083
10240SOL    HW231620   2.914   6.328   1.021
10241SOL     OW31621   3.951   2.256   1.751
10241SOL    HW131622   4.026   2.320   1.769
10241SOL    HW231623   3.879   2.269   1.820
10242SOL     OW31624   6.819   2.538   6.944
10242SOL    HW131625   6.794   2.441   6.945
10242SOL    HW231626   6.901   2.552   6.999
10243SOL     OW31627   2.411   5.292   0.849
10243SOL    HW131628   2.340   5.244   0.797
10243SOL    HW231629   2.369   5.334   0.930
10244SOL     OW31630   2.501   4.102   1.377
10244SOL    HW131631   2.569   4.065   1.314
10244SOL    HW231632   2.546   4.126   1.464
10245SOL     OW31633   4.120   4.413   0.733
10245SOL    HW131634   4.144   4.403   0.829
10245SOL    HW231635   4.030   4.373   0.716
10246SOL     OW31636   3.365   3.174   4.656
10246SOL    HW131637   3.280   3.227   4.657
10246SOL    HW231638   3.343   3.076   4.648
10247SOL     OW31639   0.788   2.790   4.946
10247SOL    HW131640   0.773   2.862   5.013
10247SOL    HW231641   0.882   2.757   4.952
10248SOL     OW31642   0.901   0.000   3.539
10248SOL    HW131643   1.000   7.011   3.528
10248SOL    HW231644   0.861   0.028   3.452
10249SOL     OW31645   2.812   4.801   6.323
10249SOL    HW131646   2.771   4.868   6.261
10249SOL    HW231647   2.759   4.716   6.319
10250SOL     OW31648   4.841   2.241   0.133
10250SOL    HW131649   4.769   2.275   0.194
10250SOL    HW231650   4.892   2.318   0.095
10251SOL     OW31651   2.214   0.129   4.558
10251SOL    HW131652   2.120   0.116   4.525
10251SOL    HW231653   2.254   0.209   4.513
10252SOL     OW31654   5.523   4.250   5.908
10252SOL    HW131655   5.585   4.324   5.882
10252SOL    HW231656   5.571   4.163   5.906
10253SOL     OW31657   4.009   6.935   6.628
10253SOL    HW131658   3.966   6.964   6.542
10253SOL    HW231659   4.095   6.983   6.640
10254SOL     OW31660   5.255   1.201   4.457
10254SOL    HW131661   5.291   1.260   4.384
10254SOL    HW231662   5.332   1.153   4.501
10255SOL     OW31663   3.915   5.387   1.873
10255SOL    HW131664   3.879   5.315   1.813
10255SOL    HW231665   3.856   5.395   1.953
10256SOL     OW31666   4.222   0.612   2.868
10256SOL    HW131667   4.217   0.651   2.776
10256SOL    HW231668   4.247   0.515   2.863
10257SOL     OW31669   3.226   4.932   2.935
10257SOL    HW131670   3.252   4.885   2.851
10257SOL    HW231671   3.287   5.010   2.950
10258SOL     OW31672   1.730   1.581   1.709
10258SOL    HW131673   1.786   1.637   1.770
10258SOL    HW231674   1.782   1.559   1.627
10259SOL     OW31675   0.522   3.675   3.668
10259SOL    HW131676   0.484   3.711   3.583
10259SOL    HW231677   0.560   3.750   3.722
10260SOL     OW31678   1.229   1.262   3.554
10260SOL    HW131679   1.300   1.306   3.609
10260SOL    HW231680   1.255   1.167   3.537
10261SOL     OW31681   6.641   3.611   1.047
10261SOL    HW131682   6.662   3.690   0.990
10261SOL    HW231683   6.543   3.609   1.066
10262SOL     OW31684   3.462   1.265   0.098
10262SOL    HW131685   3.384   1.241   0.040
10262SOL    HW231686   3.453   1.360   0.128
10263SOL     OW31687   5.951   0.702   1.531
10263SOL    HW131688   5.867   0.687   1.584
10263SOL    HW231689   5.968   0.801   1.524
10264SOL     OW31690   6.668   5.274   6.712
10264SOL    HW131691   6.753   5.288   6.661
10264SOL    HW231692   6.606   5.218   6.658
10265SOL     OW31693   1.982   1.764   0.127
10265SOL    HW131694   1.965   1.830   0.200
10265SOL    HW231695   2.081   1.758   0.111
10266SOL     OW31696   2.853   3.493   2.314
10266SOL    HW131697   2.869   3.401   2.349
10266SOL    HW231698   2.802   3.488   2.228
10267SOL     OW31699   5.839   1.147   0.826
10267SOL    HW131700   5.882   1.221   0.878
10267SOL    HW231701   5.830   1.067   0.884
10268SOL     OW31702   4.398   0.400   1.373
10268SOL    HW131703   4.429   0.483   1.420
10268SOL    HW231704   4.376   0.422   1.278
10269SOL     OW31705   2.532   1.843   6.364
10269SOL    HW131706   2.536   1.759   6.418
10269SOL    HW231707   2.467   1.907   6.406
10270SOL     OW31708   3.323   6.328   2.233
10270SOL    HW131709   3.252   6.307   2.301
10270SOL    HW231710   3.286   6.312   2.141
10271SOL     OW31711   1.288   2.262   0.006
10271SOL    HW131712   1.190   2.252   0.020
10271SOL    HW231713   1.319   2.347   0.048
10272SOL     OW31714   6.324   0.310   4.776
10272SOL    HW131715   6.407   0.271   4.817
10272SOL    HW231716   6.251   0.242   4.780
10273SOL     OW31717   2.219   5.249   3.477
10273SOL    HW131718   2.127   5.278   3.503
10273SOL    HW231719   2.241   5.162   3.520
10274SOL     OW31720   0.153   5.062   5.171
10274SOL    HW131721   0.113   4.983   5.217
10274SOL    HW231722   0.241   5.037   5.132
10275SOL     OW31723   0.296   0.495   3.154
10275SOL    HW131724   0.368   0.558   3.180
10275SOL    HW231725   0.207   0.536   3.174
10276SOL     OW31726   3.925   6.002   6.034
10276SOL    HW131727   3.917   6.087   5.981
10276SOL    HW231728   3.851   5.940   6.008
10277SOL     OW31729   0.480   6.710   4.559
10277SOL    HW131730   0.546   6.672   4.494
10277SOL    HW231731   0.466   6.646   4.634
10278SOL     OW31732   0.019   0.580   5.290
10278SOL    HW131733   7.004   0.520   5.221
10278SOL    HW231734   0.052   0.526   5.367
10279SOL     OW31735   1.759   6.018   4.306
10279SOL    HW131736   1.723   6.085   4.241
10279SOL    HW231737   1.858   6.031   4.315
10280SOL     OW31738   5.306   4.021   0.466
10280SOL    HW131739   5.280   3.955   0.536
10280SOL    HW231740   5.406   4.035   0.469
10281SOL     OW31741   6.791   2.421   3.939
10281SOL    HW131742   6.846   2.455   3.862
10281SOL    HW231743   6.769   2.325   3.923
10282SOL     OW31744   5.274   3.833   3.303
10282SOL    HW131745   5.306   3.897   3.234
10282SOL    HW231746   5.343   3.762   3.317
10283SOL     OW31747   0.725   3.961   0.865
10283SOL    HW131748   0.766   3.943   0.775
10283SOL    HW231749   0.658   4.034   0.858
10284SOL     OW31750   0.336   2.698   3.974
10284SOL    HW131751   0.260   2.740   3.924
10284SOL    HW231752   0.387   2.637   3.912
10285SOL     OW31753   5.231   6.196   4.736
10285SOL    HW131754   5.252   6.245   4.820
10285SOL    HW231755   5.299   6.124   4.721
10286SOL     OW31756   2.751   1.345   4.403
10286SOL    HW131757   2.691   1.419   4.432
10286SOL    HW231758   2.696   1.269   4.370
10287SOL     OW31759   2.287   5.850   3.138
10287SOL    HW131760   2.254   5.797   3.216
10287SOL    HW231761   2.329   5.789   3.071
10288SOL     OW31762   3.658   6.990   5.679
10288SOL    HW131763   3.675   6.928   5.603
10288SOL    HW231764   3.560   7.005   5.689
10289SOL     OW31765   2.473   5.844   6.565
10289SOL    HW131766   2.531   5.823   6.644
10289SOL    HW231767   2.468   5.764   6.506
10290SOL     OW31768   3.088   3.060   2.343
10290SOL    HW131769   3.120   3.151   2.316
10290SOL    HW231770   2.989   3.063   2.358
10291SOL     OW31771   2.510   1.250   2.593
10291SOL    HW131772   2.512   1.173   2.656
10291SOL    HW231773   2.421   1.253   2.547
10292SOL     OW31774   6.167   6.408   6.602
10292SOL    HW131775   6.196   6.499   6.575
10292SOL    HW231776   6.224   6.375   6.678
10293SOL     OW31777   0.872   4.061   4.255
10293SOL    HW131778   0.836   4.005   4.330
10293SOL    HW231779   0.796   4.095   4.199
10294SOL     OW31780   3.574   1.582   2.237
10294SOL    HW131781   3.511   1.623   2.171
10294SOL    HW231782   3.661   1.633   2.236
10295SOL     OW31783   0.904   2.533   6.960
10295SOL    HW131784   0.855   2.609   6.916
10295SOL    HW231785   0.876   2.447   6.918
10296SOL     OW31786   5.915   1.372   5.842
10296SOL    HW131787   5.853   1.415   5.908
10296SOL    HW231788   6.009   1.379   5.875
10297SOL     OW31789   3.082   1.811   6.610
10297SOL    HW131790   3.076   1.770   6.519
10297SOL    HW231791   3.004   1.871   6.625
10298SOL     OW31792   0.489   2.364   2.965
10298SOL    HW131793   0.447   2.297   3.026
10298SOL    HW231794   0.419   2.421   2.924
10299SOL     OW31795   4.096   6.147   2.339
10299SOL    HW131796   4.062   6.168   2.431
10299SOL    HW231797   4.196   6.142   2.340
10300SOL     OW31798   0.093   3.175   1.400
10300SOL    HW131799   0.079   3.088   1.446
10300SOL    HW231800   0.184   3.178   1.360
10301SOL     OW31801   4.187   1.245   6.265
10301SOL    HW131802   4.110   1.225   6.325
10301SOL    HW231803   4.251   1.168   6.266
10302SOL     OW31804   2.711   5.778   4.495
10302SOL    HW131805   2.663   5.691   4.486
10302SOL    HW231806   2.667   5.846   4.436
10303SOL     OW31807   0.765   6.162   4.967
10303SOL    HW131808   0.762   6.145   5.066
10303SOL    HW231809   0.857   6.140   4.933
10304SOL     OW31810   6.474   6.847   0.061
10304SOL    HW131811   6.477   6.792   0.145
10304SOL    HW231812   6.425   6.933   0.079
10305SOL     OW31813   2.242   4.100   6.045
10305SOL    HW131814   2.169   4.067   5.985
10305SOL    HW231815   2.277   4.024   6.099
10306SOL     OW31816   5.159   0.167   1.478
10306SOL    HW131817   5.236   0.231   1.481
10306SOL    HW231818   5.075   0.216   1.456
10307SOL     OW31819   2.486   0.438   5.190
10307SOL    HW131820   2.472   0.343   5.218
10307SOL    HW231821   2.419   0.462   5.119
10308SOL     OW31822   2.584   4.658   2.678
10308SOL    HW131823   2.534   4.735   2.639
10308SOL    HW231824   2.552   4.573   2.635
10309SOL     OW31825   6.236   1.017   5.395
10309SOL    HW131826   6.298   1.036   5.320
10309SOL    HW231827   6.175   1.095   5.408
10310SOL     OW31828   3.280   2.797   5.947
10310SOL    HW131829   3.290   2.879   6.002
10310SOL    HW231830   3.185   2.788   5.917
10311SOL     OW31831   5.519   6.230   0.108
10311SOL    HW131832   5.443   6.166   0.118
10311SOL    HW231833   5.492   6.305   0.048
10312SOL     OW31834   4.635   0.363   2.121
10312SOL    HW131835   4.698   0.304   2.172
10312SOL    HW231836   4.541   0.336   2.141
10313SOL     OW31837   4.796   6.460   2.870
10313SOL    HW131838   4.749   6.520   2.935
10313SOL    HW231839   4.886   6.498   2.848
10314SOL     OW31840   0.692   6.823   0.843
10314SOL    HW131841   0.666   6.853   0.935
10314SOL    HW231842   0.790   6.836   0.830
10315SOL     OW31843   5.175   6.366   3.675
10315SOL    HW131844   5.082   6.398   3.696
10315SOL    HW231845   5.180   6.267   3.687
10316SOL     OW31846   0.240   2.553   6.566
10316SOL    HW131847   0.323   2.535   6.619
10316SOL    HW231848   0.259   2.624   6.498
10317SOL     OW31849   3.383   6.042   5.974
10317SOL    HW131850   3.367   5.948   6.003
10317SOL    HW231851   3.465   6.077   6.019
10318SOL     OW31852   6.077   6.667   0.001
10318SOL    HW131853   5.985   6.678   0.038
10318SOL    HW231854   6.136   6.739   0.036
10319SOL     OW31855   0.132   4.608   4.494
10319SOL    HW131856   0.085   4.691   4.524
10319SOL    HW231857   0.067   4.533   4.489
10320SOL     OW31858   0.771   0.183   3.812
10320SOL    HW131859   0.761   0.206   3.716
10320SOL    HW231860   0.831   0.249   3.857
10321SOL     OW31861   5.513   2.297   1.961
10321SOL    HW131862   5.416   2.311   1.944
10321SOL    HW231863   5.567   2.350   1.896
10322SOL     OW31864   4.558   4.410   4.839
10322SOL    HW131865   4.506   4.450   4.914
10322SOL    HW231866   4.495   4.383   4.765
10323SOL     OW31867   0.094   4.232   5.188
10323SOL    HW131868   0.121   4.204   5.096
10323SOL    HW231869   0.074   4.151   5.243
10324SOL     OW31870   3.364   3.428   2.195
10324SOL    HW131871   3.445   3.396   2.146
10324SOL    HW231872   3.334   3.515   2.155
10325SOL     OW31873   0.661   5.820   2.933
10325SOL    HW131874   0.639   5.751   3.001
10325SOL    HW231875   0.652   5.911   2.974
10326SOL     OW31876   5.611   3.400   6.773
10326SOL    HW131877   5.665   3.473   6.731
10326SOL    HW231878   5.657   3.367   6.856
10327SOL     OW31879   2.642   3.931   1.186
10327SOL    HW131880   2.551   3.889   1.187
10327SOL    HW231881   2.704   3.877   1.241
10328SOL     OW31882   6.640   2.927   2.170
10328SOL    HW131883   6.665   3.006   2.113
10328SOL    HW231884   6.544   2.904   2.154
10329SOL     OW31885   3.629   1.598   3.006
10329SOL    HW131886   3.587   1.610   2.916
10329SOL    HW231887   3.699   1.526   3.000
10330SOL     OW31888   4.636   0.230   1.393
10330SOL    HW131889   4.647   0.264   1.487
10330SOL    HW231890   4.554   0.269   1.352
10331SOL     OW31891   6.432   5.733   0.193
10331SOL    HW131892   6.481   5.660   0.147
10331SOL    HW231893   6.363   5.772   0.132
10332SOL     OW31894   1.257   1.017   0.477
10332SOL    HW131895   1.299   1.035   0.566
10332SOL    HW231896   1.174   0.963   0.490
10333SOL     OW31897   1.073   5.918   4.496
10333SOL    HW131898   1.150   5.881   4.445
10333SOL    HW231899   0.992   5.861   4.481
10334SOL     OW31900   3.226   0.212   3.867
10334SOL    HW131901   3.214   0.151   3.945
10334SOL    HW231902   3.203   0.306   3.894
10335SOL     OW31903   0.496   3.684   5.891
10335SOL    HW131904   0.408   3.722   5.860
10335SOL    HW231905   0.482   3.635   5.977
10336SOL     OW31906   5.408   0.022   2.921
10336SOL    HW131907   5.498   0.017   2.876
10336SOL    HW231908   5.421   0.023   3.020
10337SOL     OW31909   6.226   5.274   0.134
10337SOL    HW131910   6.285   5.209   0.182
10337SOL    HW231911   6.130   5.255   0.157
10338SOL     OW31912   1.832   6.542   2.004
10338SOL    HW131913   1.901   6.509   1.940
10338SOL    HW231914   1.867   6.621   2.054
10339SOL     OW31915   6.757   2.257   5.869
10339SOL    HW131916   6.823   2.193   5.908
10339SOL    HW231917   6.692   2.284   5.940
10340SOL     OW31918   1.862   3.708   6.322
10340SOL    HW131919   1.882   3.695   6.225
10340SOL    HW231920   1.873   3.621   6.370
10341SOL     OW31921   2.168   2.777   2.630
10341SOL    HW131922   2.220   2.790   2.546
10341SOL    HW231923   2.150   2.865   2.672
10342SOL     OW31924   1.279   0.744   3.899
10342SOL    HW131925   1.289   0.663   3.842
10342SOL    HW231926   1.183   0.773   3.900
10343SOL     OW31927   2.144   5.668   1.113
10343SOL    HW131928   2.092   5.631   1.190
10343SOL    HW231929   2.193   5.750   1.142
10344SOL     OW31930   3.900   4.769   6.273
10344SOL    HW131931   3.930   4.807   6.186
10344SOL    HW231932   3.802   4.747   6.268
10345SOL     OW31933   1.140   3.140   5.287
10345SOL    HW131934   1.196   3.072   5.238
10345SOL    HW231935   1.199   3.215   5.317
10346SOL     OW31936   0.629   5.944   1.931
10346SOL    HW131937   0.545   5.918   1.979
10346SOL    HW231938   0.610   5.956   1.834
10347SOL     OW31939   4.605   1.665   3.722
10347SOL    HW131940   4.635   1.663   3.818
10347SOL    HW231941   4.614   1.573   3.683
10348SOL     OW31942   6.089   4.050   0.781
10348SOL    HW131943   6.062   4.116   0.711
10348SOL    HW231944   6.187   4.060   0.799
10349SOL     OW31945   0.187   6.385   6.474
10349SOL    HW131946   0.172   6.476   6.438
10349SOL    HW231947   0.129   6.319   6.426
10350SOL     OW31948   2.832   6.844   5.380
10350SOL    HW131949   2.923   6.808   5.358
10350SOL    HW231950   2.811   6.824   5.476
10351SOL     OW31951   4.402   4.881   5.723
10351SOL    HW131952   4.494   4.872   5.685
10351SOL    HW231953   4.336   4.843   5.659
10352SOL     OW31954   3.845   2.239   5.837
10352SOL    HW131955   3.911   2.237   5.911
10352SOL    HW231956   3.872   2.176   5.765
10353SOL     OW31957   6.710   2.778   4.721
10353SOL    HW131958   6.713   2.690   4.768
10353SOL    HW231959   6.786   2.835   4.752
10354SOL     OW31960   5.373   1.421   2.098
10354SOL    HW131961   5.318   1.470   2.030
10354SOL    HW231962   5.368   1.470   2.186
10355SOL     OW31963   2.515   5.832   2.425
10355SOL    HW131964   2.572   5.760   2.385
10355SOL    HW231965   2.488   5.897   2.353
10356SOL     OW31966   0.094   3.990   5.321
10356SOL    HW131967   0.047   3.950   5.242
10356SOL    HW231968   0.031   3.998   5.398
10357SOL     OW31969   2.624   1.812   6.707
10357SOL    HW131970   2.703   1.761   6.674
10357SOL    HW231971   2.541   1.773   6.668
10358SOL     OW31972   0.246   1.919   1.314
10358SOL    HW131973   0.342   1.894   1.310
10358SOL    HW231974   0.235   2.000   1.373
10359SOL     OW31975   0.019   1.222   1.964
10359SOL    HW131976   0.042   1.152   2.032
10359SOL    HW231977   6.964   1.192   1.911
10360SOL     OW31978   5.575   6.208   3.620
10360SOL    HW131979   5.565   6.144   3.696
10360SOL    HW231980   5.670   6.207   3.589
10361SOL     OW31981   2.373   5.288   1.648
10361SOL    HW131982   2.446   5.357   1.649
10361SOL    HW231983   2.294   5.323   1.699
10362SOL     OW31984   1.975   4.247   4.379
10362SOL    HW131985   1.947   4.157   4.413
10362SOL    HW231986   2.071   4.245   4.352
10363SOL     OW31987   5.058   0.978   3.399
10363SOL    HW131988   4.961   0.959   3.384
10363SOL    HW231989   5.083   0.951   3.492
10364SOL     OW31990   1.910   4.625   1.482
10364SOL    HW131991   2.010   4.624   1.472
10364SOL    HW231992   1.886   4.604   1.576
10365SOL     OW31993   4.899   5.372   7.010
10365SOL    HW131994   4.913   5.279   6.975
10365SOL    HW231995   4.860   5.367   0.079
10366SOL     OW31996   3.188   6.623   3.059
10366SOL    HW131997   3.261   6.559   3.034
10366SOL    HW231998   3.220   6.686   3.129
10367SOL     OW31999   6.187   2.502   3.608
10367SOL    HW132000   6.179   2.525   3.705
10367SOL    HW232001   6.248   2.567   3.563
10368SOL     OW32002   1.989   0.932   1.308
10368SOL    HW132003   2.036   0.973   1.230
10368SOL    HW232004   2.053   0.922   1.384
10369SOL     OW32005   3.647   2.582   0.170
10369SOL    HW132006   3.558   2.607   0.132
10369SOL    HW232007   3.634   2.526   0.251
10370SOL     OW32008   4.006   0.833   5.336
10370SOL    HW132009   4.083   0.773   5.312
10370SOL    HW232010   4.041   0.922   5.363
10371SOL     OW32011   4.830   6.514   5.058
10371SOL    HW132012   4.750   6.454   5.052
10371SOL    HW232013   4.913   6.457   5.067
10372SOL     OW32014   2.125   0.938   3.993
10372SOL    HW132015   2.060   0.942   3.918
10372SOL    HW232016   2.203   0.998   3.972
10373SOL     OW32017   0.681   6.203   4.423
10373SOL    HW132018   0.699   6.276   4.490
10373SOL    HW232019   0.753   6.202   4.355
10374SOL     OW32020   2.887   2.172   2.932
10374SOL    HW132021   2.961   2.126   2.883
10374SOL    HW232022   2.912   2.268   2.948
10375SOL     OW32023   5.568   2.192   0.771
10375SOL    HW132024   5.570   2.227   0.864
10375SOL    HW232025   5.487   2.227   0.724
10376SOL     OW32026   0.772   0.869   3.725
10376SOL    HW132027   0.788   0.905   3.633
10376SOL    HW232028   0.715   0.787   3.719
10377SOL     OW32029   1.089   0.398   4.193
10377SOL    HW132030   1.122   0.306   4.171
10377SOL    HW232031   0.997   0.410   4.156
10378SOL     OW32032   0.193   0.384   6.541
10378SOL    HW132033   0.156   0.415   6.453
10378SOL    HW232034   0.223   0.289   6.533
10379SOL     OW32035   5.173   1.475   4.018
10379SOL    HW132036   5.226   1.553   4.052
10379SOL    HW232037   5.129   1.429   4.095
10380SOL     OW32038   5.255   0.359   2.092
10380SOL    HW132039   5.250   0.425   2.167
10380SOL    HW232040   5.277   0.269   2.127
10381SOL     OW32041   4.678   4.980   5.541
10381SOL    HW132042   4.688   4.881   5.547
10381SOL    HW232043   4.760   5.024   5.578
10382SOL     OW32044   2.429   5.251   0.200
10382SOL    HW132045   2.469   5.329   0.248
10382SOL    HW232046   2.446   5.168   0.252
10383SOL     OW32047   0.327   2.462   0.567
10383SOL    HW132048   0.316   2.548   0.617
10383SOL    HW232049   0.379   2.480   0.483
10384SOL     OW32050   6.343   0.153   0.135
10384SOL    HW132051   6.317   0.247   0.158
10384SOL    HW232052   6.359   0.101   0.219
10385SOL     OW32053   6.258   1.421   6.465
10385SOL    HW132054   6.199   1.492   6.504
10385SOL    HW232055   6.251   1.338   6.521
10386SOL     OW32056   6.102   2.494   5.826
10386SOL    HW132057   6.089   2.556   5.749
10386SOL    HW232058   6.126   2.547   5.908
10387SOL     OW32059   2.056   2.809   3.161
10387SOL    HW132060   1.998   2.737   3.199
10387SOL    HW232061   2.134   2.825   3.221
10388SOL     OW32062   1.636   4.871   2.750
10388SOL    HW132063   1.573   4.935   2.792
10388SOL    HW232064   1.622   4.779   2.788
10389SOL     OW32065   0.689   4.675   3.104
10389SOL    HW132066   0.710   4.733   3.183
10389SOL    HW232067   0.614   4.614   3.127
10390SOL     OW32068   1.239   3.234   3.915
10390SOL    HW132069   1.210   3.139   3.903
10390SOL    HW232070   1.315   3.254   3.854
10391SOL     OW32071   2.497   6.517   6.133
10391SOL    HW132072   2.414   6.556   6.094
10391SOL    HW232073   2.555   6.590   6.169
10392SOL     OW32074   6.465   5.360   0.348
10392SOL    HW132075   6.461   5.377   0.250
10392SOL    HW232076   6.433   5.267   0.367
10393SOL     OW32077   1.361   1.343   3.963
10393SOL    HW132078   1.288   1.275   3.970
10393SOL    HW232079   1.447   1.303   3.996
10394SOL     OW32080   1.870   6.503   6.967
10394SOL    HW132081   1.956   6.513   6.917
10394SOL    HW232082   1.807   6.576   6.940
10395SOL     OW32083   0.302   1.292   4.844
10395SOL    HW132084   0.295   1.195   4.824
10395SOL    HW232085   0.297   1.306   4.943
10396SOL     OW32086   0.387   0.315   5.371
10396SOL    HW132087   0.440   0.315   5.286
10396SOL    HW232088   0.405   0.231   5.422
10397SOL     OW32089   4.178   1.500   2.713
10397SOL    HW132090   4.208   1.411   2.748
10397SOL    HW232091   4.078   1.503   2.710
10398SOL     OW32092   6.849   2.660   2.679
10398SOL    HW132093   6.772   2.639   2.739
10398SOL    HW232094   6.818   2.721   2.606
10399SOL     OW32095   5.736   1.894   5.246
10399SOL    HW132096   5.829   1.911   5.214
10399SOL    HW232097   5.675   1.881   5.168
10400SOL     OW32098   2.457   4.736   1.839
10400SOL    HW132099   2.461   4.827   1.882
10400SOL    HW232100   2.543   4.718   1.792
10401SOL     OW32101   0.192   6.290   1.304
10401SOL    HW132102   0.257   6.347   1.254
10401SOL    HW232103   0.195   6.313   1.401
10402SOL     OW32104   0.328   3.161   4.336
10402SOL    HW132105   0.404   3.097   4.347
10402SOL    HW232106   0.317   3.182   4.239
10403SOL     OW32107   5.309   0.966   2.206
10403SOL    HW132108   5.242   0.905   2.248
10403SOL    HW232109   5.371   1.001   2.277
10404SOL     OW32110   0.456   6.533   3.724
10404SOL    HW132111   0.372   6.492   3.759
10404SOL    HW232112   0.535   6.497   3.774
10405SOL     OW32113   1.625   6.537   5.826
10405SOL    HW132114   1.701   6.535   5.891
10405SOL    HW232115   1.619   6.628   5.785
10406SOL     OW32116   2.592   4.616   6.136
10406SOL    HW132117   2.649   4.691   6.103
10406SOL    HW232118   2.534   4.583   6.062
10407SOL     OW32119   1.044   1.370   0.025
10407SOL    HW132120   1.101   1.289   0.012
10407SOL    HW232121   0.965   1.345   0.081
10408SOL     OW32122   4.156   5.155   3.387
10408SOL    HW132123   4.152   5.222   3.313
10408SOL    HW232124   4.188   5.068   3.351
10409SOL     OW32125   6.018   5.037   2.464
10409SOL    HW132126   5.924   5.041   2.430
10409SOL    HW232127   6.076   5.098   2.410
10410SOL     OW32128   5.851   6.788   0.754
10410SOL    HW132129   5.815   6.712   0.700
10410SOL    HW232130   5.830   6.875   0.708
10411SOL     OW32131   2.205   4.610   2.725
10411SOL    HW132132   2.130   4.676   2.722
10411SOL    HW232133   2.251   4.607   2.636
10412SOL     OW32134   0.392   2.357   6.834
10412SOL    HW132135   0.301   2.322   6.815
10412SOL    HW232136   0.459   2.283   6.823
10413SOL     OW32137   0.390   1.928   6.848
10413SOL    HW132138   0.327   1.984   6.794
10413SOL    HW232139   0.355   1.834   6.854
10414SOL     OW32140   5.572   6.868   5.520
10414SOL    HW132141   5.507   6.799   5.490
10414SOL    HW232142   5.664   6.842   5.491
10415SOL     OW32143   0.741   5.367   3.361
10415SOL    HW132144   0.694   5.283   3.384
10415SOL    HW232145   0.784   5.405   3.443
10416SOL     OW32146   5.186   0.408   6.498
10416SOL    HW132147   5.249   0.481   6.473
10416SOL    HW232148   5.142   0.430   6.585
10417SOL     OW32149   3.657   5.227   4.346
10417SOL    HW132150   3.700   5.289   4.412
10417SOL    HW232151   3.559   5.247   4.340
10418SOL     OW32152   6.276   4.103   6.298
10418SOL    HW132153   6.249   4.199   6.296
10418SOL    HW232154   6.195   4.046   6.284
10419SOL     OW32155   2.609   1.527   4.516
10419SOL    HW132156   2.655   1.518   4.605
10419SOL    HW232157   2.573   1.619   4.506
10420SOL     OW32158   5.735   3.667   3.210
10420SOL    HW132159   5.735   3.574   3.246
10420SOL    HW232160   5.791   3.726   3.268
10421SOL     OW32161   0.740   4.484   4.361
10421SOL    HW132162   0.699   4.556   4.417
10421SOL    HW232163   0.833   4.509   4.336
10422SOL     OW32164   6.480   3.980   5.094
10422SOL    HW132165   6.486   4.050   5.165
10422SOL    HW232166   6.541   3.904   5.116
10423SOL     OW32167   2.442   4.846   4.264
10423SOL    HW132168   2.495   4.761   4.256
10423SOL    HW232169   2.436   4.890   4.175
10424SOL     OW32170   3.527   1.158   0.562
10424SOL    HW132171   3.439   1.205   0.576
10424SOL    HW232172   3.534   1.081   0.624
10425SOL     OW32173   1.546   2.654   0.768
10425SOL    HW132174   1.464   2.701   0.801
10425SOL    HW232175   1.522   2.560   0.742
10426SOL     OW32176   6.307   2.182   6.440
10426SOL    HW132177   6.263   2.210   6.354
10426SOL    HW232178   6.307   2.082   6.446
10427SOL     OW32179   5.172   0.577   4.186
10427SOL    HW132180   5.226   0.624   4.116
10427SOL    HW232181   5.092   0.633   4.209
10428SOL     OW32182   2.467   0.355   4.142
10428SOL    HW132183   2.522   0.289   4.090
10428SOL    HW232184   2.499   0.448   4.124
10429SOL     OW32185   1.417   2.869   1.400
10429SOL    HW132186   1.509   2.834   1.382
10429SOL    HW232187   1.351   2.793   1.398
10430SOL     OW32188   3.279   0.053   3.495
10430SOL    HW132189   3.335   6.999   3.523
10430SOL    HW232190   3.195   0.019   3.451
10431SOL     OW32191   4.147   0.334   3.060
10431SOL    HW132192   4.054   0.321   3.026
10431SOL    HW232193   4.212   0.315   2.986
10432SOL     OW32194   0.424   5.446   6.364
10432SOL    HW132195   0.462   5.499   6.288
10432SOL    HW232196   0.331   5.416   6.340
10433SOL     OW32197   2.828   6.836   2.936
10433SOL    HW132198   2.766   6.852   2.859
10433SOL    HW232199   2.828   6.917   2.996
10434SOL     OW32200   5.246   0.675   6.097
10434SOL    HW132201   5.287   0.716   6.179
10434SOL    HW232202   5.197   0.592   6.123
10435SOL     OW32203   2.151   1.952   0.350
10435SOL    HW132204   2.196   1.943   0.261
10435SOL    HW232205   2.068   2.008   0.340
10436SOL     OW32206   6.654   3.502   5.247
10436SOL    HW132207   6.706   3.422   5.275
10436SOL    HW232208   6.561   3.496   5.284
10437SOL     OW32209   5.551   6.337   4.795
10437SOL    HW132210   5.650   6.330   4.804
10437SOL    HW232211   5.515   6.394   4.870
10438SOL     OW32212   6.685   5.922   6.741
10438SOL    HW132213   6.651   5.829   6.728
10438SOL    HW232214   6.741   5.926   6.824
10439SOL     OW32215   6.247   5.731   4.675
10439SOL    HW132216   6.283   5.688   4.593
10439SOL    HW232217   6.253   5.667   4.752
10440SOL     OW32218   6.147   2.668   1.092
10440SOL    HW132219   6.180   2.574   1.078
10440SOL    HW232220   6.226   2.729   1.100
10441SOL     OW32221   4.433   1.805   6.758
10441SOL    HW132222   4.484   1.732   6.804
10441SOL    HW232223   4.489   1.844   6.685
10442SOL     OW32224   1.992   1.659   5.230
10442SOL    HW132225   1.919   1.665   5.161
10442SOL    HW232226   2.002   1.748   5.275
10443SOL     OW32227   0.527   1.493   1.502
10443SOL    HW132228   0.546   1.419   1.438
10443SOL    HW232229   0.613   1.532   1.534
10444SOL     OW32230   4.000   5.105   4.602
10444SOL    HW132231   4.064   5.182   4.597
10444SOL    HW232232   3.953   5.107   4.690
10445SOL     OW32233   0.603   3.287   3.005
10445SOL    HW132234   0.505   3.286   3.026
10445SOL    HW232235   0.656   3.282   3.090
10446SOL     OW32236   2.529   4.353   5.595
10446SOL    HW132237   2.623   4.323   5.613
10446SOL    HW232238   2.500   4.322   5.505
10447SOL     OW32239   0.135   2.128   2.818
10447SOL    HW132240   0.088   2.210   2.850
10447SOL    HW232241   0.228   2.151   2.789
10448SOL     OW32242   2.189   6.587   1.546
10448SOL    HW132243   2.256   6.535   1.599
10448SOL    HW232244   2.097   6.560   1.574
10449SOL     OW32245   3.760   4.931   4.964
10449SOL    HW132246   3.819   4.905   4.887
10449SOL    HW232247   3.664   4.920   4.939
10450SOL     OW32248   6.851   0.836   5.353
10450SOL    HW132249   6.894   0.777   5.285
10450SOL    HW232250   6.758   0.858   5.324
10451SOL     OW32251   3.481   1.301   3.340
10451SOL    HW132252   3.500   1.392   3.303
10451SOL    HW232253   3.470   1.236   3.265
10452SOL     OW32254   6.079   2.654   4.540
10452SOL    HW132255   6.155   2.602   4.501
10452SOL    HW232256   6.067   2.629   4.636
10453SOL     OW32257   4.617   6.241   3.662
10453SOL    HW132258   4.645   6.160   3.612
10453SOL    HW232259   4.625   6.224   3.761
10454SOL     OW32260   6.679   1.436   6.355
10454SOL    HW132261   6.716   1.433   6.448
10454SOL    HW232262   6.745   1.479   6.294
10455SOL     OW32263   0.085   5.462   3.516
10455SOL    HW132264   7.021   5.480   3.561
10455SOL    HW232265   0.075   5.473   3.417
10456SOL     OW32266   1.095   5.326   6.570
10456SOL    HW132267   1.054   5.287   6.488
10456SOL    HW232268   1.090   5.426   6.567
10457SOL     OW32269   3.897   2.281   6.846
10457SOL    HW132270   3.970   2.213   6.854
10457SOL    HW232271   3.836   2.274   6.925
10458SOL     OW32272   0.221   5.780   6.841
10458SOL    HW132273   0.133   5.826   6.834
10458SOL    HW232274   0.207   5.682   6.855
10459SOL     OW32275   6.486   5.339   1.669
10459SOL    HW132276   6.498   5.436   1.647
10459SOL    HW232277   6.560   5.286   1.628
10460SOL     OW32278   0.056   0.926   0.839
10460SOL    HW132279   7.013   0.853   0.825
10460SOL    HW232280   0.046   0.995   0.767
10461SOL     OW32281   0.024   5.142   6.280
10461SOL    HW132282   0.004   5.215   6.214
10461SOL    HW232283   0.124   5.134   6.291
10462SOL     OW32284   4.233   2.286   6.628
10462SOL    HW132285   4.214   2.325   6.718
10462SOL    HW232286   4.147   2.267   6.581
10463SOL     OW32287   4.826   2.122   6.602
10463SOL    HW132288   4.846   2.191   6.532
10463SOL    HW232289   4.821   2.167   6.691
10464SOL     OW32290   6.661   4.922   2.325
10464SOL    HW132291   6.714   4.939   2.242
10464SOL    HW232292   6.623   4.830   2.322
10465SOL     OW32293   5.412   4.500   1.386
10465SOL    HW132294   5.503   4.493   1.347
10465SOL    HW232295   5.420   4.515   1.485
10466SOL     OW32296   6.272   4.337   5.969
10466SOL    HW132297   6.216   4.413   5.936
10466SOL    HW232298   6.357   4.332   5.917
10467SOL     OW32299   0.814   3.463   0.199
10467SOL    HW132300   0.853   3.414   0.276
10467SOL    HW232301   0.888   3.499   0.141
10468SOL     OW32302   1.800   4.461   3.548
10468SOL    HW132303   1.854   4.437   3.629
10468SOL    HW232304   1.833   4.408   3.469
10469SOL     OW32305   0.502   1.488   4.158
10469SOL    HW132306   0.469   1.408   4.207
10469SOL    HW232307   0.484   1.571   4.211
10470SOL     OW32308   2.130   3.318   2.851
10470SOL    HW132309   2.199   3.252   2.825
10470SOL    HW232310   2.044   3.296   2.804
10471SOL     OW32311   2.716   6.505   6.685
10471SOL    HW132312   2.789   6.484   6.750
10471SOL    HW232313   2.648   6.432   6.686
10472SOL     OW32314   3.970   4.870   6.598
10472SOL    HW132315   4.059   4.824   6.606
10472SOL    HW232316   3.938   4.865   6.504
10473SOL     OW32317   5.652   4.503   0.806
10473SOL    HW132318   5.657   4.544   0.897
10473SOL    HW232319   5.694   4.413   0.808
10474SOL     OW32320   5.861   1.060   4.683
10474SOL    HW132321   5.825   0.991   4.746
10474SOL    HW232322   5.863   1.022   4.591
10475SOL     OW32323   1.259   5.753   1.599
10475SOL    HW132324   1.326   5.826   1.595
10475SOL    HW232325   1.167   5.790   1.584
10476SOL     OW32326   4.725   6.154   0.478
10476SOL    HW132327   4.645   6.213   0.486
10476SOL    HW232328   4.764   6.139   0.569
10477SOL     OW32329   6.700   5.379   3.800
10477SOL    HW132330   6.629   5.449   3.797
10477SOL    HW232331   6.783   5.414   3.755
10478SOL     OW32332   6.936   1.199   6.973
10478SOL    HW132333   6.859   1.263   6.981
10478SOL    HW232334   6.903   1.110   6.945
10479SOL     OW32335   0.650   2.743   2.145
10479SOL    HW132336   0.663   2.646   2.126
10479SOL    HW232337   0.630   2.756   2.242
10480SOL     OW32338   2.639   6.885   2.749
10480SOL    HW132339   2.664   6.905   2.654
10480SOL    HW232340   2.547   6.846   2.753
10481SOL     OW32341   6.907   0.617   2.358
10481SOL    HW132342   6.907   0.637   2.260
10481SOL    HW232343   6.832   0.667   2.402
10482SOL     OW32344   4.961   3.297   4.125
10482SOL    HW132345   4.959   3.198   4.116
10482SOL    HW232346   5.046   3.324   4.171
10483SOL     OW32347   6.158   6.413   0.045
10483SOL    HW132348   6.121   6.505   0.032
10483SOL    HW232349   6.244   6.419   0.097
10484SOL     OW32350   6.189   1.064   2.761
10484SOL    HW132351   6.196   0.964   2.757
10484SOL    HW232352   6.207   1.102   2.671
10485SOL     OW32353   5.411   3.915   5.569
10485SOL    HW132354   5.440   4.011   5.574
10485SOL    HW232355   5.423   3.872   5.659
10486SOL     OW32356   5.372   3.147   2.221
10486SOL    HW132357   5.465   3.177   2.243
10486SOL    HW232358   5.318   3.224   2.188
10487SOL     OW32359   5.669   6.169   1.581
10487SOL    HW132360   5.722   6.171   1.496
10487SOL    HW232361   5.577   6.203   1.563
10488SOL     OW32362   2.541   2.485   6.742
10488SOL    HW132363   2.625   2.538   6.757
10488SOL    HW232364   2.531   2.418   6.815
10489SOL     OW32365   1.025   5.678   6.167
10489SOL    HW132366   0.964   5.718   6.236
10489SOL    HW232367   1.077   5.750   6.122
10490SOL     OW32368   0.190   0.382   4.257
10490SOL    HW132369   0.138   0.416   4.335
10490SOL    HW232370   0.288   0.401   4.272
10491SOL     OW32371   1.060   4.276   5.961
10491SOL    HW132372   0.998   4.353   5.975
10491SOL    HW232373   1.071   4.226   6.047
10492SOL     OW32374   4.175   3.646   5.636
10492SOL    HW132375   4.104   3.694   5.584
10492SOL    HW232376   4.205   3.566   5.584
10493SOL     OW32377   3.129   0.778   1.472
10493SOL    HW132378   3.154   0.874   1.483
10493SOL    HW232379   3.200   0.720   1.512
10494SOL     OW32380   5.447   2.378   4.164
10494SOL    HW132381   5.425   2.374   4.067
10494SOL    HW232382   5.463   2.285   4.199
10495SOL     OW32383   1.440   6.508   0.031
10495SOL    HW132384   1.386   6.514   6.970
10495SOL    HW232385   1.504   6.432   0.024
10496SOL     OW32386   6.731   0.303   5.612
10496SOL    HW132387   6.808   0.253   5.573
10496SOL    HW232388   6.647   0.251   5.599
10497SOL     OW32389   0.959   1.341   1.289
10497SOL    HW132390   0.875   1.390   1.262
10497SOL    HW232391   0.935   1.250   1.322
10498SOL     OW32392   2.733   5.520   6.045
10498SOL    HW132393   2.757   5.575   5.966
10498SOL    HW232394   2.815   5.475   6.081
10499SOL     OW32395   3.648   5.563   3.625
10499SOL    HW132396   3.709   5.584   3.548
10499SOL    HW232397   3.686   5.487   3.678
10500SOL     OW32398   1.330   1.842   6.289
10500SOL    HW132399   1.247   1.818   6.239
10500SOL    HW232400   1.401   1.869   6.224
10501SOL     OW32401   1.843   3.234   3.040
10501SOL    HW132402   1.913   3.303   3.024
10501SOL    HW232403   1.885   3.143   3.035
10502SOL     OW32404   3.295   6.345   6.485
10502SOL    HW132405   3.265   6.295   6.566
10502SOL    HW232406   3.395   6.348   6.483
10503SOL     OW32407   2.625   3.264   6.413
10503SOL    HW132408   2.563   3.260   6.334
10503SOL    HW232409   2.714   3.228   6.387
10504SOL     OW32410   2.998   3.233   0.531
10504SOL    HW132411   2.921   3.280   0.489
10504SOL    HW232412   2.971   3.198   0.621
10505SOL     OW32413   6.730   6.317   1.461
10505SOL    HW132414   6.683   6.244   1.512
10505SOL    HW232415   6.795   6.276   1.397
10506SOL     OW32416   0.827   4.363   5.488
10506SOL    HW132417   0.924   4.338   5.484
10506SOL    HW232418   0.779   4.324   5.410
10507SOL     OW32419   1.049   0.092   5.488
10507SOL    HW132420   1.092   0.028   5.424
10507SOL    HW232421   0.988   0.154   5.439
10508SOL     OW32422   5.004   4.359   2.804
10508SOL    HW132423   5.103   4.344   2.804
10508SOL    HW232424   4.973   4.377   2.898
10509SOL     OW32425   2.109   0.011   5.854
10509SOL    HW132426   2.117   0.097   5.904
10509SOL    HW232427   2.058   0.027   5.769
10510SOL     OW32428   6.800   5.861   7.000
10510SOL    HW132429   6.857   5.779   7.008
10510SOL    HW232430   6.758   5.882   0.065
10511SOL     OW32431   5.278   2.894   0.267
10511SOL    HW132432   5.228   2.904   0.353
10511SOL    HW232433   5.254   2.807   0.224
10512SOL     OW32434   3.336   6.599   6.683
10512SOL    HW132435   3.421   6.573   6.637
10512SOL    HW232436   3.277   6.647   6.619
10513SOL     OW32437   6.589   2.174   0.359
10513SOL    HW132438   6.550   2.189   0.449
10513SOL    HW232439   6.606   2.076   0.346
10514SOL     OW32440   0.380   4.660   1.566
10514SOL    HW132441   0.322   4.630   1.490
10514SOL    HW232442   0.323   4.708   1.633
10515SOL     OW32443   6.495   1.978   4.527
10515SOL    HW132444   6.541   2.057   4.487
10515SOL    HW232445   6.478   1.909   4.456
10516SOL     OW32446   4.092   0.592   6.250
10516SOL    HW132447   4.173   0.591   6.309
10516SOL    HW232448   4.120   0.572   6.156
10517SOL     OW32449   0.148   1.557   3.006
10517SOL    HW132450   0.160   1.458   3.008
10517SOL    HW232451   0.223   1.600   3.057
10518SOL     OW32452   0.709   6.852   1.138
10518SOL    HW132453   0.660   6.771   1.169
10518SOL    HW232454   0.808   6.835   1.140
10519SOL     OW32455   2.622   3.543   5.320
10519SOL    HW132456   2.700   3.514   5.265
10519SOL    HW232457   2.607   3.641   5.307
10520SOL     OW32458   4.178   2.810   6.695
10520SOL    HW132459   4.206   2.814   6.791
10520SOL    HW232460   4.144   2.718   6.674
10521SOL     OW32461   6.393   5.872   1.687
10521SOL    HW132462   6.393   5.777   1.655
10521SOL    HW232463   6.408   5.874   1.786
10522SOL     OW32464   5.873   0.406   1.976
10522SOL    HW132465   5.872   0.410   1.876
10522SOL    HW232466   5.843   0.315   2.006
10523SOL     OW32467   0.111   5.495   6.761
10523SOL    HW132468   0.177   5.520   6.690
10523SOL    HW232469   0.158   5.451   6.837
10524SOL     OW32470   3.113   0.793   3.999
10524SOL    HW132471   3.014   0.804   3.996
10524SOL    HW232472   3.154   0.871   4.045
10525SOL     OW32473   2.870   6.006   4.539
10525SOL    HW132474   2.848   6.086   4.483
10525SOL    HW232475   2.806   5.932   4.518
10526SOL     OW32476   5.658   6.817   2.888
10526SOL    HW132477   5.650   6.833   2.986
10526SOL    HW232478   5.738   6.760   2.869
10527SOL     OW32479   1.396   2.690   5.022
10527SOL    HW132480   1.495   2.692   5.027
10527SOL    HW232481   1.368   2.650   4.934
10528SOL     OW32482   6.500   4.812   4.697
10528SOL    HW132483   6.436   4.841   4.767
10528SOL    HW232484   6.499   4.713   4.689
10529SOL     OW32485   6.588   6.547   4.048
10529SOL    HW132486   6.622   6.591   3.965
10529SOL    HW232487   6.489   6.533   4.039
10530SOL     OW32488   2.000   1.600   5.876
10530SOL    HW132489   2.039   1.681   5.833
10530SOL    HW232490   2.041   1.587   5.966
10531SOL     OW32491   1.964   2.602   5.262
10531SOL    HW132492   2.024   2.677   5.288
10531SOL    HW232493   1.993   2.519   5.310
10532SOL     OW32494   3.522   2.494   5.756
10532SOL    HW132495   3.474   2.534   5.677
10532SOL    HW232496   3.474   2.520   5.840
10533SOL     OW32497   2.557   1.508   6.351
10533SOL    HW132498   2.577   1.571   6.276
10533SOL    HW232499   2.636   1.448   6.367
10534SOL     OW32500   6.318   5.584   1.299
10534SOL    HW132501   6.338   5.668   1.249
10534SOL    HW232502   6.360   5.506   1.252
10535SOL     OW32503   6.861   0.945   2.234
10535SOL    HW132504   6.770   0.982   2.255
10535SOL    HW232505   6.871   0.855   2.276
10536SOL     OW32506   4.551   0.206   3.121
10536SOL    HW132507   4.541   0.305   3.131
10536SOL    HW232508   4.563   0.165   3.212
10537SOL     OW32509   0.859   4.706   1.590
10537SOL    HW132510   0.913   4.757   1.523
10537SOL    HW232511   0.912   4.697   1.675
10538SOL     OW32512   5.215   3.530   0.033
10538SOL    HW132513   5.163   3.471   6.994
10538SOL    HW232514   5.274   3.590   7.003
10539SOL     OW32515   0.335   3.258   5.911
10539SOL    HW132516   0.313   3.178   5.855
10539SOL    HW232517   0.357   3.335   5.852
10540SOL     OW32518   2.830   0.714   6.886
10540SOL    HW132519   2.743   0.760   6.904
10540SOL    HW232520   2.904   0.781   6.889
10541SOL     OW32521   3.569   2.431   0.385
10541SOL    HW132522   3.602   2.352   0.436
10541SOL    HW232523   3.515   2.490   0.445
10542SOL     OW32524   0.626   2.723   0.215
10542SOL    HW132525   0.716   2.701   0.253
10542SOL    HW232526   0.600   2.653   0.148
10543SOL     OW32527   2.120   1.072   5.617
10543SOL    HW132528   2.067   1.129   5.679
10543SOL    HW232529   2.188   1.127   5.569
10544SOL     OW32530   0.706   2.465   2.024
10544SOL    HW132531   0.654   2.385   1.996
10544SOL    HW232532   0.772   2.439   2.095
10545SOL     OW32533   6.064   0.131   2.571
10545SOL    HW132534   5.973   0.125   2.530
10545SOL    HW232535   6.059   0.102   2.667
10546SOL     OW32536   2.908   0.750   3.794
10546SOL    HW132537   2.989   0.793   3.752
10546SOL    HW232538   2.843   0.821   3.820
10547SOL     OW32539   4.183   1.740   1.214
10547SOL    HW132540   4.084   1.731   1.219
10547SOL    HW232541   4.207   1.833   1.186
10548SOL     OW32542   4.875   4.024   4.943
10548SOL    HW132543   4.841   4.083   4.870
10548SOL    HW232544   4.876   3.929   4.913
10549SOL     OW32545   1.148   0.939   1.993
10549SOL    HW132546   1.197   0.982   2.068
10549SOL    HW232547   1.049   0.946   2.009
10550SOL     OW32548   4.982   0.165   4.313
10550SOL    HW132549   4.882   0.172   4.314
10550SOL    HW232550   5.022   0.243   4.360
10551SOL     OW32551   1.086   2.837   5.914
10551SOL    HW132552   1.166   2.777   5.915
10551SOL    HW232553   1.105   2.918   5.970
10552SOL     OW32554   3.380   2.255   5.307
10552SOL    HW132555   3.341   2.232   5.396
10552SOL    HW232556   3.320   2.318   5.259
10553SOL     OW32557   2.725   4.651   6.973
10553SOL    HW132558   2.727   4.737   0.000
10553SOL    HW232559   2.680   4.580   0.003
10554SOL     OW32560   6.732   4.421   6.191
10554SOL    HW132561   6.761   4.441   6.097
10554SOL    HW232562   6.633   4.427   6.197
10555SOL     OW32563   3.158   2.013   1.180
10555SOL    HW132564   3.072   1.983   1.221
10555SOL    HW232565   3.209   1.933   1.146
10556SOL     OW32566   2.162   3.178   4.650
10556SOL    HW132567   2.112   3.225   4.723
10556SOL    HW232568   2.224   3.110   4.690
10557SOL     OW32569   6.314   2.780   3.765
10557SOL    HW132570   6.335   2.866   3.719
10557SOL    HW232571   6.276   2.799   3.855
10558SOL     OW32572   5.000   6.275   5.058
10558SOL    HW132573   4.977   6.255   4.963
10558SOL    HW232574   4.945   6.217   5.119
10559SOL     OW32575   4.177   2.184   0.219
10559SOL    HW132576   4.188   2.258   0.285
10559SOL    HW232577   4.263   2.135   0.209
10560SOL     OW32578   0.482   2.902   4.542
10560SOL    HW132579   0.536   2.877   4.623
10560SOL    HW232580   0.386   2.911   4.567
10561SOL     OW32581   2.442   3.908   6.968
10561SOL    HW132582   2.521   3.852   6.941
10561SOL    HW232583   2.444   3.923   0.043
10562SOL     OW32584   3.510   0.915   0.703
10562SOL    HW132585   3.553   0.848   0.643
10562SOL    HW232586   3.514   0.883   0.797
10563SOL     OW32587   1.797   1.647   4.677
10563SOL    HW132588   1.735   1.724   4.689
10563SOL    HW232589   1.821   1.609   4.766
10564SOL     OW32590   6.137   1.750   1.896
10564SOL    HW132591   6.083   1.824   1.857
10564SOL    HW232592   6.168   1.775   1.987
10565SOL     OW32593   5.586   1.723   4.701
10565SOL    HW132594   5.645   1.650   4.734
10565SOL    HW232595   5.583   1.796   4.770
10566SOL     OW32596   4.008   4.586   6.467
10566SOL    HW132597   3.959   4.632   6.394
10566SOL    HW232598   3.946   4.569   6.544
10567SOL     OW32599   1.928   4.649   4.334
10567SOL    HW132600   1.867   4.656   4.255
10567SOL    HW232601   2.023   4.644   4.303
10568SOL     OW32602   4.395   1.133   3.376
10568SOL    HW132603   4.448   1.212   3.407
10568SOL    HW232604   4.323   1.113   3.443
10569SOL     OW32605   5.819   3.255   3.977
10569SOL    HW132606   5.867   3.322   4.034
10569SOL    HW232607   5.885   3.200   3.927
10570SOL     OW32608   1.676   4.537   2.383
10570SOL    HW132609   1.768   4.525   2.344
10570SOL    HW232610   1.611   4.480   2.333
10571SOL     OW32611   6.005   6.801   3.779
10571SOL    HW132612   6.065   6.877   3.754
10571SOL    HW232613   5.953   6.826   3.861
10572SOL     OW32614   6.367   3.575   2.400
10572SOL    HW132615   6.289   3.513   2.400
10572SOL    HW232616   6.437   3.541   2.463
10573SOL     OW32617   5.965   4.943   5.616
10573SOL    HW132618   5.973   4.971   5.712
10573SOL    HW232619   5.883   4.984   5.576
10574SOL     OW32620   0.562   1.701   2.939
10574SOL    HW132621   0.568   1.661   2.847
10574SOL    HW232622   0.620   1.648   3.001
10575SOL     OW32623   1.153   6.928   5.337
10575SOL    HW132624   1.068   6.895   5.296
10575SOL    HW232625   1.217   6.852   5.348
10576SOL     OW32626   1.625   5.035   3.587
10576SOL    HW132627   1.662   4.968   3.522
10576SOL    HW232628   1.700   5.084   3.631
10577SOL     OW32629   1.276   2.013   5.427
10577SOL    HW132630   1.210   2.060   5.369
10577SOL    HW232631   1.363   2.062   5.425
10578SOL     OW32632   6.429   0.769   5.873
10578SOL    HW132633   6.523   0.759   5.839
10578SOL    HW232634   6.425   0.844   5.939
10579SOL     OW32635   4.404   1.848   0.505
10579SOL    HW132636   4.322   1.904   0.494
10579SOL    HW232637   4.459   1.854   0.421
10580SOL     OW32638   6.263   6.279   6.840
10580SOL    HW132639   6.216   6.327   6.914
10580SOL    HW232640   6.207   6.203   6.808
10581SOL     OW32641   5.202   1.166   3.273
10581SOL    HW132642   5.294   1.153   3.311
10581SOL    HW232643   5.138   1.107   3.322
10582SOL     OW32644   3.796   4.835   6.838
10582SOL    HW132645   3.783   4.905   6.908
10582SOL    HW232646   3.841   4.875   6.759
10583SOL     OW32647   4.487   1.761   0.753
10583SOL    HW132648   4.439   1.794   0.672
10583SOL    HW232649   4.477   1.827   0.828
10584SOL     OW32650   5.944   0.154   1.801
10584SOL    HW132651   5.915   0.081   1.739
10584SOL    HW232652   5.955   0.239   1.750
10585SOL     OW32653   1.142   3.435   6.442
10585SOL    HW132654   1.215   3.492   6.403
10585SOL    HW232655   1.134   3.453   6.540
10586SOL     OW32656   3.574   0.564   6.763
10586SOL    HW132657   3.602   0.652   6.724
10586SOL    HW232658   3.523   0.512   6.694
10587SOL     OW32659   6.106   4.152   1.051
10587SOL    HW132660   6.107   4.102   0.965
10587SOL    HW232661   6.163   4.233   1.043
10588SOL     OW32662   6.740   5.307   2.535
10588SOL    HW132663   6.830   5.310   2.579
10588SOL    HW232664   6.674   5.265   2.597
10589SOL     OW32665   6.128   1.871   3.975
10589SOL    HW132666   6.030   1.887   3.968
10589SOL    HW232667   6.150   1.838   4.067
10590SOL     OW32668   1.020   0.810   4.128
10590SOL    HW132669   1.105   0.765   4.158
10590SOL    HW232670   1.002   0.786   4.033
10591SOL     OW32671   1.258   3.125   0.857
10591SOL    HW132672   1.162   3.098   0.848
10591SOL    HW232673   1.269   3.182   0.939
10592SOL     OW32674   6.725   1.416   6.971
10592SOL    HW132675   6.693   1.425   6.877
10592SOL    HW232676   6.711   1.503   7.019
10593SOL     OW32677   1.979   4.975   1.189
10593SOL    HW132678   1.905   5.002   1.126
10593SOL    HW232679   1.944   4.977   1.283
10594SOL     OW32680   0.472   1.733   4.276
10594SOL    HW132681   0.547   1.758   4.215
10594SOL    HW232682   0.450   1.811   4.335
10595SOL     OW32683   3.598   6.193   6.044
10595SOL    HW132684   3.673   6.233   5.990
10595SOL    HW232685   3.636   6.148   6.125
10596SOL     OW32686   3.643   1.056   1.648
10596SOL    HW132687   3.640   0.956   1.646
10596SOL    HW232688   3.725   1.085   1.697
10597SOL     OW32689   1.694   0.371   4.621
10597SOL    HW132690   1.639   0.403   4.543
10597SOL    HW232691   1.678   0.431   4.699
10598SOL     OW32692   1.554   2.240   0.013
10598SOL    HW132693   1.594   2.152   7.013
10598SOL    HW232694   1.454   2.234   0.006
10599SOL     OW32695   5.102   1.434   6.885
10599SOL    HW132696   5.057   1.384   6.959
10599SOL    HW232697   5.190   1.392   6.865
10600SOL     OW32698   2.041   3.066   6.515
10600SOL    HW132699   1.966   3.028   6.460
10600SOL    HW232700   2.112   2.997   6.527
10601SOL     OW32701   3.246   6.585   5.890
10601SOL    HW132702   3.305   6.508   5.915
10601SOL    HW232703   3.182   6.603   5.965
10602SOL     OW32704   4.602   0.996   1.925
10602SOL    HW132705   4.596   1.094   1.942
10602SOL    HW232706   4.680   0.958   1.975
10603SOL     OW32707   1.559   5.339   4.872
10603SOL    HW132708   1.556   5.322   4.773
10603SOL    HW232709   1.488   5.286   4.917
10604SOL     OW32710   6.762   4.352   5.405
10604SOL    HW132711   6.813   4.279   5.450
10604SOL    HW232712   6.819   4.395   5.335
10605SOL     OW32713   1.494   5.012   6.961
10605SOL    HW132714   1.492   4.917   6.993
10605SOL    HW232715   1.578   5.056   6.991
10606SOL     OW32716   0.686   0.733   2.671
10606SOL    HW132717   0.777   0.708   2.703
10606SOL    HW232718   0.652   0.663   2.608
10607SOL     OW32719   5.392   5.007   0.071
10607SOL    HW132720   5.303   5.000   0.025
10607SOL    HW232721   5.379   5.054   0.159
10608SOL     OW32722   6.145   1.792   3.442
10608SOL    HW132723   6.135   1.844   3.527
10608SOL    HW232724   6.164   1.854   3.366
10609SOL     OW32725   3.803   6.280   1.390
10609SOL    HW132726   3.712   6.317   1.371
10609SOL    HW232727   3.865   6.355   1.415
10610SOL     OW32728   1.640   2.842   5.864
10610SOL    HW132729   1.671   2.750   5.837
10610SOL    HW232730   1.641   2.902   5.784
10611SOL     OW32731   5.484   3.029   6.233
10611SOL    HW132732   5.577   3.000   6.210
10611SOL    HW232733   5.422   2.951   6.223
10612SOL     OW32734   1.900   0.005   0.652
10612SOL    HW132735   2.000   0.011   0.647
10612SOL    HW232736   1.874   6.944   0.697
10613SOL     OW32737   0.494   6.435   5.854
10613SOL    HW132738   0.498   6.533   5.834
10613SOL    HW232739   0.399   6.403   5.846
10614SOL     OW32740   6.757   0.908   4.503
10614SOL    HW132741   6.787   1.003   4.496
10614SOL    HW232742   6.670   0.904   4.552
10615SOL     OW32743   5.915   5.356   5.418
10615SOL    HW132744   5.952   5.271   5.382
10615SOL    HW232745   5.886   5.343   5.513
10616SOL     OW32746   2.871   5.514   0.325
10616SOL    HW132747   2.784   5.522   0.374
10616SOL    HW232748   2.898   5.418   0.323
10617SOL     OW32749   1.161   2.046   6.729
10617SOL    HW132750   1.114   1.974   6.780
10617SOL    HW232751   1.134   2.135   6.766
10618SOL     OW32752   6.337   3.806   0.906
10618SOL    HW132753   6.348   3.890   0.852
10618SOL    HW232754   6.396   3.734   0.868
10619SOL     OW32755   1.232   4.061   3.950
10619SOL    HW132756   1.170   3.984   3.936
10619SOL    HW232757   1.213   4.133   3.883
10620SOL     OW32758   1.604   5.856   4.662
10620SOL    HW132759   1.586   5.844   4.564
10620SOL    HW232760   1.703   5.850   4.678
10621SOL     OW32761   2.721   6.050   0.872
10621SOL    HW132762   2.713   6.127   0.934
10621SOL    HW232763   2.668   5.973   0.907
10622SOL     OW32764   4.275   0.898   1.346
10622SOL    HW132765   4.220   0.815   1.356
10622SOL    HW232766   4.230   0.961   1.283
10623SOL     OW32767   6.477   1.554   3.887
10623SOL    HW132768   6.472   1.648   3.921
10623SOL    HW232769   6.415   1.543   3.809
10624SOL     OW32770   1.891   0.572   4.122
10624SOL    HW132771   1.832   0.549   4.199
10624SOL    HW232772   1.923   0.487   4.079
10625SOL     OW32773   0.080   3.319   6.948
10625SOL    HW132774   0.141   3.312   6.869
10625SOL    HW232775   7.015   3.355   6.919
10626SOL     OW32776   0.465   2.734   1.303
10626SOL    HW132777   0.478   2.786   1.219
10626SOL    HW232778   0.400   2.783   1.362
10627SOL     OW32779   6.119   6.071   3.614
10627SOL    HW132780   6.043   6.009   3.633
10627SOL    HW232781   6.117   6.148   3.677
10628SOL     OW32782   6.346   5.704   5.908
10628SOL    HW132783   6.285   5.626   5.895
10628SOL    HW232784   6.377   5.737   5.819
10629SOL     OW32785   2.473   5.430   5.967
10629SOL    HW132786   2.433   5.499   5.907
10629SOL    HW232787   2.569   5.453   5.984
10630SOL     OW32788   0.145   1.329   3.384
10630SOL    HW132789   0.191   1.412   3.353
10630SOL    HW232790   0.180   1.250   3.334
10631SOL     OW32791   1.084   6.677   4.233
10631SOL    HW132792   1.098   6.768   4.194
10631SOL    HW232793   0.987   6.664   4.253
10632SOL     OW32794   0.598   2.389   5.390
10632SOL    HW132795   0.634   2.473   5.431
10632SOL    HW232796   0.505   2.405   5.358
10633SOL     OW32797   1.038   4.854   1.469
10633SOL    HW132798   1.120   4.838   1.414
10633SOL    HW232799   1.038   4.948   1.501
10634SOL     OW32800   3.277   6.572   1.930
10634SOL    HW132801   3.291   6.474   1.923
10634SOL    HW232802   3.210   6.602   1.862
10635SOL     OW32803   2.596   1.333   1.050
10635SOL    HW132804   2.617   1.413   1.106
10635SOL    HW232805   2.667   1.264   1.061
10636SOL     OW32806   0.543   2.194   1.613
10636SOL    HW132807   0.583   2.276   1.571
10636SOL    HW232808   0.456   2.218   1.656
10637SOL     OW32809   3.686   4.762   5.403
10637SOL    HW132810   3.588   4.747   5.388
10637SOL    HW232811   3.735   4.676   5.389
10638SOL     OW32812   6.971   7.007   5.435
10638SOL    HW132813   6.978   0.062   5.496
10638SOL    HW232814   6.875   6.989   5.415
10639SOL     OW32815   2.535   0.719   4.325
10639SOL    HW132816   2.596   0.729   4.246
10639SOL    HW232817   2.443   0.695   4.294
10640SOL     OW32818   4.018   0.028   0.539
10640SOL    HW132819   4.004   0.069   0.450
10640SOL    HW232820   4.024   0.100   0.609
10641SOL     OW32821   5.102   1.197   6.691
10641SOL    HW132822   5.192   1.162   6.716
10641SOL    HW232823   5.075   1.268   6.756
10642SOL     OW32824   0.054   2.697   1.247
10642SOL    HW132825   0.121   2.626   1.225
10642SOL    HW232826   7.007   2.699   1.177
10643SOL     OW32827   3.399   3.549   5.695
10643SOL    HW132828   3.357   3.543   5.605
10643SOL    HW232829   3.473   3.481   5.702
10644SOL     OW32830   3.868   1.336   4.930
10644SOL    HW132831   3.836   1.430   4.925
10644SOL    HW232832   3.892   1.314   5.025
10645SOL     OW32833   2.769   0.828   5.106
10645SOL    HW132834   2.711   0.864   5.033
10645SOL    HW232835   2.865   0.841   5.082
10646SOL     OW32836   0.445   3.761   6.736
10646SOL    HW132837   0.520   3.790   6.677
10646SOL    HW232838   0.415   3.670   6.709
10647SOL     OW32839   0.293   5.122   1.101
10647SOL    HW132840   0.246   5.153   1.018
10647SOL    HW232841   0.297   5.197   1.167
10648SOL     OW32842   4.290   3.318   6.649
10648SOL    HW132843   4.350   3.369   6.588
10648SOL    HW232844   4.345   3.264   6.712
10649SOL     OW32845   0.280   4.630   5.859
10649SOL    HW132846   0.237   4.716   5.831
10649SOL    HW232847   0.226   4.586   5.930
10650SOL     OW32848   3.412   6.845   3.576
10650SOL    HW132849   3.503   6.804   3.567
10650SOL    HW232850   3.391   6.856   3.673
10651SOL     OW32851   3.965   6.715   6.070
10651SOL    HW132852   3.879   6.727   6.021
10651SOL    HW232853   3.956   6.755   6.162
10652SOL     OW32854   3.377   0.869   6.832
10652SOL    HW132855   3.454   0.894   6.773
10652SOL    HW232856   3.329   0.791   6.792
10653SOL     OW32857   5.376   3.392   3.759
10653SOL    HW132858   5.336   3.483   3.772
10653SOL    HW232859   5.324   3.342   3.690
10654SOL     OW32860   4.398   0.638   0.981
10654SOL    HW132861   4.444   0.719   0.946
10654SOL    HW232862   4.376   0.651   1.078
10655SOL     OW32863   2.958   5.784   1.771
10655SOL    HW132864   2.986   5.875   1.803
10655SOL    HW232865   3.010   5.761   1.688
10656SOL     OW32866   6.669   3.100   6.316
10656SOL    HW132867   6.632   3.139   6.401
10656SOL    HW232868   6.734   3.027   6.340
10657SOL     OW32869   6.036   0.788   1.203
10657SOL    HW132870   5.979   0.830   1.274
10657SOL    HW232871   6.108   0.853   1.176
10658SOL     OW32872   0.743   5.471   5.162
10658SOL    HW132873   0.700   5.561   5.158
10658SOL    HW232874   0.715   5.425   5.246
10659SOL     OW32875   5.244   0.559   0.482
10659SOL    HW132876   5.273   0.576   0.576
10659SOL    HW232877   5.324   0.562   0.421
10660SOL     OW32878   5.125   5.068   5.477
10660SOL    HW132879   5.068   5.101   5.401
10660SOL    HW232880   5.066   5.033   5.550
10661SOL     OW32881   0.435   0.583   2.813
10661SOL    HW132882   0.492   0.540   2.742
10661SOL    HW232883   0.447   0.682   2.809
10662SOL     OW32884   6.216   1.459   0.797
10662SOL    HW132885   6.174   1.472   0.707
10662SOL    HW232886   6.311   1.430   0.786
10663SOL     OW32887   6.900   0.671   0.556
10663SOL    HW132888   6.950   0.756   0.539
10663SOL    HW232889   6.817   0.669   0.499
10664SOL     OW32890   2.042   4.532   6.809
10664SOL    HW132891   2.097   4.565   6.732
10664SOL    HW232892   1.945   4.535   6.784
10665SOL     OW32893   6.327   1.017   0.241
10665SOL    HW132894   6.373   0.938   0.282
10665SOL    HW232895   6.376   1.101   0.266
10666SOL     OW32896   1.157   6.814   0.334
10666SOL    HW132897   1.061   6.839   0.329
10666SOL    HW232898   1.196   6.814   0.241
10667SOL     OW32899   3.399   1.816   5.074
10667SOL    HW132900   3.306   1.819   5.037
10667SOL    HW232901   3.395   1.819   5.174
10668SOL     OW32902   2.504   0.861   5.843
10668SOL    HW132903   2.512   0.809   5.757
10668SOL    HW232904   2.563   0.820   5.912
10669SOL     OW32905   0.888   6.320   6.209
10669SOL    HW132906   0.945   6.313   6.291
10669SOL    HW232907   0.796   6.287   6.229
10670SOL     OW32908   7.011   4.507   5.691
10670SOL    HW132909   7.018   4.598   5.649
10670SOL    HW232910   0.061   4.449   5.656
10671SOL     OW32911   1.711   1.864   3.189
10671SOL    HW132912   1.735   1.928   3.117
10671SOL    HW232913   1.793   1.839   3.241
10672SOL     OW32914   6.898   2.908   0.555
10672SOL    HW132915   6.976   2.948   0.604
10672SOL    HW232916   6.932   2.846   0.484
10673SOL     OW32917   3.280   3.564   5.168
10673SOL    HW132918   3.189   3.591   5.137
10673SOL    HW232919   3.298   3.469   5.140
10674SOL     OW32920   3.836   2.104   2.443
10674SOL    HW132921   3.901   2.160   2.495
10674SOL    HW232922   3.853   2.007   2.462
10675SOL     OW32923   0.363   0.643   6.043
10675SOL    HW132924   0.392   0.737   6.021
10675SOL    HW232925   0.443   0.582   6.038
10676SOL     OW32926   6.947   0.410   6.715
10676SOL    HW132927   6.931   0.373   6.806
10676SOL    HW232928   0.012   0.379   6.681
10677SOL     OW32929   6.982   0.900   0.419
10677SOL    HW132930   6.966   0.877   0.323
10677SOL    HW232931   0.053   0.928   0.432
10678SOL     OW32932   2.670   6.629   3.403
10678SOL    HW132933   2.573   6.651   3.405
10678SOL    HW232934   2.718   6.685   3.471
10679SOL     OW32935   6.286   5.115   3.924
10679SOL    HW132936   6.245   5.066   3.848
10679SOL    HW232937   6.268   5.213   3.915
10680SOL     OW32938   1.480   2.382   3.473
10680SOL    HW132939   1.570   2.380   3.428
10680SOL    HW232940   1.410   2.404   3.405
10681SOL     OW32941   0.690   1.432   5.551
10681SOL    HW132942   0.706   1.518   5.502
10681SOL    HW232943   0.758   1.422   5.623
10682SOL     OW32944   6.613   1.702   3.282
10682SOL    HW132945   6.617   1.791   3.329
10682SOL    HW232946   6.518   1.683   3.256
10683SOL     OW32947   1.659   1.515   4.463
10683SOL    HW132948   1.721   1.583   4.502
10683SOL    HW232949   1.704   1.470   4.385
10684SOL     OW32950   6.141   5.950   0.274
10684SOL    HW132951   6.178   6.044   0.276
10684SOL    HW232952   6.183   5.900   0.199
10685SOL     OW32953   0.078   2.524   1.939
10685SOL    HW132954   7.008   2.557   1.947
10685SOL    HW232955   0.141   2.600   1.955
10686SOL     OW32956   3.933   4.513   1.085
10686SOL    HW132957   3.838   4.483   1.087
10686SOL    HW232958   3.988   4.446   1.036
10687SOL     OW32959   0.443   5.199   1.695
10687SOL    HW132960   0.479   5.283   1.736
10687SOL    HW232961   0.366   5.166   1.749
10688SOL     OW32962   0.081   6.045   2.152
10688SOL    HW132963   0.109   5.963   2.102
10688SOL    HW232964   0.098   6.126   2.095
10689SOL     OW32965   0.394   0.592   1.749
10689SOL    HW132966   0.393   0.496   1.721
10689SOL    HW232967   0.347   0.601   1.837
10690SOL     OW32968   4.282   5.811   2.122
10690SOL    HW132969   4.364   5.863   2.100
10690SOL    HW232970   4.277   5.796   2.221
10691SOL     OW32971   6.638   1.110   1.550
10691SOL    HW132972   6.628   1.099   1.452
10691SOL    HW232973   6.556   1.153   1.588
10692SOL     OW32974   4.823   6.232   4.327
10692SOL    HW132975   4.808   6.216   4.424
10692SOL    HW232976   4.787   6.321   4.301
10693SOL     OW32977   5.847   2.161   2.657
10693SOL    HW132978   5.896   2.112   2.728
10693SOL    HW232979   5.833   2.101   2.578
10694SOL     OW32980   3.973   6.082   0.796
10694SOL    HW132981   4.032   6.025   0.739
10694SOL    HW232982   4.025   6.114   0.876
10695SOL     OW32983   5.862   2.839   4.570
10695SOL    HW132984   5.874   2.931   4.607
10695SOL    HW232985   5.950   2.790   4.575
10696SOL     OW32986   5.802   0.153   1.254
10696SOL    HW132987   5.827   0.058   1.231
10696SOL    HW232988   5.789   0.205   1.170
10697SOL     OW32989   2.118   6.199   3.755
10697SOL    HW132990   2.216   6.217   3.749
10697SOL    HW232991   2.102   6.117   3.810
10698SOL     OW32992   2.629   0.711   3.052
10698SOL    HW132993   2.598   0.619   3.076
10698SOL    HW232994   2.646   0.716   2.954
10699SOL     OW32995   1.503   2.384   2.541
10699SOL    HW132996   1.568   2.320   2.581
10699SOL    HW232997   1.551   2.447   2.480
10700SOL     OW32998   6.113   0.774   1.930
10700SOL    HW132999   6.194   0.833   1.928
10700SOL    HW233000   6.137   0.687   1.973
10701SOL     OW33001   3.496   6.308   0.852
10701SOL    HW133002   3.452   6.225   0.885
10701SOL    HW233003   3.426   6.378   0.835
10702SOL     OW33004   5.968   3.295   1.342
10702SOL    HW133005   6.035   3.222   1.329
10702SOL    HW233006   5.976   3.331   1.436
10703SOL     OW33007   4.111   3.283   4.003
10703SOL    HW133008   4.139   3.194   4.039
10703SOL    HW233009   4.130   3.287   3.905
10704SOL     OW33010   5.696   6.573   1.880
10704SOL    HW133011   5.776   6.616   1.922
10704SOL    HW233012   5.694   6.476   1.904
10705SOL     OW33013   1.101   2.906   6.677
10705SOL    HW133014   1.194   2.893   6.709
10705SOL    HW233015   1.063   2.818   6.648
10706SOL     OW33016   3.548   1.692   1.573
10706SOL    HW133017   3.636   1.679   1.527
10706SOL    HW233018   3.564   1.713   1.670
10707SOL     OW33019   6.373   6.823   6.208
10707SOL    HW133020   6.348   6.920   6.212
10707SOL    HW233021   6.305   6.768   6.255
10708SOL     OW33022   4.626   1.135   1.282
10708SOL    HW133023   4.564   1.211   1.265
10708SOL    HW233024   4.595   1.084   1.362
10709SOL     OW33025   0.768   6.490   5.837
10709SOL    HW133026   0.671   6.470   5.844
10709SOL    HW233027   0.801   6.529   5.923
10710SOL     OW33028   6.298   6.055   3.024
10710SOL    HW133029   6.330   6.117   3.095
10710SOL    HW233030   6.373   5.996   2.994
10711SOL     OW33031   2.162   5.756   5.464
10711SOL    HW133032   2.164   5.659   5.441
10711SOL    HW233033   2.249   5.798   5.436
10712SOL     OW33034   4.464   1.240   5.087
10712SOL    HW133035   4.366   1.237   5.069
10712SOL    HW233036   4.492   1.334   5.106
10713SOL     OW33037   1.740   6.495   1.321
10713SOL    HW133038   1.686   6.461   1.399
10713SOL    HW233039   1.697   6.578   1.285
10714SOL     OW33040   7.009   5.514   5.706
10714SOL    HW133041   6.997   5.421   5.739
10714SOL    HW233042   6.930   5.542   5.651
10715SOL     OW33043   5.768   1.306   3.809
10715SOL    HW133044   5.725   1.327   3.721
10715SOL    HW233045   5.743   1.214   3.837
10716SOL     OW33046   6.505   0.718   3.183
10716SOL    HW133047   6.519   0.808   3.143
10716SOL    HW233048   6.481   0.728   3.280
10717SOL     OW33049   6.386   6.560   1.929
10717SOL    HW133050   6.466   6.584   1.983
10717SOL    HW233051   6.342   6.644   1.895
10718SOL     OW33052   0.717   3.556   5.760
10718SOL    HW133053   0.723   3.469   5.809
10718SOL    HW233054   0.654   3.617   5.808
10719SOL     OW33055   3.626   0.687   2.206
10719SOL    HW133056   3.564   0.733   2.269
10719SOL    HW233057   3.603   0.712   2.112
10720SOL     OW33058   0.441   3.250   6.842
10720SOL    HW133059   0.411   3.291   6.756
10720SOL    HW233060   0.395   3.295   6.918
10721SOL     OW33061   4.744   2.678   3.756
10721SOL    HW133062   4.790   2.700   3.670
10721SOL    HW233063   4.714   2.763   3.801
10722SOL     OW33064   0.405   4.148   0.991
10722SOL    HW133065   0.442   4.241   0.987
10722SOL    HW233066   0.415   4.112   1.084
10723SOL     OW33067   6.082   4.582   7.016
10723SOL    HW133068   5.985   4.582   6.993
10723SOL    HW233069   6.098   4.645   0.069
10724SOL     OW33070   4.137   6.879   5.623
10724SOL    HW133071   4.097   6.874   5.532
10724SOL    HW233072   4.073   6.923   5.686
10725SOL     OW33073   6.508   6.945   5.218
10725SOL    HW133074   6.481   6.886   5.142
10725SOL    HW233075   6.606   6.965   5.212
10726SOL     OW33076   5.566   1.208   4.901
10726SOL    HW133077   5.599   1.154   4.979
10726SOL    HW233078   5.642   1.228   4.840
10727SOL     OW33079   2.251   6.155   0.154
10727SOL    HW133080   2.236   6.254   0.142
10727SOL    HW233081   2.163   6.108   0.151
10728SOL     OW33082   6.193   6.223   3.380
10728SOL    HW133083   6.113   6.258   3.331
10728SOL    HW233084   6.166   6.144   3.436
10729SOL     OW33085   5.789   2.812   4.277
10729SOL    HW133086   5.823   2.843   4.366
10729SOL    HW233087   5.722   2.739   4.290
10730SOL     OW33088   1.999   5.551   3.843
10730SOL    HW133089   2.032   5.471   3.894
10730SOL    HW233090   1.934   5.602   3.898
10731SOL     OW33091   4.721   6.452   6.929
10731SOL    HW133092   4.757   6.464   7.022
10731SOL    HW233093   4.771   6.379   6.883
10732SOL     OW33094   6.102   6.282   3.020
10732SOL    HW133095   6.135   6.254   2.929
10732SOL    HW233096   6.031   6.219   3.050
10733SOL     OW33097   0.529   0.887   6.354
10733SOL    HW133098   0.466   0.829   6.304
10733SOL    HW233099   0.576   0.833   6.424
10734SOL     OW33100   1.973   0.470   4.475
10734SOL    HW133101   1.881   0.507   4.489
10734SOL    HW233102   1.975   0.374   4.503
10735SOL     OW33103   6.607   6.613   2.068
10735SOL    HW133104   6.618   6.695   2.123
10735SOL    HW233105   6.691   6.597   2.015
10736SOL     OW33106   5.176   6.778   3.568
10736SOL    HW133107   5.079   6.757   3.564
10736SOL    HW233108   5.215   6.738   3.651
10737SOL     OW33109   6.168   1.060   1.748
10737SOL    HW133110   6.147   1.108   1.663
10737SOL    HW233111   6.090   1.002   1.773
10738SOL     OW33112   3.411   0.397   1.034
10738SOL    HW133113   3.476   0.435   0.968
10738SOL    HW233114   3.381   0.307   1.004
10739SOL     OW33115   5.820   3.005   3.705
10739SOL    HW133116   5.831   2.906   3.701
10739SOL    HW233117   5.881   3.042   3.775
10740SOL     OW33118   3.011   0.912   6.317
10740SOL    HW133119   2.940   0.915   6.247
10740SOL    HW233120   2.969   0.892   6.406
10741SOL     OW33121   1.473   2.275   3.702
10741SOL    HW133122   1.411   2.326   3.761
10741SOL    HW233123   1.472   2.314   3.611
10742SOL     OW33124   6.383   6.466   2.789
10742SOL    HW133125   6.370   6.525   2.869
10742SOL    HW233126   6.418   6.519   2.712
10743SOL     OW33127   3.118   1.742   5.353
10743SOL    HW133128   3.113   1.644   5.337
10743SOL    HW233129   3.213   1.769   5.368
10744SOL     OW33130   2.409   1.064   0.510
10744SOL    HW133131   2.323   1.014   0.508
10744SOL    HW233132   2.390   1.162   0.512
10745SOL     OW33133   1.883   4.552   2.011
10745SOL    HW133134   1.873   4.498   2.094
10745SOL    HW233135   1.944   4.630   2.028
10746SOL     OW33136   2.253   5.969   6.684
10746SOL    HW133137   2.192   6.028   6.632
10746SOL    HW233138   2.335   5.949   6.630
10747SOL     OW33139   6.602   1.288   4.621
10747SOL    HW133140   6.624   1.243   4.708
10747SOL    HW233141   6.511   1.329   4.626
10748SOL     OW33142   3.291   6.776   1.502
10748SOL    HW133143   3.353   6.850   1.528
10748SOL    HW233144   3.208   6.782   1.557
10749SOL     OW33145   5.880   4.345   1.509
10749SOL    HW133146   5.790   4.303   1.498
10749SOL    HW233147   5.951   4.275   1.499
10750SOL     OW33148   4.255   2.163   4.118
10750SOL    HW133149   4.302   2.236   4.069
10750SOL    HW233150   4.159   2.160   4.090
10751SOL     OW33151   0.330   5.953   4.245
10751SOL    HW133152   0.411   5.989   4.200
10751SOL    HW233153   0.296   6.020   4.311
10752SOL     OW33154   6.379   6.385   0.258
10752SOL    HW133155   6.475   6.409   0.249
10752SOL    HW233156   6.352   6.393   0.354
10753SOL     OW33157   5.058   0.489   3.834
10753SOL    HW133158   5.001   0.427   3.888
10753SOL    HW233159   5.001   0.540   3.770
10754SOL     OW33160   0.775   4.289   2.171
10754SOL    HW133161   0.836   4.216   2.201
10754SOL    HW233162   0.749   4.345   2.250
10755SOL     OW33163   0.360   2.890   0.817
10755SOL    HW133164   0.270   2.908   0.856
10755SOL    HW233165   0.383   2.963   0.753
10756SOL     OW33166   1.306   0.654   0.624
10756SOL    HW133167   1.271   0.663   0.717
10756SOL    HW233168   1.237   0.610   0.566
10757SOL     OW33169   0.319   3.520   1.846
10757SOL    HW133170   0.277   3.595   1.898
10757SOL    HW233171   0.410   3.549   1.814
10758SOL     OW33172   0.814   0.400   0.338
10758SOL    HW133173   0.900   0.368   0.299
10758SOL    HW233174   0.740   0.385   0.272
10759SOL     OW33175   2.778   2.803   5.495
10759SOL    HW133176   2.750   2.828   5.588
10759SOL    HW233177   2.857   2.857   5.468
10760SOL     OW33178   1.155   4.806   6.598
10760SOL    HW133179   1.224   4.746   6.557
10760SOL    HW233180   1.125   4.767   6.685
10761SOL     OW33181   1.006   1.645   5.550
10761SOL    HW133182   1.039   1.578   5.484
10761SOL    HW233183   1.005   1.736   5.508
10762SOL     OW33184   2.905   5.892   6.131
10762SOL    HW133185   2.898   5.992   6.138
10762SOL    HW233186   2.827   5.850   6.176
10763SOL     OW33187   5.002   0.633   3.317
10763SOL    HW133188   5.040   0.665   3.230
10763SOL    HW233189   5.018   0.535   3.326
10764SOL     OW33190   5.114   6.721   4.551
10764SOL    HW133191   5.128   6.820   4.550
10764SOL    HW233192   5.178   6.678   4.487
10765SOL     OW33193   0.440   1.703   1.681
10765SOL    HW133194   0.483   1.621   1.644
10765SOL    HW233195   0.482   1.784   1.641
10766SOL     OW33196   2.032   4.989   0.011
10766SOL    HW133197   2.108   5.052   7.014
10766SOL    HW233198   1.996   4.952   6.949
10767SOL     OW33199   1.265   5.098   6.661
10767SOL    HW133200   1.178   5.146   6.676
10767SOL    HW233201   1.261   5.051   6.573
10768SOL     OW33202   5.355   6.182   6.602
10768SOL    HW133203   5.386   6.259   6.547
10768SOL    HW233204   5.390   6.192   6.695
10769SOL     OW33205   3.062   3.063   4.502
10769SOL    HW133206   3.085   2.975   4.545
10769SOL    HW233207   3.091   3.062   4.407
10770SOL     OW33208   5.838   0.046   3.341
10770SOL    HW133209   5.854   6.991   3.400
10770SOL    HW233210   5.741   0.070   3.342
10771SOL     OW33211   4.505   6.091   5.813
10771SOL    HW133212   4.530   6.135   5.727
10771SOL    HW233213   4.442   6.016   5.796
10772SOL     OW33214   5.616   5.315   2.650
10772SOL    HW133215   5.585   5.410   2.659
10772SOL    HW233216   5.675   5.307   2.570
10773SOL     OW33217   0.284   3.704   1.261
10773SOL    HW133218   0.332   3.641   1.321
10773SOL    HW233219   0.187   3.707   1.286
10774SOL     OW33220   0.555   3.672   0.421
10774SOL    HW133221   0.631   3.630   0.472
10774SOL    HW233222   0.522   3.752   0.472
10775SOL     OW33223   1.541   3.963   0.745
10775SOL    HW133224   1.473   3.923   0.683
10775SOL    HW233225   1.579   4.045   0.703
10776SOL     OW33226   0.543   2.515   3.850
10776SOL    HW133227   0.532   2.472   3.940
10776SOL    HW233228   0.638   2.541   3.836
10777SOL     OW33229   1.988   0.939   1.679
10777SOL    HW133230   1.944   1.004   1.617
10777SOL    HW233231   2.063   0.893   1.631
10778SOL     OW33232   4.840   0.171   2.687
10778SOL    HW133233   4.889   0.254   2.660
10778SOL    HW233234   4.774   0.147   2.617
10779SOL     OW33235   5.620   3.105   5.568
10779SOL    HW133236   5.536   3.050   5.562
10779SOL    HW233237   5.694   3.056   5.522
10780SOL     OW33238   1.913   5.110   4.497
10780SOL    HW133239   1.885   5.181   4.562
10780SOL    HW233240   1.924   5.151   4.406
10781SOL     OW33241   5.470   2.130   4.527
10781SOL    HW133242   5.415   2.062   4.575
10781SOL    HW233243   5.507   2.196   4.593
10782SOL     OW33244   0.701   1.319   5.276
10782SOL    HW133245   0.678   1.342   5.370
10782SOL    HW233246   0.775   1.380   5.244
10783SOL     OW33247   0.737   2.337   3.633
10783SOL    HW133248   0.709   2.244   3.656
10783SOL    HW233249   0.668   2.379   3.573
10784SOL     OW33250   4.210   5.699   3.019
10784SOL    HW133251   4.292   5.729   2.970
10784SOL    HW233252   4.168   5.778   3.065
10785SOL     OW33253   1.161   5.139   1.881
10785SOL    HW133254   1.244   5.093   1.850
10785SOL    HW233255   1.098   5.070   1.918
10786SOL     OW33256   4.311   1.637   2.338
10786SOL    HW133257   4.330   1.732   2.313
10786SOL    HW233258   4.348   1.618   2.428
10787SOL     OW33259   3.965   1.502   3.411
10787SOL    HW133260   3.995   1.587   3.455
10787SOL    HW233261   3.978   1.508   3.313
10788SOL     OW33262   1.992   3.853   6.961
10788SOL    HW133263   2.070   3.908   6.932
10788SOL    HW233264   1.909   3.885   6.914
10789SOL     OW33265   6.559   1.291   2.189
10789SOL    HW133266   6.601   1.202   2.207
10789SOL    HW233267   6.471   1.279   2.144
10790SOL     OW33268   0.589   1.793   5.624
10790SOL    HW133269   0.587   1.892   5.616
10790SOL    HW233270   0.638   1.754   5.546
10791SOL     OW33271   1.468   2.395   3.014
10791SOL    HW133272   1.437   2.310   2.970
10791SOL    HW233273   1.421   2.406   3.101
10792SOL     OW33274   3.650   1.290   2.258
10792SOL    HW133275   3.643   1.387   2.281
10792SOL    HW233276   3.747   1.263   2.259
10793SOL     OW33277   3.913   1.835   4.630
10793SOL    HW133278   3.818   1.850   4.656
10793SOL    HW233279   3.926   1.858   4.534
10794SOL     OW33280   5.175   2.322   0.513
10794SOL    HW133281   5.228   2.308   0.597
10794SOL    HW233282   5.155   2.420   0.502
10795SOL     OW33283   6.791   3.367   3.559
10795SOL    HW133284   6.875   3.362   3.613
10795SOL    HW233285   6.789   3.292   3.493
10796SOL     OW33286   0.164   6.949   6.315
10796SOL    HW133287   0.139   6.891   6.392
10796SOL    HW233288   0.080   6.984   6.271
10797SOL     OW33289   4.455   4.639   7.012
10797SOL    HW133290   4.356   4.641   7.017
10797SOL    HW233291   4.483   4.609   6.920
10798SOL     OW33292   2.087   6.471   6.795
10798SOL    HW133293   2.003   6.459   6.742
10798SOL    HW233294   2.166   6.471   6.734
10799SOL     OW33295   2.571   1.518   2.652
10799SOL    HW133296   2.559   1.538   2.749
10799SOL    HW233297   2.534   1.427   2.632
10800SOL     OW33298   2.287   0.044   5.500
10800SOL    HW133299   2.353   0.113   5.472
10800SOL    HW233300   2.209   0.045   5.436
10801SOL     OW33301   3.275   6.144   6.281
10801SOL    HW133302   3.278   6.207   6.358
10801SOL    HW233303   3.360   6.091   6.279
10802SOL     OW33304   0.585   5.316   4.247
10802SOL    HW133305   0.552   5.409   4.232
10802SOL    HW233306   0.655   5.317   4.318
10803SOL     OW33307   7.023   4.279   4.617
10803SOL    HW133308   7.001   4.356   4.557
10803SOL    HW233309   0.054   4.312   4.694
10804SOL     OW33310   4.856   4.666   1.067
10804SOL    HW133311   4.767   4.703   1.092
10804SOL    HW233312   4.871   4.580   1.115
10805SOL     OW33313   3.912   5.919   0.210
10805SOL    HW133314   3.982   5.988   0.230
10805SOL    HW233315   3.928   5.838   0.265
10806SOL     OW33316   6.105   4.324   6.433
10806SOL    HW133317   6.099   4.287   6.525
10806SOL    HW233318   6.063   4.259   6.369
10807SOL     OW33319   4.422   0.902   4.279
10807SOL    HW133320   4.457   0.949   4.198
10807SOL    HW233321   4.446   0.954   4.361
10808SOL     OW33322   0.041   2.031   0.190
10808SOL    HW133323   0.100   2.104   0.155
10808SOL    HW233324   7.019   2.062   0.273
10809SOL     OW33325   3.229   1.566   2.678
10809SOL    HW133326   3.257   1.532   2.588
10809SOL    HW233327   3.270   1.509   2.749
10810SOL     OW33328   1.950   1.465   6.616
10810SOL    HW133329   2.028   1.426   6.665
10810SOL    HW233330   1.940   1.561   6.640
10811SOL     OW33331   4.649   4.469   6.160
10811SOL    HW133332   4.664   4.395   6.226
10811SOL    HW233333   4.553   4.498   6.164
10812SOL     OW33334   6.876   2.493   2.261
10812SOL    HW133335   6.970   2.498   2.227
10812SOL    HW233336   6.872   2.430   2.339
10813SOL     OW33337   3.425   5.161   2.749
10813SOL    HW133338   3.522   5.138   2.741
10813SOL    HW233339   3.384   5.164   2.658
10814SOL     OW33340   2.141   6.258   5.130
10814SOL    HW133341   2.061   6.215   5.171
10814SOL    HW233342   2.221   6.199   5.142
10815SOL     OW33343   4.933   2.053   3.264
10815SOL    HW133344   4.957   2.111   3.342
10815SOL    HW233345   4.837   2.068   3.239
10816SOL     OW33346   2.041   2.271   1.853
10816SOL    HW133347   1.974   2.234   1.917
10816SOL    HW233348   2.100   2.197   1.821
10817SOL     OW33349   4.363   0.191   2.096
10817SOL    HW133350   4.433   0.120   2.107
10817SOL    HW233351   4.273   0.151   2.115
10818SOL     OW33352   4.401   3.132   6.222
10818SOL    HW133353   4.438   3.219   6.188
10818SOL    HW233354   4.462   3.096   6.293
10819SOL     OW33355   0.628   4.148   5.608
10819SOL    HW133356   0.707   4.196   5.571
10819SOL    HW233357   0.545   4.200   5.588
10820SOL     OW33358   6.757   0.458   4.799
10820SOL    HW133359   6.830   0.441   4.733
10820SOL    HW233360   6.670   0.468   4.750
10821SOL     OW33361   6.930   6.929   1.011
10821SOL    HW133362   6.886   6.924   1.101
10821SOL    HW233363   6.957   0.000   0.993
10822SOL     OW33364   0.548   4.585   0.252
10822SOL    HW133365   0.489   4.584   0.332
10822SOL    HW233366   0.632   4.534   0.272
10823SOL     OW33367   1.336   1.893   1.256
10823SOL    HW133368   1.358   1.803   1.217
10823SOL    HW233369   1.415   1.927   1.307
10824SOL     OW33370   5.760   0.362   3.078
10824SOL    HW133371   5.835   0.348   3.144
10824SOL    HW233372   5.674   0.330   3.118
10825SOL     OW33373   4.090   1.403   1.575
10825SOL    HW133374   4.054   1.426   1.484
10825SOL    HW233375   4.097   1.486   1.630
10826SOL     OW33376   6.509   2.792   1.415
10826SOL    HW133377   6.526   2.855   1.339
10826SOL    HW233378   6.430   2.734   1.392
10827SOL     OW33379   1.235   2.650   3.521
10827SOL    HW133380   1.215   2.621   3.427
10827SOL    HW233381   1.316   2.708   3.521
10828SOL     OW33382   1.272   5.675   0.474
10828SOL    HW133383   1.326   5.600   0.436
10828SOL    HW233384   1.185   5.682   0.424
10829SOL     OW33385   2.299   3.773   1.750
10829SOL    HW133386   2.374   3.741   1.808
10829SOL    HW233387   2.334   3.795   1.659
10830SOL     OW33388   4.616   1.398   3.658
10830SOL    HW133389   4.569   1.357   3.737
10830SOL    HW233390   4.708   1.359   3.651
10831SOL     OW33391   5.091   2.813   2.507
10831SOL    HW133392   5.058   2.907   2.514
10831SOL    HW233393   5.082   2.782   2.412
10832SOL     OW33394   6.799   2.685   3.115
10832SOL    HW133395   6.839   2.749   3.180
10832SOL    HW233396   6.752   2.736   3.042
10833SOL     OW33397   2.793   6.927   4.299
10833SOL    HW133398   2.778   6.834   4.264
10833SOL    HW233399   2.857   6.975   4.239
10834SOL     OW33400   0.181   1.108   5.593
10834SOL    HW133401   0.206   1.020   5.633
10834SOL    HW233402   0.260   1.146   5.545
10835SOL     OW33403   6.862   2.633   1.882
10835SOL    HW133404   6.787   2.597   1.938
10835SOL    HW233405   6.828   2.656   1.791
10836SOL     OW33406   1.761   2.914   1.199
10836SOL    HW133407   1.687   2.977   1.177
10836SOL    HW233408   1.775   2.850   1.123
10837SOL     OW33409   1.419   5.975   1.430
10837SOL    HW133410   1.463   5.921   1.358
10837SOL    HW233411   1.371   6.053   1.389
10838SOL     OW33412   6.574   0.261   0.327
10838SOL    HW133413   6.591   0.169   0.361
10838SOL    HW233414   6.595   0.266   0.230
10839SOL     OW33415   1.808   1.667   6.956
10839SOL    HW133416   1.719   1.706   6.977
10839SOL    HW233417   1.874   1.694   0.002
10840SOL     OW33418   3.951   5.449   2.480
10840SOL    HW133419   3.919   5.469   2.573
10840SOL    HW233420   3.873   5.436   2.420
10841SOL     OW33421   4.898   3.235   5.954
10841SOL    HW133422   4.919   3.294   5.876
10841SOL    HW233423   4.977   3.232   6.016
10842SOL     OW33424   6.530   2.965   1.650
10842SOL    HW133425   6.610   3.010   1.609
10842SOL    HW233426   6.506   2.884   1.597
10843SOL     OW33427   0.411   0.992   2.220
10843SOL    HW133428   0.394   1.070   2.161
10843SOL    HW233429   0.331   0.931   2.218
10844SOL     OW33430   3.293   6.911   3.135
10844SOL    HW133431   3.313   6.882   3.229
10844SOL    HW233432   3.343   6.995   3.115
10845SOL     OW33433   1.946   2.988   0.884
10845SOL    HW133434   2.005   2.958   0.808
10845SOL    HW233435   1.850   2.978   0.857
10846SOL     OW33436   3.843   1.792   1.637
10846SOL    HW133437   3.819   1.868   1.697
10846SOL    HW233438   3.917   1.820   1.576
10847SOL     OW33439   4.146   2.822   5.855
10847SOL    HW133440   4.231   2.827   5.908
10847SOL    HW233441   4.091   2.745   5.887
10848SOL     OW33442   1.092   0.552   0.485
10848SOL    HW133443   1.000   0.559   0.523
10848SOL    HW233444   1.134   0.466   0.515
10849SOL     OW33445   2.378   5.150   4.109
10849SOL    HW133446   2.469   5.152   4.149
10849SOL    HW233447   2.333   5.238   4.124
10850SOL     OW33448   5.734   0.394   2.377
10850SOL    HW133449   5.689   0.445   2.303
10850SOL    HW233450   5.761   0.457   2.449
10851SOL     OW33451   4.442   1.812   6.245
10851SOL    HW133452   4.372   1.883   6.241
10851SOL    HW233453   4.492   1.810   6.158
10852SOL     OW33454   0.000   0.216   5.888
10852SOL    HW133455   0.031   0.310   5.882
10852SOL    HW233456   0.079   0.155   5.889
10853SOL     OW33457   2.397   0.372   4.825
10853SOL    HW133458   2.478   0.412   4.782
10853SOL    HW233459   2.422   0.332   4.913
10854SOL     OW33460   6.905   6.193   0.986
10854SOL    HW133461   6.808   6.177   1.004
10854SOL    HW233462   6.919   6.290   0.966
10855SOL     OW33463   1.279   5.474   1.547
10855SOL    HW133464   1.271   5.574   1.547
10855SOL    HW233465   1.188   5.433   1.539
10856SOL     OW33466   6.486   0.271   6.580
10856SOL    HW133467   6.397   0.318   6.573
10856SOL    HW233468   6.474   0.184   6.628
10857SOL     OW33469   6.241   0.332   5.099
10857SOL    HW133470   6.175   0.396   5.061
10857SOL    HW233471   6.236   0.246   5.048
10858SOL     OW33472   1.698   2.228   0.239
10858SOL    HW133473   1.679   2.260   0.146
10858SOL    HW233474   1.636   2.152   0.262
10859SOL     OW33475   1.462   5.598   3.031
10859SOL    HW133476   1.485   5.553   2.945
10859SOL    HW233477   1.432   5.530   3.098
10860SOL     OW33478   6.128   3.631   1.534
10860SOL    HW133479   6.030   3.634   1.518
10860SOL    HW233480   6.174   3.697   1.474
10861SOL     OW33481   2.907   3.355   1.158
10861SOL    HW133482   2.827   3.353   1.219
10861SOL    HW233483   2.950   3.445   1.162
10862SOL     OW33484   3.768   3.891   5.364
10862SOL    HW133485   3.778   3.985   5.397
10862SOL    HW233486   3.697   3.845   5.417
10863SOL     OW33487   1.826   0.599   3.146
10863SOL    HW133488   1.807   0.517   3.200
10863SOL    HW233489   1.747   0.661   3.151
10864SOL     OW33490   3.197   4.182   1.664
10864SOL    HW133491   3.209   4.175   1.565
10864SOL    HW233492   3.120   4.243   1.684
10865SOL     OW33493   3.736   1.274   2.560
10865SOL    HW133494   3.827   1.250   2.525
10865SOL    HW233495   3.719   1.371   2.543
10866SOL     OW33496   0.423   3.325   3.397
10866SOL    HW133497   0.460   3.333   3.490
10866SOL    HW233498   0.443   3.409   3.347
10867SOL     OW33499   4.538   2.566   0.009
10867SOL    HW133500   4.528   2.575   0.108
10867SOL    HW233501   4.621   2.611   7.003
10868SOL     OW33502   1.647   0.077   4.788
10868SOL    HW133503   1.688   7.012   4.808
10868SOL    HW233504   1.640   0.089   4.689
10869NA      NA33505   0.124   1.139   6.062
10870NA      NA33506   4.465   4.563   5.204
10871NA      NA33507   1.566   4.673   2.529
10872NA      NA33508   6.018   4.029   3.118
10873NA      NA33509   3.812   2.312   5.439
10874NA      NA33510   2.109   4.808   0.164
10875NA      NA33511   1.679   5.342   6.787
10876NA      NA33512   3.987   4.571   1.424
10877NA      NA33513   4.860   4.601   0.260
10878NA      NA33514   3.501   1.154   0.315
10879NA      NA33515   5.576   0.061   1.737
10880NA      NA33516   2.677   6.307   5.691
10881NA      NA33517   4.224   5.070   1.653
10882NA      NA33518   3.915   3.805   6.590
   7.02387   7.02387   7.02387
