Generated by trjconv : CNT in water t= 321.00000
33518
    1C        C    1   2.845   2.768   4.746
    1C        C    2   2.899   2.716   4.865
    1C        C    3   2.844   2.769   4.982
    1C        C    4   2.842   2.764   4.259
    1C        C    5   2.894   2.719   4.382
    1C        C    6   2.840   2.768   4.503
    1C        C    7   3.010   2.637   4.624
    1C        C    8   2.894   2.717   4.624
    1C        C    9   3.074   2.594   4.742
    1C        C   10   3.010   2.629   4.863
    1C        C   11   3.180   2.488   4.976
    1C        C   12   3.063   2.563   4.976
    1C        C   13   2.847   2.770   3.770
    1C        C   14   2.902   2.724   3.892
    1C        C   15   2.848   2.772   4.014
    1C        C   16   3.015   2.643   4.138
    1C        C   17   2.898   2.723   4.136
    1C        C   18   3.078   2.611   4.260
    1C        C   19   3.015   2.647   4.381
    1C        C   20   3.209   2.557   4.502
    1C        C   21   3.077   2.609   4.503
    1C        C   22   3.278   2.535   4.623
    1C        C   23   3.205   2.537   4.743
    1C        C   24   3.411   2.479   4.862
    1C        C   25   3.268   2.493   4.863
    1C        C   26   3.485   2.488   4.981
    1C        C   27   2.850   2.772   3.281
    1C        C   28   2.901   2.726   3.405
    1C        C   29   2.847   2.769   3.528
    1C        C   30   3.018   2.642   3.649
    1C        C   31   2.901   2.721   3.650
    1C        C   32   3.076   2.603   3.771
    1C        C   33   3.013   2.636   3.893
    1C        C   34   3.205   2.549   4.014
    1C        C   35   3.076   2.606   4.016
    1C        C   36   3.274   2.529   4.135
    1C        C   37   3.209   2.557   4.258
    1C        C   38   3.414   2.504   4.381
    1C        C   39   3.275   2.532   4.380
    1C        C   40   3.488   2.500   4.502
    1C        C   41   3.416   2.504   4.624
    1C        C   42   3.630   2.481   4.741
    1C        C   43   3.488   2.483   4.743
    1C        C   44   3.702   2.490   4.862
    1C        C   45   3.624   2.487   4.979
    1C        C   46   2.837   2.752   2.794
    1C        C   47   2.895   2.712   2.916
    1C        C   48   2.846   2.763   3.038
    1C        C   49   3.017   2.638   3.161
    1C        C   50   2.901   2.719   3.160
    1C        C   51   3.079   2.606   3.284
    1C        C   52   3.015   2.644   3.405
    1C        C   53   3.208   2.549   3.525
    1C        C   54   3.079   2.607   3.526
    1C        C   55   3.273   2.523   3.648
    1C        C   56   3.204   2.542   3.770
    1C        C   57   3.413   2.507   3.891
    1C        C   58   3.273   2.525   3.892
    1C        C   59   3.481   2.508   4.014
    1C        C   60   3.414   2.508   4.139
    1C        C   61   3.626   2.500   4.258
    1C        C   62   3.485   2.494   4.260
    1C        C   63   3.698   2.510   4.379
    1C        C   64   3.629   2.503   4.501
    1C        C   65   3.838   2.544   4.622
    1C        C   66   3.703   2.505   4.622
    1C        C   67   3.903   2.567   4.745
    1C        C   68   3.838   2.529   4.865
    1C        C   69   4.052   2.589   4.975
    1C        C   70   3.920   2.541   4.977
    1C        C   71   2.823   2.736   2.309
    1C        C   72   2.883   2.693   2.429
    1C        C   73   2.826   2.741   2.549
    1C        C   74   3.007   2.629   2.672
    1C        C   75   2.886   2.701   2.671
    1C        C   76   3.074   2.597   2.792
    1C        C   77   3.013   2.634   2.914
    1C        C   78   3.207   2.551   3.036
    1C        C   79   3.076   2.605   3.037
    1C        C   80   3.276   2.533   3.159
    1C        C   81   3.209   2.551   3.282
    1C        C   82   3.414   2.497   3.403
    1C        C   83   3.276   2.526   3.403
    1C        C   84   3.484   2.493   3.525
    1C        C   85   3.412   2.501   3.647
    1C        C   86   3.625   2.503   3.769
    1C        C   87   3.483   2.496   3.769
    1C        C   88   3.691   2.515   3.893
    1C        C   89   3.622   2.510   4.016
    1C        C   90   3.834   2.545   4.134
    1C        C   91   3.697   2.513   4.136
    1C        C   92   3.902   2.571   4.255
    1C        C   93   3.835   2.547   4.377
    1C        C   94   4.030   2.632   4.498
    1C        C   95   3.900   2.575   4.499
    1C        C   96   4.094   2.666   4.619
    1C        C   97   4.031   2.629   4.739
    1C        C   98   4.192   2.767   4.860
    1C        C   99   4.103   2.655   4.859
    1C        C  100   4.223   2.835   4.978
    1C        C  101   2.815   2.725   2.071
    1C        C  102   2.988   2.592   2.189
    1C        C  103   2.874   2.678   2.189
    1C        C  104   3.062   2.572   2.308
    1C        C  105   3.002   2.617   2.428
    1C        C  106   3.200   2.540   2.548
    1C        C  107   3.069   2.593   2.550
    1C        C  108   3.270   2.521   2.669
    1C        C  109   3.204   2.541   2.792
    1C        C  110   3.411   2.497   2.915
    1C        C  111   3.272   2.522   2.914
    1C        C  112   3.481   2.487   3.037
    1C        C  113   3.413   2.500   3.160
    1C        C  114   3.627   2.492   3.280
    1C        C  115   3.485   2.490   3.281
    1C        C  116   3.695   2.502   3.404
    1C        C  117   3.625   2.496   3.526
    1C        C  118   3.834   2.540   3.646
    1C        C  119   3.697   2.509   3.648
    1C        C  120   3.896   2.567   3.770
    1C        C  121   3.830   2.544   3.892
    1C        C  122   4.025   2.634   4.013
    1C        C  123   3.903   2.564   4.011
    1C        C  124   4.089   2.675   4.132
    1C        C  125   4.027   2.636   4.253
    1C        C  126   4.192   2.768   4.376
    1C        C  127   4.089   2.671   4.376
    1C        C  128   4.244   2.819   4.497
    1C        C  129   4.196   2.764   4.618
    1C        C  130   4.329   2.933   4.739
    1C        C  131   4.249   2.815   4.739
    1C        C  132   4.359   2.999   4.860
    1C        C  133   4.292   2.956   4.976
    1C        C  134   3.172   2.470   2.080
    1C        C  135   3.038   2.510   2.082
    1C        C  136   3.259   2.474   2.190
    1C        C  137   3.194   2.518   2.307
    1C        C  138   3.404   2.480   2.429
    1C        C  139   3.264   2.500   2.429
    1C        C  140   3.479   2.486   2.549
    1C        C  141   3.410   2.499   2.671
    1C        C  142   3.621   2.488   2.790
    1C        C  143   3.480   2.483   2.792
    1C        C  144   3.691   2.501   2.912
    1C        C  145   3.622   2.494   3.035
    1C        C  146   3.831   2.534   3.155
    1C        C  147   3.694   2.499   3.157
    1C        C  148   3.898   2.562   3.276
    1C        C  149   3.831   2.540   3.398
    1C        C  150   4.022   2.630   3.521
    1C        C  151   3.897   2.564   3.521
    1C        C  152   4.081   2.668   3.644
    1C        C  153   4.020   2.635   3.767
    1C        C  154   4.192   2.761   3.885
    1C        C  155   4.081   2.673   3.889
    1C        C  156   4.244   2.813   4.006
    1C        C  157   4.196   2.767   4.130
    1C        C  158   4.334   2.924   4.251
    1C        C  159   4.245   2.815   4.254
    1C        C  160   4.374   2.984   4.373
    1C        C  161   4.329   2.931   4.496
    1C        C  162   4.440   3.113   4.617
    1C        C  163   4.369   2.991   4.617
    1C        C  164   4.470   3.183   4.736
    1C        C  165   4.433   3.119   4.857
    1C        C  166   4.520   3.317   4.971
    1C        C  167   4.480   3.183   4.972
    1C        C  168   3.475   2.429   2.076
    1C        C  169   3.399   2.455   2.191
    1C        C  170   3.618   2.469   2.309
    1C        C  171   3.476   2.463   2.309
    1C        C  172   3.693   2.483   2.427
    1C        C  173   3.620   2.482   2.549
    1C        C  174   3.829   2.534   2.666
    1C        C  175   3.694   2.495   2.669
    1C        C  176   3.896   2.558   2.788
    1C        C  177   3.828   2.537   2.910
    1C        C  178   4.022   2.623   3.032
    1C        C  179   3.896   2.559   3.032
    1C        C  180   4.087   2.659   3.152
    1C        C  181   4.025   2.623   3.274
    1C        C  182   4.196   2.746   3.396
    1C        C  183   4.082   2.663   3.398
    1C        C  184   4.249   2.795   3.518
    1C        C  185   4.196   2.751   3.641
    1C        C  186   4.335   2.913   3.761
    1C        C  187   4.244   2.805   3.762
    1C        C  188   4.379   2.971   3.882
    1C        C  189   4.338   2.918   4.007
    1C        C  190   4.440   3.106   4.128
    1C        C  191   4.376   2.980   4.128
    1C        C  192   4.462   3.173   4.251
    1C        C  193   4.440   3.109   4.374
    1C        C  194   4.510   3.312   4.493
    1C        C  195   4.466   3.178   4.494
    1C        C  196   4.526   3.387   4.611
    1C        C  197   4.508   3.320   4.734
    1C        C  198   4.549   3.535   4.852
    1C        C  199   4.529   3.394   4.854
    1C        C  200   4.580   3.621   4.962
    1C        C  201   3.615   2.418   2.072
    1C        C  202   3.825   2.507   2.183
    1C        C  203   3.689   2.462   2.186
    1C        C  204   3.898   2.536   2.302
    1C        C  205   3.829   2.521   2.424
    1C        C  206   4.024   2.614   2.543
    1C        C  207   3.898   2.551   2.543
    1C        C  208   4.088   2.647   2.665
    1C        C  209   4.024   2.617   2.788
    1C        C  210   4.196   2.742   2.906
    1C        C  211   4.081   2.660   2.909
    1C        C  212   4.247   2.795   3.027
    1C        C  213   4.194   2.751   3.150
    1C        C  214   4.333   2.908   3.270
    1C        C  215   4.246   2.797   3.274
    1C        C  216   4.372   2.967   3.393
    1C        C  217   4.337   2.906   3.516
    1C        C  218   4.432   3.097   3.636
    1C        C  219   4.373   2.969   3.637
    1C        C  220   4.457   3.164   3.758
    1C        C  221   4.439   3.099   3.882
    1C        C  222   4.495   3.304   4.002
    1C        C  223   4.469   3.165   4.003
    1C        C  224   4.502   3.376   4.124
    1C        C  225   4.506   3.308   4.247
    1C        C  226   4.513   3.520   4.366
    1C        C  227   4.518   3.379   4.369
    1C        C  228   4.516   3.598   4.484
    1C        C  229   4.525   3.529   4.606
    1C        C  230   4.505   3.741   4.726
    1C        C  231   4.533   3.601   4.727
    1C        C  232   4.495   3.818   4.844
    1C        C  233   4.543   3.756   4.960
    1C        C  234   4.011   2.612   2.064
    1C        C  235   3.890   2.544   2.065
    1C        C  236   4.085   2.640   2.180
    1C        C  237   4.025   2.600   2.301
    1C        C  238   4.197   2.735   2.421
    1C        C  239   4.086   2.646   2.420
    1C        C  240   4.252   2.782   2.542
    1C        C  241   4.200   2.733   2.663
    1C        C  242   4.337   2.899   2.783
    1C        C  243   4.251   2.787   2.784
    1C        C  244   4.379   2.958   2.904
    1C        C  245   4.337   2.904   3.027
    1C        C  246   4.435   3.093   3.149
    1C        C  247   4.376   2.965   3.149
    1C        C  248   4.454   3.161   3.271
    1C        C  249   4.430   3.095   3.394
    1C        C  250   4.492   3.301   3.514
    1C        C  251   4.459   3.163   3.514
    1C        C  252   4.506   3.370   3.636
    1C        C  253   4.488   3.302   3.759
    1C        C  254   4.515   3.514   3.878
    1C        C  255   4.505   3.373   3.879
    1C        C  256   4.510   3.588   3.998
    1C        C  257   4.510   3.517   4.121
    1C        C  258   4.488   3.729   4.239
    1C        C  259   4.507   3.589   4.242
    1C        C  260   4.471   3.801   4.360
    1C        C  261   4.492   3.738   4.485
    1C        C  262   4.419   3.938   4.605
    1C        C  263   4.473   3.808   4.606
    1C        C  264   4.400   4.011   4.725
    1C        C  265   4.435   3.946   4.845
    1C        C  266   4.320   4.132   4.958
    1C        C  267   4.386   4.010   4.960
    1C        C  268   4.263   2.770   2.065
    1C        C  269   4.198   2.725   2.181
    1C        C  270   4.345   2.888   2.297
    1C        C  271   4.252   2.780   2.299
    1C        C  272   4.382   2.952   2.417
    1C        C  273   4.339   2.894   2.538
    1C        C  274   4.442   3.081   2.661
    1C        C  275   4.375   2.957   2.659
    1C        C  276   4.464   3.151   2.782
    1C        C  277   4.444   3.084   2.905
    1C        C  278   4.504   3.290   3.023
    1C        C  279   4.468   3.153   3.025
    1C        C  280   4.513   3.362   3.144
    1C        C  281   4.497   3.296   3.268
    1C        C  282   4.513   3.509   3.387
    1C        C  283   4.503   3.368   3.390
    1C        C  284   4.515   3.580   3.509
    1C        C  285   4.512   3.511   3.632
    1C        C  286   4.482   3.720   3.749
    1C        C  287   4.513   3.582   3.754
    1C        C  288   4.469   3.791   3.871
    1C        C  289   4.492   3.728   3.995
    1C        C  290   4.423   3.929   4.116
    1C        C  291   4.476   3.798   4.117
    1C        C  292   4.390   3.994   4.237
    1C        C  293   4.421   3.932   4.361
    1C        C  294   4.325   4.125   4.476
    1C        C  295   4.387   3.998   4.481
    1C        C  296   4.284   4.187   4.596
    1C        C  297   4.327   4.132   4.719
    1C        C  298   4.201   4.313   4.835
    1C        C  299   4.284   4.196   4.839
    1C        C  300   4.169   4.402   4.943
    1C        C  301   4.351   2.878   2.057
    1C        C  302   4.468   3.064   2.177
    1C        C  303   4.393   2.942   2.174
    1C        C  304   4.479   3.142   2.296
    1C        C  305   4.450   3.076   2.418
    1C        C  306   4.499   3.284   2.537
    1C        C  307   4.470   3.146   2.539
    1C        C  308   4.516   3.355   2.658
    1C        C  309   4.499   3.288   2.781
    1C        C  310   4.519   3.502   2.896
    1C        C  311   4.514   3.361   2.901
    1C        C  312   4.513   3.572   3.019
    1C        C  313   4.513   3.503   3.142
    1C        C  314   4.484   3.716   3.264
    1C        C  315   4.507   3.576   3.263
    1C        C  316   4.470   3.787   3.385
    1C        C  317   4.490   3.719   3.508
    1C        C  318   4.422   3.924   3.628
    1C        C  319   4.466   3.790   3.627
    1C        C  320   4.390   3.989   3.750
    1C        C  321   4.417   3.922   3.871
    1C        C  322   4.319   4.111   3.989
    1C        C  323   4.386   3.987   3.993
    1C        C  324   4.277   4.170   4.110
    1C        C  325   4.317   4.115   4.234
    1C        C  326   4.184   4.283   4.355
    1C        C  327   4.281   4.180   4.354
    1C        C  328   4.133   4.337   4.475
    1C        C  329   4.192   4.294   4.595
    1C        C  330   4.019   4.428   4.713
    1C        C  331   4.137   4.348   4.714
    1C        C  332   3.964   4.483   4.831
    1C        C  333   4.050   4.476   4.941
    1C        C  334   4.545   3.265   2.061
    1C        C  335   4.533   3.126   2.065
    1C        C  336   4.532   3.348   2.174
    1C        C  337   4.505   3.281   2.295
    1C        C  338   4.520   3.496   2.410
    1C        C  339   4.511   3.355   2.415
    1C        C  340   4.524   3.567   2.532
    1C        C  341   4.525   3.496   2.654
    1C        C  342   4.492   3.710   2.774
    1C        C  343   4.513   3.571   2.773
    1C        C  344   4.479   3.781   2.895
    1C        C  345   4.493   3.712   3.018
    1C        C  346   4.419   3.913   3.139
    1C        C  347   4.469   3.781   3.140
    1C        C  348   4.391   3.982   3.259
    1C        C  349   4.422   3.920   3.382
    1C        C  350   4.321   4.106   3.502
    1C        C  351   4.392   3.984   3.504
    1C        C  352   4.275   4.166   3.621
    1C        C  353   4.319   4.111   3.744
    1C        C  354   4.181   4.271   3.866
    1C        C  355   4.277   4.167   3.867
    1C        C  356   4.124   4.318   3.987
    1C        C  357   4.177   4.270   4.108
    1C        C  358   4.010   4.398   4.230
    1C        C  359   4.128   4.320   4.231
    1C        C  360   3.950   4.441   4.350
    1C        C  361   4.015   4.415   4.473
    1C        C  362   3.823   4.515   4.593
    1C        C  363   3.953   4.460   4.592
    1C        C  364   3.760   4.551   4.713
    1C        C  365   3.836   4.542   4.832
    1C        C  366   3.625   4.597   4.949
    1C        C  367   3.761   4.571   4.947
    1C        C  368   4.512   3.561   2.052
    1C        C  369   4.521   3.488   2.172
    1C        C  370   4.498   3.708   2.283
    1C        C  371   4.517   3.568   2.288
    1C        C  372   4.485   3.775   2.407
    1C        C  373   4.496   3.706   2.529
    1C        C  374   4.424   3.908   2.648
    1C        C  375   4.475   3.776   2.650
    1C        C  376   4.400   3.974   2.770
    1C        C  377   4.437   3.916   2.893
    1C        C  378   4.319   4.094   3.011
    1C        C  379   4.395   3.975   3.015
    1C        C  380   4.269   4.149   3.131
    1C        C  381   4.313   4.100   3.256
    1C        C  382   4.173   4.256   3.375
    1C        C  383   4.276   4.159   3.379
    1C        C  384   4.119   4.304   3.496
    1C        C  385   4.174   4.264   3.619
    1C        C  386   4.004   4.386   3.741
    1C        C  387   4.122   4.308   3.743
    1C        C  388   3.941   4.421   3.862
    1C        C  389   4.004   4.393   3.986
    1C        C  390   3.814   4.481   4.107
    1C        C  391   3.946   4.433   4.109
    1C        C  392   3.750   4.509   4.230
    1C        C  393   3.822   4.501   4.351
    1C        C  394   3.612   4.547   4.473
    1C        C  395   3.752   4.526   4.471
    1C        C  396   3.542   4.567   4.594
    1C        C  397   3.619   4.564   4.713
    1C        C  398   3.407   4.559   4.836
    1C        C  399   3.548   4.574   4.834
    1C        C  400   3.339   4.513   4.950
    1C        C  401   4.501   3.700   2.047
    1C        C  402   4.456   3.916   2.163
    1C        C  403   4.489   3.779   2.162
    1C        C  404   4.410   3.972   2.284
    1C        C  405   4.437   3.908   2.408
    1C        C  406   4.323   4.095   2.525
    1C        C  407   4.399   3.976   2.526
    1C        C  408   4.280   4.152   2.646
    1C        C  409   4.322   4.092   2.767
    1C        C  410   4.178   4.250   2.889
    1C        C  411   4.276   4.149   2.888
    1C        C  412   4.119   4.297   3.009
    1C        C  413   4.172   4.252   3.132
    1C        C  414   3.995   4.372   3.251
    1C        C  415   4.115   4.298   3.253
    1C        C  416   3.935   4.406   3.374
    1C        C  417   3.997   4.376   3.498
    1C        C  418   3.808   4.471   3.617
    1C        C  419   3.938   4.414   3.620
    1C        C  420   3.743   4.497   3.740
    1C        C  421   3.810   4.474   3.862
    1C        C  422   3.607   4.530   3.985
    1C        C  423   3.745   4.498   3.985
    1C        C  424   3.539   4.540   4.109
    1C        C  425   3.611   4.532   4.230
    1C        C  426   3.399   4.548   4.356
    1C        C  427   3.540   4.547   4.351
    1C        C  428   3.326   4.548   4.477
    1C        C  429   3.401   4.562   4.596
    1C        C  430   3.192   4.520   4.721
    1C        C  431   3.331   4.547   4.718
    1C        C  432   3.122   4.493   4.842
    1C        C  433   3.202   4.490   4.957
    1C        C  434   4.384   4.123   2.053
    1C        C  435   4.449   3.999   2.051
    1C        C  436   4.299   4.156   2.163
    1C        C  437   4.330   4.089   2.285
    1C        C  438   4.184   4.254   2.401
    1C        C  439   4.284   4.153   2.402
    1C        C  440   4.126   4.296   2.523
    1C        C  441   4.178   4.250   2.646
    1C        C  442   4.001   4.369   2.763
    1C        C  443   4.120   4.293   2.767
    1C        C  444   3.937   4.402   2.884
    1C        C  445   4.000   4.372   3.007
    1C        C  446   3.805   4.464   3.129
    1C        C  447   3.933   4.404   3.128
    1C        C  448   3.742   4.492   3.252
    1C        C  449   3.809   4.469   3.374
    1C        C  450   3.602   4.520   3.498
    1C        C  451   3.740   4.491   3.495
    1C        C  452   3.534   4.534   3.621
    1C        C  453   3.607   4.535   3.742
    1C        C  454   3.395   4.541   3.866
    1C        C  455   3.536   4.543   3.864
    1C        C  456   3.328   4.534   3.990
    1C        C  457   3.398   4.545   4.113
    1C        C  458   3.190   4.505   4.236
    1C        C  459   3.327   4.538   4.235
    1C        C  460   3.121   4.484   4.358
    1C        C  461   3.190   4.512   4.478
    1C        C  462   2.994   4.433   4.603
    1C        C  463   3.122   4.493   4.601
    1C        C  464   2.931   4.399   4.724
    1C        C  465   2.989   4.442   4.847
    1C        C  466   2.794   4.342   4.953
    1C        C  467   2.905   4.426   4.962
    1C        C  468   4.125   4.290   2.042
    1C        C  469   4.184   4.242   2.159
    1C        C  470   4.005   4.367   2.279
    1C        C  471   4.127   4.294   2.279
    1C        C  472   3.936   4.397   2.399
    1C        C  473   4.003   4.366   2.519
    1C        C  474   3.812   4.462   2.643
    1C        C  475   3.942   4.406   2.640
    1C        C  476   3.740   4.482   2.762
    1C        C  477   3.807   4.458   2.884
    1C        C  478   3.600   4.511   3.007
    1C        C  479   3.738   4.480   3.005
    1C        C  480   3.532   4.526   3.130
    1C        C  481   3.603   4.518   3.251
    1C        C  482   3.394   4.537   3.375
    1C        C  483   3.535   4.534   3.374
    1C        C  484   3.325   4.533   3.498
    1C        C  485   3.392   4.540   3.622
    1C        C  486   3.185   4.505   3.743
    1C        C  487   3.323   4.535   3.745
    1C        C  488   3.121   4.480   3.867
    1C        C  489   3.191   4.500   3.989
    1C        C  490   2.996   4.425   4.114
    1C        C  491   3.125   4.483   4.112
    1C        C  492   2.932   4.390   4.235
    1C        C  493   2.992   4.427   4.358
    1C        C  494   2.823   4.306   4.481
    1C        C  495   2.930   4.398   4.481
    1C        C  496   2.770   4.255   4.602
    1C        C  497   2.818   4.313   4.721
    1C        C  498   2.667   4.160   4.846
    1C        C  499   2.749   4.275   4.838
    1C        C  500   2.602   4.109   4.959
    1C        C  501   4.007   4.364   2.039
    1C        C  502   3.814   4.460   2.156
    1C        C  503   3.942   4.401   2.158
    1C        C  504   3.741   4.471   2.276
    1C        C  505   3.805   4.450   2.400
    1C        C  506   3.602   4.508   2.520
    1C        C  507   3.739   4.475   2.522
    1C        C  508   3.529   4.519   2.640
    1C        C  509   3.602   4.511   2.761
    1C        C  510   3.390   4.517   2.885
    1C        C  511   3.531   4.518   2.884
    1C        C  512   3.322   4.519   3.009
    1C        C  513   3.391   4.526   3.132
    1C        C  514   3.182   4.501   3.254
    1C        C  515   3.320   4.530   3.255
    1C        C  516   3.116   4.478   3.377
    1C        C  517   3.186   4.504   3.497
    1C        C  518   2.996   4.415   3.625
    1C        C  519   3.120   4.482   3.620
    1C        C  520   2.934   4.380   3.747
    1C        C  521   2.998   4.411   3.869
    1C        C  522   2.830   4.290   3.995
    1C        C  523   2.939   4.380   3.993
    1C        C  524   2.780   4.239   4.117
    1C        C  525   2.830   4.293   4.238
    1C        C  526   2.696   4.133   4.365
    1C        C  527   2.775   4.250   4.361
    1C        C  528   2.653   4.074   4.486
    1C        C  529   2.684   4.143   4.605
    1C        C  530   2.581   3.959   4.729
    1C        C  531   2.638   4.089   4.728
    1C        C  532   2.541   3.898   4.851
    1C        C  533   2.526   3.991   4.959
    1C        C  534   3.621   4.555   2.042
    1C        C  535   3.755   4.515   2.041
    1C        C  536   3.535   4.534   2.155
    1C        C  537   3.606   4.513   2.277
    1C        C  538   3.391   4.519   2.395
    1C        C  539   3.532   4.519   2.397
    1C        C  540   3.318   4.516   2.516
    1C        C  541   3.388   4.518   2.639
    1C        C  542   3.181   4.491   2.764
    1C        C  543   3.320   4.516   2.763
    1C        C  544   3.119   4.466   2.889
    1C        C  545   3.184   4.488   3.012
    1C        C  546   2.989   4.405   3.133
    1C        C  547   3.115   4.468   3.133
    1C        C  548   2.935   4.370   3.259
    1C        C  549   2.993   4.409   3.381
    1C        C  550   2.826   4.283   3.504
    1C        C  551   2.935   4.374   3.505
    1C        C  552   2.772   4.238   3.627
    1C        C  553   2.824   4.291   3.747
    1C        C  554   2.704   4.122   3.874
    1C        C  555   2.784   4.239   3.872
    1C        C  556   2.665   4.063   3.996
    1C        C  557   2.700   4.123   4.119
    1C        C  558   2.597   3.943   4.242
    1C        C  559   2.661   4.069   4.244
    1C        C  560   2.565   3.882   4.365
    1C        C  561   2.589   3.948   4.487
    1C        C  562   2.530   3.747   4.612
    1C        C  563   2.562   3.885   4.610
    1C        C  564   2.517   3.680   4.736
    1C        C  565   2.520   3.756   4.855
    1C        C  566   2.532   3.546   4.974
    1C        C  567   2.518   3.685   4.976
    1C        C  568   3.324   4.478   2.036
    1C        C  569   3.395   4.511   2.153
    1C        C  570   3.181   4.480   2.280
    1C        C  571   3.321   4.504   2.274
    1C        C  572   3.110   4.463   2.401
    1C        C  573   3.180   4.485   2.521
    1C        C  574   2.983   4.407   2.646
    1C        C  575   3.112   4.466   2.644
    1C        C  576   2.929   4.361   2.768
    1C        C  577   2.992   4.403   2.887
    1C        C  578   2.828   4.270   3.016
    1C        C  579   2.934   4.364   3.010
    1C        C  580   2.779   4.221   3.139
    1C        C  581   2.830   4.275   3.259
    1C        C  582   2.698   4.113   3.383
    1C        C  583   2.781   4.227   3.383
    1C        C  584   2.665   4.056   3.507
    1C        C  585   2.698   4.118   3.630
    1C        C  586   2.599   3.935   3.753
    1C        C  587   2.659   4.063   3.754
    1C        C  588   2.570   3.873   3.877
    1C        C  589   2.601   3.937   3.999
    1C        C  590   2.541   3.735   4.124
    1C        C  591   2.573   3.872   4.122
    1C        C  592   2.524   3.670   4.248
    1C        C  593   2.535   3.744   4.368
    1C        C  594   2.514   3.534   4.497
    1C        C  595   2.522   3.675   4.491
    1C        C  596   2.520   3.464   4.619
    1C        C  597   2.518   3.537   4.740
    1C        C  598   2.533   3.323   4.860
    1C        C  599   2.527   3.464   4.860
    1C        C  600   2.539   3.250   4.980
    1C        C  601   3.193   4.435   2.043
    1C        C  602   2.980   4.396   2.159
    1C        C  603   3.115   4.444   2.159
    1C        C  604   2.922   4.356   2.282
    1C        C  605   2.984   4.401   2.401
    1C        C  606   2.817   4.274   2.526
    1C        C  607   2.924   4.365   2.525
    1C        C  608   2.766   4.225   2.649
    1C        C  609   2.819   4.273   2.771
    1C        C  610   2.692   4.106   2.897
    1C        C  611   2.776   4.220   2.895
    1C        C  612   2.654   4.047   3.019
    1C        C  613   2.692   4.110   3.140
    1C        C  614   2.597   3.921   3.266
    1C        C  615   2.659   4.048   3.263
    1C        C  616   2.569   3.863   3.392
    1C        C  617   2.602   3.929   3.513
    1C        C  618   2.532   3.728   3.634
    1C        C  619   2.568   3.865   3.634
    1C        C  620   2.521   3.664   3.759
    1C        C  621   2.534   3.737   3.880
    1C        C  622   2.510   3.526   4.008
    1C        C  623   2.525   3.666   4.002
    1C        C  624   2.511   3.456   4.131
    1C        C  625   2.512   3.529   4.252
    1C        C  626   2.535   3.321   4.377
    1C        C  627   2.515   3.461   4.376
    1C        C  628   2.557   3.252   4.498
    1C        C  629   2.540   3.324   4.619
    1C        C  630   2.600   3.119   4.744
    1C        C  631   2.550   3.252   4.740
    1C        C  632   2.622   3.049   4.866
    1C        C  633   2.567   3.113   4.982
    1C        C  634   2.779   4.304   2.054
    1C        C  635   2.887   4.393   2.051
    1C        C  636   2.741   4.231   2.167
    1C        C  637   2.801   4.281   2.285
    1C        C  638   2.678   4.109   2.413
    1C        C  639   2.757   4.226   2.408
    1C        C  640   2.642   4.049   2.535
    1C        C  641   2.682   4.112   2.654
    1C        C  642   2.587   3.920   2.778
    1C        C  643   2.651   4.046   2.776
    1C        C  644   2.558   3.856   2.901
    1C        C  645   2.583   3.925   3.022
    1C        C  646   2.527   3.722   3.149
    1C        C  647   2.561   3.859   3.145
    1C        C  648   2.513   3.653   3.272
    1C        C  649   2.530   3.727   3.392
    1C        C  650   2.510   3.516   3.519
    1C        C  651   2.517   3.657   3.513
    1C        C  652   2.511   3.447   3.643
    1C        C  653   2.511   3.523   3.762
    1C        C  654   2.530   3.315   3.888
    1C        C  655   2.513   3.455   3.886
    1C        C  656   2.552   3.248   4.011
    1C        C  657   2.537   3.318   4.133
    1C        C  658   2.607   3.119   4.255
    1C        C  659   2.557   3.251   4.256
    1C        C  660   2.636   3.056   4.378
    1C        C  661   2.602   3.118   4.500
    1C        C  662   2.718   2.941   4.622
    1C        C  663   2.635   3.056   4.623
    1C        C  664   2.757   2.881   4.743
    1C        C  665   2.702   2.930   4.865
    1C        C  666   2.747   2.869   4.982
    1C        C  667   2.681   4.023   2.052
    1C        C  668   2.686   4.101   2.168
    1C        C  669   2.593   3.912   2.293
    1C        C  670   2.649   4.043   2.291
    1C        C  671   2.563   3.847   2.414
    1C        C  672   2.587   3.918   2.534
    1C        C  673   2.529   3.715   2.657
    1C        C  674   2.565   3.852   2.657
    1C        C  675   2.514   3.648   2.781
    1C        C  676   2.528   3.718   2.902
    1C        C  677   2.500   3.513   3.030
    1C        C  678   2.512   3.653   3.027
    1C        C  679   2.502   3.441   3.152
    1C        C  680   2.498   3.513   3.274
    1C        C  681   2.523   3.304   3.401
    1C        C  682   2.505   3.444   3.397
    1C        C  683   2.536   3.237   3.525
    1C        C  684   2.519   3.306   3.647
    1C        C  685   2.582   3.104   3.769
    1C        C  686   2.541   3.239   3.769
    1C        C  687   2.632   3.050   3.890
    1C        C  688   2.605   3.117   4.011
    1C        C  689   2.711   2.934   4.139
    1C        C  690   2.632   3.052   4.134
    1C        C  691   2.757   2.876   4.259
    1C        C  692   2.710   2.936   4.378
    1C        C  693   2.751   2.878   4.501
    1C        C  694   2.626   3.894   2.053
    1C        C  695   2.527   3.708   2.176
    1C        C  696   2.580   3.839   2.173
    1C        C  697   2.510   3.637   2.297
    1C        C  698   2.527   3.711   2.416
    1C        C  699   2.493   3.502   2.543
    1C        C  700   2.513   3.641   2.538
    1C        C  701   2.503   3.433   2.667
    1C        C  702   2.505   3.507   2.787
    1C        C  703   2.529   3.299   2.911
    1C        C  704   2.503   3.438   2.910
    1C        C  705   2.549   3.233   3.034
    1C        C  706   2.527   3.302   3.155
    1C        C  707   2.594   3.103   3.281
    1C        C  708   2.546   3.236   3.279
    1C        C  709   2.628   3.043   3.404
    1C        C  710   2.593   3.108   3.525
    1C        C  711   2.708   2.932   3.649
    1C        C  712   2.620   3.043   3.647
    1C        C  713   2.756   2.878   3.771
    1C        C  714   2.714   2.935   3.894
    1C        C  715   2.754   2.878   4.017
    1C        C  716   2.448   3.500   2.062
    1C        C  717   2.493   3.633   2.063
    1C        C  718   2.468   3.421   2.181
    1C        C  719   2.491   3.496   2.300
    1C        C  720   2.509   3.287   2.424
    1C        C  721   2.492   3.427   2.423
    1C        C  722   2.534   3.221   2.546
    1C        C  723   2.521   3.293   2.667
    1C        C  724   2.592   3.095   2.792
    1C        C  725   2.541   3.227   2.790
    1C        C  726   2.621   3.032   2.915
    1C        C  727   2.593   3.099   3.036
    1C        C  728   2.705   2.923   3.157
    1C        C  729   2.620   3.036   3.160
    1C        C  730   2.754   2.875   3.281
    1C        C  731   2.710   2.928   3.404
    1C        C  732   2.754   2.876   3.528
    1C        C  733   2.482   3.193   2.071
    1C        C  734   2.488   3.280   2.181
    1C        C  735   2.577   3.085   2.305
    1C        C  736   2.520   3.215   2.303
    1C        C  737   2.613   3.020   2.426
    1C        C  738   2.589   3.091   2.546
    1C        C  739   2.693   2.909   2.670
    1C        C  740   2.621   3.030   2.670
    1C        C  741   2.739   2.854   2.791
    1C        C  742   2.697   2.913   2.913
    1C        C  743   2.747   2.864   3.036
    1C        C  744   2.538   3.066   2.073
    1C        C  745   2.676   2.892   2.184
    1C        C  746   2.598   3.010   2.187
    1C        C  747   2.728   2.842   2.305
    1C        C  748   2.684   2.898   2.427
    1C        C  749   2.733   2.848   2.549
    1C        C  750   2.730   2.835   2.068
    1C        C  751   3.662   2.301   1.994
    1C        O  752   3.611   2.187   2.012
    1C        O  753   3.736   2.304   1.875
    1C        C  754   4.627   3.048   1.981
    1C        O  755   4.635   3.046   1.855
    1C        O  756   4.756   3.027   2.030
    1C        C  757   4.461   4.220   1.972
    1C        O  758   4.530   4.310   2.027
    1C        O  759   4.465   4.212   1.832
    1C        C  760   3.601   4.672   1.953
    1C        O  761   3.651   4.784   1.980
    1C        O  762   3.570   4.660   1.817
    1C        C  763   2.861   4.514   1.969
    1C        O  764   2.883   4.500   1.846
    1C        O  765   2.844   4.638   2.032
    1C        C  766   2.356   3.467   1.952
    1C        O  767   2.400   3.433   1.839
    1C        O  768   2.218   3.458   1.974
    1C        C  769   4.686   3.582   5.058
    1C        O  770   4.662   3.559   5.180
    1C        O  771   4.809   3.536   5.012
    1C        C  772   4.274   4.431   5.044
    1C        O  773   4.234   4.437   5.164
    1C        O  774   4.353   4.543   5.018
    1C        C  775   4.140   2.496   5.051
    1C        O  776   4.217   2.409   5.003
    1C        O  777   4.140   2.497   5.191
    1C        C  778   2.883   4.536   5.058
    1C        O  779   2.811   4.638   5.036
    1C        O  780   2.931   4.520   5.189
    1C        C  781   2.477   3.037   5.071
    1C        O  782   2.364   3.024   5.016
    1C        O  783   2.477   3.045   5.210
    1C        C  784   2.425   3.990   5.067
    1C        O  785   2.313   4.048   5.067
    1C        O  786   2.458   3.934   5.191
    1C        C  787   2.950   2.420   2.004
    1C        O  788   2.952   2.432   1.878
    1C        O  789   2.835   2.360   2.054
    1C        C  790   3.186   2.386   5.083
    1C        O  791   3.210   2.264   5.067
    1C        O  792   3.155   2.410   5.218
    1C        H  793   4.277   3.025   5.056
    1C        H  794   4.244   2.774   5.063
    1C        H  795   4.513   3.132   5.060
    1C        H  796   4.510   3.369   5.064
    1C        H  797   4.589   3.820   5.032
    1C        H  798   4.391   3.955   5.052
    1C        H  799   4.357   4.194   5.037
    1C        H  800   4.031   4.533   5.029
    1C        H  801   3.809   4.556   5.042
    1C        H  802   3.591   4.673   5.016
    1C        H  803   3.397   4.461   5.022
    1C        H  804   3.159   4.525   5.049
    1C        H  805   3.891   2.491   5.067
    1C        H  806   3.670   2.480   5.076
    1C        H  807   3.017   2.583   5.071
    1C        H  808   3.441   2.454   5.072
    1C        H  809   2.841   2.705   5.068
    1C        H  810   2.737   2.925   5.073
    1C        H  811   2.479   3.284   5.062
    1C        H  812   2.540   3.500   5.070
    1C        H  813   2.450   3.723   5.049
    1C        H  814   2.595   4.173   5.045
    1C        H  815   2.744   4.318   5.045
    1C        H  816   2.720   2.893   1.978
    1C        H  817   2.823   2.660   1.986
    1C        H  818   3.208   2.419   1.993
    1C        H  819   3.426   2.453   1.984
    1C        H  820   3.879   2.472   1.986
    1C        H  821   4.012   2.692   1.992
    1C        H  822   4.252   2.715   1.974
    1C        H  823   4.364   2.923   1.961
    1C        H  824   4.623   3.297   1.995
    1C        H  825   4.542   3.518   1.959
    1C        H  826   4.492   3.743   1.949
    1C        H  827   3.802   4.502   1.946
    1C        H  828   3.989   4.408   1.943
    1C        H  829   4.183   4.287   1.953
    1C        H  830   4.499   3.971   1.960
    1C        H  831   2.680   3.825   1.991
    1C        H  832   2.710   4.062   1.956
    1C        H  833   2.717   4.301   1.966
    1C        H  834   3.385   4.429   1.964
    1C        H  835   3.142   4.425   1.949
    1C        H  836   2.539   3.018   1.978
    1C        H  837   2.428   3.221   1.983
    1C        H  838   2.517   3.673   1.967
    2V3OU   H29  839   2.803   3.547   3.232
    2V3OU   C27  840   2.793   3.498   3.332
    2V3OU   H27  841   2.734   3.567   3.397
    2V3OU   H28  842   2.741   3.399   3.321
    2V3OU   O11  843   2.912   3.474   3.406
    2V3OU   C15  844   2.924   3.400   3.522
    2V3OU   C13  845   3.053   3.372   3.572
    2V3OU   C14  846   3.078   3.264   3.657
    2V3OU   C16  847   2.979   3.186   3.716
    2V3OU    H6  848   2.996   3.110   3.793
    2V3OU   C12  849   3.215   3.228   3.698
    2V3OU    O2  850   3.237   3.114   3.745
    2V3OU   C10  851   3.328   3.304   3.642
    2V3OU    C8  852   3.459   3.266   3.668
    2V3OU   O10  853   3.486   3.138   3.705
    2V3OU   H26  854   3.406   3.109   3.751
    2V3OU    C6  855   3.567   3.349   3.624
    2V3OU    C5  856   3.537   3.463   3.550
    2V3OU    C4  857   3.705   3.293   3.628
    2V3OU    H4  858   3.724   3.222   3.714
    2V3OU    H5  859   3.712   3.230   3.535
    2V3OU    C2  860   3.815   3.399   3.627
    2V3OU    O6  861   3.814   3.475   3.748
    2V3OU   H21  862   3.762   3.548   3.709
    2V3OU    C3  863   3.780   3.494   3.512
    2V3OU    H2  864   3.854   3.577   3.502
    2V3OU    H3  865   3.774   3.431   3.420
    2V3OU   C25  866   3.947   3.323   3.606
    2V3OU    O7  867   3.991   3.293   3.495
    2V3OU   C26  868   4.026   3.288   3.731
    2V3OU   H22  869   4.063   3.379   3.785
    2V3OU   H23  870   4.116   3.227   3.702
    2V3OU    O8  871   3.958   3.207   3.824
    2V3OU   H24  872   3.922   3.264   3.894
    2V3OU    C1  873   3.646   3.564   3.530
    2V3OU    H1  874   3.623   3.613   3.431
    2V3OU    O3  875   3.654   3.655   3.639
    2V3OU   C19  876   3.612   3.792   3.631
    2V3OU    H9  877   3.516   3.793   3.572
    2V3OU    O4  878   3.715   3.847   3.553
    2V3OU   C20  879   3.847   3.882   3.595
    2V3OU   H10  880   3.898   3.782   3.610
    2V3OU   C24  881   3.609   3.854   3.771
    2V3OU   H16  882   3.543   3.794   3.839
    2V3OU   H17  883   3.561   3.954   3.755
    2V3OU   C23  884   3.749   3.876   3.828
    2V3OU   H15  885   3.798   3.773   3.841
    2V3OU    N1  886   3.742   3.951   3.952
    2V3OU   H19  887   3.806   3.923   4.023
    2V3OU   H20  888   3.650   3.937   3.990
    2V3OU   C21  889   3.846   3.951   3.731
    2V3OU   H11  890   3.951   3.928   3.767
    2V3OU    O5  891   3.820   4.090   3.736
    2V3OU   H18  892   3.787   4.097   3.827
    2V3OU   C22  893   3.912   3.957   3.480
    2V3OU   H12  894   3.860   4.055   3.465
    2V3OU   H13  895   3.903   3.899   3.384
    2V3OU   H14  896   4.020   3.974   3.507
    2V3OU   C11  897   3.159   3.471   3.548
    2V3OU    O1  898   3.134   3.586   3.505
    2V3OU    C9  899   3.297   3.426   3.575
    2V3OU    C7  900   3.402   3.502   3.525
    2V3OU    O9  901   3.379   3.612   3.445
    2V3OU   H25  902   3.286   3.632   3.466
    2V3OU   C17  903   2.826   3.315   3.577
    2V3OU    H7  904   2.730   3.352   3.541
    2V3OU   C18  905   2.851   3.211   3.667
    2V3OU    H8  906   2.786   3.170   3.745
    3SOL     OW  907   2.638   4.629   5.710
    3SOL    HW1  908   2.719   4.677   5.678
    3SOL    HW2  909   2.654   4.531   5.707
    4SOL     OW  910   6.486   6.887   6.629
    4SOL    HW1  911   6.411   6.944   6.662
    4SOL    HW2  912   6.485   6.799   6.678
    5SOL     OW  913   4.996   2.216   2.464
    5SOL    HW1  914   5.001   2.118   2.444
    5SOL    HW2  915   4.904   2.250   2.445
    6SOL     OW  916   4.887   1.896   2.321
    6SOL    HW1  917   4.895   1.866   2.226
    6SOL    HW2  918   4.800   1.945   2.332
    7SOL     OW  919   0.780   4.079   4.076
    7SOL    HW1  920   0.746   4.166   4.111
    7SOL    HW2  921   0.794   4.015   4.151
    8SOL     OW  922   2.697   2.243   5.318
    8SOL    HW1  923   2.708   2.202   5.409
    8SOL    HW2  924   2.734   2.335   5.319
    9SOL     OW  925   6.035   2.355   5.789
    9SOL    HW1  926   6.063   2.450   5.807
    9SOL    HW2  927   6.083   2.294   5.851
   10SOL     OW  928   2.887   5.054   4.746
   10SOL    HW1  929   2.903   5.007   4.833
   10SOL    HW2  930   2.960   5.121   4.730
   11SOL     OW  931   1.963   1.651   5.974
   11SOL    HW1  932   1.893   1.580   5.983
   11SOL    HW2  933   2.044   1.624   6.027
   12SOL     OW  934   2.956   4.788   3.876
   12SOL    HW1  935   2.897   4.775   3.956
   12SOL    HW2  936   3.039   4.734   3.887
   13SOL     OW  937   4.297   6.222   3.508
   13SOL    HW1  938   4.333   6.143   3.459
   13SOL    HW2  939   4.300   6.205   3.606
   14SOL     OW  940   3.713   4.902   6.294
   14SOL    HW1  941   3.768   4.860   6.222
   14SOL    HW2  942   3.774   4.944   6.362
   15SOL     OW  943   0.688   6.700   0.224
   15SOL    HW1  944   0.769   6.752   0.251
   15SOL    HW2  945   0.699   6.605   0.254
   16SOL     OW  946   5.215   2.837   6.703
   16SOL    HW1  947   5.259   2.785   6.630
   16SOL    HW2  948   5.242   2.799   6.792
   17SOL     OW  949   5.119   0.095   6.279
   17SOL    HW1  950   5.110   0.107   6.377
   17SOL    HW2  951   5.146   0.000   6.259
   18SOL     OW  952   3.483   0.795   4.931
   18SOL    HW1  953   3.386   0.776   4.919
   18SOL    HW2  954   3.498   0.839   5.019
   19SOL     OW  955   0.372   2.728   2.210
   19SOL    HW1  956   0.278   2.738   2.176
   19SOL    HW2  957   0.433   2.709   2.134
   20SOL     OW  958   4.912   2.223   5.401
   20SOL    HW1  959   4.819   2.231   5.364
   20SOL    HW2  960   4.975   2.199   5.327
   21SOL     OW  961   2.504   0.874   3.108
   21SOL    HW1  962   2.513   0.926   3.193
   21SOL    HW2  963   2.575   0.902   3.044
   22SOL     OW  964   1.357   6.134   0.463
   22SOL    HW1  965   1.280   6.183   0.503
   22SOL    HW2  966   1.354   6.038   0.491
   23SOL     OW  967   3.838   5.426   2.379
   23SOL    HW1  968   3.883   5.342   2.347
   23SOL    HW2  969   3.739   5.411   2.383
   24SOL     OW  970   3.690   0.569   2.489
   24SOL    HW1  971   3.613   0.595   2.432
   24SOL    HW2  972   3.713   0.644   2.551
   25SOL     OW  973   1.905   0.470   3.517
   25SOL    HW1  974   1.806   0.484   3.520
   25SOL    HW2  975   1.951   0.556   3.494
   26SOL     OW  976   6.753   2.133   6.699
   26SOL    HW1  977   6.665   2.087   6.706
   26SOL    HW2  978   6.743   2.229   6.725
   27SOL     OW  979   1.792   1.717   1.853
   27SOL    HW1  980   1.797   1.625   1.892
   27SOL    HW2  981   1.758   1.780   1.923
   28SOL     OW  982   0.598   0.575   4.911
   28SOL    HW1  983   0.676   0.596   4.970
   28SOL    HW2  984   0.625   0.588   4.815
   29SOL     OW  985   6.804   1.137   1.156
   29SOL    HW1  986   6.754   1.090   1.084
   29SOL    HW2  987   6.741   1.195   1.208
   30SOL     OW  988   4.781   0.124   5.288
   30SOL    HW1  989   4.755   0.095   5.196
   30SOL    HW2  990   4.820   0.047   5.338
   31SOL     OW  991   0.676   2.345   5.668
   31SOL    HW1  992   0.757   2.354   5.610
   31SOL    HW2  993   0.594   2.364   5.614
   32SOL     OW  994   1.105   1.960   2.168
   32SOL    HW1  995   1.122   2.007   2.082
   32SOL    HW2  996   1.128   1.863   2.158
   33SOL     OW  997   0.844   4.739   5.005
   33SOL    HW1  998   0.898   4.716   5.086
   33SOL    HW2  999   0.905   4.758   4.929
   34SOL     OW 1000   2.584   5.574   5.177
   34SOL    HW1 1001   2.604   5.619   5.090
   34SOL    HW2 1002   2.526   5.633   5.233
   35SOL     OW 1003   4.330   2.481   5.741
   35SOL    HW1 1004   4.372   2.552   5.799
   35SOL    HW2 1005   4.370   2.392   5.765
   36SOL     OW 1006   4.877   1.707   3.667
   36SOL    HW1 1007   4.938   1.785   3.653
   36SOL    HW2 1008   4.919   1.625   3.628
   37SOL     OW 1009   1.746   1.941   4.793
   37SOL    HW1 1010   1.801   1.918   4.874
   37SOL    HW2 1011   1.785   2.021   4.748
   38SOL     OW 1012   1.459   4.524   1.747
   38SOL    HW1 1013   1.405   4.440   1.745
   38SOL    HW2 1014   1.464   4.557   1.841
   39SOL     OW 1015   5.903   4.975   6.345
   39SOL    HW1 1016   5.840   5.050   6.363
   39SOL    HW2 1017   5.880   4.931   6.258
   40SOL     OW 1018   3.584   1.959   0.344
   40SOL    HW1 1019   3.634   2.003   0.269
   40SOL    HW2 1020   3.620   1.866   0.357
   41SOL     OW 1021   5.578   3.642   3.128
   41SOL    HW1 1022   5.645   3.572   3.152
   41SOL    HW2 1023   5.486   3.611   3.153
   42SOL     OW 1024   3.464   6.385   4.897
   42SOL    HW1 1025   3.474   6.330   4.981
   42SOL    HW2 1026   3.369   6.415   4.888
   43SOL     OW 1027   4.475   0.954   5.680
   43SOL    HW1 1028   4.462   0.858   5.707
   43SOL    HW2 1029   4.505   1.007   5.759
   44SOL     OW 1030   5.796   2.339   5.083
   44SOL    HW1 1031   5.722   2.405   5.099
   44SOL    HW2 1032   5.757   2.249   5.064
   45SOL     OW 1033   4.476   5.198   1.505
   45SOL    HW1 1034   4.471   5.112   1.556
   45SOL    HW2 1035   4.489   5.274   1.569
   46SOL     OW 1036   1.392   2.054   3.639
   46SOL    HW1 1037   1.445   2.074   3.721
   46SOL    HW2 1038   1.434   1.979   3.588
   47SOL     OW 1039   4.218   4.291   1.195
   47SOL    HW1 1040   4.180   4.206   1.156
   47SOL    HW2 1041   4.150   4.333   1.255
   48SOL     OW 1042   6.729   2.430   6.752
   48SOL    HW1 1043   6.658   2.498   6.771
   48SOL    HW2 1044   6.815   2.477   6.733
   49SOL     OW 1045   5.867   2.563   1.458
   49SOL    HW1 1046   5.956   2.535   1.420
   49SOL    HW2 1047   5.881   2.624   1.536
   50SOL     OW 1048   6.449   1.220   5.196
   50SOL    HW1 1049   6.410   1.133   5.166
   50SOL    HW2 1050   6.504   1.259   5.121
   51SOL     OW 1051   2.142   6.328   2.522
   51SOL    HW1 1052   2.229   6.315   2.475
   51SOL    HW2 1053   2.146   6.285   2.613
   52SOL     OW 1054   5.443   3.318   1.818
   52SOL    HW1 1055   5.373   3.275   1.876
   52SOL    HW2 1056   5.409   3.326   1.725
   53SOL     OW 1057   5.220   0.585   3.487
   53SOL    HW1 1058   5.128   0.581   3.449
   53SOL    HW2 1059   5.252   0.492   3.508
   54SOL     OW 1060   5.596   6.850   0.896
   54SOL    HW1 1061   5.560   6.923   0.955
   54SOL    HW2 1062   5.623   6.889   0.808
   55SOL     OW 1063   2.083   2.697   4.927
   55SOL    HW1 1064   2.121   2.752   4.853
   55SOL    HW2 1065   2.060   2.756   5.004
   56SOL     OW 1066   1.143   1.436   1.380
   56SOL    HW1 1067   1.226   1.415   1.329
   56SOL    HW2 1068   1.122   1.360   1.442
   57SOL     OW 1069   3.829   1.303   0.754
   57SOL    HW1 1070   3.848   1.214   0.795
   57SOL    HW2 1071   3.810   1.292   0.656
   58SOL     OW 1072   0.673   6.443   5.761
   58SOL    HW1 1073   0.636   6.529   5.726
   58SOL    HW2 1074   0.772   6.444   5.751
   59SOL     OW 1075   0.188   3.738   6.019
   59SOL    HW1 1076   0.210   3.792   6.100
   59SOL    HW2 1077   0.107   3.681   6.037
   60SOL     OW 1078   4.827   2.883   4.106
   60SOL    HW1 1079   4.847   2.942   4.027
   60SOL    HW2 1080   4.763   2.811   4.078
   61SOL     OW 1081   6.789   1.050   4.236
   61SOL    HW1 1082   6.829   1.121   4.294
   61SOL    HW2 1083   6.804   1.074   4.140
   62SOL     OW 1084   2.220   1.579   1.870
   62SOL    HW1 1085   2.163   1.497   1.863
   62SOL    HW2 1086   2.296   1.572   1.805
   63SOL     OW 1087   4.183   0.368   3.922
   63SOL    HW1 1088   4.206   0.444   3.861
   63SOL    HW2 1089   4.265   0.341   3.972
   64SOL     OW 1090   0.112   2.925   6.595
   64SOL    HW1 1091   0.152   2.874   6.519
   64SOL    HW2 1092   0.116   2.870   6.678
   65SOL     OW 1093   1.082   5.904   6.085
   65SOL    HW1 1094   0.987   5.935   6.094
   65SOL    HW2 1095   1.093   5.854   5.999
   66SOL     OW 1096   3.432   0.485   3.595
   66SOL    HW1 1097   3.443   0.566   3.536
   66SOL    HW2 1098   3.378   0.416   3.547
   67SOL     OW 1099   0.666   3.319   6.495
   67SOL    HW1 1100   0.659   3.240   6.434
   67SOL    HW2 1101   0.638   3.402   6.447
   68SOL     OW 1102   6.909   1.676   6.311
   68SOL    HW1 1103   6.819   1.649   6.345
   68SOL    HW2 1104   6.923   1.773   6.328
   69SOL     OW 1105   1.359   3.316   5.019
   69SOL    HW1 1106   1.316   3.232   5.053
   69SOL    HW2 1107   1.441   3.335   5.072
   70SOL     OW 1108   5.123   5.176   4.899
   70SOL    HW1 1109   5.152   5.247   4.835
   70SOL    HW2 1110   5.087   5.218   4.982
   71SOL     OW 1111   5.021   1.846   3.382
   71SOL    HW1 1112   4.970   1.867   3.298
   71SOL    HW2 1113   5.002   1.752   3.409
   72SOL     OW 1114   0.438   1.314   3.020
   72SOL    HW1 1115   0.395   1.229   2.991
   72SOL    HW2 1116   0.525   1.325   2.972
   73SOL     OW 1117   2.885   0.675   1.223
   73SOL    HW1 1118   2.838   0.737   1.286
   73SOL    HW2 1119   2.964   0.721   1.183
   74SOL     OW 1120   2.962   0.958   6.699
   74SOL    HW1 1121   2.963   1.056   6.679
   74SOL    HW2 1122   3.056   0.923   6.693
   75SOL     OW 1123   3.739   1.359   1.614
   75SOL    HW1 1124   3.776   1.434   1.560
   75SOL    HW2 1125   3.810   1.322   1.673
   76SOL     OW 1126   2.669   3.456   6.354
   76SOL    HW1 1127   2.764   3.481   6.336
   76SOL    HW2 1128   2.639   3.385   6.290
   77SOL     OW 1129   2.084   5.952   2.991
   77SOL    HW1 1130   2.119   6.043   3.013
   77SOL    HW2 1131   2.153   5.902   2.940
   78SOL     OW 1132   4.418   1.425   1.108
   78SOL    HW1 1133   4.422   1.326   1.120
   78SOL    HW2 1134   4.470   1.469   1.182
   79SOL     OW 1135   2.894   6.336   1.148
   79SOL    HW1 1136   2.927   6.275   1.076
   79SOL    HW2 1137   2.820   6.291   1.199
   80SOL     OW 1138   4.199   1.304   4.491
   80SOL    HW1 1139   4.207   1.381   4.427
   80SOL    HW2 1140   4.288   1.283   4.530
   81SOL     OW 1141   1.671   6.814   1.754
   81SOL    HW1 1142   1.635   6.772   1.671
   81SOL    HW2 1143   1.755   6.864   1.733
   82SOL     OW 1144   0.011   5.684   1.154
   82SOL    HW1 1145   0.021   5.584   1.158
   82SOL    HW2 1146   0.020   5.714   1.059
   83SOL     OW 1147   0.969   0.840   6.455
   83SOL    HW1 1148   0.903   0.782   6.502
   83SOL    HW2 1149   1.025   0.784   6.394
   84SOL     OW 1150   5.966   4.185   3.189
   84SOL    HW1 1151   5.971   4.089   3.161
   84SOL    HW2 1152   6.017   4.199   3.273
   85SOL     OW 1153   1.256   0.968   3.426
   85SOL    HW1 1154   1.233   1.065   3.416
   85SOL    HW2 1155   1.223   0.918   3.345
   86SOL     OW 1156   6.915   1.349   6.928
   86SOL    HW1 1157   6.910   1.385   7.021
   86SOL    HW2 1158   7.006   1.310   6.912
   87SOL     OW 1159   3.857   4.129   0.959
   87SOL    HW1 1160   3.824   4.074   0.882
   87SOL    HW2 1161   3.947   4.097   0.988
   88SOL     OW 1162   3.071   2.227   6.308
   88SOL    HW1 1163   3.065   2.253   6.405
   88SOL    HW2 1164   3.002   2.278   6.256
   89SOL     OW 1165   3.072   3.644   0.283
   89SOL    HW1 1166   3.043   3.702   0.359
   89SOL    HW2 1167   3.120   3.564   0.318
   90SOL     OW 1168   3.970   4.883   2.504
   90SOL    HW1 1169   3.899   4.815   2.481
   90SOL    HW2 1170   3.985   4.884   2.603
   91SOL     OW 1171   5.960   4.335   6.102
   91SOL    HW1 1172   5.881   4.288   6.139
   91SOL    HW2 1173   5.986   4.293   6.014
   92SOL     OW 1174   4.987   4.085   0.378
   92SOL    HW1 1175   5.008   4.169   0.328
   92SOL    HW2 1176   4.895   4.054   0.356
   93SOL     OW 1177   2.928   3.435   0.141
   93SOL    HW1 1178   2.996   3.408   0.074
   93SOL    HW2 1179   2.962   3.513   0.194
   94SOL     OW 1180   1.984   5.902   6.978
   94SOL    HW1 1181   1.966   5.989   0.002
   94SOL    HW2 1182   1.936   5.898   6.891
   95SOL     OW 1183   1.667   0.324   2.980
   95SOL    HW1 1184   1.612   0.289   3.056
   95SOL    HW2 1185   1.709   0.411   3.006
   96SOL     OW 1186   4.389   5.603   6.145
   96SOL    HW1 1187   4.349   5.608   6.236
   96SOL    HW2 1188   4.316   5.587   6.078
   97SOL     OW 1189   2.334   3.763   5.342
   97SOL    HW1 1190   2.377   3.824   5.276
   97SOL    HW2 1191   2.360   3.668   5.323
   98SOL     OW 1192   1.010   1.220   0.971
   98SOL    HW1 1193   0.992   1.122   0.957
   98SOL    HW2 1194   0.943   1.257   1.035
   99SOL     OW 1195   3.630   3.522   2.667
   99SOL    HW1 1196   3.699   3.578   2.622
   99SOL    HW2 1197   3.565   3.581   2.715
  100SOL     OW 1198   6.721   6.738   4.167
  100SOL    HW1 1199   6.786   6.770   4.098
  100SOL    HW2 1200   6.764   6.668   4.224
  101SOL     OW 1201   0.369   5.914   2.331
  101SOL    HW1 1202   0.277   5.910   2.369
  101SOL    HW2 1203   0.407   6.005   2.345
  102SOL     OW 1204   3.772   5.911   1.858
  102SOL    HW1 1205   3.727   5.999   1.846
  102SOL    HW2 1206   3.802   5.877   1.768
  103SOL     OW 1207   1.655   2.272   2.892
  103SOL    HW1 1208   1.605   2.278   2.806
  103SOL    HW2 1209   1.732   2.336   2.890
  104SOL     OW 1210   1.614   4.834   1.654
  104SOL    HW1 1211   1.546   4.765   1.680
  104SOL    HW2 1212   1.674   4.852   1.731
  105SOL     OW 1213   5.569   1.438   5.977
  105SOL    HW1 1214   5.473   1.428   5.954
  105SOL    HW2 1215   5.585   1.530   6.014
  106SOL     OW 1216   4.153   6.183   2.962
  106SOL    HW1 1217   4.222   6.204   3.031
  106SOL    HW2 1218   4.115   6.093   2.979
  107SOL     OW 1219   0.143   1.141   6.929
  107SOL    HW1 1220   0.061   1.111   6.977
  107SOL    HW2 1221   0.183   1.063   6.881
  108SOL     OW 1222   3.566   0.194   6.033
  108SOL    HW1 1223   3.596   0.184   5.939
  108SOL    HW2 1224   3.502   0.120   6.055
  109SOL     OW 1225   2.812   0.651   2.378
  109SOL    HW1 1226   2.727   0.659   2.431
  109SOL    HW2 1227   2.886   0.620   2.438
  110SOL     OW 1228   2.534   4.890   4.449
  110SOL    HW1 1229   2.550   4.798   4.485
  110SOL    HW2 1230   2.475   4.884   4.368
  111SOL     OW 1231   2.109   1.183   3.234
  111SOL    HW1 1232   2.055   1.178   3.317
  111SOL    HW2 1233   2.059   1.142   3.158
  112SOL     OW 1234   5.230   6.388   0.409
  112SOL    HW1 1235   5.312   6.364   0.357
  112SOL    HW2 1236   5.201   6.480   0.383
  113SOL     OW 1237   0.946   5.844   2.608
  113SOL    HW1 1238   0.978   5.754   2.638
  113SOL    HW2 1239   0.954   5.909   2.683
  114SOL     OW 1240   1.671   6.194   1.928
  114SOL    HW1 1241   1.663   6.281   1.978
  114SOL    HW2 1242   1.634   6.120   1.985
  115SOL     OW 1243   5.181   0.579   3.172
  115SOL    HW1 1244   5.252   0.616   3.232
  115SOL    HW2 1245   5.091   0.598   3.210
  116SOL     OW 1246   0.287   5.700   1.376
  116SOL    HW1 1247   0.320   5.759   1.449
  116SOL    HW2 1248   0.203   5.737   1.338
  117SOL     OW 1249   1.693   0.941   0.652
  117SOL    HW1 1250   1.785   0.930   0.614
  117SOL    HW2 1251   1.683   1.033   0.689
  118SOL     OW 1252   1.911   2.457   2.912
  118SOL    HW1 1253   1.998   2.435   2.955
  118SOL    HW2 1254   1.854   2.511   2.974
  119SOL     OW 1255   7.021   0.305   6.671
  119SOL    HW1 1256   6.965   0.308   6.754
  119SOL    HW2 1257   0.044   0.216   6.664
  120SOL     OW 1258   5.225   0.307   4.238
  120SOL    HW1 1259   5.125   0.307   4.244
  120SOL    HW2 1260   5.264   0.322   4.329
  121SOL     OW 1261   1.393   4.130   0.432
  121SOL    HW1 1262   1.450   4.071   0.490
  121SOL    HW2 1263   1.307   4.148   0.479
  122SOL     OW 1264   1.438   3.456   0.010
  122SOL    HW1 1265   1.487   3.368   0.002
  122SOL    HW2 1266   1.481   3.523   6.971
  123SOL     OW 1267   0.932   1.230   2.473
  123SOL    HW1 1268   1.029   1.235   2.450
  123SOL    HW2 1269   0.878   1.277   2.403
  124SOL     OW 1270   3.023   2.112   0.361
  124SOL    HW1 1271   3.080   2.098   0.279
  124SOL    HW2 1272   2.956   2.184   0.343
  125SOL     OW 1273   3.377   2.762   0.736
  125SOL    HW1 1274   3.433   2.843   0.751
  125SOL    HW2 1275   3.428   2.697   0.679
  126SOL     OW 1276   3.616   3.042   2.795
  126SOL    HW1 1277   3.652   3.022   2.704
  126SOL    HW2 1278   3.668   2.992   2.863
  127SOL     OW 1279   6.735   6.383   6.196
  127SOL    HW1 1280   6.808   6.381   6.129
  127SOL    HW2 1281   6.677   6.463   6.182
  128SOL     OW 1282   5.108   3.412   1.492
  128SOL    HW1 1283   5.093   3.494   1.547
  128SOL    HW2 1284   5.127   3.438   1.398
  129SOL     OW 1285   3.026   4.354   0.631
  129SOL    HW1 1286   3.117   4.380   0.663
  129SOL    HW2 1287   3.033   4.315   0.539
  130SOL     OW 1288   6.276   0.510   4.878
  130SOL    HW1 1289   6.225   0.575   4.823
  130SOL    HW2 1290   6.367   0.497   4.839
  131SOL     OW 1291   5.762   0.930   3.961
  131SOL    HW1 1292   5.723   0.944   3.870
  131SOL    HW2 1293   5.816   0.846   3.961
  132SOL     OW 1294   3.274   2.691   1.211
  132SOL    HW1 1295   3.269   2.752   1.132
  132SOL    HW2 1296   3.223   2.607   1.192
  133SOL     OW 1297   5.298   1.097   4.118
  133SOL    HW1 1298   5.263   1.153   4.193
  133SOL    HW2 1299   5.222   1.069   4.059
  134SOL     OW 1300   0.255   0.056   2.557
  134SOL    HW1 1301   0.299   0.037   2.645
  134SOL    HW2 1302   0.285   7.010   2.489
  135SOL     OW 1303   5.216   3.672   4.139
  135SOL    HW1 1304   5.137   3.627   4.180
  135SOL    HW2 1305   5.297   3.657   4.196
  136SOL     OW 1306   2.003   6.140   4.491
  136SOL    HW1 1307   2.032   6.200   4.417
  136SOL    HW2 1308   2.042   6.173   4.578
  137SOL     OW 1309   4.394   1.125   4.561
  137SOL    HW1 1310   4.327   1.063   4.601
  137SOL    HW2 1311   4.430   1.086   4.476
  138SOL     OW 1312   0.992   4.370   3.298
  138SOL    HW1 1313   0.922   4.423   3.344
  138SOL    HW2 1314   1.022   4.295   3.358
  139SOL     OW 1315   2.227   5.780   6.298
  139SOL    HW1 1316   2.185   5.814   6.214
  139SOL    HW2 1317   2.318   5.819   6.308
  140SOL     OW 1318   1.322   6.660   3.303
  140SOL    HW1 1319   1.314   6.758   3.281
  140SOL    HW2 1320   1.338   6.609   3.219
  141SOL     OW 1321   6.706   2.259   6.319
  141SOL    HW1 1322   6.691   2.284   6.223
  141SOL    HW2 1323   6.804   2.265   6.340
  142SOL     OW 1324   2.113   3.747   1.951
  142SOL    HW1 1325   2.150   3.656   1.965
  142SOL    HW2 1326   2.188   3.811   1.930
  143SOL     OW 1327   5.726   5.785   1.152
  143SOL    HW1 1328   5.681   5.847   1.087
  143SOL    HW2 1329   5.722   5.825   1.244
  144SOL     OW 1330   2.369   4.750   4.896
  144SOL    HW1 1331   2.276   4.724   4.923
  144SOL    HW2 1332   2.434   4.715   4.965
  145SOL     OW 1333   1.752   5.106   1.390
  145SOL    HW1 1334   1.715   5.062   1.309
  145SOL    HW2 1335   1.685   5.170   1.427
  146SOL     OW 1336   4.734   0.986   6.418
  146SOL    HW1 1337   4.726   1.083   6.393
  146SOL    HW2 1338   4.815   0.974   6.476
  147SOL     OW 1339   5.243   1.650   5.798
  147SOL    HW1 1340   5.284   1.560   5.788
  147SOL    HW2 1341   5.149   1.648   5.763
  148SOL     OW 1342   0.835   5.628   1.599
  148SOL    HW1 1343   0.761   5.584   1.650
  148SOL    HW2 1344   0.872   5.563   1.532
  149SOL     OW 1345   3.368   1.758   4.584
  149SOL    HW1 1346   3.288   1.807   4.619
  149SOL    HW2 1347   3.437   1.823   4.554
  150SOL     OW 1348   4.609   0.213   6.144
  150SOL    HW1 1349   4.585   0.127   6.189
  150SOL    HW2 1350   4.592   0.290   6.206
  151SOL     OW 1351   3.613   1.046   1.895
  151SOL    HW1 1352   3.535   1.106   1.879
  151SOL    HW2 1353   3.617   1.024   1.993
  152SOL     OW 1354   6.695   1.569   0.092
  152SOL    HW1 1355   6.723   1.581   7.017
  152SOL    HW2 1356   6.775   1.572   0.151
  153SOL     OW 1357   2.816   0.568   2.969
  153SOL    HW1 1358   2.858   0.486   2.930
  153SOL    HW2 1359   2.880   0.645   2.963
  154SOL     OW 1360   0.155   3.012   0.380
  154SOL    HW1 1361   0.095   2.977   0.309
  154SOL    HW2 1362   0.244   2.966   0.374
  155SOL     OW 1363   0.989   0.254   2.958
  155SOL    HW1 1364   1.006   0.169   3.007
  155SOL    HW2 1365   0.982   0.329   3.024
  156SOL     OW 1366   6.235   1.013   6.992
  156SOL    HW1 1367   6.309   0.957   0.009
  156SOL    HW2 1368   6.271   1.069   6.917
  157SOL     OW 1369   5.539   3.304   0.679
  157SOL    HW1 1370   5.589   3.390   0.696
  157SOL    HW2 1371   5.447   3.311   0.718
  158SOL     OW 1372   1.562   2.318   1.013
  158SOL    HW1 1373   1.526   2.375   0.939
  158SOL    HW2 1374   1.592   2.230   0.976
  159SOL     OW 1375   4.266   5.063   1.037
  159SOL    HW1 1376   4.340   5.131   1.032
  159SOL    HW2 1377   4.266   5.022   1.128
  160SOL     OW 1378   6.365   0.276   1.120
  160SOL    HW1 1379   6.378   0.292   1.023
  160SOL    HW2 1380   6.368   0.177   1.138
  161SOL     OW 1381   2.351   6.992   2.430
  161SOL    HW1 1382   2.396   0.027   2.360
  161SOL    HW2 1383   2.265   6.957   2.393
  162SOL     OW 1384   3.055   6.920   0.041
  162SOL    HW1 1385   3.049   6.919   0.141
  162SOL    HW2 1386   3.091   7.007   0.010
  163SOL     OW 1387   0.365   5.251   3.020
  163SOL    HW1 1388   0.266   5.258   3.028
  163SOL    HW2 1389   0.393   5.155   3.027
  164SOL     OW 1390   0.898   3.059   2.540
  164SOL    HW1 1391   0.895   3.154   2.569
  164SOL    HW2 1392   0.982   3.016   2.573
  165SOL     OW 1393   5.881   4.974   0.267
  165SOL    HW1 1394   5.794   4.985   0.315
  165SOL    HW2 1395   5.930   4.895   0.303
  166SOL     OW 1396   6.568   3.461   2.321
  166SOL    HW1 1397   6.574   3.363   2.300
  166SOL    HW2 1398   6.502   3.504   2.260
  167SOL     OW 1399   6.205   1.275   6.518
  167SOL    HW1 1400   6.223   1.185   6.479
  167SOL    HW2 1401   6.221   1.272   6.617
  168SOL     OW 1402   3.954   1.897   1.815
  168SOL    HW1 1403   3.885   1.837   1.855
  168SOL    HW2 1404   3.926   1.924   1.723
  169SOL     OW 1405   5.739   2.832   6.900
  169SOL    HW1 1406   5.669   2.886   6.854
  169SOL    HW2 1407   5.782   2.770   6.834
  170SOL     OW 1408   7.007   6.105   2.594
  170SOL    HW1 1409   0.059   6.121   2.660
  170SOL    HW2 1410   0.019   6.047   2.520
  171SOL     OW 1411   1.873   3.444   0.164
  171SOL    HW1 1412   1.956   3.468   0.114
  171SOL    HW2 1413   1.887   3.460   0.262
  172SOL     OW 1414   6.233   2.339   2.436
  172SOL    HW1 1415   6.157   2.281   2.408
  172SOL    HW2 1416   6.276   2.301   2.518
  173SOL     OW 1417   5.552   1.191   4.887
  173SOL    HW1 1418   5.592   1.267   4.836
  173SOL    HW2 1419   5.580   1.195   4.983
  174SOL     OW 1420   4.699   5.375   4.295
  174SOL    HW1 1421   4.651   5.297   4.256
  174SOL    HW2 1422   4.686   5.376   4.394
  175SOL     OW 1423   3.484   1.061   1.189
  175SOL    HW1 1424   3.455   0.967   1.206
  175SOL    HW2 1425   3.540   1.093   1.266
  176SOL     OW 1426   4.947   4.577   2.844
  176SOL    HW1 1427   4.860   4.548   2.884
  176SOL    HW2 1428   4.934   4.662   2.794
  177SOL     OW 1429   5.076   2.642   5.023
  177SOL    HW1 1430   4.985   2.667   5.055
  177SOL    HW2 1431   5.083   2.657   4.924
  178SOL     OW 1432   2.934   4.868   4.965
  178SOL    HW1 1433   2.875   4.787   4.960
  178SOL    HW2 1434   2.885   4.941   5.014
  179SOL     OW 1435   4.411   6.908   0.029
  179SOL    HW1 1436   4.342   6.979   0.044
  179SOL    HW2 1437   4.422   6.855   0.114
  180SOL     OW 1438   2.388   6.795   0.715
  180SOL    HW1 1439   2.380   6.695   0.716
  180SOL    HW2 1440   2.472   6.823   0.761
  181SOL     OW 1441   3.785   3.038   6.114
  181SOL    HW1 1442   3.725   2.995   6.181
  181SOL    HW2 1443   3.760   3.007   6.022
  182SOL     OW 1444   4.610   2.640   6.803
  182SOL    HW1 1445   4.606   2.729   6.759
  182SOL    HW2 1446   4.553   2.640   6.885
  183SOL     OW 1447   4.064   2.054   3.487
  183SOL    HW1 1448   4.097   2.124   3.550
  183SOL    HW2 1449   4.090   2.078   3.394
  184SOL     OW 1450   0.525   6.664   3.740
  184SOL    HW1 1451   0.540   6.627   3.832
  184SOL    HW2 1452   0.613   6.683   3.697
  185SOL     OW 1453   1.199   1.195   4.004
  185SOL    HW1 1454   1.174   1.112   3.953
  185SOL    HW2 1455   1.287   1.229   3.970
  186SOL     OW 1456   5.349   0.244   4.479
  186SOL    HW1 1457   5.310   0.245   4.571
  186SOL    HW2 1458   5.446   0.267   4.483
  187SOL     OW 1459   5.609   6.609   2.173
  187SOL    HW1 1460   5.523   6.631   2.220
  187SOL    HW2 1461   5.630   6.512   2.185
  188SOL     OW 1462   0.748   2.945   3.963
  188SOL    HW1 1463   0.667   2.921   3.910
  188SOL    HW2 1464   0.773   3.040   3.946
  189SOL     OW 1465   1.558   4.988   6.833
  189SOL    HW1 1466   1.620   4.925   6.879
  189SOL    HW2 1467   1.465   4.954   6.838
  190SOL     OW 1468   5.896   4.457   6.825
  190SOL    HW1 1469   5.834   4.382   6.846
  190SOL    HW2 1470   5.976   4.452   6.885
  191SOL     OW 1471   6.486   1.052   6.103
  191SOL    HW1 1472   6.421   1.109   6.052
  191SOL    HW2 1473   6.579   1.074   6.075
  192SOL     OW 1474   6.780   4.703   1.605
  192SOL    HW1 1475   6.725   4.679   1.686
  192SOL    HW2 1476   6.792   4.623   1.547
  193SOL     OW 1477   5.045   3.802   5.356
  193SOL    HW1 1478   5.102   3.803   5.274
  193SOL    HW2 1479   4.979   3.727   5.349
  194SOL     OW 1480   3.891   6.285   3.170
  194SOL    HW1 1481   3.890   6.241   3.260
  194SOL    HW2 1482   3.967   6.350   3.166
  195SOL     OW 1483   1.758   1.066   3.284
  195SOL    HW1 1484   1.731   1.077   3.188
  195SOL    HW2 1485   1.703   0.994   3.325
  196SOL     OW 1486   3.330   0.066   0.361
  196SOL    HW1 1487   3.339   0.090   0.458
  196SOL    HW2 1488   3.390   0.124   0.306
  197SOL     OW 1489   2.847   6.466   0.264
  197SOL    HW1 1490   2.807   6.376   0.250
  197SOL    HW2 1491   2.825   6.499   0.356
  198SOL     OW 1492   4.936   6.825   1.619
  198SOL    HW1 1493   4.888   6.867   1.541
  198SOL    HW2 1494   4.949   6.892   1.691
  199SOL     OW 1495   6.453   1.304   2.925
  199SOL    HW1 1496   6.547   1.333   2.940
  199SOL    HW2 1497   6.437   1.288   2.828
  200SOL     OW 1498   1.385   4.422   2.802
  200SOL    HW1 1499   1.456   4.392   2.865
  200SOL    HW2 1500   1.295   4.401   2.840
  201SOL     OW 1501   3.957   6.472   6.062
  201SOL    HW1 1502   3.984   6.465   5.966
  201SOL    HW2 1503   3.875   6.528   6.070
  202SOL     OW 1504   5.324   0.441   5.206
  202SOL    HW1 1505   5.267   0.426   5.286
  202SOL    HW2 1506   5.266   0.454   5.125
  203SOL     OW 1507   4.814   2.308   4.865
  203SOL    HW1 1508   4.766   2.356   4.938
  203SOL    HW2 1509   4.845   2.219   4.898
  204SOL     OW 1510   0.371   0.813   6.528
  204SOL    HW1 1511   0.286   0.793   6.480
  204SOL    HW2 1512   0.369   0.907   6.563
  205SOL     OW 1513   0.805   1.416   2.278
  205SOL    HW1 1514   0.798   1.382   2.185
  205SOL    HW2 1515   0.715   1.420   2.320
  206SOL     OW 1516   0.464   4.936   2.711
  206SOL    HW1 1517   0.416   4.857   2.752
  206SOL    HW2 1518   0.502   4.993   2.784
  207SOL     OW 1519   4.211   0.377   5.087
  207SOL    HW1 1520   4.230   0.438   5.164
  207SOL    HW2 1521   4.129   0.408   5.040
  208SOL     OW 1522   4.970   3.527   5.820
  208SOL    HW1 1523   5.009   3.537   5.728
  208SOL    HW2 1524   4.904   3.601   5.836
  209SOL     OW 1525   0.887   5.582   5.708
  209SOL    HW1 1526   0.846   5.574   5.617
  209SOL    HW2 1527   0.824   5.545   5.776
  210SOL     OW 1528   3.956   2.108   2.066
  210SOL    HW1 1529   3.939   2.200   2.029
  210SOL    HW2 1530   3.907   2.041   2.010
  211SOL     OW 1531   0.972   6.373   4.289
  211SOL    HW1 1532   0.937   6.450   4.235
  211SOL    HW2 1533   0.975   6.291   4.233
  212SOL     OW 1534   2.483   4.679   2.171
  212SOL    HW1 1535   2.474   4.772   2.134
  212SOL    HW2 1536   2.397   4.651   2.212
  213SOL     OW 1537   4.033   0.695   6.745
  213SOL    HW1 1538   4.061   0.791   6.737
  213SOL    HW2 1539   4.056   0.661   6.836
  214SOL     OW 1540   3.206   6.226   2.561
  214SOL    HW1 1541   3.292   6.183   2.534
  214SOL    HW2 1542   3.158   6.258   2.479
  215SOL     OW 1543   3.092   3.865   1.816
  215SOL    HW1 1544   3.082   3.769   1.842
  215SOL    HW2 1545   3.162   3.909   1.873
  216SOL     OW 1546   1.554   6.690   5.190
  216SOL    HW1 1547   1.527   6.765   5.130
  216SOL    HW2 1548   1.629   6.719   5.249
  217SOL     OW 1549   2.324   2.512   4.580
  217SOL    HW1 1550   2.289   2.542   4.669
  217SOL    HW2 1551   2.338   2.591   4.520
  218SOL     OW 1552   0.907   3.212   4.773
  218SOL    HW1 1553   0.953   3.161   4.846
  218SOL    HW2 1554   0.810   3.186   4.770
  219SOL     OW 1555   3.047   5.987   6.230
  219SOL    HW1 1556   2.985   6.064   6.212
  219SOL    HW2 1557   3.141   6.020   6.226
  220SOL     OW 1558   3.130   6.067   6.594
  220SOL    HW1 1559   3.038   6.029   6.586
  220SOL    HW2 1560   3.195   5.993   6.610
  221SOL     OW 1561   6.513   3.643   2.791
  221SOL    HW1 1562   6.418   3.662   2.767
  221SOL    HW2 1563   6.568   3.635   2.708
  222SOL     OW 1564   2.060   4.773   5.767
  222SOL    HW1 1565   2.094   4.703   5.830
  222SOL    HW2 1566   2.132   4.840   5.750
  223SOL     OW 1567   6.792   3.961   0.515
  223SOL    HW1 1568   6.726   3.897   0.476
  223SOL    HW2 1569   6.883   3.920   0.513
  224SOL     OW 1570   2.448   1.959   3.724
  224SOL    HW1 1571   2.490   1.887   3.781
  224SOL    HW2 1572   2.373   1.920   3.671
  225SOL     OW 1573   4.983   1.272   6.166
  225SOL    HW1 1574   5.079   1.265   6.141
  225SOL    HW2 1575   4.950   1.364   6.147
  226SOL     OW 1576   0.470   6.719   6.759
  226SOL    HW1 1577   0.488   6.662   6.679
  226SOL    HW2 1578   0.556   6.760   6.791
  227SOL     OW 1579   1.347   4.509   2.344
  227SOL    HW1 1580   1.413   4.525   2.270
  227SOL    HW2 1581   1.299   4.423   2.327
  228SOL     OW 1582   3.113   6.416   3.968
  228SOL    HW1 1583   3.034   6.445   4.023
  228SOL    HW2 1584   3.082   6.387   3.878
  229SOL     OW 1585   6.055   5.540   0.485
  229SOL    HW1 1586   6.000   5.549   0.402
  229SOL    HW2 1587   6.048   5.624   0.539
  230SOL     OW 1588   3.205   4.956   3.295
  230SOL    HW1 1589   3.288   4.942   3.350
  230SOL    HW2 1590   3.231   4.970   3.199
  231SOL     OW 1591   6.015   1.773   5.722
  231SOL    HW1 1592   5.977   1.789   5.631
  231SOL    HW2 1593   5.940   1.752   5.785
  232SOL     OW 1594   0.837   4.432   6.405
  232SOL    HW1 1595   0.890   4.469   6.482
  232SOL    HW2 1596   0.793   4.508   6.356
  233SOL     OW 1597   1.964   0.920   4.335
  233SOL    HW1 1598   1.899   0.895   4.406
  233SOL    HW2 1599   1.914   0.943   4.251
  234SOL     OW 1600   2.447   6.328   5.580
  234SOL    HW1 1601   2.371   6.342   5.644
  234SOL    HW2 1602   2.533   6.321   5.631
  235SOL     OW 1603   2.893   3.609   2.386
  235SOL    HW1 1604   2.944   3.661   2.319
  235SOL    HW2 1605   2.902   3.511   2.367
  236SOL     OW 1606   6.119   2.777   6.513
  236SOL    HW1 1607   6.193   2.815   6.567
  236SOL    HW2 1608   6.046   2.745   6.574
  237SOL     OW 1609   6.857   6.678   0.716
  237SOL    HW1 1610   6.945   6.695   0.671
  237SOL    HW2 1611   6.843   6.580   0.725
  238SOL     OW 1612   6.284   2.679   6.828
  238SOL    HW1 1613   6.309   2.743   6.901
  238SOL    HW2 1614   6.196   2.637   6.849
  239SOL     OW 1615   6.929   4.991   7.001
  239SOL    HW1 1616   6.964   5.068   0.032
  239SOL    HW2 1617   6.831   4.980   7.018
  240SOL     OW 1618   0.112   2.978   5.183
  240SOL    HW1 1619   0.126   2.943   5.275
  240SOL    HW2 1620   0.053   2.916   5.132
  241SOL     OW 1621   0.561   0.554   3.972
  241SOL    HW1 1622   0.491   0.541   3.901
  241SOL    HW2 1623   0.517   0.549   4.062
  242SOL     OW 1624   2.072   2.564   5.766
  242SOL    HW1 1625   2.171   2.566   5.759
  242SOL    HW2 1626   2.042   2.625   5.840
  243SOL     OW 1627   4.860   0.031   5.971
  243SOL    HW1 1628   4.818   6.979   6.025
  243SOL    HW2 1629   4.865   0.114   6.026
  244SOL     OW 1630   4.859   3.054   4.351
  244SOL    HW1 1631   4.852   3.006   4.264
  244SOL    HW2 1632   4.807   3.005   4.421
  245SOL     OW 1633   6.853   2.450   4.191
  245SOL    HW1 1634   6.776   2.419   4.246
  245SOL    HW2 1635   6.873   2.546   4.214
  246SOL     OW 1636   5.648   3.348   2.854
  246SOL    HW1 1637   5.716   3.277   2.837
  246SOL    HW2 1638   5.556   3.310   2.844
  247SOL     OW 1639   1.676   1.928   2.711
  247SOL    HW1 1640   1.704   1.901   2.619
  247SOL    HW2 1641   1.685   2.027   2.721
  248SOL     OW 1642   4.744   2.909   4.835
  248SOL    HW1 1643   4.796   2.941   4.914
  248SOL    HW2 1644   4.650   2.888   4.864
  249SOL     OW 1645   4.734   0.397   5.166
  249SOL    HW1 1646   4.654   0.452   5.191
  249SOL    HW2 1647   4.734   0.313   5.221
  250SOL     OW 1648   4.589   2.292   5.331
  250SOL    HW1 1649   4.533   2.348   5.271
  250SOL    HW2 1650   4.586   2.329   5.424
  251SOL     OW 1651   4.121   4.766   5.907
  251SOL    HW1 1652   4.135   4.668   5.911
  251SOL    HW2 1653   4.108   4.794   5.812
  252SOL     OW 1654   6.969   0.952   6.595
  252SOL    HW1 1655   6.940   0.886   6.526
  252SOL    HW2 1656   6.908   0.948   6.673
  253SOL     OW 1657   2.732   4.597   0.385
  253SOL    HW1 1658   2.646   4.593   0.437
  253SOL    HW2 1659   2.737   4.683   0.335
  254SOL     OW 1660   6.843   2.909   3.257
  254SOL    HW1 1661   6.829   2.810   3.248
  254SOL    HW2 1662   6.755   2.955   3.257
  255SOL     OW 1663   2.467   2.153   3.956
  255SOL    HW1 1664   2.378   2.196   3.940
  255SOL    HW2 1665   2.482   2.080   3.890
  256SOL     OW 1666   6.686   4.534   0.151
  256SOL    HW1 1667   6.614   4.465   0.144
  256SOL    HW2 1668   6.734   4.540   0.064
  257SOL     OW 1669   3.438   5.403   5.318
  257SOL    HW1 1670   3.499   5.361   5.251
  257SOL    HW2 1671   3.428   5.343   5.397
  258SOL     OW 1672   5.403   3.353   4.768
  258SOL    HW1 1673   5.486   3.311   4.803
  258SOL    HW2 1674   5.329   3.342   4.834
  259SOL     OW 1675   2.243   2.926   2.432
  259SOL    HW1 1676   2.268   3.019   2.407
  259SOL    HW2 1677   2.252   2.866   2.352
  260SOL     OW 1678   4.300   0.839   0.954
  260SOL    HW1 1679   4.275   0.880   0.867
  260SOL    HW2 1680   4.313   0.911   1.023
  261SOL     OW 1681   6.911   3.786   1.263
  261SOL    HW1 1682   6.864   3.734   1.334
  261SOL    HW2 1683   7.009   3.765   1.266
  262SOL     OW 1684   0.548   4.057   2.271
  262SOL    HW1 1685   0.607   4.066   2.191
  262SOL    HW2 1686   0.495   3.973   2.263
  263SOL     OW 1687   0.132   1.592   4.123
  263SOL    HW1 1688   0.044   1.565   4.086
  263SOL    HW2 1689   0.188   1.633   4.051
  264SOL     OW 1690   6.048   4.267   5.532
  264SOL    HW1 1691   6.141   4.248   5.564
  264SOL    HW2 1692   5.993   4.183   5.535
  265SOL     OW 1693   4.886   4.160   3.024
  265SOL    HW1 1694   4.813   4.091   3.026
  265SOL    HW2 1695   4.964   4.124   2.974
  266SOL     OW 1696   3.480   2.732   6.125
  266SOL    HW1 1697   3.508   2.637   6.140
  266SOL    HW2 1698   3.433   2.739   6.037
  267SOL     OW 1699   0.141   2.751   6.320
  267SOL    HW1 1700   0.046   2.732   6.298
  267SOL    HW2 1701   0.186   2.793   6.242
  268SOL     OW 1702   4.738   6.094   5.332
  268SOL    HW1 1703   4.656   6.066   5.382
  268SOL    HW2 1704   4.820   6.060   5.379
  269SOL     OW 1705   1.726   1.613   0.244
  269SOL    HW1 1706   1.743   1.673   0.322
  269SOL    HW2 1707   1.630   1.620   0.217
  270SOL     OW 1708   6.660   0.737   1.903
  270SOL    HW1 1709   6.744   0.684   1.920
  270SOL    HW2 1710   6.583   0.674   1.893
  271SOL     OW 1711   2.931   1.454   0.370
  271SOL    HW1 1712   2.908   1.547   0.399
  271SOL    HW2 1713   2.853   1.394   0.389
  272SOL     OW 1714   3.370   5.000   4.330
  272SOL    HW1 1715   3.462   4.970   4.307
  272SOL    HW2 1716   3.347   4.970   4.423
  273SOL     OW 1717   1.847   5.399   5.747
  273SOL    HW1 1718   1.895   5.361   5.826
  273SOL    HW2 1719   1.777   5.336   5.716
  274SOL     OW 1720   4.929   2.114   4.528
  274SOL    HW1 1721   4.861   2.188   4.525
  274SOL    HW2 1722   4.935   2.077   4.620
  275SOL     OW 1723   0.604   5.720   6.490
  275SOL    HW1 1724   0.664   5.660   6.543
  275SOL    HW2 1725   0.656   5.801   6.462
  276SOL     OW 1726   6.763   5.186   3.844
  276SOL    HW1 1727   6.795   5.254   3.778
  276SOL    HW2 1728   6.664   5.180   3.840
  277SOL     OW 1729   3.396   1.056   6.445
  277SOL    HW1 1730   3.423   0.999   6.523
  277SOL    HW2 1731   3.439   1.022   6.362
  278SOL     OW 1732   6.519   3.375   1.977
  278SOL    HW1 1733   6.570   3.460   1.988
  278SOL    HW2 1734   6.428   3.386   2.015
  279SOL     OW 1735   6.399   2.832   4.339
  279SOL    HW1 1736   6.439   2.836   4.248
  279SOL    HW2 1737   6.448   2.765   4.394
  280SOL     OW 1738   4.180   0.254   3.496
  280SOL    HW1 1739   4.115   0.309   3.444
  280SOL    HW2 1740   4.243   0.313   3.545
  281SOL     OW 1741   3.065   5.208   3.419
  281SOL    HW1 1742   3.047   5.157   3.503
  281SOL    HW2 1743   3.160   5.193   3.391
  282SOL     OW 1744   3.820   2.652   5.487
  282SOL    HW1 1745   3.894   2.704   5.444
  282SOL    HW2 1746   3.784   2.585   5.422
  283SOL     OW 1747   5.802   0.503   5.731
  283SOL    HW1 1748   5.714   0.456   5.739
  283SOL    HW2 1749   5.840   0.518   5.822
  284SOL     OW 1750   1.192   4.607   4.517
  284SOL    HW1 1751   1.235   4.518   4.500
  284SOL    HW2 1752   1.147   4.605   4.606
  285SOL     OW 1753   5.209   6.075   0.226
  285SOL    HW1 1754   5.116   6.052   0.198
  285SOL    HW2 1755   5.227   6.039   0.317
  286SOL     OW 1756   4.386   4.788   5.594
  286SOL    HW1 1757   4.384   4.708   5.534
  286SOL    HW2 1758   4.439   4.861   5.551
  287SOL     OW 1759   1.622   5.530   6.630
  287SOL    HW1 1760   1.618   5.518   6.530
  287SOL    HW2 1761   1.530   5.545   6.665
  288SOL     OW 1762   3.925   1.213   0.260
  288SOL    HW1 1763   3.995   1.281   0.282
  288SOL    HW2 1764   3.969   1.129   0.230
  289SOL     OW 1765   0.797   5.017   5.663
  289SOL    HW1 1766   0.856   4.992   5.587
  289SOL    HW2 1767   0.837   4.982   5.748
  290SOL     OW 1768   4.931   1.163   3.637
  290SOL    HW1 1769   4.925   1.071   3.598
  290SOL    HW2 1770   4.864   1.223   3.592
  291SOL     OW 1771   4.537   1.165   3.826
  291SOL    HW1 1772   4.581   1.252   3.848
  291SOL    HW2 1773   4.587   1.090   3.869
  292SOL     OW 1774   5.216   1.111   3.678
  292SOL    HW1 1775   5.270   1.071   3.604
  292SOL    HW2 1776   5.166   1.038   3.725
  293SOL     OW 1777   4.294   6.471   1.155
  293SOL    HW1 1778   4.274   6.568   1.142
  293SOL    HW2 1779   4.208   6.419   1.163
  294SOL     OW 1780   6.377   5.707   6.609
  294SOL    HW1 1781   6.401   5.643   6.535
  294SOL    HW2 1782   6.278   5.724   6.607
  295SOL     OW 1783   2.155   2.117   5.352
  295SOL    HW1 1784   2.093   2.139   5.276
  295SOL    HW2 1785   2.243   2.162   5.337
  296SOL     OW 1786   7.020   2.568   1.542
  296SOL    HW1 1787   7.020   2.513   1.459
  296SOL    HW2 1788   0.089   2.562   1.586
  297SOL     OW 1789   3.300   5.387   3.474
  297SOL    HW1 1790   3.373   5.432   3.525
  297SOL    HW2 1791   3.300   5.419   3.380
  298SOL     OW 1792   4.708   6.884   0.185
  298SOL    HW1 1793   4.789   6.898   0.242
  298SOL    HW2 1794   4.723   6.924   0.095
  299SOL     OW 1795   4.424   1.929   6.887
  299SOL    HW1 1796   4.403   1.995   6.958
  299SOL    HW2 1797   4.342   1.878   6.863
  300SOL     OW 1798   3.884   0.399   2.402
  300SOL    HW1 1799   3.857   0.479   2.456
  300SOL    HW2 1800   3.982   0.402   2.385
  301SOL     OW 1801   5.048   1.012   1.093
  301SOL    HW1 1802   5.029   1.018   1.191
  301SOL    HW2 1803   5.126   1.070   1.070
  302SOL     OW 1804   0.345   0.794   2.217
  302SOL    HW1 1805   0.272   0.810   2.151
  302SOL    HW2 1806   0.382   0.702   2.204
  303SOL     OW 1807   6.679   6.033   1.659
  303SOL    HW1 1808   6.722   6.053   1.571
  303SOL    HW2 1809   6.746   6.046   1.733
  304SOL     OW 1810   2.223   6.352   6.471
  304SOL    HW1 1811   2.208   6.296   6.389
  304SOL    HW2 1812   2.273   6.299   6.539
  305SOL     OW 1813   1.318   2.731   0.982
  305SOL    HW1 1814   1.234   2.711   1.031
  305SOL    HW2 1815   1.373   2.796   1.034
  306SOL     OW 1816   0.014   1.276   2.878
  306SOL    HW1 1817   0.015   1.375   2.865
  306SOL    HW2 1818   0.096   1.237   2.836
  307SOL     OW 1819   3.828   4.543   0.090
  307SOL    HW1 1820   3.795   4.472   0.027
  307SOL    HW2 1821   3.884   4.609   0.040
  308SOL     OW 1822   6.001   2.460   4.049
  308SOL    HW1 1823   6.040   2.450   3.957
  308SOL    HW2 1824   5.951   2.547   4.055
  309SOL     OW 1825   1.781   6.286   0.255
  309SOL    HW1 1826   1.698   6.266   0.306
  309SOL    HW2 1827   1.774   6.377   0.215
  310SOL     OW 1828   4.774   6.618   4.414
  310SOL    HW1 1829   4.758   6.597   4.511
  310SOL    HW2 1830   4.775   6.717   4.402
  311SOL     OW 1831   2.926   5.174   2.641
  311SOL    HW1 1832   2.951   5.086   2.601
  311SOL    HW2 1833   2.938   5.246   2.573
  312SOL     OW 1834   3.678   1.960   3.821
  312SOL    HW1 1835   3.646   1.873   3.786
  312SOL    HW2 1836   3.607   2.029   3.809
  313SOL     OW 1837   3.424   4.082   2.415
  313SOL    HW1 1838   3.331   4.106   2.441
  313SOL    HW2 1839   3.484   4.087   2.494
  314SOL     OW 1840   2.122   4.626   4.931
  314SOL    HW1 1841   2.082   4.534   4.930
  314SOL    HW2 1842   2.077   4.682   4.862
  315SOL     OW 1843   1.002   2.102   3.951
  315SOL    HW1 1844   1.063   2.098   4.030
  315SOL    HW2 1845   1.056   2.118   3.868
  316SOL     OW 1846   3.596   0.625   4.340
  316SOL    HW1 1847   3.531   0.552   4.363
  316SOL    HW2 1848   3.679   0.613   4.394
  317SOL     OW 1849   0.172   1.380   1.655
  317SOL    HW1 1850   0.272   1.371   1.665
  317SOL    HW2 1851   0.136   1.434   1.730
  318SOL     OW 1852   6.350   0.124   6.713
  318SOL    HW1 1853   6.279   0.194   6.718
  318SOL    HW2 1854   6.324   0.046   6.771
  319SOL     OW 1855   6.876   1.816   3.293
  319SOL    HW1 1856   6.820   1.800   3.211
  319SOL    HW2 1857   6.829   1.879   3.354
  320SOL     OW 1858   5.974   3.161   0.089
  320SOL    HW1 1859   5.938   3.190   0.178
  320SOL    HW2 1860   5.970   3.062   0.082
  321SOL     OW 1861   4.462   2.299   0.337
  321SOL    HW1 1862   4.376   2.310   0.288
  321SOL    HW2 1863   4.538   2.313   0.274
  322SOL     OW 1864   3.421   2.850   4.539
  322SOL    HW1 1865   3.324   2.832   4.524
  322SOL    HW2 1866   3.439   2.857   4.637
  323SOL     OW 1867   1.219   2.788   5.359
  323SOL    HW1 1868   1.153   2.745   5.420
  323SOL    HW2 1869   1.279   2.849   5.412
  324SOL     OW 1870   2.567   0.599   3.099
  324SOL    HW1 1871   2.658   0.578   3.062
  324SOL    HW2 1872   2.545   0.695   3.081
  325SOL     OW 1873   0.763   3.296   2.317
  325SOL    HW1 1874   0.665   3.292   2.338
  325SOL    HW2 1875   0.800   3.383   2.350
  326SOL     OW 1876   0.776   4.280   6.153
  326SOL    HW1 1877   0.730   4.291   6.241
  326SOL    HW2 1878   0.874   4.264   6.168
  327SOL     OW 1879   2.627   4.727   3.224
  327SOL    HW1 1880   2.537   4.770   3.225
  327SOL    HW2 1881   2.663   4.723   3.317
  328SOL     OW 1882   2.251   4.853   1.859
  328SOL    HW1 1883   2.341   4.877   1.895
  328SOL    HW2 1884   2.195   4.814   1.932
  329SOL     OW 1885   2.429   3.512   5.916
  329SOL    HW1 1886   2.392   3.472   6.000
  329SOL    HW2 1887   2.387   3.469   5.836
  330SOL     OW 1888   2.997   6.495   0.740
  330SOL    HW1 1889   2.909   6.511   0.696
  330SOL    HW2 1890   3.067   6.479   0.670
  331SOL     OW 1891   5.280   5.303   0.567
  331SOL    HW1 1892   5.233   5.316   0.654
  331SOL    HW2 1893   5.271   5.386   0.512
  332SOL     OW 1894   5.870   2.607   5.171
  332SOL    HW1 1895   5.964   2.608   5.138
  332SOL    HW2 1896   5.808   2.632   5.098
  333SOL     OW 1897   4.618   0.771   5.017
  333SOL    HW1 1898   4.531   0.811   5.047
  333SOL    HW2 1899   4.622   0.771   4.917
  334SOL     OW 1900   2.961   2.500   0.110
  334SOL    HW1 1901   2.914   2.448   0.181
  334SOL    HW2 1902   2.895   2.533   0.043
  335SOL     OW 1903   3.372   0.053   6.581
  335SOL    HW1 1904   3.398   6.981   6.556
  335SOL    HW2 1905   3.304   0.087   6.516
  336SOL     OW 1906   3.397   0.713   3.412
  336SOL    HW1 1907   3.312   0.730   3.362
  336SOL    HW2 1908   3.442   0.800   3.432
  337SOL     OW 1909   0.037   3.438   5.615
  337SOL    HW1 1910   0.041   3.377   5.695
  337SOL    HW2 1911   0.107   3.509   5.624
  338SOL     OW 1912   2.811   2.300   0.984
  338SOL    HW1 1913   2.741   2.236   1.016
  338SOL    HW2 1914   2.899   2.278   1.028
  339SOL     OW 1915   4.348   5.238   4.799
  339SOL    HW1 1916   4.305   5.299   4.733
  339SOL    HW2 1917   4.341   5.278   4.891
  340SOL     OW 1918   5.219   3.357   4.951
  340SOL    HW1 1919   5.246   3.369   5.046
  340SOL    HW2 1920   5.127   3.395   4.938
  341SOL     OW 1921   5.989   6.747   4.607
  341SOL    HW1 1922   5.956   6.744   4.513
  341SOL    HW2 1923   6.077   6.701   4.613
  342SOL     OW 1924   5.396   3.033   0.488
  342SOL    HW1 1925   5.418   3.124   0.454
  342SOL    HW2 1926   5.344   3.041   0.573
  343SOL     OW 1927   0.390   6.131   1.933
  343SOL    HW1 1928   0.365   6.170   2.021
  343SOL    HW2 1929   0.463   6.186   1.892
  344SOL     OW 1930   0.999   3.421   1.849
  344SOL    HW1 1931   0.917   3.366   1.831
  344SOL    HW2 1932   1.050   3.381   1.925
  345SOL     OW 1933   5.314   2.399   3.553
  345SOL    HW1 1934   5.230   2.452   3.570
  345SOL    HW2 1935   5.310   2.313   3.603
  346SOL     OW 1936   1.958   1.125   2.334
  346SOL    HW1 1937   1.971   1.178   2.418
  346SOL    HW2 1938   1.861   1.118   2.313
  347SOL     OW 1939   3.050   6.013   0.274
  347SOL    HW1 1940   2.970   6.031   0.217
  347SOL    HW2 1941   3.119   6.085   0.259
  348SOL     OW 1942   4.894   3.937   2.739
  348SOL    HW1 1943   4.989   3.960   2.761
  348SOL    HW2 1944   4.853   3.888   2.816
  349SOL     OW 1945   6.934   4.846   1.782
  349SOL    HW1 1946   6.902   4.940   1.773
  349SOL    HW2 1947   6.894   4.791   1.708
  350SOL     OW 1948   2.773   2.204   1.690
  350SOL    HW1 1949   2.843   2.197   1.761
  350SOL    HW2 1950   2.816   2.235   1.604
  351SOL     OW 1951   2.577   3.210   0.665
  351SOL    HW1 1952   2.606   3.196   0.571
  351SOL    HW2 1953   2.501   3.275   0.667
  352SOL     OW 1954   3.401   6.621   3.744
  352SOL    HW1 1955   3.406   6.686   3.820
  352SOL    HW2 1956   3.310   6.623   3.704
  353SOL     OW 1957   3.133   0.154   7.001
  353SOL    HW1 1958   3.158   0.230   0.040
  353SOL    HW2 1959   3.079   0.187   6.924
  354SOL     OW 1960   4.489   2.161   1.875
  354SOL    HW1 1961   4.406   2.207   1.843
  354SOL    HW2 1962   4.480   2.062   1.861
  355SOL     OW 1963   1.659   4.630   2.978
  355SOL    HW1 1964   1.724   4.569   3.024
  355SOL    HW2 1965   1.685   4.725   2.996
  356SOL     OW 1966   2.297   0.807   5.465
  356SOL    HW1 1967   2.286   0.771   5.558
  356SOL    HW2 1968   2.369   0.876   5.465
  357SOL     OW 1969   6.799   6.616   5.198
  357SOL    HW1 1970   6.882   6.596   5.145
  357SOL    HW2 1971   6.814   6.590   5.294
  358SOL     OW 1972   4.651   6.294   0.930
  358SOL    HW1 1973   4.581   6.243   0.880
  358SOL    HW2 1974   4.615   6.383   0.957
  359SOL     OW 1975   2.928   1.845   2.242
  359SOL    HW1 1976   2.845   1.861   2.189
  359SOL    HW2 1977   2.976   1.765   2.206
  360SOL     OW 1978   1.320   4.655   5.419
  360SOL    HW1 1979   1.227   4.620   5.414
  360SOL    HW2 1980   1.345   4.670   5.515
  361SOL     OW 1981   6.855   6.036   2.987
  361SOL    HW1 1982   6.915   6.108   3.022
  361SOL    HW2 1983   6.783   6.076   2.931
  362SOL     OW 1984   3.415   2.708   1.645
  362SOL    HW1 1985   3.402   2.612   1.669
  362SOL    HW2 1986   3.487   2.748   1.702
  363SOL     OW 1987   5.757   4.369   3.123
  363SOL    HW1 1988   5.778   4.368   3.026
  363SOL    HW2 1989   5.813   4.301   3.170
  364SOL     OW 1990   6.790   4.978   6.260
  364SOL    HW1 1991   6.737   5.038   6.201
  364SOL    HW2 1992   6.741   4.965   6.346
  365SOL     OW 1993   5.341   0.269   1.910
  365SOL    HW1 1994   5.296   0.202   1.851
  365SOL    HW2 1995   5.284   0.286   1.990
  366SOL     OW 1996   5.421   1.903   6.905
  366SOL    HW1 1997   5.345   1.866   6.851
  366SOL    HW2 1998   5.413   1.870   7.000
  367SOL     OW 1999   6.027   2.625   1.056
  367SOL    HW1 2000   6.038   2.628   0.957
  367SOL    HW2 2001   6.093   2.687   1.099
  368SOL     OW 2002   0.781   2.737   5.330
  368SOL    HW1 2003   0.848   2.761   5.261
  368SOL    HW2 2004   0.823   2.741   5.421
  369SOL     OW 2005   5.708   5.271   2.218
  369SOL    HW1 2006   5.622   5.293   2.264
  369SOL    HW2 2007   5.758   5.203   2.272
  370SOL     OW 2008   1.192   1.569   4.680
  370SOL    HW1 2009   1.139   1.546   4.598
  370SOL    HW2 2010   1.133   1.563   4.760
  371SOL     OW 2011   1.823   4.688   6.488
  371SOL    HW1 2012   1.753   4.644   6.432
  371SOL    HW2 2013   1.836   4.782   6.456
  372SOL     OW 2014   2.235   6.838   5.970
  372SOL    HW1 2015   2.170   6.870   6.039
  372SOL    HW2 2016   2.292   6.765   6.009
  373SOL     OW 2017   5.640   6.005   4.879
  373SOL    HW1 2018   5.714   5.955   4.924
  373SOL    HW2 2019   5.661   6.102   4.876
  374SOL     OW 2020   2.215   2.288   3.550
  374SOL    HW1 2021   2.155   2.214   3.581
  374SOL    HW2 2022   2.308   2.271   3.583
  375SOL     OW 2023   0.536   4.537   4.335
  375SOL    HW1 2024   0.585   4.589   4.265
  375SOL    HW2 2025   0.441   4.568   4.339
  376SOL     OW 2026   1.172   1.200   5.032
  376SOL    HW1 2027   1.144   1.134   4.963
  376SOL    HW2 2028   1.256   1.246   5.002
  377SOL     OW 2029   1.347   1.553   0.346
  377SOL    HW1 2030   1.379   1.534   0.438
  377SOL    HW2 2031   1.397   1.631   0.308
  378SOL     OW 2032   4.499   1.970   0.275
  378SOL    HW1 2033   4.439   2.013   0.207
  378SOL    HW2 2034   4.593   1.999   0.259
  379SOL     OW 2035   5.975   2.094   0.821
  379SOL    HW1 2036   5.882   2.057   0.823
  379SOL    HW2 2037   5.971   2.193   0.805
  380SOL     OW 2038   3.187   1.047   0.887
  380SOL    HW1 2039   3.249   0.974   0.917
  380SOL    HW2 2040   3.155   1.027   0.795
  381SOL     OW 2041   1.816   3.903   3.546
  381SOL    HW1 2042   1.826   3.996   3.580
  381SOL    HW2 2043   1.897   3.849   3.571
  382SOL     OW 2044   5.999   0.661   0.627
  382SOL    HW1 2045   6.063   0.735   0.646
  382SOL    HW2 2046   5.960   0.674   0.536
  383SOL     OW 2047   3.809   3.266   6.613
  383SOL    HW1 2048   3.830   3.335   6.682
  383SOL    HW2 2049   3.872   3.274   6.537
  384SOL     OW 2050   6.249   5.306   4.757
  384SOL    HW1 2051   6.216   5.384   4.811
  384SOL    HW2 2052   6.265   5.335   4.663
  385SOL     OW 2053   3.142   4.669   5.306
  385SOL    HW1 2054   3.187   4.604   5.367
  385SOL    HW2 2055   3.068   4.623   5.257
  386SOL     OW 2056   2.886   6.299   4.221
  386SOL    HW1 2057   2.937   6.299   4.308
  386SOL    HW2 2058   2.861   6.392   4.197
  387SOL     OW 2059   1.190   6.197   2.884
  387SOL    HW1 2060   1.161   6.103   2.867
  387SOL    HW2 2061   1.278   6.214   2.839
  388SOL     OW 2062   1.213   2.562   5.627
  388SOL    HW1 2063   1.143   2.559   5.555
  388SOL    HW2 2064   1.277   2.487   5.615
  389SOL     OW 2065   3.797   3.998   1.789
  389SOL    HW1 2066   3.710   4.047   1.796
  389SOL    HW2 2067   3.805   3.957   1.699
  390SOL     OW 2068   2.651   1.823   2.449
  390SOL    HW1 2069   2.689   1.912   2.427
  390SOL    HW2 2070   2.612   1.825   2.541
  391SOL     OW 2071   2.410   2.083   6.279
  391SOL    HW1 2072   2.367   2.138   6.351
  391SOL    HW2 2073   2.486   2.031   6.318
  392SOL     OW 2074   1.456   5.072   0.719
  392SOL    HW1 2075   1.531   5.112   0.666
  392SOL    HW2 2076   1.441   5.127   0.801
  393SOL     OW 2077   1.447   4.325   6.395
  393SOL    HW1 2078   1.360   4.317   6.443
  393SOL    HW2 2079   1.507   4.250   6.421
  394SOL     OW 2080   6.824   1.852   0.216
  394SOL    HW1 2081   6.764   1.843   0.295
  394SOL    HW2 2082   6.857   1.947   0.211
  395SOL     OW 2083   4.936   3.532   2.765
  395SOL    HW1 2084   4.938   3.586   2.681
  395SOL    HW2 2085   4.995   3.576   2.834
  396SOL     OW 2086   3.640   4.239   1.336
  396SOL    HW1 2087   3.739   4.241   1.348
  396SOL    HW2 2088   3.619   4.208   1.243
  397SOL     OW 2089   5.031   1.606   6.065
  397SOL    HW1 2090   5.076   1.616   5.976
  397SOL    HW2 2091   4.941   1.650   6.063
  398SOL     OW 2092   0.444   6.435   2.495
  398SOL    HW1 2093   0.440   6.477   2.405
  398SOL    HW2 2094   0.532   6.455   2.538
  399SOL     OW 2095   6.067   6.156   2.170
  399SOL    HW1 2096   5.969   6.137   2.175
  399SOL    HW2 2097   6.087   6.239   2.222
  400SOL     OW 2098   6.531   6.863   5.714
  400SOL    HW1 2099   6.534   6.940   5.778
  400SOL    HW2 2100   6.435   6.842   5.693
  401SOL     OW 2101   5.159   0.514   5.614
  401SOL    HW1 2102   5.247   0.499   5.660
  401SOL    HW2 2103   5.151   0.610   5.589
  402SOL     OW 2104   5.499   6.882   3.147
  402SOL    HW1 2105   5.436   6.957   3.125
  402SOL    HW2 2106   5.492   6.811   3.077
  403SOL     OW 2107   3.995   1.978   4.091
  403SOL    HW1 2108   4.040   1.946   4.008
  403SOL    HW2 2109   3.909   2.025   4.067
  404SOL     OW 2110   1.207   5.314   4.881
  404SOL    HW1 2111   1.192   5.336   4.785
  404SOL    HW2 2112   1.195   5.396   4.937
  405SOL     OW 2113   1.782   3.617   1.940
  405SOL    HW1 2114   1.861   3.558   1.925
  405SOL    HW2 2115   1.707   3.588   1.879
  406SOL     OW 2116   1.050   4.706   4.798
  406SOL    HW1 2117   1.021   4.612   4.781
  406SOL    HW2 2118   1.008   4.767   4.731
  407SOL     OW 2119   0.999   0.932   3.903
  407SOL    HW1 2120   1.006   0.968   3.810
  407SOL    HW2 2121   0.904   0.938   3.934
  408SOL     OW 2122   1.096   2.621   2.565
  408SOL    HW1 2123   1.150   2.689   2.516
  408SOL    HW2 2124   1.092   2.643   2.662
  409SOL     OW 2125   0.181   3.212   1.884
  409SOL    HW1 2126   0.106   3.148   1.894
  409SOL    HW2 2127   0.244   3.180   1.814
  410SOL     OW 2128   1.883   1.510   1.607
  410SOL    HW1 2129   1.870   1.609   1.605
  410SOL    HW2 2130   1.976   1.487   1.581
  411SOL     OW 2131   5.329   0.366   1.443
  411SOL    HW1 2132   5.428   0.375   1.436
  411SOL    HW2 2133   5.297   0.410   1.527
  412SOL     OW 2134   4.480   5.687   4.016
  412SOL    HW1 2135   4.447   5.734   4.098
  412SOL    HW2 2136   4.493   5.754   3.943
  413SOL     OW 2137   5.252   4.002   1.841
  413SOL    HW1 2138   5.166   4.026   1.796
  413SOL    HW2 2139   5.281   3.911   1.811
  414SOL     OW 2140   3.467   5.707   3.429
  414SOL    HW1 2141   3.416   5.713   3.343
  414SOL    HW2 2142   3.564   5.696   3.410
  415SOL     OW 2143   0.689   6.018   6.681
  415SOL    HW1 2144   0.601   6.031   6.728
  415SOL    HW2 2145   0.755   5.977   6.744
  416SOL     OW 2146   5.075   6.168   4.114
  416SOL    HW1 2147   5.171   6.153   4.135
  416SOL    HW2 2148   5.018   6.137   4.190
  417SOL     OW 2149   3.162   5.406   0.035
  417SOL    HW1 2150   3.083   5.451   0.077
  417SOL    HW2 2151   3.145   5.307   0.029
  418SOL     OW 2152   4.060   6.538   0.543
  418SOL    HW1 2153   4.101   6.451   0.516
  418SOL    HW2 2154   4.132   6.605   0.563
  419SOL     OW 2155   2.068   0.377   1.861
  419SOL    HW1 2156   2.159   0.386   1.820
  419SOL    HW2 2157   2.034   0.468   1.887
  420SOL     OW 2158   5.055   1.218   6.873
  420SOL    HW1 2159   5.152   1.205   6.853
  420SOL    HW2 2160   5.013   1.273   6.801
  421SOL     OW 2161   6.624   4.138   5.935
  421SOL    HW1 2162   6.696   4.074   5.962
  421SOL    HW2 2163   6.631   4.157   5.837
  422SOL     OW 2164   5.956   3.354   1.298
  422SOL    HW1 2165   5.944   3.270   1.244
  422SOL    HW2 2166   6.047   3.391   1.281
  423SOL     OW 2167   0.855   1.918   6.499
  423SOL    HW1 2168   0.794   1.859   6.446
  423SOL    HW2 2169   0.879   1.872   6.585
  424SOL     OW 2170   2.132   4.655   0.995
  424SOL    HW1 2171   2.224   4.675   1.027
  424SOL    HW2 2172   2.122   4.556   0.982
  425SOL     OW 2173   5.641   1.914   3.465
  425SOL    HW1 2174   5.596   1.848   3.404
  425SOL    HW2 2175   5.626   1.886   3.560
  426SOL     OW 2176   3.943   2.080   4.646
  426SOL    HW1 2177   3.888   2.107   4.567
  426SOL    HW2 2178   4.015   2.148   4.661
  427SOL     OW 2179   5.036   6.049   3.550
  427SOL    HW1 2180   4.979   6.004   3.481
  427SOL    HW2 2181   5.018   6.147   3.549
  428SOL     OW 2182   4.014   0.458   4.926
  428SOL    HW1 2183   4.026   0.396   4.849
  428SOL    HW2 2184   3.964   0.539   4.896
  429SOL     OW 2185   1.342   3.623   0.954
  429SOL    HW1 2186   1.424   3.610   1.009
  429SOL    HW2 2187   1.265   3.645   1.014
  430SOL     OW 2188   0.481   0.639   5.224
  430SOL    HW1 2189   0.432   0.676   5.145
  430SOL    HW2 2190   0.538   0.562   5.195
  431SOL     OW 2191   3.318   6.983   0.836
  431SOL    HW1 2192   3.326   6.889   0.802
  431SOL    HW2 2193   3.221   7.010   0.836
  432SOL     OW 2194   6.397   1.543   0.695
  432SOL    HW1 2195   6.382   1.472   0.626
  432SOL    HW2 2196   6.491   1.576   0.689
  433SOL     OW 2197   2.565   6.427   5.064
  433SOL    HW1 2198   2.598   6.467   4.978
  433SOL    HW2 2199   2.465   6.430   5.065
  434SOL     OW 2200   3.010   6.232   3.011
  434SOL    HW1 2201   3.066   6.217   2.929
  434SOL    HW2 2202   3.071   6.247   3.090
  435SOL     OW 2203   5.214   3.093   6.813
  435SOL    HW1 2204   5.173   3.068   6.900
  435SOL    HW2 2205   5.254   3.012   6.770
  436SOL     OW 2206   2.759   6.030   1.164
  436SOL    HW1 2207   2.704   6.064   1.241
  436SOL    HW2 2208   2.817   5.955   1.194
  437SOL     OW 2209   1.148   1.186   0.291
  437SOL    HW1 2210   1.147   1.176   0.390
  437SOL    HW2 2211   1.125   1.280   0.267
  438SOL     OW 2212   1.593   4.079   3.440
  438SOL    HW1 2213   1.613   4.177   3.448
  438SOL    HW2 2214   1.641   4.030   3.513
  439SOL     OW 2215   5.877   5.091   2.605
  439SOL    HW1 2216   5.858   5.080   2.507
  439SOL    HW2 2217   5.791   5.104   2.655
  440SOL     OW 2218   1.681   1.361   4.976
  440SOL    HW1 2219   1.727   1.401   4.896
  440SOL    HW2 2220   1.687   1.424   5.053
  441SOL     OW 2221   0.885   2.730   4.128
  441SOL    HW1 2222   0.970   2.688   4.098
  441SOL    HW2 2223   0.827   2.748   4.049
  442SOL     OW 2224   3.398   5.508   5.862
  442SOL    HW1 2225   3.451   5.448   5.803
  442SOL    HW2 2226   3.316   5.461   5.894
  443SOL     OW 2227   6.074   4.173   4.547
  443SOL    HW1 2228   6.049   4.144   4.640
  443SOL    HW2 2229   6.115   4.264   4.550
  444SOL     OW 2230   4.797   1.143   5.834
  444SOL    HW1 2231   4.830   1.061   5.881
  444SOL    HW2 2232   4.737   1.194   5.895
  445SOL     OW 2233   0.922   5.950   2.875
  445SOL    HW1 2234   0.837   5.925   2.921
  445SOL    HW2 2235   1.000   5.930   2.934
  446SOL     OW 2236   3.212   5.507   3.771
  446SOL    HW1 2237   3.199   5.556   3.685
  446SOL    HW2 2238   3.154   5.426   3.773
  447SOL     OW 2239   0.312   2.583   6.027
  447SOL    HW1 2240   0.296   2.553   6.122
  447SOL    HW2 2241   0.393   2.536   5.991
  448SOL     OW 2242   1.829   0.540   3.150
  448SOL    HW1 2243   1.843   0.614   3.084
  448SOL    HW2 2244   1.904   0.474   3.142
  449SOL     OW 2245   4.186   1.373   3.666
  449SOL    HW1 2246   4.158   1.451   3.611
  449SOL    HW2 2247   4.260   1.324   3.620
  450SOL     OW 2248   1.596   5.476   3.191
  450SOL    HW1 2249   1.667   5.406   3.201
  450SOL    HW2 2250   1.528   5.445   3.125
  451SOL     OW 2251   1.472   2.179   3.329
  451SOL    HW1 2252   1.572   2.182   3.328
  451SOL    HW2 2253   1.437   2.273   3.324
  452SOL     OW 2254   5.823   6.476   0.719
  452SOL    HW1 2255   5.850   6.427   0.636
  452SOL    HW2 2256   5.852   6.572   0.713
  453SOL     OW 2257   3.813   0.956   5.798
  453SOL    HW1 2258   3.798   0.930   5.703
  453SOL    HW2 2259   3.857   0.881   5.847
  454SOL     OW 2260   6.727   4.544   6.407
  454SOL    HW1 2261   6.779   4.590   6.335
  454SOL    HW2 2262   6.663   4.480   6.365
  455SOL     OW 2263   6.003   2.290   3.317
  455SOL    HW1 2264   5.948   2.214   3.351
  455SOL    HW2 2265   5.990   2.370   3.375
  456SOL     OW 2266   6.375   6.579   3.964
  456SOL    HW1 2267   6.376   6.526   4.049
  456SOL    HW2 2268   6.312   6.537   3.899
  457SOL     OW 2269   1.693   1.943   4.050
  457SOL    HW1 2270   1.608   1.947   3.999
  457SOL    HW2 2271   1.673   1.936   4.148
  458SOL     OW 2272   4.438   6.058   3.346
  458SOL    HW1 2273   4.441   5.967   3.304
  458SOL    HW2 2274   4.528   6.102   3.337
  459SOL     OW 2275   1.724   6.194   5.235
  459SOL    HW1 2276   1.765   6.182   5.325
  459SOL    HW2 2277   1.729   6.108   5.185
  460SOL     OW 2278   2.344   6.801   3.993
  460SOL    HW1 2279   2.407   6.790   3.915
  460SOL    HW2 2280   2.346   6.718   4.049
  461SOL     OW 2281   6.465   6.369   6.487
  461SOL    HW1 2282   6.564   6.356   6.476
  461SOL    HW2 2283   6.449   6.444   6.552
  462SOL     OW 2284   3.899   3.436   6.821
  462SOL    HW1 2285   3.830   3.507   6.834
  462SOL    HW2 2286   3.961   3.436   6.899
  463SOL     OW 2287   5.609   5.900   3.428
  463SOL    HW1 2288   5.517   5.906   3.467
  463SOL    HW2 2289   5.640   5.991   3.399
  464SOL     OW 2290   2.758   1.614   5.316
  464SOL    HW1 2291   2.852   1.624   5.349
  464SOL    HW2 2292   2.714   1.539   5.365
  465SOL     OW 2293   0.806   2.920   0.019
  465SOL    HW1 2294   0.776   2.968   0.101
  465SOL    HW2 2295   0.878   2.855   0.042
  466SOL     OW 2296   0.911   6.609   2.970
  466SOL    HW1 2297   0.999   6.565   2.990
  466SOL    HW2 2298   0.842   6.578   3.036
  467SOL     OW 2299   1.916   1.290   0.795
  467SOL    HW1 2300   1.961   1.371   0.832
  467SOL    HW2 2301   1.982   1.215   0.789
  468SOL     OW 2302   3.721   0.047   6.264
  468SOL    HW1 2303   3.674   0.109   6.202
  468SOL    HW2 2304   3.689   0.062   6.357
  469SOL     OW 2305   2.878   3.103   6.508
  469SOL    HW1 2306   2.896   3.060   6.596
  469SOL    HW2 2307   2.933   3.187   6.500
  470SOL     OW 2308   4.481   6.544   1.583
  470SOL    HW1 2309   4.398   6.531   1.637
  470SOL    HW2 2310   4.559   6.505   1.633
  471SOL     OW 2311   2.690   2.364   3.576
  471SOL    HW1 2312   2.781   2.337   3.607
  471SOL    HW2 2313   2.691   2.377   3.477
  472SOL     OW 2314   4.617   3.435   6.674
  472SOL    HW1 2315   4.562   3.409   6.754
  472SOL    HW2 2316   4.596   3.529   6.648
  473SOL     OW 2317   1.121   2.979   2.660
  473SOL    HW1 2318   1.077   2.910   2.717
  473SOL    HW2 2319   1.204   2.940   2.619
  474SOL     OW 2320   5.242   5.045   4.369
  474SOL    HW1 2321   5.205   5.129   4.409
  474SOL    HW2 2322   5.271   5.063   4.275
  475SOL     OW 2323   5.626   1.254   6.448
  475SOL    HW1 2324   5.691   1.179   6.463
  475SOL    HW2 2325   5.599   1.255   6.352
  476SOL     OW 2326   0.488   3.410   3.414
  476SOL    HW1 2327   0.566   3.383   3.357
  476SOL    HW2 2328   0.489   3.357   3.499
  477SOL     OW 2329   2.332   6.376   3.571
  477SOL    HW1 2330   2.281   6.322   3.638
  477SOL    HW2 2331   2.299   6.471   3.574
  478SOL     OW 2332   3.398   6.079   2.233
  478SOL    HW1 2333   3.356   5.997   2.194
  478SOL    HW2 2334   3.354   6.160   2.196
  479SOL     OW 2335   4.340   1.577   5.789
  479SOL    HW1 2336   4.317   1.480   5.785
  479SOL    HW2 2337   4.296   1.618   5.869
  480SOL     OW 2338   2.898   0.563   6.883
  480SOL    HW1 2339   2.818   0.602   6.837
  480SOL    HW2 2340   2.928   0.482   6.833
  481SOL     OW 2341   2.180   6.998   1.331
  481SOL    HW1 2342   2.118   6.923   1.356
  481SOL    HW2 2343   2.215   6.982   1.238
  482SOL     OW 2344   4.055   4.808   2.206
  482SOL    HW1 2345   3.998   4.825   2.126
  482SOL    HW2 2346   4.039   4.880   2.274
  483SOL     OW 2347   6.357   2.015   2.187
  483SOL    HW1 2348   6.369   1.916   2.180
  483SOL    HW2 2349   6.430   2.054   2.243
  484SOL     OW 2350   2.061   3.608   5.001
  484SOL    HW1 2351   2.033   3.689   5.052
  484SOL    HW2 2352   2.135   3.632   4.938
  485SOL     OW 2353   4.222   5.644   2.813
  485SOL    HW1 2354   4.254   5.562   2.861
  485SOL    HW2 2355   4.142   5.680   2.859
  486SOL     OW 2356   6.876   1.374   0.183
  486SOL    HW1 2357   6.956   1.416   0.226
  486SOL    HW2 2358   6.856   1.287   0.227
  487SOL     OW 2359   0.816   0.782   2.764
  487SOL    HW1 2360   0.755   0.760   2.688
  487SOL    HW2 2361   0.784   0.864   2.811
  488SOL     OW 2362   0.712   1.489   1.791
  488SOL    HW1 2363   0.784   1.438   1.746
  488SOL    HW2 2364   0.690   1.571   1.738
  489SOL     OW 2365   3.985   6.049   6.382
  489SOL    HW1 2366   3.923   6.122   6.354
  489SOL    HW2 2367   3.990   5.980   6.309
  490SOL     OW 2368   0.431   6.008   2.926
  490SOL    HW1 2369   0.344   6.056   2.937
  490SOL    HW2 2370   0.454   6.003   2.828
  491SOL     OW 2371   1.100   3.530   2.392
  491SOL    HW1 2372   1.134   3.542   2.299
  491SOL    HW2 2373   1.000   3.523   2.390
  492SOL     OW 2374   1.509   0.492   4.800
  492SOL    HW1 2375   1.413   0.508   4.777
  492SOL    HW2 2376   1.519   0.401   4.841
  493SOL     OW 2377   4.806   6.142   5.692
  493SOL    HW1 2378   4.822   6.070   5.625
  493SOL    HW2 2379   4.892   6.186   5.715
  494SOL     OW 2380   0.396   6.766   0.176
  494SOL    HW1 2381   0.358   6.705   0.107
  494SOL    HW2 2382   0.494   6.746   0.189
  495SOL     OW 2383   4.838   5.813   3.874
  495SOL    HW1 2384   4.794   5.741   3.819
  495SOL    HW2 2385   4.882   5.771   3.954
  496SOL     OW 2386   5.093   3.046   1.727
  496SOL    HW1 2387   5.189   3.051   1.753
  496SOL    HW2 2388   5.058   2.954   1.745
  497SOL     OW 2389   2.741   1.749   4.506
  497SOL    HW1 2390   2.700   1.747   4.415
  497SOL    HW2 2391   2.681   1.700   4.570
  498SOL     OW 2392   1.217   4.352   1.727
  498SOL    HW1 2393   1.134   4.360   1.783
  498SOL    HW2 2394   1.249   4.257   1.730
  499SOL     OW 2395   1.753   6.045   4.432
  499SOL    HW1 2396   1.704   5.966   4.470
  499SOL    HW2 2397   1.851   6.034   4.447
  500SOL     OW 2398   0.425   2.724   5.478
  500SOL    HW1 2399   0.460   2.767   5.395
  500SOL    HW2 2400   0.475   2.759   5.557
  501SOL     OW 2401   3.099   6.282   0.851
  501SOL    HW1 2402   3.062   6.372   0.833
  501SOL    HW2 2403   3.136   6.243   0.766
  502SOL     OW 2404   1.251   4.147   6.517
  502SOL    HW1 2405   1.277   4.101   6.432
  502SOL    HW2 2406   1.270   4.087   6.595
  503SOL     OW 2407   0.445   5.356   6.659
  503SOL    HW1 2408   0.480   5.414   6.732
  503SOL    HW2 2409   0.463   5.260   6.681
  504SOL     OW 2410   1.223   4.865   2.966
  504SOL    HW1 2411   1.287   4.788   2.974
  504SOL    HW2 2412   1.272   4.950   2.981
  505SOL     OW 2413   2.871   6.066   5.334
  505SOL    HW1 2414   2.915   6.013   5.261
  505SOL    HW2 2415   2.837   6.005   5.405
  506SOL     OW 2416   2.812   4.783   4.139
  506SOL    HW1 2417   2.746   4.716   4.171
  506SOL    HW2 2418   2.853   4.830   4.217
  507SOL     OW 2419   3.444   6.896   3.481
  507SOL    HW1 2420   3.405   6.836   3.411
  507SOL    HW2 2421   3.379   6.906   3.556
  508SOL     OW 2422   6.561   3.298   2.626
  508SOL    HW1 2423   6.635   3.320   2.563
  508SOL    HW2 2424   6.546   3.199   2.626
  509SOL     OW 2425   2.904   1.071   0.980
  509SOL    HW1 2426   2.923   1.035   1.071
  509SOL    HW2 2427   2.986   1.115   0.944
  510SOL     OW 2428   6.342   4.454   6.844
  510SOL    HW1 2429   6.399   4.532   6.817
  510SOL    HW2 2430   6.396   4.391   6.900
  511SOL     OW 2431   0.909   2.079   6.161
  511SOL    HW1 2432   0.984   2.098   6.097
  511SOL    HW2 2433   0.932   2.118   6.250
  512SOL     OW 2434   6.369   2.838   6.642
  512SOL    HW1 2435   6.467   2.839   6.623
  512SOL    HW2 2436   6.351   2.782   6.723
  513SOL     OW 2437   5.768   6.859   3.225
  513SOL    HW1 2438   5.839   6.881   3.158
  513SOL    HW2 2439   5.678   6.881   3.188
  514SOL     OW 2440   6.187   1.641   4.291
  514SOL    HW1 2441   6.286   1.650   4.298
  514SOL    HW2 2442   6.164   1.553   4.249
  515SOL     OW 2443   0.774   0.229   6.802
  515SOL    HW1 2444   0.693   0.272   6.844
  515SOL    HW2 2445   0.853   0.290   6.813
  516SOL     OW 2446   2.902   4.798   2.250
  516SOL    HW1 2447   2.851   4.884   2.248
  516SOL    HW2 2448   2.880   4.744   2.169
  517SOL     OW 2449   4.410   5.557   1.271
  517SOL    HW1 2450   4.361   5.620   1.211
  517SOL    HW2 2451   4.508   5.566   1.256
  518SOL     OW 2452   2.913   2.238   3.676
  518SOL    HW1 2453   2.967   2.197   3.749
  518SOL    HW2 2454   2.907   2.174   3.599
  519SOL     OW 2455   0.425   6.741   4.465
  519SOL    HW1 2456   0.426   6.706   4.559
  519SOL    HW2 2457   0.333   6.736   4.428
  520SOL     OW 2458   5.783   3.723   6.963
  520SOL    HW1 2459   5.694   3.676   6.960
  520SOL    HW2 2460   5.790   3.775   0.028
  521SOL     OW 2461   6.422   5.126   5.138
  521SOL    HW1 2462   6.331   5.165   5.128
  521SOL    HW2 2463   6.465   5.117   5.048
  522SOL     OW 2464   3.498   3.320   4.654
  522SOL    HW1 2465   3.572   3.351   4.713
  522SOL    HW2 2466   3.412   3.362   4.682
  523SOL     OW 2467   0.733   5.876   1.689
  523SOL    HW1 2468   0.709   5.926   1.605
  523SOL    HW2 2469   0.763   5.784   1.665
  524SOL     OW 2470   0.399   1.937   2.498
  524SOL    HW1 2471   0.470   1.983   2.551
  524SOL    HW2 2472   0.314   1.990   2.502
  525SOL     OW 2473   1.977   3.319   5.722
  525SOL    HW1 2474   1.942   3.270   5.642
  525SOL    HW2 2475   1.953   3.416   5.714
  526SOL     OW 2476   3.866   6.205   3.973
  526SOL    HW1 2477   3.914   6.225   4.059
  526SOL    HW2 2478   3.806   6.281   3.950
  527SOL     OW 2479   5.799   2.584   0.456
  527SOL    HW1 2480   5.878   2.595   0.395
  527SOL    HW2 2481   5.813   2.504   0.514
  528SOL     OW 2482   0.742   2.441   3.602
  528SOL    HW1 2483   0.747   2.449   3.502
  528SOL    HW2 2484   0.705   2.352   3.626
  529SOL     OW 2485   1.294   6.615   5.118
  529SOL    HW1 2486   1.271   6.697   5.065
  529SOL    HW2 2487   1.374   6.633   5.175
  530SOL     OW 2488   3.516   3.292   4.271
  530SOL    HW1 2489   3.594   3.343   4.308
  530SOL    HW2 2490   3.486   3.226   4.340
  531SOL     OW 2491   0.684   1.670   3.143
  531SOL    HW1 2492   0.654   1.714   3.228
  531SOL    HW2 2493   0.718   1.579   3.164
  532SOL     OW 2494   0.454   3.215   6.692
  532SOL    HW1 2495   0.488   3.206   6.786
  532SOL    HW2 2496   0.532   3.232   6.631
  533SOL     OW 2497   4.031   6.522   3.965
  533SOL    HW1 2498   4.024   6.569   3.878
  533SOL    HW2 2499   3.943   6.480   3.989
  534SOL     OW 2500   5.437   6.120   2.334
  534SOL    HW1 2501   5.490   6.204   2.344
  534SOL    HW2 2502   5.390   6.100   2.419
  535SOL     OW 2503   0.126   3.266   4.954
  535SOL    HW1 2504   0.219   3.241   4.979
  535SOL    HW2 2505   0.099   3.217   4.871
  536SOL     OW 2506   6.585   5.262   1.915
  536SOL    HW1 2507   6.676   5.233   1.944
  536SOL    HW2 2508   6.526   5.272   1.995
  537SOL     OW 2509   2.554   6.691   4.459
  537SOL    HW1 2510   2.598   6.724   4.542
  537SOL    HW2 2511   2.500   6.765   4.418
  538SOL     OW 2512   0.798   4.914   3.257
  538SOL    HW1 2513   0.808   4.981   3.331
  538SOL    HW2 2514   0.863   4.840   3.271
  539SOL     OW 2515   1.674   5.702   0.936
  539SOL    HW1 2516   1.649   5.723   1.031
  539SOL    HW2 2517   1.655   5.606   0.918
  540SOL     OW 2518   1.537   0.656   3.022
  540SOL    HW1 2519   1.467   0.597   3.061
  540SOL    HW2 2520   1.495   0.738   2.983
  541SOL     OW 2521   4.927   5.749   4.119
  541SOL    HW1 2522   4.965   5.764   4.210
  541SOL    HW2 2523   4.835   5.711   4.128
  542SOL     OW 2524   6.176   6.055   6.560
  542SOL    HW1 2525   6.233   6.077   6.480
  542SOL    HW2 2526   6.091   6.108   6.557
  543SOL     OW 2527   1.056   3.459   5.181
  543SOL    HW1 2528   0.990   3.402   5.229
  543SOL    HW2 2529   1.147   3.445   5.220
  544SOL     OW 2530   1.983   4.319   0.025
  544SOL    HW1 2531   1.944   4.228   0.012
  544SOL    HW2 2532   2.067   4.312   0.078
  545SOL     OW 2533   3.051   1.647   1.740
  545SOL    HW1 2534   3.018   1.734   1.701
  545SOL    HW2 2535   3.000   1.572   1.700
  546SOL     OW 2536   2.201   2.820   0.803
  546SOL    HW1 2537   2.160   2.731   0.819
  546SOL    HW2 2538   2.217   2.832   0.705
  547SOL     OW 2539   3.292   0.634   0.425
  547SOL    HW1 2540   3.276   0.562   0.492
  547SOL    HW2 2541   3.391   0.648   0.414
  548SOL     OW 2542   3.714   3.774   2.121
  548SOL    HW1 2543   3.674   3.683   2.111
  548SOL    HW2 2544   3.642   3.843   2.111
  549SOL     OW 2545   5.145   2.862   1.308
  549SOL    HW1 2546   5.139   2.905   1.399
  549SOL    HW2 2547   5.235   2.879   1.269
  550SOL     OW 2548   0.428   5.687   3.829
  550SOL    HW1 2549   0.457   5.627   3.754
  550SOL    HW2 2550   0.335   5.661   3.858
  551SOL     OW 2551   0.564   0.369   2.889
  551SOL    HW1 2552   0.642   0.339   2.834
  551SOL    HW2 2553   0.596   0.403   2.977
  552SOL     OW 2554   5.509   4.511   6.926
  552SOL    HW1 2555   5.494   4.415   6.902
  552SOL    HW2 2556   5.567   4.554   6.857
  553SOL     OW 2557   2.745   6.609   2.522
  553SOL    HW1 2558   2.706   6.601   2.614
  553SOL    HW2 2559   2.677   6.651   2.461
  554SOL     OW 2560   5.759   0.115   6.672
  554SOL    HW1 2561   5.827   0.101   6.600
  554SOL    HW2 2562   5.741   0.028   6.718
  555SOL     OW 2563   1.980   5.274   3.800
  555SOL    HW1 2564   1.903   5.330   3.768
  555SOL    HW2 2565   2.006   5.303   3.892
  556SOL     OW 2566   4.431   2.355   3.179
  556SOL    HW1 2567   4.479   2.441   3.160
  556SOL    HW2 2568   4.496   2.279   3.178
  557SOL     OW 2569   0.336   5.083   0.627
  557SOL    HW1 2570   0.391   5.102   0.545
  557SOL    HW2 2571   0.328   5.167   0.681
  558SOL     OW 2572   3.123   3.186   4.567
  558SOL    HW1 2573   3.068   3.206   4.486
  558SOL    HW2 2574   3.063   3.163   4.643
  559SOL     OW 2575   6.729   5.880   6.959
  559SOL    HW1 2576   6.630   5.873   6.966
  559SOL    HW2 2577   6.765   5.799   6.913
  560SOL     OW 2578   5.020   4.989   6.830
  560SOL    HW1 2579   5.112   4.992   6.793
  560SOL    HW2 2580   4.961   4.936   6.769
  561SOL     OW 2581   0.661   1.447   0.986
  561SOL    HW1 2582   0.586   1.475   1.047
  561SOL    HW2 2583   0.711   1.528   0.956
  562SOL     OW 2584   5.020   0.463   6.065
  562SOL    HW1 2585   4.996   0.549   6.108
  562SOL    HW2 2586   4.983   0.387   6.119
  563SOL     OW 2587   2.266   0.896   3.699
  563SOL    HW1 2588   2.247   0.898   3.601
  563SOL    HW2 2589   2.301   0.806   3.724
  564SOL     OW 2590   1.315   1.944   0.210
  564SOL    HW1 2591   1.290   2.035   0.243
  564SOL    HW2 2592   1.262   1.874   0.259
  565SOL     OW 2593   3.938   2.894   5.184
  565SOL    HW1 2594   3.942   2.914   5.086
  565SOL    HW2 2595   3.857   2.838   5.202
  566SOL     OW 2596   0.070   5.238   3.758
  566SOL    HW1 2597   0.024   5.160   3.800
  566SOL    HW2 2598   0.003   5.297   3.713
  567SOL     OW 2599   2.903   2.918   1.691
  567SOL    HW1 2600   2.861   2.920   1.601
  567SOL    HW2 2601   2.911   2.824   1.723
  568SOL     OW 2602   4.732   1.400   0.083
  568SOL    HW1 2603   4.745   1.498   0.075
  568SOL    HW2 2604   4.667   1.381   0.157
  569SOL     OW 2605   1.905   2.836   6.387
  569SOL    HW1 2606   1.904   2.892   6.469
  569SOL    HW2 2607   1.899   2.739   6.413
  570SOL     OW 2608   2.963   6.561   6.898
  570SOL    HW1 2609   3.051   6.564   6.850
  570SOL    HW2 2610   2.945   6.650   6.940
  571SOL     OW 2611   3.171   0.254   2.119
  571SOL    HW1 2612   3.082   0.291   2.091
  571SOL    HW2 2613   3.179   0.260   2.218
  572SOL     OW 2614   2.841   4.801   5.592
  572SOL    HW1 2615   2.858   4.889   5.635
  572SOL    HW2 2616   2.758   4.806   5.535
  573SOL     OW 2617   5.292   1.876   5.637
  573SOL    HW1 2618   5.243   1.804   5.686
  573SOL    HW2 2619   5.390   1.859   5.640
  574SOL     OW 2620   3.244   1.718   4.241
  574SOL    HW1 2621   3.287   1.659   4.309
  574SOL    HW2 2622   3.313   1.745   4.173
  575SOL     OW 2623   5.193   3.707   0.575
  575SOL    HW1 2624   5.207   3.681   0.480
  575SOL    HW2 2625   5.119   3.773   0.581
  576SOL     OW 2626   0.794   2.103   3.190
  576SOL    HW1 2627   0.728   2.144   3.126
  576SOL    HW2 2628   0.812   2.009   3.163
  577SOL     OW 2629   1.227   1.246   2.379
  577SOL    HW1 2630   1.237   1.146   2.377
  577SOL    HW2 2631   1.273   1.286   2.300
  578SOL     OW 2632   5.721   5.463   3.468
  578SOL    HW1 2633   5.717   5.369   3.502
  578SOL    HW2 2634   5.656   5.475   3.394
  579SOL     OW 2635   1.848   2.952   2.816
  579SOL    HW1 2636   1.785   2.877   2.797
  579SOL    HW2 2637   1.856   2.965   2.915
  580SOL     OW 2638   6.514   5.302   0.070
  580SOL    HW1 2639   6.562   5.215   0.063
  580SOL    HW2 2640   6.548   5.353   0.149
  581SOL     OW 2641   2.888   3.242   2.045
  581SOL    HW1 2642   2.825   3.200   2.111
  581SOL    HW2 2643   2.858   3.220   1.952
  582SOL     OW 2644   4.799   6.863   2.298
  582SOL    HW1 2645   4.893   6.878   2.329
  582SOL    HW2 2646   4.792   6.774   2.252
  583SOL     OW 2647   2.885   5.349   5.610
  583SOL    HW1 2648   2.852   5.283   5.544
  583SOL    HW2 2649   2.890   5.440   5.568
  584SOL     OW 2650   3.091   3.898   6.176
  584SOL    HW1 2651   3.082   3.881   6.078
  584SOL    HW2 2652   3.168   3.959   6.193
  585SOL     OW 2653   5.253   3.008   6.143
  585SOL    HW1 2654   5.290   3.097   6.113
  585SOL    HW2 2655   5.207   3.019   6.231
  586SOL     OW 2656   3.865   1.842   5.970
  586SOL    HW1 2657   3.775   1.884   5.983
  586SOL    HW2 2658   3.859   1.743   5.986
  587SOL     OW 2659   4.001   1.175   5.749
  587SOL    HW1 2660   4.040   1.154   5.839
  587SOL    HW2 2661   3.922   1.116   5.732
  588SOL     OW 2662   2.363   5.012   1.365
  588SOL    HW1 2663   2.309   4.991   1.447
  588SOL    HW2 2664   2.311   4.985   1.284
  589SOL     OW 2665   3.050   5.022   1.666
  589SOL    HW1 2666   3.121   5.091   1.678
  589SOL    HW2 2667   2.998   5.042   1.582
  590SOL     OW 2668   4.895   3.367   3.117
  590SOL    HW1 2669   4.931   3.298   3.180
  590SOL    HW2 2670   4.895   3.330   3.024
  591SOL     OW 2671   3.972   5.615   4.390
  591SOL    HW1 2672   3.966   5.710   4.358
  591SOL    HW2 2673   4.060   5.577   4.362
  592SOL     OW 2674   3.078   0.823   1.389
  592SOL    HW1 2675   3.097   0.915   1.425
  592SOL    HW2 2676   3.064   0.828   1.290
  593SOL     OW 2677   4.674   2.352   2.918
  593SOL    HW1 2678   4.664   2.266   2.969
  593SOL    HW2 2679   4.639   2.427   2.974
  594SOL     OW 2680   5.541   2.249   6.557
  594SOL    HW1 2681   5.604   2.197   6.613
  594SOL    HW2 2682   5.511   2.193   6.480
  595SOL     OW 2683   5.998   6.569   3.661
  595SOL    HW1 2684   6.055   6.490   3.641
  595SOL    HW2 2685   5.923   6.542   3.721
  596SOL     OW 2686   1.852   4.485   3.088
  596SOL    HW1 2687   1.873   4.388   3.082
  596SOL    HW2 2688   1.936   4.537   3.102
  597SOL     OW 2689   3.511   6.892   6.811
  597SOL    HW1 2690   3.463   6.805   6.797
  597SOL    HW2 2691   3.446   6.961   6.844
  598SOL     OW 2692   3.514   4.450   5.669
  598SOL    HW1 2693   3.423   4.474   5.636
  598SOL    HW2 2694   3.580   4.519   5.639
  599SOL     OW 2695   2.389   6.669   2.109
  599SOL    HW1 2696   2.408   6.579   2.070
  599SOL    HW2 2697   2.345   6.659   2.198
  600SOL     OW 2698   0.916   1.217   6.936
  600SOL    HW1 2699   0.855   1.177   7.006
  600SOL    HW2 2700   0.983   1.149   6.908
  601SOL     OW 2701   2.988   6.921   4.418
  601SOL    HW1 2702   3.034   6.932   4.331
  601SOL    HW2 2703   3.007   6.829   4.455
  602SOL     OW 2704   2.363   2.648   6.363
  602SOL    HW1 2705   2.303   2.664   6.285
  602SOL    HW2 2706   2.385   2.736   6.407
  603SOL     OW 2707   3.589   1.718   3.754
  603SOL    HW1 2708   3.505   1.674   3.721
  603SOL    HW2 2709   3.668   1.663   3.728
  604SOL     OW 2710   0.751   3.725   1.432
  604SOL    HW1 2711   0.804   3.641   1.431
  604SOL    HW2 2712   0.655   3.704   1.414
  605SOL     OW 2713   6.936   6.404   2.178
  605SOL    HW1 2714   6.903   6.425   2.270
  605SOL    HW2 2715   6.898   6.316   2.149
  606SOL     OW 2716   5.170   0.578   6.346
  606SOL    HW1 2717   5.128   0.638   6.277
  606SOL    HW2 2718   5.268   0.571   6.329
  607SOL     OW 2719   6.073   0.279   5.821
  607SOL    HW1 2720   6.074   0.360   5.763
  607SOL    HW2 2721   6.030   0.203   5.772
  608SOL     OW 2722   2.641   6.363   6.219
  608SOL    HW1 2723   2.645   6.427   6.295
  608SOL    HW2 2724   2.574   6.291   6.240
  609SOL     OW 2725   3.993   3.365   3.216
  609SOL    HW1 2726   3.910   3.347   3.164
  609SOL    HW2 2727   3.977   3.345   3.313
  610SOL     OW 2728   4.974   3.177   2.084
  610SOL    HW1 2729   5.005   3.193   1.991
  610SOL    HW2 2730   4.881   3.139   2.083
  611SOL     OW 2731   3.543   0.244   0.226
  611SOL    HW1 2732   3.592   0.188   0.160
  611SOL    HW2 2733   3.608   0.287   0.288
  612SOL     OW 2734   3.584   6.304   5.741
  612SOL    HW1 2735   3.572   6.205   5.744
  612SOL    HW2 2736   3.682   6.325   5.736
  613SOL     OW 2737   4.249   6.943   6.138
  613SOL    HW1 2738   4.328   6.885   6.162
  613SOL    HW2 2739   4.187   6.891   6.079
  614SOL     OW 2740   4.598   4.579   1.062
  614SOL    HW1 2741   4.608   4.539   1.153
  614SOL    HW2 2742   4.517   4.539   1.018
  615SOL     OW 2743   0.215   2.577   1.752
  615SOL    HW1 2744   0.118   2.568   1.772
  615SOL    HW2 2745   0.250   2.492   1.713
  616SOL     OW 2746   0.365   2.123   3.727
  616SOL    HW1 2747   0.307   2.042   3.732
  616SOL    HW2 2748   0.311   2.201   3.695
  617SOL     OW 2749   6.374   3.608   6.207
  617SOL    HW1 2750   6.316   3.531   6.178
  617SOL    HW2 2751   6.319   3.673   6.259
  618SOL     OW 2752   6.569   2.396   6.543
  618SOL    HW1 2753   6.621   2.364   6.464
  618SOL    HW2 2754   6.625   2.387   6.626
  619SOL     OW 2755   4.800   0.558   6.554
  619SOL    HW1 2756   4.755   0.486   6.501
  619SOL    HW2 2757   4.896   0.564   6.526
  620SOL     OW 2758   4.843   2.726   1.330
  620SOL    HW1 2759   4.908   2.714   1.255
  620SOL    HW2 2760   4.759   2.767   1.296
  621SOL     OW 2761   2.220   6.514   6.087
  621SOL    HW1 2762   2.268   6.427   6.077
  621SOL    HW2 2763   2.123   6.502   6.067
  622SOL     OW 2764   1.253   1.115   4.337
  622SOL    HW1 2765   1.219   1.200   4.297
  622SOL    HW2 2766   1.267   1.128   4.435
  623SOL     OW 2767   1.287   6.158   6.067
  623SOL    HW1 2768   1.198   6.121   6.094
  623SOL    HW2 2769   1.298   6.153   5.968
  624SOL     OW 2770   0.256   1.676   1.660
  624SOL    HW1 2771   0.191   1.648   1.590
  624SOL    HW2 2772   0.208   1.720   1.736
  625SOL     OW 2773   1.425   2.129   1.803
  625SOL    HW1 2774   1.434   2.075   1.719
  625SOL    HW2 2775   1.506   2.185   1.815
  626SOL     OW 2776   1.100   5.921   3.073
  626SOL    HW1 2777   1.136   5.832   3.100
  626SOL    HW2 2778   1.154   5.994   3.115
  627SOL     OW 2779   6.775   6.426   0.764
  627SOL    HW1 2780   6.848   6.362   0.740
  627SOL    HW2 2781   6.707   6.428   0.690
  628SOL     OW 2782   5.553   5.924   5.793
  628SOL    HW1 2783   5.509   5.879   5.715
  628SOL    HW2 2784   5.632   5.870   5.821
  629SOL     OW 2785   0.493   0.618   6.678
  629SOL    HW1 2786   0.488   0.522   6.651
  629SOL    HW2 2787   0.456   0.675   6.604
  630SOL     OW 2788   0.369   1.785   0.865
  630SOL    HW1 2789   0.310   1.728   0.808
  630SOL    HW2 2790   0.405   1.731   0.941
  631SOL     OW 2791   3.680   1.440   5.400
  631SOL    HW1 2792   3.612   1.513   5.397
  631SOL    HW2 2793   3.770   1.477   5.381
  632SOL     OW 2794   4.177   1.873   1.495
  632SOL    HW1 2795   4.091   1.904   1.453
  632SOL    HW2 2796   4.204   1.937   1.566
  633SOL     OW 2797   3.144   3.477   7.007
  633SOL    HW1 2798   3.120   3.542   6.936
  633SOL    HW2 2799   3.144   3.384   6.970
  634SOL     OW 2800   4.136   3.659   2.458
  634SOL    HW1 2801   4.182   3.732   2.508
  634SOL    HW2 2802   4.155   3.668   2.360
  635SOL     OW 2803   4.608   5.468   0.709
  635SOL    HW1 2804   4.647   5.521   0.784
  635SOL    HW2 2805   4.660   5.483   0.626
  636SOL     OW 2806   3.206   6.625   0.357
  636SOL    HW1 2807   3.286   6.684   0.345
  636SOL    HW2 2808   3.183   6.581   0.270
  637SOL     OW 2809   7.017   3.163   3.226
  637SOL    HW1 2810   6.958   3.084   3.208
  637SOL    HW2 2811   6.969   3.227   3.286
  638SOL     OW 2812   5.694   2.988   3.006
  638SOL    HW1 2813   5.649   2.944   3.084
  638SOL    HW2 2814   5.781   2.943   2.988
  639SOL     OW 2815   4.869   3.266   2.850
  639SOL    HW1 2816   4.792   3.216   2.810
  639SOL    HW2 2817   4.875   3.356   2.808
  640SOL     OW 2818   0.652   5.235   4.124
  640SOL    HW1 2819   0.718   5.199   4.190
  640SOL    HW2 2820   0.635   5.331   4.143
  641SOL     OW 2821   0.584   4.372   5.140
  641SOL    HW1 2822   0.586   4.449   5.076
  641SOL    HW2 2823   0.646   4.390   5.216
  642SOL     OW 2824   6.981   3.308   3.924
  642SOL    HW1 2825   6.972   3.367   4.004
  642SOL    HW2 2826   6.895   3.306   3.874
  643SOL     OW 2827   6.218   6.562   6.103
  643SOL    HW1 2828   6.318   6.558   6.095
  643SOL    HW2 2829   6.177   6.492   6.044
  644SOL     OW 2830   1.626   6.542   4.381
  644SOL    HW1 2831   1.586   6.490   4.305
  644SOL    HW2 2832   1.661   6.629   4.347
  645SOL     OW 2833   4.284   0.123   5.194
  645SOL    HW1 2834   4.355   0.127   5.264
  645SOL    HW2 2835   4.273   0.213   5.153
  646SOL     OW 2836   3.320   0.684   4.469
  646SOL    HW1 2837   3.274   0.738   4.539
  646SOL    HW2 2838   3.418   0.703   4.472
  647SOL     OW 2839   5.352   1.882   5.302
  647SOL    HW1 2840   5.347   1.784   5.281
  647SOL    HW2 2841   5.433   1.900   5.357
  648SOL     OW 2842   0.999   3.501   3.642
  648SOL    HW1 2843   1.080   3.477   3.590
  648SOL    HW2 2844   0.937   3.554   3.584
  649SOL     OW 2845   2.372   4.257   1.165
  649SOL    HW1 2846   2.384   4.329   1.233
  649SOL    HW2 2847   2.275   4.235   1.156
  650SOL     OW 2848   5.982   4.704   0.358
  650SOL    HW1 2849   5.989   4.684   0.260
  650SOL    HW2 2850   5.928   4.633   0.403
  651SOL     OW 2851   1.149   6.848   6.122
  651SOL    HW1 2852   1.231   6.858   6.066
  651SOL    HW2 2853   1.069   6.837   6.062
  652SOL     OW 2854   5.342   6.828   3.796
  652SOL    HW1 2855   5.324   6.925   3.812
  652SOL    HW2 2856   5.434   6.806   3.826
  653SOL     OW 2857   1.393   5.815   6.945
  653SOL    HW1 2858   1.392   5.914   6.929
  653SOL    HW2 2859   1.355   5.795   0.014
  654SOL     OW 2860   0.670   5.547   0.205
  654SOL    HW1 2861   0.757   5.503   0.229
  654SOL    HW2 2862   0.688   5.641   0.175
  655SOL     OW 2863   0.201   6.004   1.282
  655SOL    HW1 2864   0.162   6.069   1.217
  655SOL    HW2 2865   0.136   5.986   1.355
  656SOL     OW 2866   1.954   6.066   1.112
  656SOL    HW1 2867   1.995   6.109   1.191
  656SOL    HW2 2868   1.958   5.967   1.121
  657SOL     OW 2869   2.539   3.823   1.627
  657SOL    HW1 2870   2.545   3.765   1.545
  657SOL    HW2 2871   2.458   3.799   1.680
  658SOL     OW 2872   1.939   3.584   6.242
  658SOL    HW1 2873   1.903   3.496   6.211
  658SOL    HW2 2874   1.873   3.627   6.304
  659SOL     OW 2875   1.398   6.270   5.222
  659SOL    HW1 2876   1.340   6.231   5.151
  659SOL    HW2 2877   1.347   6.273   5.308
  660SOL     OW 2878   6.064   3.992   2.494
  660SOL    HW1 2879   6.088   3.924   2.564
  660SOL    HW2 2880   5.986   4.046   2.525
  661SOL     OW 2881   4.696   4.229   3.356
  661SOL    HW1 2882   4.627   4.159   3.340
  661SOL    HW2 2883   4.703   4.287   3.275
  662SOL     OW 2884   4.442   0.356   4.865
  662SOL    HW1 2885   4.399   0.347   4.955
  662SOL    HW2 2886   4.372   0.366   4.795
  663SOL     OW 2887   1.154   3.555   6.658
  663SOL    HW1 2888   1.233   3.494   6.652
  663SOL    HW2 2889   1.149   3.610   6.575
  664SOL     OW 2890   0.191   5.340   6.499
  664SOL    HW1 2891   0.278   5.377   6.532
  664SOL    HW2 2892   0.174   5.371   6.406
  665SOL     OW 2893   4.399   4.775   0.641
  665SOL    HW1 2894   4.338   4.822   0.577
  665SOL    HW2 2895   4.400   4.677   0.620
  666SOL     OW 2896   4.857   1.879   3.109
  666SOL    HW1 2897   4.777   1.882   3.048
  666SOL    HW2 2898   4.931   1.828   3.065
  667SOL     OW 2899   6.030   3.917   3.142
  667SOL    HW1 2900   6.094   3.928   3.066
  667SOL    HW2 2901   5.980   3.831   3.132
  668SOL     OW 2902   4.966   6.109   6.926
  668SOL    HW1 2903   4.882   6.126   6.977
  668SOL    HW2 2904   5.000   6.017   6.948
  669SOL     OW 2905   3.862   6.239   3.443
  669SOL    HW1 2906   3.938   6.192   3.488
  669SOL    HW2 2907   3.850   6.330   3.482
  670SOL     OW 2908   2.752   2.908   1.449
  670SOL    HW1 2909   2.669   2.888   1.502
  670SOL    HW2 2910   2.767   2.835   1.383
  671SOL     OW 2911   2.972   5.581   0.127
  671SOL    HW1 2912   2.886   5.531   0.136
  671SOL    HW2 2913   2.977   5.652   0.198
  672SOL     OW 2914   0.733   4.647   1.825
  672SOL    HW1 2915   0.807   4.626   1.889
  672SOL    HW2 2916   0.692   4.562   1.793
  673SOL     OW 2917   6.774   0.639   1.412
  673SOL    HW1 2918   6.748   0.725   1.366
  673SOL    HW2 2919   6.693   0.596   1.450
  674SOL     OW 2920   0.125   3.350   4.565
  674SOL    HW1 2921   0.109   3.322   4.471
  674SOL    HW2 2922   0.139   3.269   4.622
  675SOL     OW 2923   0.514   1.101   4.743
  675SOL    HW1 2924   0.527   1.189   4.789
  675SOL    HW2 2925   0.549   1.028   4.801
  676SOL     OW 2926   4.015   5.946   2.907
  676SOL    HW1 2927   3.969   5.960   2.819
  676SOL    HW2 2928   4.000   5.852   2.937
  677SOL     OW 2929   6.060   1.642   6.874
  677SOL    HW1 2930   5.981   1.588   6.903
  677SOL    HW2 2931   6.045   1.738   6.898
  678SOL     OW 2932   1.218   1.121   4.599
  678SOL    HW1 2933   1.163   1.038   4.603
  678SOL    HW2 2934   1.158   1.201   4.605
  679SOL     OW 2935   4.704   1.845   4.454
  679SOL    HW1 2936   4.786   1.888   4.416
  679SOL    HW2 2937   4.729   1.761   4.502
  680SOL     OW 2938   6.191   5.260   5.957
  680SOL    HW1 2939   6.091   5.261   5.950
  680SOL    HW2 2940   6.222   5.344   6.003
  681SOL     OW 2941   5.720   5.882   1.394
  681SOL    HW1 2942   5.804   5.865   1.446
  681SOL    HW2 2943   5.643   5.839   1.440
  682SOL     OW 2944   1.663   0.102   0.625
  682SOL    HW1 2945   1.669   0.120   0.723
  682SOL    HW2 2946   1.740   0.146   0.578
  683SOL     OW 2947   3.664   2.825   6.705
  683SOL    HW1 2948   3.712   2.758   6.762
  683SOL    HW2 2949   3.697   2.818   6.611
  684SOL     OW 2950   6.103   0.725   6.838
  684SOL    HW1 2951   6.052   0.811   6.836
  684SOL    HW2 2952   6.194   0.741   6.876
  685SOL     OW 2953   4.530   1.196   4.192
  685SOL    HW1 2954   4.630   1.205   4.202
  685SOL    HW2 2955   4.501   1.107   4.227
  686SOL     OW 2956   5.652   2.584   3.250
  686SOL    HW1 2957   5.652   2.563   3.348
  686SOL    HW2 2958   5.645   2.498   3.198
  687SOL     OW 2959   0.316   2.890   4.763
  687SOL    HW1 2960   0.336   2.892   4.861
  687SOL    HW2 2961   0.388   2.940   4.713
  688SOL     OW 2962   1.649   2.639   6.707
  688SOL    HW1 2963   1.583   2.595   6.647
  688SOL    HW2 2964   1.717   2.687   6.653
  689SOL     OW 2965   0.097   4.460   6.108
  689SOL    HW1 2966   0.171   4.393   6.120
  689SOL    HW2 2967   0.040   4.434   6.030
  690SOL     OW 2968   0.910   3.893   3.672
  690SOL    HW1 2969   0.918   3.910   3.770
  690SOL    HW2 2970   0.899   3.980   3.624
  691SOL     OW 2971   2.553   0.344   6.240
  691SOL    HW1 2972   2.563   0.246   6.256
  691SOL    HW2 2973   2.581   0.394   6.322
  692SOL     OW 2974   4.093   5.943   3.687
  692SOL    HW1 2975   4.019   5.972   3.748
  692SOL    HW2 2976   4.174   5.999   3.704
  693SOL     OW 2977   6.461   0.449   3.253
  693SOL    HW1 2978   6.378   0.400   3.228
  693SOL    HW2 2979   6.503   0.487   3.170
  694SOL     OW 2980   3.993   6.142   2.521
  694SOL    HW1 2981   3.911   6.095   2.489
  694SOL    HW2 2982   4.008   6.225   2.468
  695SOL     OW 2983   4.262   5.755   5.126
  695SOL    HW1 2984   4.175   5.765   5.174
  695SOL    HW2 2985   4.245   5.753   5.027
  696SOL     OW 2986   3.361   5.593   2.623
  696SOL    HW1 2987   3.276   5.644   2.612
  696SOL    HW2 2988   3.354   5.505   2.576
  697SOL     OW 2989   2.278   2.738   4.389
  697SOL    HW1 2990   2.279   2.733   4.289
  697SOL    HW2 2991   2.269   2.833   4.417
  698SOL     OW 2992   5.833   0.564   6.899
  698SOL    HW1 2993   5.753   0.595   6.951
  698SOL    HW2 2994   5.911   0.623   6.921
  699SOL     OW 2995   1.566   4.082   6.431
  699SOL    HW1 2996   1.634   4.053   6.363
  699SOL    HW2 2997   1.497   4.011   6.440
  700SOL     OW 2998   2.455   1.441   3.718
  700SOL    HW1 2999   2.409   1.481   3.639
  700SOL    HW2 3000   2.554   1.439   3.702
  701SOL     OW 3001   6.081   3.186   5.177
  701SOL    HW1 3002   6.131   3.185   5.263
  701SOL    HW2 3003   6.138   3.226   5.105
  702SOL     OW 3004   0.208   6.601   6.062
  702SOL    HW1 3005   0.158   6.629   5.980
  702SOL    HW2 3006   0.200   6.502   6.074
  703SOL     OW 3007   3.464   4.023   6.473
  703SOL    HW1 3008   3.558   4.039   6.441
  703SOL    HW2 3009   3.467   3.987   6.567
  704SOL     OW 3010   1.352   1.512   6.454
  704SOL    HW1 3011   1.294   1.465   6.521
  704SOL    HW2 3012   1.377   1.447   6.382
  705SOL     OW 3013   6.369   6.438   2.884
  705SOL    HW1 3014   6.464   6.470   2.885
  705SOL    HW2 3015   6.329   6.455   2.794
  706SOL     OW 3016   4.476   2.458   3.987
  706SOL    HW1 3017   4.398   2.412   4.028
  706SOL    HW2 3018   4.475   2.444   3.888
  707SOL     OW 3019   4.540   6.936   2.305
  707SOL    HW1 3020   4.503   6.887   2.226
  707SOL    HW2 3021   4.635   6.909   2.319
  708SOL     OW 3022   3.804   1.065   1.312
  708SOL    HW1 3023   3.757   1.085   1.398
  708SOL    HW2 3024   3.888   1.013   1.331
  709SOL     OW 3025   0.930   5.114   0.934
  709SOL    HW1 3026   0.989   5.172   0.879
  709SOL    HW2 3027   0.971   5.023   0.942
  710SOL     OW 3028   3.406   2.864   2.502
  710SOL    HW1 3029   3.390   2.899   2.410
  710SOL    HW2 3030   3.319   2.862   2.553
  711SOL     OW 3031   0.165   2.131   6.032
  711SOL    HW1 3032   0.133   2.114   5.939
  711SOL    HW2 3033   0.101   2.192   6.078
  712SOL     OW 3034   3.709   3.550   0.898
  712SOL    HW1 3035   3.681   3.645   0.907
  712SOL    HW2 3036   3.784   3.543   0.833
  713SOL     OW 3037   3.639   2.916   6.308
  713SOL    HW1 3038   3.581   2.835   6.296
  713SOL    HW2 3039   3.708   2.898   6.378
  714SOL     OW 3040   6.620   4.435   3.877
  714SOL    HW1 3041   6.532   4.405   3.915
  714SOL    HW2 3042   6.675   4.476   3.949
  715SOL     OW 3043   5.895   5.809   6.976
  715SOL    HW1 3044   5.902   5.819   6.877
  715SOL    HW2 3045   5.799   5.811   7.003
  716SOL     OW 3046   1.211   0.568   0.918
  716SOL    HW1 3047   1.172   0.652   0.954
  716SOL    HW2 3048   1.140   0.498   0.913
  717SOL     OW 3049   5.822   4.353   6.439
  717SOL    HW1 3050   5.800   4.448   6.417
  717SOL    HW2 3051   5.914   4.349   6.478
  718SOL     OW 3052   4.807   2.397   6.421
  718SOL    HW1 3053   4.873   2.322   6.427
  718SOL    HW2 3054   4.797   2.439   6.512
  719SOL     OW 3055   6.409   1.103   2.127
  719SOL    HW1 3056   6.497   1.061   2.104
  719SOL    HW2 3057   6.347   1.096   2.049
  720SOL     OW 3058   3.749   0.820   6.717
  720SOL    HW1 3059   3.714   0.881   6.788
  720SOL    HW2 3060   3.826   0.767   6.753
  721SOL     OW 3061   2.642   1.283   4.137
  721SOL    HW1 3062   2.736   1.249   4.135
  721SOL    HW2 3063   2.641   1.377   4.171
  722SOL     OW 3064   2.975   0.184   4.478
  722SOL    HW1 3065   2.967   0.220   4.385
  722SOL    HW2 3066   2.946   0.088   4.479
  723SOL     OW 3067   2.183   3.757   3.009
  723SOL    HW1 3068   2.176   3.687   2.938
  723SOL    HW2 3069   2.102   3.754   3.068
  724SOL     OW 3070   1.561   2.803   4.732
  724SOL    HW1 3071   1.489   2.778   4.667
  724SOL    HW2 3072   1.650   2.780   4.693
  725SOL     OW 3073   4.292   5.971   0.756
  725SOL    HW1 3074   4.228   5.978   0.680
  725SOL    HW2 3075   4.245   5.934   0.836
  726SOL     OW 3076   4.375   5.181   0.250
  726SOL    HW1 3077   4.305   5.113   0.230
  726SOL    HW2 3078   4.383   5.194   0.348
  727SOL     OW 3079   5.921   5.244   5.956
  727SOL    HW1 3080   5.840   5.230   6.013
  727SOL    HW2 3081   5.934   5.342   5.940
  728SOL     OW 3082   6.417   3.469   5.090
  728SOL    HW1 3083   6.469   3.399   5.138
  728SOL    HW2 3084   6.473   3.551   5.078
  729SOL     OW 3085   1.075   2.065   0.493
  729SOL    HW1 3086   1.172   2.067   0.519
  729SOL    HW2 3087   1.039   1.972   0.506
  730SOL     OW 3088   5.459   1.526   2.973
  730SOL    HW1 3089   5.443   1.472   2.891
  730SOL    HW2 3090   5.495   1.615   2.947
  731SOL     OW 3091   5.235   4.396   5.542
  731SOL    HW1 3092   5.191   4.314   5.508
  731SOL    HW2 3093   5.300   4.372   5.615
  732SOL     OW 3094   0.098   2.425   1.303
  732SOL    HW1 3095   0.124   2.347   1.246
  732SOL    HW2 3096   0.174   2.450   1.363
  733SOL     OW 3097   5.912   6.131   5.692
  733SOL    HW1 3098   6.001   6.098   5.660
  733SOL    HW2 3099   5.892   6.092   5.782
  734SOL     OW 3100   6.933   4.881   2.507
  734SOL    HW1 3101   0.008   4.861   2.485
  734SOL    HW2 3102   6.905   4.824   2.584
  735SOL     OW 3103   3.927   1.946   0.615
  735SOL    HW1 3104   3.926   1.893   0.530
  735SOL    HW2 3105   4.021   1.957   0.646
  736SOL     OW 3106   0.621   0.504   3.152
  736SOL    HW1 3107   0.531   0.522   3.192
  736SOL    HW2 3108   0.687   0.486   3.224
  737SOL     OW 3109   4.869   2.287   6.046
  737SOL    HW1 3110   4.817   2.372   6.036
  737SOL    HW2 3111   4.963   2.302   6.016
  738SOL     OW 3112   2.025   4.400   2.466
  738SOL    HW1 3113   2.056   4.371   2.376
  738SOL    HW2 3114   2.100   4.392   2.531
  739SOL     OW 3115   4.245   0.427   4.217
  739SOL    HW1 3116   4.256   0.411   4.315
  739SOL    HW2 3117   4.148   0.435   4.196
  740SOL     OW 3118   5.256   0.377   0.981
  740SOL    HW1 3119   5.207   0.341   0.902
  740SOL    HW2 3120   5.247   0.477   0.982
  741SOL     OW 3121   2.047   6.674   3.121
  741SOL    HW1 3122   1.975   6.649   3.186
  741SOL    HW2 3123   2.130   6.622   3.143
  742SOL     OW 3124   2.119   6.824   1.734
  742SOL    HW1 3125   2.137   6.785   1.824
  742SOL    HW2 3126   2.173   6.907   1.722
  743SOL     OW 3127   0.121   3.903   3.946
  743SOL    HW1 3128   0.196   3.966   3.927
  743SOL    HW2 3129   0.143   3.848   4.027
  744SOL     OW 3130   5.678   0.374   6.718
  744SOL    HW1 3131   5.689   0.276   6.730
  744SOL    HW2 3132   5.766   0.416   6.694
  745SOL     OW 3133   0.816   5.548   5.036
  745SOL    HW1 3134   0.914   5.536   5.055
  745SOL    HW2 3135   0.769   5.574   5.120
  746SOL     OW 3136   6.953   4.904   5.809
  746SOL    HW1 3137   7.011   4.985   5.807
  746SOL    HW2 3138   6.861   4.928   5.777
  747SOL     OW 3139   4.016   6.549   4.788
  747SOL    HW1 3140   4.114   6.550   4.811
  747SOL    HW2 3141   3.996   6.467   4.734
  748SOL     OW 3142   3.250   4.989   2.494
  748SOL    HW1 3143   3.164   5.039   2.486
  748SOL    HW2 3144   3.238   4.914   2.559
  749SOL     OW 3145   6.456   4.342   5.252
  749SOL    HW1 3146   6.551   4.315   5.263
  749SOL    HW2 3147   6.451   4.428   5.201
  750SOL     OW 3148   1.882   2.128   0.825
  750SOL    HW1 3149   1.863   2.207   0.767
  750SOL    HW2 3150   1.974   2.137   0.864
  751SOL     OW 3151   3.672   2.412   6.427
  751SOL    HW1 3152   3.595   2.431   6.489
  751SOL    HW2 3153   3.728   2.339   6.465
  752SOL     OW 3154   3.724   1.152   2.391
  752SOL    HW1 3155   3.803   1.151   2.453
  752SOL    HW2 3156   3.652   1.210   2.429
  753SOL     OW 3157   1.691   3.604   4.932
  753SOL    HW1 3158   1.613   3.541   4.933
  753SOL    HW2 3159   1.674   3.679   4.996
  754SOL     OW 3160   5.487   2.554   5.903
  754SOL    HW1 3161   5.491   2.456   5.885
  754SOL    HW2 3162   5.404   2.592   5.863
  755SOL     OW 3163   1.549   4.584   5.204
  755SOL    HW1 3164   1.489   4.575   5.283
  755SOL    HW2 3165   1.612   4.660   5.218
  756SOL     OW 3166   3.628   0.433   0.749
  756SOL    HW1 3167   3.537   0.390   0.746
  756SOL    HW2 3168   3.618   0.529   0.775
  757SOL     OW 3169   0.736   0.191   3.990
  757SOL    HW1 3170   0.661   0.171   4.054
  757SOL    HW2 3171   0.771   0.105   3.953
  758SOL     OW 3172   4.058   0.003   1.877
  758SOL    HW1 3173   4.002   6.990   1.802
  758SOL    HW2 3174   4.000   0.053   1.942
  759SOL     OW 3175   0.818   1.316   1.170
  759SOL    HW1 3176   0.827   1.365   1.256
  759SOL    HW2 3177   0.748   1.360   1.113
  760SOL     OW 3178   5.084   0.277   5.516
  760SOL    HW1 3179   5.112   0.367   5.550
  760SOL    HW2 3180   5.067   0.282   5.418
  761SOL     OW 3181   5.895   3.066   5.604
  761SOL    HW1 3182   5.830   3.052   5.678
  761SOL    HW2 3183   5.902   2.982   5.549
  762SOL     OW 3184   2.472   0.737   4.887
  762SOL    HW1 3185   2.564   0.774   4.879
  762SOL    HW2 3186   2.422   0.788   4.958
  763SOL     OW 3187   4.066   5.435   6.244
  763SOL    HW1 3188   4.079   5.337   6.228
  763SOL    HW2 3189   4.114   5.487   6.174
  764SOL     OW 3190   5.062   1.721   4.883
  764SOL    HW1 3191   5.037   1.695   4.976
  764SOL    HW2 3192   5.140   1.784   4.886
  765SOL     OW 3193   1.146   6.397   1.199
  765SOL    HW1 3194   1.246   6.393   1.202
  765SOL    HW2 3195   1.110   6.313   1.157
  766SOL     OW 3196   2.307   3.606   6.850
  766SOL    HW1 3197   2.269   3.567   6.766
  766SOL    HW2 3198   2.396   3.565   6.868
  767SOL     OW 3199   6.455   5.900   1.792
  767SOL    HW1 3200   6.521   5.963   1.751
  767SOL    HW2 3201   6.501   5.840   1.857
  768SOL     OW 3202   2.100   6.442   1.804
  768SOL    HW1 3203   2.002   6.427   1.787
  768SOL    HW2 3204   2.137   6.499   1.731
  769SOL     OW 3205   3.251   0.837   5.104
  769SOL    HW1 3206   3.251   0.930   5.141
  769SOL    HW2 3207   3.157   0.807   5.089
  770SOL     OW 3208   2.321   4.243   3.229
  770SOL    HW1 3209   2.389   4.316   3.237
  770SOL    HW2 3210   2.284   4.222   3.319
  771SOL     OW 3211   2.694   5.597   2.334
  771SOL    HW1 3212   2.729   5.654   2.408
  771SOL    HW2 3213   2.672   5.506   2.370
  772SOL     OW 3214   5.412   4.603   0.952
  772SOL    HW1 3215   5.377   4.511   0.933
  772SOL    HW2 3216   5.506   4.596   0.985
  773SOL     OW 3217   0.125   3.492   4.793
  773SOL    HW1 3218   0.136   3.416   4.857
  773SOL    HW2 3219   0.126   3.457   4.699
  774SOL     OW 3220   1.124   1.669   1.267
  774SOL    HW1 3221   1.036   1.708   1.293
  774SOL    HW2 3222   1.137   1.581   1.313
  775SOL     OW 3223   0.677   2.226   2.502
  775SOL    HW1 3224   0.586   2.265   2.515
  775SOL    HW2 3225   0.745   2.279   2.553
  776SOL     OW 3226   0.866   0.091   6.007
  776SOL    HW1 3227   0.964   0.088   5.992
  776SOL    HW2 3228   0.820   0.028   5.944
  777SOL     OW 3229   2.628   4.999   1.328
  777SOL    HW1 3230   2.537   4.997   1.369
  777SOL    HW2 3231   2.676   4.914   1.348
  778SOL     OW 3232   3.003   1.247   2.375
  778SOL    HW1 3233   3.039   1.229   2.467
  778SOL    HW2 3234   3.073   1.225   2.307
  779SOL     OW 3235   0.172   2.501   2.424
  779SOL    HW1 3236   0.129   2.590   2.408
  779SOL    HW2 3237   0.262   2.500   2.380
  780SOL     OW 3238   6.351   4.081   3.486
  780SOL    HW1 3239   6.387   4.167   3.448
  780SOL    HW2 3240   6.392   4.065   3.576
  781SOL     OW 3241   5.458   0.697   0.224
  781SOL    HW1 3242   5.484   0.638   0.300
  781SOL    HW2 3243   5.540   0.728   0.176
  782SOL     OW 3244   1.700   4.116   6.705
  782SOL    HW1 3245   1.634   4.094   6.634
  782SOL    HW2 3246   1.722   4.214   6.702
  783SOL     OW 3247   3.970   5.583   0.855
  783SOL    HW1 3248   4.025   5.506   0.889
  783SOL    HW2 3249   4.021   5.629   0.782
  784SOL     OW 3250   5.549   6.399   0.742
  784SOL    HW1 3251   5.504   6.408   0.652
  784SOL    HW2 3252   5.640   6.439   0.737
  785SOL     OW 3253   0.440   2.380   2.587
  785SOL    HW1 3254   0.444   2.379   2.687
  785SOL    HW2 3255   0.455   2.473   2.554
  786SOL     OW 3256   1.231   0.706   1.413
  786SOL    HW1 3257   1.165   0.631   1.406
  786SOL    HW2 3258   1.275   0.703   1.503
  787SOL     OW 3259   3.429   0.286   6.714
  787SOL    HW1 3260   3.398   0.367   6.664
  787SOL    HW2 3261   3.428   0.207   6.653
  788SOL     OW 3262   4.010   2.909   5.639
  788SOL    HW1 3263   3.938   2.959   5.592
  788SOL    HW2 3264   4.018   2.817   5.601
  789SOL     OW 3265   5.085   4.322   0.616
  789SOL    HW1 3266   5.064   4.227   0.640
  789SOL    HW2 3267   5.078   4.379   0.697
  790SOL     OW 3268   1.483   1.421   4.234
  790SOL    HW1 3269   1.548   1.465   4.296
  790SOL    HW2 3270   1.517   1.330   4.210
  791SOL     OW 3271   3.475   5.474   3.702
  791SOL    HW1 3272   3.506   5.551   3.758
  791SOL    HW2 3273   3.386   5.443   3.735
  792SOL     OW 3274   0.452   6.791   1.093
  792SOL    HW1 3275   0.501   6.877   1.076
  792SOL    HW2 3276   0.389   6.773   1.017
  793SOL     OW 3277   4.501   4.819   3.587
  793SOL    HW1 3278   4.506   4.836   3.489
  793SOL    HW2 3279   4.580   4.765   3.616
  794SOL     OW 3280   3.376   3.724   5.522
  794SOL    HW1 3281   3.408   3.749   5.613
  794SOL    HW2 3282   3.427   3.645   5.489
  795SOL     OW 3283   3.648   6.858   4.393
  795SOL    HW1 3284   3.551   6.866   4.371
  795SOL    HW2 3285   3.699   6.927   4.342
  796SOL     OW 3286   0.648   1.714   6.454
  796SOL    HW1 3287   0.606   1.686   6.540
  796SOL    HW2 3288   0.655   1.634   6.393
  797SOL     OW 3289   5.262   3.089   1.017
  797SOL    HW1 3290   5.348   3.136   0.997
  797SOL    HW2 3291   5.234   3.109   1.110
  798SOL     OW 3292   4.482   0.297   2.102
  798SOL    HW1 3293   4.465   0.252   2.190
  798SOL    HW2 3294   4.566   0.351   2.108
  799SOL     OW 3295   6.285   0.334   5.996
  799SOL    HW1 3296   6.196   0.304   5.963
  799SOL    HW2 3297   6.332   0.257   6.041
  800SOL     OW 3298   5.239   2.334   2.472
  800SOL    HW1 3299   5.143   2.320   2.447
  800SOL    HW2 3300   5.250   2.322   2.571
  801SOL     OW 3301   1.449   3.738   4.075
  801SOL    HW1 3302   1.376   3.687   4.030
  801SOL    HW2 3303   1.512   3.773   4.005
  802SOL     OW 3304   4.360   1.558   0.713
  802SOL    HW1 3305   4.441   1.593   0.667
  802SOL    HW2 3306   4.356   1.459   0.704
  803SOL     OW 3307   0.260   6.718   5.099
  803SOL    HW1 3308   0.259   6.714   4.999
  803SOL    HW2 3309   0.245   6.813   5.128
  804SOL     OW 3310   5.446   5.498   6.275
  804SOL    HW1 3311   5.363   5.444   6.264
  804SOL    HW2 3312   5.525   5.437   6.275
  805SOL     OW 3313   3.894   0.264   5.577
  805SOL    HW1 3314   3.911   0.303   5.486
  805SOL    HW2 3315   3.980   0.231   5.615
  806SOL     OW 3316   5.169   1.201   4.352
  806SOL    HW1 3317   5.200   1.296   4.350
  806SOL    HW2 3318   5.158   1.171   4.446
  807SOL     OW 3319   1.241   1.739   3.948
  807SOL    HW1 3320   1.255   1.804   4.023
  807SOL    HW2 3321   1.162   1.682   3.967
  808SOL     OW 3322   4.311   3.540   6.428
  808SOL    HW1 3323   4.362   3.609   6.478
  808SOL    HW2 3324   4.303   3.457   6.485
  809SOL     OW 3325   6.861   5.125   1.774
  809SOL    HW1 3326   6.777   5.150   1.727
  809SOL    HW2 3327   6.940   5.158   1.721
  810SOL     OW 3328   3.132   2.445   1.191
  810SOL    HW1 3329   3.181   2.406   1.269
  810SOL    HW2 3330   3.143   2.385   1.111
  811SOL     OW 3331   4.085   5.965   4.914
  811SOL    HW1 3332   4.013   6.031   4.891
  811SOL    HW2 3333   4.043   5.876   4.933
  812SOL     OW 3334   0.107   1.258   2.109
  812SOL    HW1 3335   0.022   1.208   2.095
  812SOL    HW2 3336   0.089   1.356   2.112
  813SOL     OW 3337   3.403   6.351   5.550
  813SOL    HW1 3338   3.314   6.372   5.591
  813SOL    HW2 3339   3.469   6.332   5.623
  814SOL     OW 3340   6.666   6.362   2.653
  814SOL    HW1 3341   6.583   6.373   2.599
  814SOL    HW2 3342   6.674   6.440   2.716
  815SOL     OW 3343   0.404   3.826   3.088
  815SOL    HW1 3344   0.354   3.839   3.003
  815SOL    HW2 3345   0.488   3.775   3.070
  816SOL     OW 3346   6.201   6.505   0.544
  816SOL    HW1 3347   6.115   6.458   0.563
  816SOL    HW2 3348   6.246   6.529   0.630
  817SOL     OW 3349   1.996   3.790   1.010
  817SOL    HW1 3350   2.062   3.865   1.007
  817SOL    HW2 3351   2.025   3.723   1.079
  818SOL     OW 3352   6.319   2.836   2.155
  818SOL    HW1 3353   6.261   2.809   2.078
  818SOL    HW2 3354   6.314   2.766   2.227
  819SOL     OW 3355   5.923   2.880   2.650
  819SOL    HW1 3356   5.946   2.828   2.732
  819SOL    HW2 3357   5.860   2.827   2.594
  820SOL     OW 3358   2.933   2.813   5.531
  820SOL    HW1 3359   2.861   2.744   5.524
  820SOL    HW2 3360   2.961   2.841   5.439
  821SOL     OW 3361   1.197   4.148   0.886
  821SOL    HW1 3362   1.212   4.243   0.915
  821SOL    HW2 3363   1.285   4.106   0.863
  822SOL     OW 3364   1.592   4.437   4.454
  822SOL    HW1 3365   1.578   4.518   4.396
  822SOL    HW2 3366   1.508   4.383   4.457
  823SOL     OW 3367   5.552   4.077   6.768
  823SOL    HW1 3368   5.553   4.062   6.867
  823SOL    HW2 3369   5.643   4.107   6.739
  824SOL     OW 3370   5.387   1.192   5.710
  824SOL    HW1 3371   5.331   1.110   5.719
  824SOL    HW2 3372   5.471   1.170   5.661
  825SOL     OW 3373   0.613   3.991   1.052
  825SOL    HW1 3374   0.539   4.043   1.009
  825SOL    HW2 3375   0.671   4.054   1.104
  826SOL     OW 3376   5.175   2.862   5.624
  826SOL    HW1 3377   5.176   2.883   5.527
  826SOL    HW2 3378   5.251   2.910   5.669
  827SOL     OW 3379   3.118   4.691   5.669
  827SOL    HW1 3380   3.020   4.706   5.664
  827SOL    HW2 3381   3.164   4.779   5.682
  828SOL     OW 3382   5.087   6.714   6.491
  828SOL    HW1 3383   4.997   6.740   6.526
  828SOL    HW2 3384   5.101   6.755   6.401
  829SOL     OW 3385   2.945   3.764   2.939
  829SOL    HW1 3386   2.906   3.780   3.030
  829SOL    HW2 3387   2.877   3.720   2.881
  830SOL     OW 3388   4.931   5.203   6.372
  830SOL    HW1 3389   4.845   5.255   6.367
  830SOL    HW2 3390   4.957   5.174   6.280
  831SOL     OW 3391   5.768   1.032   6.479
  831SOL    HW1 3392   5.729   0.942   6.460
  831SOL    HW2 3393   5.863   1.035   6.448
  832SOL     OW 3394   2.994   0.701   2.010
  832SOL    HW1 3395   2.954   0.731   1.924
  832SOL    HW2 3396   2.993   0.601   2.014
  833SOL     OW 3397   0.341   3.923   5.157
  833SOL    HW1 3398   0.336   3.824   5.164
  833SOL    HW2 3399   0.432   3.950   5.127
  834SOL     OW 3400   3.591   3.645   0.403
  834SOL    HW1 3401   3.546   3.556   0.415
  834SOL    HW2 3402   3.571   3.681   0.312
  835SOL     OW 3403   3.409   0.649   5.220
  835SOL    HW1 3404   3.504   0.675   5.233
  835SOL    HW2 3405   3.360   0.725   5.177
  836SOL     OW 3406   4.165   6.260   0.070
  836SOL    HW1 3407   4.134   6.295   7.002
  836SOL    HW2 3408   4.251   6.303   0.095
  837SOL     OW 3409   5.607   6.886   0.456
  837SOL    HW1 3410   5.542   6.815   0.430
  837SOL    HW2 3411   5.646   6.927   0.374
  838SOL     OW 3412   2.459   0.804   4.315
  838SOL    HW1 3413   2.513   0.778   4.394
  838SOL    HW2 3414   2.488   0.895   4.283
  839SOL     OW 3415   2.267   2.803   2.198
  839SOL    HW1 3416   2.283   2.827   2.102
  839SOL    HW2 3417   2.284   2.706   2.212
  840SOL     OW 3418   5.803   6.430   6.735
  840SOL    HW1 3419   5.761   6.339   6.742
  840SOL    HW2 3420   5.808   6.457   6.639
  841SOL     OW 3421   4.102   5.026   6.618
  841SOL    HW1 3422   4.091   5.025   6.718
  841SOL    HW2 3423   4.164   5.099   6.592
  842SOL     OW 3424   4.144   0.055   4.955
  842SOL    HW1 3425   4.162   6.980   4.935
  842SOL    HW2 3426   4.196   0.083   5.036
  843SOL     OW 3427   1.630   1.362   1.047
  843SOL    HW1 3428   1.635   1.278   0.993
  843SOL    HW2 3429   1.722   1.389   1.076
  844SOL     OW 3430   5.949   0.602   1.164
  844SOL    HW1 3431   5.910   0.628   1.252
  844SOL    HW2 3432   6.049   0.598   1.171
  845SOL     OW 3433   5.715   4.209   5.157
  845SOL    HW1 3434   5.682   4.296   5.121
  845SOL    HW2 3435   5.726   4.144   5.082
  846SOL     OW 3436   2.139   1.907   0.046
  846SOL    HW1 3437   2.080   1.986   0.060
  846SOL    HW2 3438   2.181   1.913   6.976
  847SOL     OW 3439   1.776   3.309   0.974
  847SOL    HW1 3440   1.737   3.399   0.989
  847SOL    HW2 3441   1.794   3.265   1.063
  848SOL     OW 3442   5.739   0.828   6.222
  848SOL    HW1 3443   5.825   0.864   6.185
  848SOL    HW2 3444   5.663   0.884   6.190
  849SOL     OW 3445   0.551   4.094   6.034
  849SOL    HW1 3446   0.588   4.175   6.081
  849SOL    HW2 3447   0.609   4.015   6.054
  850SOL     OW 3448   5.130   0.826   3.647
  850SOL    HW1 3449   5.034   0.847   3.630
  850SOL    HW2 3450   5.147   0.730   3.628
  851SOL     OW 3451   0.413   1.815   2.261
  851SOL    HW1 3452   0.402   1.840   2.358
  851SOL    HW2 3453   0.509   1.819   2.236
  852SOL     OW 3454   1.509   2.668   0.303
  852SOL    HW1 3455   1.538   2.764   0.303
  852SOL    HW2 3456   1.477   2.643   0.395
  853SOL     OW 3457   1.876   4.336   2.752
  853SOL    HW1 3458   1.971   4.369   2.758
  853SOL    HW2 3459   1.814   4.414   2.750
  854SOL     OW 3460   4.652   5.552   1.542
  854SOL    HW1 3461   4.663   5.651   1.547
  854SOL    HW2 3462   4.668   5.521   1.448
  855SOL     OW 3463   0.072   0.173   2.058
  855SOL    HW1 3464   0.037   0.267   2.064
  855SOL    HW2 3465   0.106   0.156   1.966
  856SOL     OW 3466   1.478   1.849   5.394
  856SOL    HW1 3467   1.402   1.784   5.388
  856SOL    HW2 3468   1.497   1.887   5.303
  857SOL     OW 3469   6.094   4.801   1.861
  857SOL    HW1 3470   6.165   4.735   1.834
  857SOL    HW2 3471   6.137   4.887   1.889
  858SOL     OW 3472   3.205   3.793   1.034
  858SOL    HW1 3473   3.299   3.823   1.049
  858SOL    HW2 3474   3.167   3.757   1.120
  859SOL     OW 3475   4.809   5.590   5.611
  859SOL    HW1 3476   4.770   5.643   5.686
  859SOL    HW2 3477   4.752   5.509   5.593
  860SOL     OW 3478   4.706   3.531   0.756
  860SOL    HW1 3479   4.669   3.458   0.698
  860SOL    HW2 3480   4.659   3.531   0.844
  861SOL     OW 3481   2.237   0.171   3.558
  861SOL    HW1 3482   2.299   0.115   3.503
  861SOL    HW2 3483   2.278   0.187   3.648
  862SOL     OW 3484   0.343   3.671   5.187
  862SOL    HW1 3485   0.408   3.618   5.132
  862SOL    HW2 3486   0.287   3.609   5.241
  863SOL     OW 3487   6.686   0.430   0.869
  863SOL    HW1 3488   6.724   0.456   0.780
  863SOL    HW2 3489   6.707   0.334   0.887
  864SOL     OW 3490   4.025   4.904   3.383
  864SOL    HW1 3491   3.944   4.879   3.436
  864SOL    HW2 3492   4.085   4.961   3.438
  865SOL     OW 3493   0.777   5.958   6.029
  865SOL    HW1 3494   0.684   5.924   6.021
  865SOL    HW2 3495   0.805   6.000   5.942
  866SOL     OW 3496   1.685   1.875   2.057
  866SOL    HW1 3497   1.735   1.846   2.139
  866SOL    HW2 3498   1.590   1.895   2.082
  867SOL     OW 3499   3.616   3.877   0.516
  867SOL    HW1 3500   3.583   3.787   0.484
  867SOL    HW2 3501   3.628   3.938   0.438
  868SOL     OW 3502   5.623   0.249   1.204
  868SOL    HW1 3503   5.641   0.270   1.300
  868SOL    HW2 3504   5.702   0.201   1.165
  869SOL     OW 3505   6.304   5.102   3.176
  869SOL    HW1 3506   6.379   5.062   3.124
  869SOL    HW2 3507   6.337   5.134   3.264
  870SOL     OW 3508   4.082   2.909   0.868
  870SOL    HW1 3509   4.118   2.907   0.961
  870SOL    HW2 3510   3.997   2.962   0.867
  871SOL     OW 3511   4.941   3.125   3.257
  871SOL    HW1 3512   4.908   3.111   3.351
  871SOL    HW2 3513   4.980   3.039   3.223
  872SOL     OW 3514   5.505   4.404   3.602
  872SOL    HW1 3515   5.545   4.349   3.528
  872SOL    HW2 3516   5.577   4.452   3.651
  873SOL     OW 3517   5.809   6.497   4.465
  873SOL    HW1 3518   5.799   6.447   4.378
  873SOL    HW2 3519   5.894   6.469   4.509
  874SOL     OW 3520   0.640   4.360   5.844
  874SOL    HW1 3521   0.648   4.445   5.896
  874SOL    HW2 3522   0.703   4.292   5.880
  875SOL     OW 3523   3.739   2.761   0.591
  875SOL    HW1 3524   3.743   2.847   0.540
  875SOL    HW2 3525   3.649   2.718   0.578
  876SOL     OW 3526   0.768   5.563   3.322
  876SOL    HW1 3527   0.812   5.474   3.313
  876SOL    HW2 3528   0.838   5.635   3.316
  877SOL     OW 3529   4.107   3.780   0.026
  877SOL    HW1 3530   4.176   3.714   7.016
  877SOL    HW2 3531   4.030   3.779   6.983
  878SOL     OW 3532   3.674   5.539   5.226
  878SOL    HW1 3533   3.694   5.630   5.263
  878SOL    HW2 3534   3.754   5.480   5.240
  879SOL     OW 3535   2.683   2.145   2.093
  879SOL    HW1 3536   2.629   2.175   2.172
  879SOL    HW2 3537   2.739   2.220   2.060
  880SOL     OW 3538   3.455   3.795   5.764
  880SOL    HW1 3539   3.511   3.766   5.841
  880SOL    HW2 3540   3.449   3.895   5.762
  881SOL     OW 3541   4.595   4.037   5.280
  881SOL    HW1 3542   4.692   4.032   5.301
  881SOL    HW2 3543   4.558   4.123   5.315
  882SOL     OW 3544   1.345   1.765   4.434
  882SOL    HW1 3545   1.382   1.680   4.397
  882SOL    HW2 3546   1.358   1.766   4.533
  883SOL     OW 3547   4.436   5.972   5.948
  883SOL    HW1 3548   4.495   5.960   5.868
  883SOL    HW2 3549   4.345   5.937   5.928
  884SOL     OW 3550   0.154   3.958   0.075
  884SOL    HW1 3551   0.222   3.983   0.144
  884SOL    HW2 3552   0.192   3.888   0.015
  885SOL     OW 3553   4.845   5.659   6.034
  885SOL    HW1 3554   4.841   5.618   6.125
  885SOL    HW2 3555   4.940   5.684   6.013
  886SOL     OW 3556   3.797   0.657   1.138
  886SOL    HW1 3557   3.813   0.657   1.236
  886SOL    HW2 3558   3.850   0.583   1.095
  887SOL     OW 3559   3.867   6.853   4.080
  887SOL    HW1 3560   3.944   6.893   4.030
  887SOL    HW2 3561   3.814   6.926   4.123
  888SOL     OW 3562   5.982   6.221   2.671
  888SOL    HW1 3563   6.037   6.139   2.685
  888SOL    HW2 3564   5.959   6.261   2.759
  889SOL     OW 3565   1.952   6.282   5.485
  889SOL    HW1 3566   1.897   6.198   5.488
  889SOL    HW2 3567   1.986   6.303   5.577
  890SOL     OW 3568   2.168   4.899   2.134
  890SOL    HW1 3569   2.223   4.939   2.207
  890SOL    HW2 3570   2.092   4.959   2.112
  891SOL     OW 3571   6.048   4.284   0.980
  891SOL    HW1 3572   5.977   4.233   0.932
  891SOL    HW2 3573   6.138   4.257   0.944
  892SOL     OW 3574   3.979   4.231   5.779
  892SOL    HW1 3575   3.881   4.248   5.772
  892SOL    HW2 3576   4.013   4.191   5.694
  893SOL     OW 3577   1.971   1.290   2.068
  893SOL    HW1 3578   2.029   1.322   1.993
  893SOL    HW2 3579   2.028   1.261   2.145
  894SOL     OW 3580   1.622   2.370   3.765
  894SOL    HW1 3581   1.585   2.462   3.780
  894SOL    HW2 3582   1.645   2.328   3.852
  895SOL     OW 3583   1.449   5.933   4.686
  895SOL    HW1 3584   1.369   5.982   4.720
  895SOL    HW2 3585   1.532   5.974   4.724
  896SOL     OW 3586   5.764   6.829   2.227
  896SOL    HW1 3587   5.729   6.909   2.179
  896SOL    HW2 3588   5.709   6.749   2.203
  897SOL     OW 3589   4.892   0.793   0.512
  897SOL    HW1 3590   4.955   0.858   0.469
  897SOL    HW2 3591   4.892   0.806   0.611
  898SOL     OW 3592   4.207   6.132   2.707
  898SOL    HW1 3593   4.184   6.168   2.797
  898SOL    HW2 3594   4.128   6.142   2.646
  899SOL     OW 3595   0.218   5.175   0.304
  899SOL    HW1 3596   0.236   5.233   0.383
  899SOL    HW2 3597   0.153   5.104   0.329
  900SOL     OW 3598   4.712   5.887   1.320
  900SOL    HW1 3599   4.728   5.878   1.418
  900SOL    HW2 3600   4.653   5.966   1.303
  901SOL     OW 3601   1.046   0.995   5.397
  901SOL    HW1 3602   1.115   1.017   5.466
  901SOL    HW2 3603   0.963   1.049   5.415
  902SOL     OW 3604   0.084   2.201   0.036
  902SOL    HW1 3605   7.015   2.161   0.052
  902SOL    HW2 3606   0.140   2.136   7.005
  903SOL     OW 3607   6.933   3.703   6.409
  903SOL    HW1 3608   6.928   3.790   6.459
  903SOL    HW2 3609   6.986   3.637   6.463
  904SOL     OW 3610   1.774   2.909   3.762
  904SOL    HW1 3611   1.694   2.941   3.711
  904SOL    HW2 3612   1.761   2.813   3.787
  905SOL     OW 3613   4.673   3.654   6.306
  905SOL    HW1 3614   4.705   3.560   6.295
  905SOL    HW2 3615   4.644   3.690   6.217
  906SOL     OW 3616   0.768   3.521   5.850
  906SOL    HW1 3617   0.727   3.435   5.880
  906SOL    HW2 3618   0.715   3.598   5.885
  907SOL     OW 3619   5.963   3.175   2.958
  907SOL    HW1 3620   5.954   3.091   3.011
  907SOL    HW2 3621   5.984   3.152   2.863
  908SOL     OW 3622   1.830   6.008   3.383
  908SOL    HW1 3623   1.897   5.946   3.424
  908SOL    HW2 3624   1.798   5.969   3.296
  909SOL     OW 3625   2.716   6.511   2.032
  909SOL    HW1 3626   2.708   6.589   1.970
  909SOL    HW2 3627   2.791   6.452   2.002
  910SOL     OW 3628   2.538   0.527   1.247
  910SOL    HW1 3629   2.446   0.507   1.212
  910SOL    HW2 3630   2.590   0.577   1.178
  911SOL     OW 3631   0.273   5.264   1.272
  911SOL    HW1 3632   0.369   5.292   1.277
  911SOL    HW2 3633   0.257   5.219   1.184
  912SOL     OW 3634   6.200   0.730   4.398
  912SOL    HW1 3635   6.139   0.741   4.476
  912SOL    HW2 3636   6.226   0.634   4.389
  913SOL     OW 3637   1.652   0.813   3.250
  913SOL    HW1 3638   1.739   0.805   3.202
  913SOL    HW2 3639   1.578   0.782   3.191
  914SOL     OW 3640   2.838   5.921   4.887
  914SOL    HW1 3641   2.821   6.018   4.871
  914SOL    HW2 3642   2.896   5.885   4.814
  915SOL     OW 3643   1.153   3.354   6.928
  915SOL    HW1 3644   1.151   3.343   6.828
  915SOL    HW2 3645   1.210   3.432   6.952
  916SOL     OW 3646   1.657   2.650   1.651
  916SOL    HW1 3647   1.727   2.624   1.584
  916SOL    HW2 3648   1.578   2.687   1.603
  917SOL     OW 3649   5.314   0.545   2.238
  917SOL    HW1 3650   5.247   0.502   2.298
  917SOL    HW2 3651   5.401   0.556   2.287
  918SOL     OW 3652   2.497   6.505   6.774
  918SOL    HW1 3653   2.456   6.557   6.699
  918SOL    HW2 3654   2.587   6.472   6.746
  919SOL     OW 3655   6.681   5.824   2.437
  919SOL    HW1 3656   6.692   5.868   2.526
  919SOL    HW2 3657   6.757   5.761   2.422
  920SOL     OW 3658   2.138   5.974   3.371
  920SOL    HW1 3659   2.099   5.981   3.279
  920SOL    HW2 3660   2.116   6.056   3.424
  921SOL     OW 3661   4.786   4.227   4.137
  921SOL    HW1 3662   4.787   4.218   4.038
  921SOL    HW2 3663   4.791   4.136   4.179
  922SOL     OW 3664   3.321   2.674   5.889
  922SOL    HW1 3665   3.319   2.577   5.864
  922SOL    HW2 3666   3.336   2.730   5.808
  923SOL     OW 3667   2.956   4.502   6.218
  923SOL    HW1 3668   2.997   4.454   6.296
  923SOL    HW2 3669   2.862   4.468   6.204
  924SOL     OW 3670   6.794   2.815   2.521
  924SOL    HW1 3671   6.811   2.890   2.585
  924SOL    HW2 3672   6.750   2.740   2.570
  925SOL     OW 3673   6.931   1.812   5.838
  925SOL    HW1 3674   6.855   1.756   5.807
  925SOL    HW2 3675   7.017   1.763   5.825
  926SOL     OW 3676   6.642   1.317   0.597
  926SOL    HW1 3677   6.645   1.314   0.497
  926SOL    HW2 3678   6.548   1.303   0.628
  927SOL     OW 3679   5.541   4.230   3.396
  927SOL    HW1 3680   5.541   4.274   3.306
  927SOL    HW2 3681   5.635   4.220   3.428
  928SOL     OW 3682   1.445   6.579   0.253
  928SOL    HW1 3683   1.474   6.675   0.257
  928SOL    HW2 3684   1.345   6.575   0.244
  929SOL     OW 3685   0.717   0.980   1.136
  929SOL    HW1 3686   0.641   1.032   1.174
  929SOL    HW2 3687   0.804   1.020   1.167
  930SOL     OW 3688   5.435   5.908   4.714
  930SOL    HW1 3689   5.489   5.855   4.648
  930SOL    HW2 3690   5.496   5.942   4.786
  931SOL     OW 3691   5.624   3.496   2.610
  931SOL    HW1 3692   5.701   3.560   2.604
  931SOL    HW2 3693   5.618   3.458   2.702
  932SOL     OW 3694   2.758   6.358   2.687
  932SOL    HW1 3695   2.847   6.401   2.706
  932SOL    HW2 3696   2.771   6.280   2.627
  933SOL     OW 3697   0.908   5.798   3.274
  933SOL    HW1 3698   1.008   5.792   3.277
  933SOL    HW2 3699   0.879   5.831   3.184
  934SOL     OW 3700   1.685   0.847   4.473
  934SOL    HW1 3701   1.619   0.898   4.529
  934SOL    HW2 3702   1.637   0.782   4.415
  935SOL     OW 3703   5.322   3.784   5.445
  935SOL    HW1 3704   5.378   3.730   5.509
  935SOL    HW2 3705   5.233   3.804   5.487
  936SOL     OW 3706   1.589   1.331   6.224
  936SOL    HW1 3707   1.515   1.284   6.272
  936SOL    HW2 3708   1.651   1.264   6.184
  937SOL     OW 3709   4.784   1.610   4.561
  937SOL    HW1 3710   4.879   1.614   4.590
  937SOL    HW2 3711   4.728   1.572   4.634
  938SOL     OW 3712   0.425   5.399   6.225
  938SOL    HW1 3713   0.369   5.349   6.158
  938SOL    HW2 3714   0.514   5.418   6.186
  939SOL     OW 3715   4.640   0.591   5.528
  939SOL    HW1 3716   4.624   0.570   5.431
  939SOL    HW2 3717   4.554   0.618   5.570
  940SOL     OW 3718   0.589   3.162   2.523
  940SOL    HW1 3719   0.683   3.160   2.488
  940SOL    HW2 3720   0.553   3.255   2.517
  941SOL     OW 3721   6.494   0.534   4.662
  941SOL    HW1 3722   6.465   0.594   4.587
  941SOL    HW2 3723   6.558   0.583   4.720
  942SOL     OW 3724   5.019   0.175   3.784
  942SOL    HW1 3725   4.986   0.221   3.867
  942SOL    HW2 3726   4.969   0.089   3.772
  943SOL     OW 3727   1.275   3.632   3.859
  943SOL    HW1 3728   1.296   3.543   3.818
  943SOL    HW2 3729   1.241   3.694   3.788
  944SOL     OW 3730   6.743   3.916   5.651
  944SOL    HW1 3731   6.818   3.966   5.608
  944SOL    HW2 3732   6.656   3.946   5.611
  945SOL     OW 3733   6.669   4.688   5.696
  945SOL    HW1 3734   6.619   4.721   5.616
  945SOL    HW2 3735   6.757   4.651   5.667
  946SOL     OW 3736   4.422   3.474   5.925
  946SOL    HW1 3737   4.377   3.523   5.851
  946SOL    HW2 3738   4.376   3.495   6.012
  947SOL     OW 3739   3.282   2.955   4.193
  947SOL    HW1 3740   3.317   3.010   4.268
  947SOL    HW2 3741   3.274   3.011   4.110
  948SOL     OW 3742   3.955   0.472   1.010
  948SOL    HW1 3743   4.054   0.482   1.000
  948SOL    HW2 3744   3.916   0.442   0.923
  949SOL     OW 3745   1.004   6.694   6.396
  949SOL    HW1 3746   1.035   6.650   6.311
  949SOL    HW2 3747   1.013   6.793   6.386
  950SOL     OW 3748   4.204   5.047   1.903
  950SOL    HW1 3749   4.266   5.117   1.868
  950SOL    HW2 3750   4.248   4.999   1.979
  951SOL     OW 3751   1.783   0.725   2.869
  951SOL    HW1 3752   1.794   0.649   2.806
  951SOL    HW2 3753   1.698   0.715   2.921
  952SOL     OW 3754   5.553   1.926   2.626
  952SOL    HW1 3755   5.526   1.928   2.530
  952SOL    HW2 3756   5.471   1.929   2.684
  953SOL     OW 3757   5.168   5.797   4.699
  953SOL    HW1 3758   5.254   5.846   4.692
  953SOL    HW2 3759   5.185   5.698   4.699
  954SOL     OW 3760   5.202   5.605   0.524
  954SOL    HW1 3761   5.147   5.584   0.443
  954SOL    HW2 3762   5.298   5.585   0.505
  955SOL     OW 3763   0.050   5.088   3.335
  955SOL    HW1 3764   0.118   5.161   3.343
  955SOL    HW2 3765   0.092   5.000   3.356
  956SOL     OW 3766   0.075   2.190   2.710
  956SOL    HW1 3767   0.133   2.202   2.630
  956SOL    HW2 3768   0.015   2.111   2.696
  957SOL     OW 3769   1.099   5.356   4.619
  957SOL    HW1 3770   1.041   5.428   4.583
  957SOL    HW2 3771   1.073   5.268   4.579
  958SOL     OW 3772   4.650   2.362   2.375
  958SOL    HW1 3773   4.747   2.372   2.350
  958SOL    HW2 3774   4.598   2.336   2.294
  959SOL     OW 3775   3.180   5.656   3.539
  959SOL    HW1 3776   3.132   5.598   3.473
  959SOL    HW2 3777   3.278   5.656   3.519
  960SOL     OW 3778   0.181   5.788   3.270
  960SOL    HW1 3779   0.276   5.772   3.242
  960SOL    HW2 3780   0.122   5.789   3.189
  961SOL     OW 3781   4.770   0.020   3.520
  961SOL    HW1 3782   4.833   7.011   3.449
  961SOL    HW2 3783   4.683   6.991   3.511
  962SOL     OW 3784   1.163   0.776   4.062
  962SOL    HW1 3785   1.099   0.828   4.005
  962SOL    HW2 3786   1.257   0.800   4.037
  963SOL     OW 3787   6.857   2.356   6.026
  963SOL    HW1 3788   6.948   2.344   6.067
  963SOL    HW2 3789   6.848   2.448   5.990
  964SOL     OW 3790   6.166   4.300   0.261
  964SOL    HW1 3791   6.232   4.228   0.285
  964SOL    HW2 3792   6.203   4.389   0.286
  965SOL     OW 3793   5.876   1.810   0.772
  965SOL    HW1 3794   5.797   1.871   0.775
  965SOL    HW2 3795   5.895   1.785   0.678
  966SOL     OW 3796   5.405   2.676   2.083
  966SOL    HW1 3797   5.460   2.727   2.016
  966SOL    HW2 3798   5.418   2.578   2.070
  967SOL     OW 3799   2.664   4.714   1.629
  967SOL    HW1 3800   2.601   4.637   1.638
  967SOL    HW2 3801   2.685   4.750   1.720
  968SOL     OW 3802   3.783   1.754   2.434
  968SOL    HW1 3803   3.701   1.765   2.490
  968SOL    HW2 3804   3.815   1.844   2.403
  969SOL     OW 3805   3.658   5.840   6.852
  969SOL    HW1 3806   3.701   5.929   6.843
  969SOL    HW2 3807   3.559   5.851   6.867
  970SOL     OW 3808   4.600   1.322   5.346
  970SOL    HW1 3809   4.627   1.232   5.311
  970SOL    HW2 3810   4.545   1.369   5.278
  971SOL     OW 3811   6.781   2.178   2.543
  971SOL    HW1 3812   6.814   2.228   2.463
  971SOL    HW2 3813   6.847   2.106   2.567
  972SOL     OW 3814   5.587   4.098   1.593
  972SOL    HW1 3815   5.619   4.016   1.544
  972SOL    HW2 3816   5.642   4.177   1.565
  973SOL     OW 3817   6.810   4.542   6.927
  973SOL    HW1 3818   6.781   4.518   6.835
  973SOL    HW2 3819   6.892   4.599   6.923
  974SOL     OW 3820   5.456   0.250   2.284
  974SOL    HW1 3821   5.360   0.253   2.256
  974SOL    HW2 3822   5.494   0.342   2.284
  975SOL     OW 3823   1.766   5.964   6.773
  975SOL    HW1 3824   1.786   6.054   6.734
  975SOL    HW2 3825   1.767   5.895   6.700
  976SOL     OW 3826   6.319   3.407   3.094
  976SOL    HW1 3827   6.374   3.343   3.041
  976SOL    HW2 3828   6.364   3.496   3.096
  977SOL     OW 3829   1.365   0.591   3.342
  977SOL    HW1 3830   1.392   0.501   3.375
  977SOL    HW2 3831   1.357   0.654   3.419
  978SOL     OW 3832   4.723   3.704   5.596
  978SOL    HW1 3833   4.628   3.733   5.596
  978SOL    HW2 3834   4.739   3.641   5.520
  979SOL     OW 3835   0.313   1.990   1.034
  979SOL    HW1 3836   0.252   1.927   1.081
  979SOL    HW2 3837   0.360   1.943   0.959
  980SOL     OW 3838   4.267   2.317   4.094
  980SOL    HW1 3839   4.274   2.228   4.050
  980SOL    HW2 3840   4.188   2.318   4.156
  981SOL     OW 3841   1.196   1.995   5.530
  981SOL    HW1 3842   1.231   1.969   5.620
  981SOL    HW2 3843   1.114   1.941   5.509
  982SOL     OW 3844   2.555   2.030   3.406
  982SOL    HW1 3845   2.508   1.952   3.364
  982SOL    HW2 3846   2.493   2.074   3.471
  983SOL     OW 3847   5.809   2.113   4.789
  983SOL    HW1 3848   5.906   2.090   4.780
  983SOL    HW2 3849   5.755   2.053   4.730
  984SOL     OW 3850   3.016   1.758   4.096
  984SOL    HW1 3851   3.097   1.734   4.149
  984SOL    HW2 3852   2.987   1.851   4.118
  985SOL     OW 3853   5.321   4.940   6.521
  985SOL    HW1 3854   5.376   4.959   6.439
  985SOL    HW2 3855   5.226   4.924   6.494
  986SOL     OW 3856   5.552   3.977   0.882
  986SOL    HW1 3857   5.520   3.922   0.805
  986SOL    HW2 3858   5.620   3.925   0.934
  987SOL     OW 3859   4.443   0.145   1.883
  987SOL    HW1 3860   4.354   0.160   1.839
  987SOL    HW2 3861   4.447   0.198   1.967
  988SOL     OW 3862   3.345   3.178   3.034
  988SOL    HW1 3863   3.425   3.216   2.987
  988SOL    HW2 3864   3.316   3.094   2.988
  989SOL     OW 3865   6.614   0.958   5.135
  989SOL    HW1 3866   6.673   0.924   5.209
  989SOL    HW2 3867   6.521   0.925   5.149
  990SOL     OW 3868   4.361   0.752   1.985
  990SOL    HW1 3869   4.375   0.660   1.948
  990SOL    HW2 3870   4.434   0.812   1.954
  991SOL     OW 3871   1.590   2.860   5.042
  991SOL    HW1 3872   1.615   2.817   4.955
  991SOL    HW2 3873   1.492   2.852   5.057
  992SOL     OW 3874   0.055   2.738   2.415
  992SOL    HW1 3875   0.086   2.813   2.357
  992SOL    HW2 3876   6.978   2.749   2.435
  993SOL     OW 3877   1.606   4.564   2.230
  993SOL    HW1 3878   1.623   4.504   2.151
  993SOL    HW2 3879   1.611   4.659   2.202
  994SOL     OW 3880   3.109   4.075   2.249
  994SOL    HW1 3881   3.030   4.135   2.242
  994SOL    HW2 3882   3.132   4.060   2.345
  995SOL     OW 3883   3.782   3.290   5.467
  995SOL    HW1 3884   3.861   3.338   5.506
  995SOL    HW2 3885   3.774   3.199   5.508
  996SOL     OW 3886   1.785   4.437   4.213
  996SOL    HW1 3887   1.863   4.495   4.237
  996SOL    HW2 3888   1.741   4.405   4.297
  997SOL     OW 3889   0.769   0.775   3.291
  997SOL    HW1 3890   0.774   0.875   3.294
  997SOL    HW2 3891   0.803   0.744   3.202
  998SOL     OW 3892   3.863   6.764   4.676
  998SOL    HW1 3893   3.918   6.699   4.729
  998SOL    HW2 3894   3.786   6.717   4.635
  999SOL     OW 3895   5.321   4.353   2.094
  999SOL    HW1 3896   5.386   4.312   2.158
  999SOL    HW2 3897   5.371   4.406   2.025
 1000SOL     OW 3898   1.158   0.780   1.759
 1000SOL    HW1 3899   1.156   0.831   1.845
 1000SOL    HW2 3900   1.245   0.732   1.751
 1001SOL     OW 3901   5.966   6.755   0.777
 1001SOL    HW1 3902   6.060   6.779   0.754
 1001SOL    HW2 3903   5.930   6.820   0.843
 1002SOL     OW 3904   6.174   1.785   0.199
 1002SOL    HW1 3905   6.090   1.837   0.181
 1002SOL    HW2 3906   6.241   1.806   0.128
 1003SOL     OW 3907   2.308   5.839   1.533
 1003SOL    HW1 3908   2.363   5.874   1.456
 1003SOL    HW2 3909   2.342   5.748   1.559
 1004SOL     OW 3910   0.114   0.153   1.782
 1004SOL    HW1 3911   0.104   0.061   1.745
 1004SOL    HW2 3912   0.065   0.218   1.723
 1005SOL     OW 3913   0.672   2.368   3.314
 1005SOL    HW1 3914   0.715   2.281   3.287
 1005SOL    HW2 3915   0.703   2.441   3.253
 1006SOL     OW 3916   1.278   4.804   0.941
 1006SOL    HW1 3917   1.288   4.895   0.980
 1006SOL    HW2 3918   1.346   4.791   0.869
 1007SOL     OW 3919   5.213   0.016   4.389
 1007SOL    HW1 3920   5.116   0.039   4.388
 1007SOL    HW2 3921   5.267   0.100   4.398
 1008SOL     OW 3922   2.035   3.350   5.093
 1008SOL    HW1 3923   2.037   3.441   5.050
 1008SOL    HW2 3924   2.073   3.357   5.186
 1009SOL     OW 3925   0.448   5.664   4.971
 1009SOL    HW1 3926   0.423   5.595   4.902
 1009SOL    HW2 3927   0.548   5.669   4.978
 1010SOL     OW 3928   3.738   2.653   5.809
 1010SOL    HW1 3929   3.827   2.607   5.803
 1010SOL    HW2 3930   3.683   2.630   5.729
 1011SOL     OW 3931   2.373   5.257   2.266
 1011SOL    HW1 3932   2.317   5.338   2.246
 1011SOL    HW2 3933   2.456   5.285   2.315
 1012SOL     OW 3934   6.236   0.551   1.148
 1012SOL    HW1 3935   6.297   0.623   1.114
 1012SOL    HW2 3936   6.269   0.462   1.117
 1013SOL     OW 3937   0.862   0.856   6.014
 1013SOL    HW1 3938   0.957   0.857   5.985
 1013SOL    HW2 3939   0.830   0.949   6.029
 1014SOL     OW 3940   4.869   5.901   6.724
 1014SOL    HW1 3941   4.951   5.907   6.781
 1014SOL    HW2 3942   4.793   5.950   6.768
 1015SOL     OW 3943   2.168   6.693   5.408
 1015SOL    HW1 3944   2.121   6.621   5.357
 1015SOL    HW2 3945   2.245   6.653   5.458
 1016SOL     OW 3946   3.772   3.252   0.129
 1016SOL    HW1 3947   3.760   3.332   0.071
 1016SOL    HW2 3948   3.709   3.180   0.100
 1017SOL     OW 3949   3.988   2.542   1.413
 1017SOL    HW1 3950   4.077   2.498   1.424
 1017SOL    HW2 3951   3.916   2.473   1.411
 1018SOL     OW 3952   0.616   3.365   4.312
 1018SOL    HW1 3953   0.547   3.341   4.380
 1018SOL    HW2 3954   0.700   3.314   4.330
 1019SOL     OW 3955   6.968   0.668   0.802
 1019SOL    HW1 3956   0.003   0.598   0.846
 1019SOL    HW2 3957   6.904   0.625   0.738
 1020SOL     OW 3958   0.944   6.826   1.269
 1020SOL    HW1 3959   1.002   6.744   1.267
 1020SOL    HW2 3960   0.849   6.799   1.280
 1021SOL     OW 3961   5.507   0.636   1.395
 1021SOL    HW1 3962   5.582   0.588   1.439
 1021SOL    HW2 3963   5.520   0.636   1.296
 1022SOL     OW 3964   3.228   4.862   6.250
 1022SOL    HW1 3965   3.229   4.851   6.349
 1022SOL    HW2 3966   3.198   4.776   6.207
 1023SOL     OW 3967   1.077   6.952   2.373
 1023SOL    HW1 3968   1.083   0.012   2.432
 1023SOL    HW2 3969   1.053   6.979   2.280
 1024SOL     OW 3970   6.966   3.090   4.133
 1024SOL    HW1 3971   6.951   3.128   4.042
 1024SOL    HW2 3972   6.918   3.146   4.201
 1025SOL     OW 3973   2.858   2.995   1.070
 1025SOL    HW1 3974   2.764   3.002   1.103
 1025SOL    HW2 3975   2.858   2.948   0.981
 1026SOL     OW 3976   2.117   2.812   1.247
 1026SOL    HW1 3977   2.108   2.719   1.212
 1026SOL    HW2 3978   2.150   2.871   1.174
 1027SOL     OW 3979   2.973   6.707   0.896
 1027SOL    HW1 3980   3.029   6.780   0.856
 1027SOL    HW2 3981   2.986   6.622   0.845
 1028SOL     OW 3982   3.078   6.504   0.127
 1028SOL    HW1 3983   2.992   6.482   0.173
 1028SOL    HW2 3984   3.062   6.521   0.030
 1029SOL     OW 3985   1.902   0.369   0.103
 1029SOL    HW1 3986   1.955   0.451   0.122
 1029SOL    HW2 3987   1.831   0.358   0.172
 1030SOL     OW 3988   3.382   3.896   1.746
 1030SOL    HW1 3989   3.427   3.844   1.674
 1030SOL    HW2 3990   3.408   3.859   1.835
 1031SOL     OW 3991   4.710   5.151   0.809
 1031SOL    HW1 3992   4.679   5.246   0.819
 1031SOL    HW2 3993   4.714   5.127   0.712
 1032SOL     OW 3994   2.085   1.627   4.914
 1032SOL    HW1 3995   2.177   1.665   4.921
 1032SOL    HW2 3996   2.018   1.692   4.950
 1033SOL     OW 3997   1.453   6.128   0.769
 1033SOL    HW1 3998   1.376   6.140   0.707
 1033SOL    HW2 3999   1.538   6.123   0.717
 1034SOL     OW 4000   0.484   5.659   5.392
 1034SOL    HW1 4001   0.448   5.574   5.432
 1034SOL    HW2 4002   0.407   5.721   5.373
 1035SOL     OW 4003   1.198   1.440   4.263
 1035SOL    HW1 4004   1.149   1.379   4.202
 1035SOL    HW2 4005   1.296   1.432   4.246
 1036SOL     OW 4006   2.719   1.232   2.309
 1036SOL    HW1 4007   2.757   1.216   2.218
 1036SOL    HW2 4008   2.787   1.277   2.366
 1037SOL     OW 4009   1.400   0.661   1.663
 1037SOL    HW1 4010   1.434   0.598   1.733
 1037SOL    HW2 4011   1.468   0.670   1.590
 1038SOL     OW 4012   1.596   0.327   5.752
 1038SOL    HW1 4013   1.513   0.374   5.721
 1038SOL    HW2 4014   1.573   0.266   5.828
 1039SOL     OW 4015   3.521   3.065   5.762
 1039SOL    HW1 4016   3.558   3.000   5.828
 1039SOL    HW2 4017   3.448   3.118   5.804
 1040SOL     OW 4018   4.712   2.784   2.551
 1040SOL    HW1 4019   4.761   2.865   2.581
 1040SOL    HW2 4020   4.710   2.782   2.451
 1041SOL     OW 4021   5.967   0.053   4.550
 1041SOL    HW1 4022   5.869   0.037   4.539
 1041SOL    HW2 4023   6.018   6.992   4.522
 1042SOL     OW 4024   3.627   5.254   2.690
 1042SOL    HW1 4025   3.570   5.240   2.608
 1042SOL    HW2 4026   3.627   5.351   2.714
 1043SOL     OW 4027   3.957   1.194   4.364
 1043SOL    HW1 4028   4.030   1.151   4.417
 1043SOL    HW2 4029   3.964   1.294   4.371
 1044SOL     OW 4030   4.903   4.517   2.266
 1044SOL    HW1 4031   4.950   4.547   2.184
 1044SOL    HW2 4032   4.825   4.460   2.241
 1045SOL     OW 4033   3.917   6.158   2.070
 1045SOL    HW1 4034   3.944   6.129   2.162
 1045SOL    HW2 4035   3.819   6.179   2.070
 1046SOL     OW 4036   1.105   0.281   0.410
 1046SOL    HW1 4037   1.055   0.365   0.391
 1046SOL    HW2 4038   1.090   0.254   0.505
 1047SOL     OW 4039   1.485   0.091   3.188
 1047SOL    HW1 4040   1.503   0.171   3.245
 1047SOL    HW2 4041   1.564   0.030   3.190
 1048SOL     OW 4042   5.627   6.562   4.963
 1048SOL    HW1 4043   5.545   6.610   4.932
 1048SOL    HW2 4044   5.692   6.556   4.887
 1049SOL     OW 4045   5.984   5.494   3.998
 1049SOL    HW1 4046   5.908   5.453   4.049
 1049SOL    HW2 4047   6.035   5.421   3.950
 1050SOL     OW 4048   4.338   5.457   0.861
 1050SOL    HW1 4049   4.399   5.387   0.899
 1050SOL    HW2 4050   4.356   5.468   0.763
 1051SOL     OW 4051   2.452   5.817   0.546
 1051SOL    HW1 4052   2.379   5.749   0.558
 1051SOL    HW2 4053   2.449   5.852   0.452
 1052SOL     OW 4054   3.604   0.855   4.700
 1052SOL    HW1 4055   3.547   0.808   4.767
 1052SOL    HW2 4056   3.665   0.788   4.656
 1053SOL     OW 4057   5.276   5.238   3.309
 1053SOL    HW1 4058   5.211   5.293   3.362
 1053SOL    HW2 4059   5.266   5.260   3.212
 1054SOL     OW 4060   2.243   3.629   5.602
 1054SOL    HW1 4061   2.278   3.716   5.638
 1054SOL    HW2 4062   2.288   3.609   5.515
 1055SOL     OW 4063   5.186   6.500   3.592
 1055SOL    HW1 4064   5.185   6.599   3.603
 1055SOL    HW2 4065   5.271   6.463   3.629
 1056SOL     OW 4066   1.914   4.704   6.010
 1056SOL    HW1 4067   1.918   4.604   6.003
 1056SOL    HW2 4068   1.949   4.745   5.926
 1057SOL     OW 4069   3.396   3.168   2.609
 1057SOL    HW1 4070   3.377   3.184   2.513
 1057SOL    HW2 4071   3.366   3.076   2.634
 1058SOL     OW 4072   5.149   1.651   2.957
 1058SOL    HW1 4073   5.159   1.647   3.056
 1058SOL    HW2 4074   5.237   1.675   2.916
 1059SOL     OW 4075   2.577   0.490   1.514
 1059SOL    HW1 4076   2.561   0.391   1.510
 1059SOL    HW2 4077   2.584   0.525   1.421
 1060SOL     OW 4078   6.942   4.407   4.518
 1060SOL    HW1 4079   7.014   4.410   4.588
 1060SOL    HW2 4080   6.966   4.339   4.449
 1061SOL     OW 4081   5.503   3.693   1.420
 1061SOL    HW1 4082   5.551   3.772   1.384
 1061SOL    HW2 4083   5.565   3.615   1.424
 1062SOL     OW 4084   5.540   4.052   5.724
 1062SOL    HW1 4085   5.598   4.003   5.789
 1062SOL    HW2 4086   5.539   4.002   5.637
 1063SOL     OW 4087   1.808   4.690   1.408
 1063SOL    HW1 4088   1.886   4.634   1.380
 1063SOL    HW2 4089   1.841   4.770   1.458
 1064SOL     OW 4090   1.963   4.662   2.040
 1064SOL    HW1 4091   1.934   4.745   2.087
 1064SOL    HW2 4092   1.896   4.589   2.057
 1065SOL     OW 4093   4.410   0.013   4.201
 1065SOL    HW1 4094   4.421   6.941   4.164
 1065SOL    HW2 4095   4.315   0.027   4.229
 1066SOL     OW 4096   4.934   0.344   4.007
 1066SOL    HW1 4097   4.855   0.394   3.973
 1066SOL    HW2 4098   4.950   0.367   4.103
 1067SOL     OW 4099   1.000   3.514   0.467
 1067SOL    HW1 4100   1.017   3.583   0.537
 1067SOL    HW2 4101   1.068   3.441   0.473
 1068SOL     OW 4102   4.742   4.943   2.565
 1068SOL    HW1 4103   4.645   4.943   2.542
 1068SOL    HW2 4104   4.787   4.865   2.521
 1069SOL     OW 4105   4.776   4.768   0.396
 1069SOL    HW1 4106   4.751   4.787   0.491
 1069SOL    HW2 4107   4.727   4.832   0.336
 1070SOL     OW 4108   0.821   0.367   2.151
 1070SOL    HW1 4109   0.767   0.390   2.233
 1070SOL    HW2 4110   0.761   0.368   2.071
 1071SOL     OW 4111   2.247   0.642   3.528
 1071SOL    HW1 4112   2.262   0.584   3.449
 1071SOL    HW2 4113   2.232   0.585   3.609
 1072SOL     OW 4114   1.995   6.796   1.379
 1072SOL    HW1 4115   1.931   6.834   1.312
 1072SOL    HW2 4116   1.962   6.816   1.471
 1073SOL     OW 4117   4.422   6.836   2.076
 1073SOL    HW1 4118   4.334   6.801   2.045
 1073SOL    HW2 4119   4.481   6.855   1.998
 1074SOL     OW 4120   2.762   5.539   0.387
 1074SOL    HW1 4121   2.757   5.618   0.447
 1074SOL    HW2 4122   2.830   5.474   0.422
 1075SOL     OW 4123   3.912   6.614   3.717
 1075SOL    HW1 4124   3.910   6.714   3.715
 1075SOL    HW2 4125   3.902   6.579   3.624
 1076SOL     OW 4126   6.512   4.080   5.527
 1076SOL    HW1 4127   6.543   4.116   5.439
 1076SOL    HW2 4128   6.413   4.082   5.531
 1077SOL     OW 4129   5.943   0.390   0.948
 1077SOL    HW1 4130   5.982   0.423   1.033
 1077SOL    HW2 4131   5.878   0.457   0.912
 1078SOL     OW 4132   0.908   1.494   2.618
 1078SOL    HW1 4133   0.878   1.402   2.594
 1078SOL    HW2 4134   0.829   1.548   2.651
 1079SOL     OW 4135   1.983   6.052   1.856
 1079SOL    HW1 4136   1.986   6.129   1.920
 1079SOL    HW2 4137   2.063   6.055   1.797
 1080SOL     OW 4138   1.663   4.688   3.566
 1080SOL    HW1 4139   1.620   4.760   3.621
 1080SOL    HW2 4140   1.754   4.669   3.601
 1081SOL     OW 4141   0.026   6.312   6.263
 1081SOL    HW1 4142   0.123   6.290   6.253
 1081SOL    HW2 4143   7.011   6.347   6.177
 1082SOL     OW 4144   3.816   1.926   6.485
 1082SOL    HW1 4145   3.851   1.998   6.425
 1082SOL    HW2 4146   3.824   1.837   6.439
 1083SOL     OW 4147   4.237   3.866   0.916
 1083SOL    HW1 4148   4.328   3.892   0.883
 1083SOL    HW2 4149   4.245   3.784   0.973
 1084SOL     OW 4150   6.656   5.586   1.082
 1084SOL    HW1 4151   6.683   5.496   1.049
 1084SOL    HW2 4152   6.582   5.622   1.026
 1085SOL     OW 4153   1.221   3.878   3.739
 1085SOL    HW1 4154   1.279   3.912   3.813
 1085SOL    HW2 4155   1.144   3.940   3.725
 1086SOL     OW 4156   6.750   5.972   1.938
 1086SOL    HW1 4157   6.770   5.876   1.917
 1086SOL    HW2 4158   6.684   5.976   2.013
 1087SOL     OW 4159   6.098   3.274   5.566
 1087SOL    HW1 4160   6.177   3.258   5.506
 1087SOL    HW2 4161   6.042   3.191   5.570
 1088SOL     OW 4162   6.309   4.320   3.231
 1088SOL    HW1 4163   6.255   4.357   3.307
 1088SOL    HW2 4164   6.274   4.357   3.144
 1089SOL     OW 4165   1.547   6.735   4.622
 1089SOL    HW1 4166   1.616   6.714   4.553
 1089SOL    HW2 4167   1.458   6.699   4.594
 1090SOL     OW 4168   2.334   1.214   3.514
 1090SOL    HW1 4169   2.366   1.147   3.581
 1090SOL    HW2 4170   2.307   1.298   3.562
 1091SOL     OW 4171   2.382   2.891   5.404
 1091SOL    HW1 4172   2.463   2.874   5.460
 1091SOL    HW2 4173   2.408   2.944   5.323
 1092SOL     OW 4174   1.859   3.772   0.520
 1092SOL    HW1 4175   1.814   3.859   0.540
 1092SOL    HW2 4176   1.927   3.752   0.591
 1093SOL     OW 4177   1.416   1.935   2.079
 1093SOL    HW1 4178   1.332   1.971   2.038
 1093SOL    HW2 4179   1.398   1.845   2.118
 1094SOL     OW 4180   1.109   6.162   3.906
 1094SOL    HW1 4181   1.041   6.119   3.847
 1094SOL    HW2 4182   1.103   6.261   3.897
 1095SOL     OW 4183   0.619   2.600   5.996
 1095SOL    HW1 4184   0.593   2.598   6.093
 1095SOL    HW2 4185   0.628   2.695   5.966
 1096SOL     OW 4186   3.350   4.657   1.670
 1096SOL    HW1 4187   3.422   4.651   1.739
 1096SOL    HW2 4188   3.324   4.564   1.642
 1097SOL     OW 4189   1.592   4.105   3.978
 1097SOL    HW1 4190   1.650   4.035   4.020
 1097SOL    HW2 4191   1.522   4.134   4.043
 1098SOL     OW 4192   4.544   3.268   0.867
 1098SOL    HW1 4193   4.635   3.246   0.832
 1098SOL    HW2 4194   4.475   3.233   0.804
 1099SOL     OW 4195   4.408   1.878   5.252
 1099SOL    HW1 4196   4.406   1.858   5.154
 1099SOL    HW2 4197   4.380   1.797   5.304
 1100SOL     OW 4198   3.494   2.021   6.187
 1100SOL    HW1 4199   3.555   2.096   6.165
 1100SOL    HW2 4200   3.491   1.957   6.110
 1101SOL     OW 4201   6.280   2.513   0.264
 1101SOL    HW1 4202   6.292   2.448   0.338
 1101SOL    HW2 4203   6.337   2.594   0.281
 1102SOL     OW 4204   0.596   5.582   4.043
 1102SOL    HW1 4205   0.686   5.625   4.036
 1102SOL    HW2 4206   0.541   5.609   3.964
 1103SOL     OW 4207   3.583   1.465   0.759
 1103SOL    HW1 4208   3.501   1.425   0.719
 1103SOL    HW2 4209   3.653   1.394   0.770
 1104SOL     OW 4210   2.166   3.360   5.347
 1104SOL    HW1 4211   2.195   3.276   5.303
 1104SOL    HW2 4212   2.245   3.410   5.381
 1105SOL     OW 4213   6.076   3.774   4.982
 1105SOL    HW1 4214   6.124   3.686   4.973
 1105SOL    HW2 4215   6.098   3.814   5.071
 1106SOL     OW 4216   0.889   1.999   1.077
 1106SOL    HW1 4217   0.860   1.904   1.094
 1106SOL    HW2 4218   0.969   1.998   1.017
 1107SOL     OW 4219   1.871   0.233   6.419
 1107SOL    HW1 4220   1.904   0.140   6.435
 1107SOL    HW2 4221   1.895   0.291   6.496
 1108SOL     OW 4222   3.148   1.368   6.151
 1108SOL    HW1 4223   3.086   1.432   6.196
 1108SOL    HW2 4224   3.202   1.320   6.221
 1109SOL     OW 4225   4.482   0.065   4.768
 1109SOL    HW1 4226   4.461   0.055   4.865
 1109SOL    HW2 4227   4.580   0.081   4.756
 1110SOL     OW 4228   2.824   2.131   3.121
 1110SOL    HW1 4229   2.772   2.076   3.187
 1110SOL    HW2 4230   2.769   2.143   3.038
 1111SOL     OW 4231   5.328   4.999   6.781
 1111SOL    HW1 4232   5.340   4.977   6.684
 1111SOL    HW2 4233   5.367   4.926   6.837
 1112SOL     OW 4234   5.245   1.554   2.513
 1112SOL    HW1 4235   5.249   1.459   2.544
 1112SOL    HW2 4236   5.332   1.580   2.471
 1113SOL     OW 4237   0.209   3.799   3.283
 1113SOL    HW1 4238   0.256   3.829   3.366
 1113SOL    HW2 4239   0.275   3.791   3.208
 1114SOL     OW 4240   4.288   1.574   6.642
 1114SOL    HW1 4241   4.220   1.542   6.575
 1114SOL    HW2 4242   4.250   1.651   6.693
 1115SOL     OW 4243   4.485   3.090   0.162
 1115SOL    HW1 4244   4.560   3.133   0.212
 1115SOL    HW2 4245   4.515   3.066   0.070
 1116SOL     OW 4246   5.261   5.986   5.156
 1116SOL    HW1 4247   5.329   5.989   5.229
 1116SOL    HW2 4248   5.258   5.894   5.117
 1117SOL     OW 4249   1.869   2.276   1.508
 1117SOL    HW1 4250   1.901   2.188   1.544
 1117SOL    HW2 4251   1.771   2.285   1.525
 1118SOL     OW 4252   2.411   4.236   1.873
 1118SOL    HW1 4253   2.505   4.201   1.876
 1118SOL    HW2 4254   2.356   4.186   1.940
 1119SOL     OW 4255   4.686   4.285   0.484
 1119SOL    HW1 4256   4.720   4.350   0.417
 1119SOL    HW2 4257   4.731   4.301   0.572
 1120SOL     OW 4258   5.871   0.116   5.074
 1120SOL    HW1 4259   5.772   0.112   5.081
 1120SOL    HW2 4260   5.907   0.028   5.042
 1121SOL     OW 4261   5.121   5.170   2.588
 1121SOL    HW1 4262   5.150   5.077   2.613
 1121SOL    HW2 4263   5.188   5.235   2.623
 1122SOL     OW 4264   4.584   3.504   0.299
 1122SOL    HW1 4265   4.551   3.438   0.365
 1122SOL    HW2 4266   4.519   3.580   0.292
 1123SOL     OW 4267   5.435   1.759   3.323
 1123SOL    HW1 4268   5.476   1.677   3.284
 1123SOL    HW2 4269   5.375   1.734   3.398
 1124SOL     OW 4270   6.250   4.169   5.290
 1124SOL    HW1 4271   6.239   4.168   5.390
 1124SOL    HW2 4272   6.324   4.231   5.265
 1125SOL     OW 4273   3.134   1.286   4.855
 1125SOL    HW1 4274   3.218   1.340   4.862
 1125SOL    HW2 4275   3.079   1.319   4.778
 1126SOL     OW 4276   5.321   5.818   6.895
 1126SOL    HW1 4277   5.361   5.768   6.818
 1126SOL    HW2 4278   5.376   5.898   6.916
 1127SOL     OW 4279   4.543   5.132   5.042
 1127SOL    HW1 4280   4.549   5.096   5.136
 1127SOL    HW2 4281   4.491   5.068   4.986
 1128SOL     OW 4282   5.109   1.804   5.401
 1128SOL    HW1 4283   5.197   1.846   5.381
 1128SOL    HW2 4284   5.113   1.760   5.490
 1129SOL     OW 4285   3.267   0.538   6.654
 1129SOL    HW1 4286   3.241   0.597   6.731
 1129SOL    HW2 4287   3.203   0.550   6.579
 1130SOL     OW 4288   1.549   4.467   1.079
 1130SOL    HW1 4289   1.606   4.385   1.078
 1130SOL    HW2 4290   1.516   4.485   0.986
 1131SOL     OW 4291   0.257   6.122   6.199
 1131SOL    HW1 4292   0.185   6.060   6.168
 1131SOL    HW2 4293   0.328   6.069   6.246
 1132SOL     OW 4294   4.841   7.002   1.440
 1132SOL    HW1 4295   4.889   0.064   1.411
 1132SOL    HW2 4296   4.743   7.020   1.445
 1133SOL     OW 4297   0.874   0.962   0.893
 1133SOL    HW1 4298   0.814   0.958   0.813
 1133SOL    HW2 4299   0.820   0.943   0.976
 1134SOL     OW 4300   4.862   1.590   1.741
 1134SOL    HW1 4301   4.768   1.557   1.730
 1134SOL    HW2 4302   4.873   1.676   1.692
 1135SOL     OW 4303   1.968   1.281   2.575
 1135SOL    HW1 4304   1.957   1.374   2.542
 1135SOL    HW2 4305   1.878   1.243   2.597
 1136SOL     OW 4306   3.322   5.486   4.739
 1136SOL    HW1 4307   3.366   5.570   4.770
 1136SOL    HW2 4308   3.254   5.509   4.669
 1137SOL     OW 4309   1.043   1.816   5.927
 1137SOL    HW1 4310   1.119   1.778   5.873
 1137SOL    HW2 4311   0.975   1.856   5.865
 1138SOL     OW 4312   0.513   1.441   6.558
 1138SOL    HW1 4313   0.575   1.445   6.480
 1138SOL    HW2 4314   0.489   1.535   6.585
 1139SOL     OW 4315   3.217   5.598   1.560
 1139SOL    HW1 4316   3.232   5.520   1.499
 1139SOL    HW2 4317   3.296   5.660   1.555
 1140SOL     OW 4318   3.393   1.144   2.089
 1140SOL    HW1 4319   3.294   1.160   2.096
 1140SOL    HW2 4320   3.411   1.046   2.101
 1141SOL     OW 4321   0.068   6.725   6.460
 1141SOL    HW1 4322   0.086   6.803   6.520
 1141SOL    HW2 4323   0.128   6.730   6.381
 1142SOL     OW 4324   2.887   0.263   4.225
 1142SOL    HW1 4325   2.933   0.198   4.164
 1142SOL    HW2 4326   2.867   0.347   4.176
 1143SOL     OW 4327   1.938   3.517   1.580
 1143SOL    HW1 4328   1.906   3.423   1.588
 1143SOL    HW2 4329   1.860   3.576   1.557
 1144SOL     OW 4330   6.121   4.796   5.513
 1144SOL    HW1 4331   6.140   4.731   5.587
 1144SOL    HW2 4332   6.112   4.888   5.551
 1145SOL     OW 4333   0.245   4.192   2.361
 1145SOL    HW1 4334   0.341   4.165   2.355
 1145SOL    HW2 4335   0.226   4.264   2.294
 1146SOL     OW 4336   6.446   0.747   1.623
 1146SOL    HW1 4337   6.483   0.823   1.571
 1146SOL    HW2 4338   6.478   0.660   1.585
 1147SOL     OW 4339   1.583   4.721   1.159
 1147SOL    HW1 4340   1.612   4.715   1.255
 1147SOL    HW2 4341   1.581   4.630   1.119
 1148SOL     OW 4342   4.825   6.800   6.600
 1148SOL    HW1 4343   4.745   6.861   6.598
 1148SOL    HW2 4344   4.868   6.804   6.690
 1149SOL     OW 4345   6.750   4.450   2.885
 1149SOL    HW1 4346   6.791   4.486   2.968
 1149SOL    HW2 4347   6.787   4.359   2.865
 1150SOL     OW 4348   2.474   3.946   0.943
 1150SOL    HW1 4349   2.495   3.945   0.845
 1150SOL    HW2 4350   2.539   3.888   0.992
 1151SOL     OW 4351   5.078   4.902   6.392
 1151SOL    HW1 4352   4.991   4.866   6.426
 1151SOL    HW2 4353   5.061   4.974   6.325
 1152SOL     OW 4354   6.977   5.959   5.708
 1152SOL    HW1 4355   6.978   5.924   5.802
 1152SOL    HW2 4356   6.931   6.048   5.707
 1153SOL     OW 4357   2.645   0.519   2.205
 1153SOL    HW1 4358   2.704   0.559   2.275
 1153SOL    HW2 4359   2.550   0.543   2.224
 1154SOL     OW 4360   0.726   4.076   2.050
 1154SOL    HW1 4361   0.820   4.077   2.086
 1154SOL    HW2 4362   0.710   3.990   2.002
 1155SOL     OW 4363   2.471   5.292   6.818
 1155SOL    HW1 4364   2.388   5.344   6.796
 1155SOL    HW2 4365   2.472   5.206   6.767
 1156SOL     OW 4366   2.685   1.234   4.916
 1156SOL    HW1 4367   2.676   1.234   5.016
 1156SOL    HW2 4368   2.600   1.266   4.875
 1157SOL     OW 4369   6.147   0.569   5.152
 1157SOL    HW1 4370   6.143   0.469   5.159
 1157SOL    HW2 4371   6.211   0.596   5.081
 1158SOL     OW 4372   6.929   6.017   5.405
 1158SOL    HW1 4373   6.995   5.961   5.456
 1158SOL    HW2 4374   6.945   6.006   5.307
 1159SOL     OW 4375   5.626   6.789   3.652
 1159SOL    HW1 4376   5.601   6.748   3.740
 1159SOL    HW2 4377   5.612   6.721   3.580
 1160SOL     OW 4378   3.814   3.033   1.279
 1160SOL    HW1 4379   3.825   2.981   1.363
 1160SOL    HW2 4380   3.729   3.007   1.234
 1161SOL     OW 4381   5.433   0.474   6.440
 1161SOL    HW1 4382   5.412   0.376   6.446
 1161SOL    HW2 4383   5.463   0.507   6.530
 1162SOL     OW 4384   2.886   2.017   6.890
 1162SOL    HW1 4385   2.816   1.964   6.938
 1162SOL    HW2 4386   2.850   2.048   6.803
 1163SOL     OW 4387   6.951   3.094   1.935
 1163SOL    HW1 4388   6.950   3.027   1.861
 1163SOL    HW2 4389   6.934   3.048   2.022
 1164SOL     OW 4390   5.209   2.289   4.630
 1164SOL    HW1 4391   5.233   2.335   4.545
 1164SOL    HW2 4392   5.127   2.330   4.669
 1165SOL     OW 4393   2.016   4.570   4.313
 1165SOL    HW1 4394   1.967   4.632   4.374
 1165SOL    HW2 4395   2.111   4.564   4.340
 1166SOL     OW 4396   3.839   6.834   0.296
 1166SOL    HW1 4397   3.828   6.825   0.197
 1166SOL    HW2 4398   3.880   6.923   0.316
 1167SOL     OW 4399   4.055   6.459   6.408
 1167SOL    HW1 4400   4.007   6.513   6.339
 1167SOL    HW2 4401   4.029   6.490   6.499
 1168SOL     OW 4402   5.864   2.051   3.418
 1168SOL    HW1 4403   5.924   2.027   3.494
 1168SOL    HW2 4404   5.782   1.994   3.421
 1169SOL     OW 4405   5.335   2.712   6.494
 1169SOL    HW1 4406   5.353   2.613   6.497
 1169SOL    HW2 4407   5.286   2.734   6.410
 1170SOL     OW 4408   5.236   1.257   2.539
 1170SOL    HW1 4409   5.139   1.268   2.519
 1170SOL    HW2 4410   5.261   1.160   2.531
 1171SOL     OW 4411   2.775   6.752   0.184
 1171SOL    HW1 4412   2.809   6.668   0.226
 1171SOL    HW2 4413   2.677   6.742   0.164
 1172SOL     OW 4414   3.432   3.790   2.013
 1172SOL    HW1 4415   3.339   3.755   2.026
 1172SOL    HW2 4416   3.435   3.887   2.039
 1173SOL     OW 4417   3.253   6.870   5.797
 1173SOL    HW1 4418   3.261   6.819   5.883
 1173SOL    HW2 4419   3.205   6.955   5.813
 1174SOL     OW 4420   3.088   4.259   0.380
 1174SOL    HW1 4421   3.102   4.160   0.372
 1174SOL    HW2 4422   3.175   4.306   0.363
 1175SOL     OW 4423   4.050   2.959   6.563
 1175SOL    HW1 4424   4.007   2.992   6.647
 1175SOL    HW2 4425   4.079   3.037   6.508
 1176SOL     OW 4426   5.905   4.470   0.460
 1176SOL    HW1 4427   5.850   4.487   0.543
 1176SOL    HW2 4428   5.924   4.373   0.452
 1177SOL     OW 4429   6.685   1.268   6.086
 1177SOL    HW1 4430   6.662   1.281   5.990
 1177SOL    HW2 4431   6.645   1.342   6.140
 1178SOL     OW 4432   3.910   3.763   1.012
 1178SOL    HW1 4433   3.812   3.774   0.992
 1178SOL    HW2 4434   3.964   3.792   0.933
 1179SOL     OW 4435   3.455   5.806   0.703
 1179SOL    HW1 4436   3.432   5.800   0.800
 1179SOL    HW2 4437   3.546   5.848   0.693
 1180SOL     OW 4438   2.498   6.769   3.520
 1180SOL    HW1 4439   2.523   6.720   3.604
 1180SOL    HW2 4440   2.575   6.825   3.490
 1181SOL     OW 4441   6.639   2.523   4.949
 1181SOL    HW1 4442   6.701   2.600   4.966
 1181SOL    HW2 4443   6.671   2.442   4.999
 1182SOL     OW 4444   3.060   5.303   3.797
 1182SOL    HW1 4445   3.061   5.260   3.887
 1182SOL    HW2 4446   2.972   5.288   3.753
 1183SOL     OW 4447   3.869   6.324   1.557
 1183SOL    HW1 4448   3.779   6.354   1.525
 1183SOL    HW2 4449   3.895   6.377   1.637
 1184SOL     OW 4450   4.535   6.993   6.279
 1184SOL    HW1 4451   4.629   6.961   6.282
 1184SOL    HW2 4452   4.481   6.947   6.350
 1185SOL     OW 4453   1.559   0.124   0.899
 1185SOL    HW1 4454   1.507   0.208   0.916
 1185SOL    HW2 4455   1.499   0.054   0.860
 1186SOL     OW 4456   6.061   5.769   6.253
 1186SOL    HW1 4457   5.961   5.775   6.251
 1186SOL    HW2 4458   6.100   5.847   6.204
 1187SOL     OW 4459   5.608   0.063   5.269
 1187SOL    HW1 4460   5.677   0.014   5.322
 1187SOL    HW2 4461   5.527   0.005   5.260
 1188SOL     OW 4462   3.325   6.263   6.671
 1188SOL    HW1 4463   3.258   6.192   6.651
 1188SOL    HW2 4464   3.360   6.251   6.764
 1189SOL     OW 4465   6.122   1.053   2.187
 1189SOL    HW1 4466   6.121   1.027   2.091
 1189SOL    HW2 4467   6.213   1.087   2.212
 1190SOL     OW 4468   3.631   4.883   3.874
 1190SOL    HW1 4469   3.576   4.959   3.908
 1190SOL    HW2 4470   3.708   4.867   3.936
 1191SOL     OW 4471   2.985   6.676   4.531
 1191SOL    HW1 4472   2.948   6.670   4.624
 1191SOL    HW2 4473   2.985   6.585   4.489
 1192SOL     OW 4474   5.394   6.297   2.979
 1192SOL    HW1 4475   5.478   6.320   2.929
 1192SOL    HW2 4476   5.315   6.319   2.921
 1193SOL     OW 4477   0.297   0.667   5.441
 1193SOL    HW1 4478   0.371   0.673   5.508
 1193SOL    HW2 4479   0.337   0.659   5.349
 1194SOL     OW 4480   0.075   1.474   1.148
 1194SOL    HW1 4481   7.011   1.445   1.106
 1194SOL    HW2 4482   0.099   1.411   1.223
 1195SOL     OW 4483   7.009   3.307   1.463
 1195SOL    HW1 4484   7.020   3.352   1.374
 1195SOL    HW2 4485   0.011   3.372   1.535
 1196SOL     OW 4486   6.204   5.077   1.991
 1196SOL    HW1 4487   6.173   5.132   1.913
 1196SOL    HW2 4488   6.271   5.128   2.044
 1197SOL     OW 4489   4.532   6.502   4.001
 1197SOL    HW1 4490   4.565   6.484   3.909
 1197SOL    HW2 4491   4.570   6.435   4.064
 1198SOL     OW 4492   1.561   3.575   2.372
 1198SOL    HW1 4493   1.637   3.512   2.382
 1198SOL    HW2 4494   1.518   3.590   2.461
 1199SOL     OW 4495   3.574   3.284   2.888
 1199SOL    HW1 4496   3.589   3.195   2.844
 1199SOL    HW2 4497   3.561   3.354   2.818
 1200SOL     OW 4498   3.987   3.877   4.377
 1200SOL    HW1 4499   3.938   3.832   4.303
 1200SOL    HW2 4500   4.042   3.810   4.426
 1201SOL     OW 4501   6.833   1.062   3.957
 1201SOL    HW1 4502   6.797   1.135   3.898
 1201SOL    HW2 4503   6.782   0.977   3.940
 1202SOL     OW 4504   5.978   0.839   6.033
 1202SOL    HW1 4505   6.048   0.867   5.967
 1202SOL    HW2 4506   6.023   0.808   6.117
 1203SOL     OW 4507   0.298   6.766   1.393
 1203SOL    HW1 4508   0.249   6.840   1.346
 1203SOL    HW2 4509   0.296   6.684   1.336
 1204SOL     OW 4510   4.449   1.885   1.916
 1204SOL    HW1 4511   4.500   1.825   1.977
 1204SOL    HW2 4512   4.352   1.885   1.941
 1205SOL     OW 4513   4.037   3.191   0.181
 1205SOL    HW1 4514   4.097   3.270   0.193
 1205SOL    HW2 4515   3.945   3.223   0.157
 1206SOL     OW 4516   1.323   2.360   4.467
 1206SOL    HW1 4517   1.276   2.434   4.418
 1206SOL    HW2 4518   1.409   2.395   4.505
 1207SOL     OW 4519   0.289   0.342   6.862
 1207SOL    HW1 4520   0.328   0.427   6.898
 1207SOL    HW2 4521   0.215   0.365   6.799
 1208SOL     OW 4522   3.363   3.628   1.348
 1208SOL    HW1 4523   3.318   3.585   1.426
 1208SOL    HW2 4524   3.431   3.694   1.381
 1209SOL     OW 4525   5.546   0.703   4.175
 1209SOL    HW1 4526   5.578   0.639   4.105
 1209SOL    HW2 4527   5.487   0.772   4.132
 1210SOL     OW 4528   4.862   6.978   3.771
 1210SOL    HW1 4529   4.820   7.000   3.683
 1210SOL    HW2 4530   4.812   6.904   3.815
 1211SOL     OW 4531   1.207   3.668   3.277
 1211SOL    HW1 4532   1.190   3.605   3.354
 1211SOL    HW2 4533   1.233   3.757   3.313
 1212SOL     OW 4534   6.410   0.619   6.220
 1212SOL    HW1 4535   6.402   0.596   6.123
 1212SOL    HW2 4536   6.494   0.671   6.234
 1213SOL     OW 4537   5.624   2.409   2.812
 1213SOL    HW1 4538   5.722   2.413   2.794
 1213SOL    HW2 4539   5.603   2.326   2.863
 1214SOL     OW 4540   0.541   2.261   6.122
 1214SOL    HW1 4541   0.621   2.203   6.140
 1214SOL    HW2 4542   0.481   2.261   6.203
 1215SOL     OW 4543   2.516   5.125   2.851
 1215SOL    HW1 4544   2.469   5.205   2.813
 1215SOL    HW2 4545   2.577   5.153   2.925
 1216SOL     OW 4546   0.173   0.841   0.108
 1216SOL    HW1 4547   0.115   0.797   0.177
 1216SOL    HW2 4548   0.116   0.900   0.051
 1217SOL     OW 4549   2.709   5.031   0.796
 1217SOL    HW1 4550   2.764   5.041   0.713
 1217SOL    HW2 4551   2.649   5.110   0.806
 1218SOL     OW 4552   0.967   3.832   5.666
 1218SOL    HW1 4553   0.982   3.816   5.764
 1218SOL    HW2 4554   1.052   3.811   5.617
 1219SOL     OW 4555   5.064   5.217   1.667
 1219SOL    HW1 4556   4.977   5.220   1.618
 1219SOL    HW2 4557   5.089   5.122   1.686
 1220SOL     OW 4558   6.748   4.163   2.930
 1220SOL    HW1 4559   6.756   4.065   2.949
 1220SOL    HW2 4560   6.719   4.211   3.013
 1221SOL     OW 4561   5.714   3.566   6.348
 1221SOL    HW1 4562   5.813   3.573   6.345
 1221SOL    HW2 4563   5.674   3.658   6.345
 1222SOL     OW 4564   0.940   0.488   0.422
 1222SOL    HW1 4565   0.969   0.542   0.501
 1222SOL    HW2 4566   0.957   0.539   0.338
 1223SOL     OW 4567   3.846   1.553   0.088
 1223SOL    HW1 4568   3.860   1.636   0.034
 1223SOL    HW2 4569   3.923   1.491   0.075
 1224SOL     OW 4570   2.780   5.897   0.048
 1224SOL    HW1 4571   2.820   5.867   6.982
 1224SOL    HW2 4572   2.692   5.851   0.061
 1225SOL     OW 4573   4.105   2.318   0.495
 1225SOL    HW1 4574   4.021   2.354   0.455
 1225SOL    HW2 4575   4.161   2.394   0.528
 1226SOL     OW 4576   4.402   6.229   0.796
 1226SOL    HW1 4577   4.370   6.135   0.788
 1226SOL    HW2 4578   4.332   6.285   0.839
 1227SOL     OW 4579   5.173   5.368   6.282
 1227SOL    HW1 4580   5.163   5.271   6.302
 1227SOL    HW2 4581   5.110   5.421   6.339
 1228SOL     OW 4582   3.336   2.773   0.271
 1228SOL    HW1 4583   3.250   2.766   0.221
 1228SOL    HW2 4584   3.322   2.826   0.355
 1229SOL     OW 4585   2.049   5.563   0.444
 1229SOL    HW1 4586   2.019   5.617   0.365
 1229SOL    HW2 4587   2.019   5.468   0.433
 1230SOL     OW 4588   5.923   5.678   2.379
 1230SOL    HW1 4589   5.942   5.589   2.420
 1230SOL    HW2 4590   5.976   5.688   2.295
 1231SOL     OW 4591   1.712   1.668   5.546
 1231SOL    HW1 4592   1.637   1.731   5.526
 1231SOL    HW2 4593   1.684   1.575   5.521
 1232SOL     OW 4594   6.069   1.547   4.938
 1232SOL    HW1 4595   6.138   1.525   5.006
 1232SOL    HW2 4596   6.104   1.527   4.846
 1233SOL     OW 4597   0.754   5.923   5.002
 1233SOL    HW1 4598   0.766   5.888   5.095
 1233SOL    HW2 4599   0.683   5.993   5.002
 1234SOL     OW 4600   6.339   1.930   5.347
 1234SOL    HW1 4601   6.295   1.872   5.278
 1234SOL    HW2 4602   6.403   1.875   5.401
 1235SOL     OW 4603   6.332   4.936   1.127
 1235SOL    HW1 4604   6.296   4.911   1.217
 1235SOL    HW2 4605   6.266   4.995   1.080
 1236SOL     OW 4606   3.699   1.018   2.150
 1236SOL    HW1 4607   3.632   0.948   2.127
 1236SOL    HW2 4608   3.706   1.027   2.250
 1237SOL     OW 4609   0.705   4.830   5.271
 1237SOL    HW1 4610   0.801   4.853   5.255
 1237SOL    HW2 4611   0.699   4.758   5.339
 1238SOL     OW 4612   0.880   0.428   5.498
 1238SOL    HW1 4613   0.919   0.360   5.560
 1238SOL    HW2 4614   0.792   0.394   5.464
 1239SOL     OW 4615   0.257   0.017   5.672
 1239SOL    HW1 4616   0.343   0.024   5.622
 1239SOL    HW2 4617   0.218   6.947   5.660
 1240SOL     OW 4618   5.873   5.501   1.221
 1240SOL    HW1 4619   5.813   5.559   1.165
 1240SOL    HW2 4620   5.828   5.481   1.308
 1241SOL     OW 4621   5.915   4.519   5.581
 1241SOL    HW1 4622   6.010   4.539   5.608
 1241SOL    HW2 4623   5.914   4.435   5.527
 1242SOL     OW 4624   2.225   4.007   0.404
 1242SOL    HW1 4625   2.240   4.106   0.398
 1242SOL    HW2 4626   2.189   3.983   0.494
 1243SOL     OW 4627   0.315   1.403   4.831
 1243SOL    HW1 4628   0.292   1.485   4.779
 1243SOL    HW2 4629   0.412   1.405   4.855
 1244SOL     OW 4630   5.322   5.747   5.054
 1244SOL    HW1 4631   5.416   5.711   5.048
 1244SOL    HW2 4632   5.262   5.677   5.091
 1245SOL     OW 4633   5.730   4.626   6.479
 1245SOL    HW1 4634   5.798   4.683   6.525
 1245SOL    HW2 4635   5.699   4.673   6.396
 1246SOL     OW 4636   2.987   1.719   2.667
 1246SOL    HW1 4637   2.927   1.691   2.593
 1246SOL    HW2 4638   2.983   1.818   2.678
 1247SOL     OW 4639   5.912   0.072   6.461
 1247SOL    HW1 4640   5.968   0.155   6.462
 1247SOL    HW2 4641   5.919   0.028   6.372
 1248SOL     OW 4642   1.798   5.914   4.024
 1248SOL    HW1 4643   1.809   5.945   3.929
 1248SOL    HW2 4644   1.777   5.991   4.083
 1249SOL     OW 4645   0.515   3.194   1.425
 1249SOL    HW1 4646   0.480   3.252   1.498
 1249SOL    HW2 4647   0.441   3.139   1.387
 1250SOL     OW 4648   5.823   4.565   3.307
 1250SOL    HW1 4649   5.788   4.512   3.230
 1250SOL    HW2 4650   5.916   4.596   3.287
 1251SOL     OW 4651   1.740   0.973   2.977
 1251SOL    HW1 4652   1.767   0.884   2.939
 1251SOL    HW2 4653   1.753   1.044   2.909
 1252SOL     OW 4654   3.547   4.758   6.478
 1252SOL    HW1 4655   3.624   4.752   6.542
 1252SOL    HW2 4656   3.577   4.805   6.395
 1253SOL     OW 4657   2.784   0.335   2.833
 1253SOL    HW1 4658   2.688   0.360   2.827
 1253SOL    HW2 4659   2.826   0.338   2.742
 1254SOL     OW 4660   6.915   2.612   3.942
 1254SOL    HW1 4661   6.868   2.670   3.875
 1254SOL    HW2 4662   6.848   2.557   3.991
 1255SOL     OW 4663   5.464   1.854   6.162
 1255SOL    HW1 4664   5.401   1.878   6.088
 1255SOL    HW2 4665   5.517   1.935   6.188
 1256SOL     OW 4666   0.487   6.363   3.655
 1256SOL    HW1 4667   0.566   6.365   3.594
 1256SOL    HW2 4668   0.459   6.457   3.676
 1257SOL     OW 4669   6.910   4.779   4.252
 1257SOL    HW1 4670   6.872   4.688   4.268
 1257SOL    HW2 4671   6.981   4.798   4.321
 1258SOL     OW 4672   2.158   4.896   3.147
 1258SOL    HW1 4673   2.111   4.952   3.215
 1258SOL    HW2 4674   2.216   4.954   3.090
 1259SOL     OW 4675   3.626   6.672   4.858
 1259SOL    HW1 4676   3.719   6.697   4.828
 1259SOL    HW2 4677   3.581   6.619   4.787
 1260SOL     OW 4678   3.021   1.282   0.682
 1260SOL    HW1 4679   3.074   1.290   0.597
 1260SOL    HW2 4680   3.029   1.366   0.734
 1261SOL     OW 4681   6.936   5.172   6.539
 1261SOL    HW1 4682   7.007   5.242   6.533
 1261SOL    HW2 4683   6.953   5.100   6.473
 1262SOL     OW 4684   5.096   4.969   1.556
 1262SOL    HW1 4685   5.000   4.941   1.551
 1262SOL    HW2 4686   5.123   5.010   1.469
 1263SOL     OW 4687   0.063   1.670   1.458
 1263SOL    HW1 4688   0.003   1.741   1.493
 1263SOL    HW2 4689   0.008   1.594   1.424
 1264SOL     OW 4690   0.200   3.721   1.611
 1264SOL    HW1 4691   0.214   3.683   1.702
 1264SOL    HW2 4692   0.102   3.727   1.593
 1265SOL     OW 4693   5.744   5.212   3.596
 1265SOL    HW1 4694   5.652   5.206   3.556
 1265SOL    HW2 4695   5.805   5.148   3.548
 1266SOL     OW 4696   0.712   1.044   4.011
 1266SOL    HW1 4697   0.733   1.129   3.963
 1266SOL    HW2 4698   0.759   1.042   4.099
 1267SOL     OW 4699   5.524   6.484   1.244
 1267SOL    HW1 4700   5.489   6.419   1.176
 1267SOL    HW2 4701   5.604   6.444   1.289
 1268SOL     OW 4702   4.502   2.654   0.435
 1268SOL    HW1 4703   4.450   2.572   0.461
 1268SOL    HW2 4704   4.526   2.705   0.517
 1269SOL     OW 4705   5.823   6.732   5.742
 1269SOL    HW1 4706   5.808   6.779   5.829
 1269SOL    HW2 4707   5.804   6.634   5.753
 1270SOL     OW 4708   1.898   3.841   3.965
 1270SOL    HW1 4709   1.872   3.916   4.026
 1270SOL    HW2 4710   1.974   3.790   4.005
 1271SOL     OW 4711   3.353   1.739   3.528
 1271SOL    HW1 4712   3.382   1.670   3.462
 1271SOL    HW2 4713   3.399   1.825   3.509
 1272SOL     OW 4714   5.974   5.589   0.230
 1272SOL    HW1 4715   6.037   5.658   0.195
 1272SOL    HW2 4716   5.930   5.541   0.154
 1273SOL     OW 4717   1.115   4.656   6.849
 1273SOL    HW1 4718   1.025   4.618   6.868
 1273SOL    HW2 4719   1.171   4.589   6.801
 1274SOL     OW 4720   6.150   2.940   1.575
 1274SOL    HW1 4721   6.070   2.986   1.614
 1274SOL    HW2 4722   6.229   2.955   1.635
 1275SOL     OW 4723   3.120   1.105   4.314
 1275SOL    HW1 4724   3.168   1.182   4.356
 1275SOL    HW2 4725   3.187   1.040   4.278
 1276SOL     OW 4726   6.950   0.534   4.688
 1276SOL    HW1 4727   7.018   0.461   4.698
 1276SOL    HW2 4728   6.993   0.622   4.704
 1277SOL     OW 4729   1.113   6.612   5.875
 1277SOL    HW1 4730   1.086   6.527   5.920
 1277SOL    HW2 4731   1.164   6.591   5.791
 1278SOL     OW 4732   1.269   0.363   5.368
 1278SOL    HW1 4733   1.321   0.419   5.303
 1278SOL    HW2 4734   1.171   0.368   5.345
 1279SOL     OW 4735   3.754   5.985   1.072
 1279SOL    HW1 4736   3.854   5.981   1.069
 1279SOL    HW2 4737   3.716   5.916   1.011
 1280SOL     OW 4738   3.333   6.496   4.218
 1280SOL    HW1 4739   3.269   6.529   4.149
 1280SOL    HW2 4740   3.415   6.459   4.173
 1281SOL     OW 4741   1.831   5.893   3.090
 1281SOL    HW1 4742   1.925   5.927   3.102
 1281SOL    HW2 4743   1.800   5.912   2.997
 1282SOL     OW 4744   0.803   1.142   6.036
 1282SOL    HW1 4745   0.773   1.109   6.126
 1282SOL    HW2 4746   0.887   1.195   6.047
 1283SOL     OW 4747   6.296   2.822   5.303
 1283SOL    HW1 4748   6.389   2.788   5.285
 1283SOL    HW2 4749   6.246   2.829   5.216
 1284SOL     OW 4750   4.889   1.191   2.646
 1284SOL    HW1 4751   4.916   1.185   2.742
 1284SOL    HW2 4752   4.841   1.108   2.619
 1285SOL     OW 4753   4.826   3.140   6.722
 1285SOL    HW1 4754   4.871   3.053   6.704
 1285SOL    HW2 4755   4.883   3.215   6.687
 1286SOL     OW 4756   4.958   3.609   1.938
 1286SOL    HW1 4757   4.937   3.707   1.933
 1286SOL    HW2 4758   4.876   3.556   1.918
 1287SOL     OW 4759   5.007   4.681   5.316
 1287SOL    HW1 4760   5.093   4.673   5.368
 1287SOL    HW2 4761   4.991   4.776   5.293
 1288SOL     OW 4762   4.845   3.503   0.268
 1288SOL    HW1 4763   4.863   3.598   0.245
 1288SOL    HW2 4764   4.747   3.490   0.284
 1289SOL     OW 4765   1.146   5.924   2.165
 1289SOL    HW1 4766   1.068   5.883   2.119
 1289SOL    HW2 4767   1.218   5.946   2.099
 1290SOL     OW 4768   1.132   0.022   0.138
 1290SOL    HW1 4769   1.218   0.073   0.141
 1290SOL    HW2 4770   1.141   6.960   0.193
 1291SOL     OW 4771   0.135   3.864   5.376
 1291SOL    HW1 4772   0.139   3.827   5.469
 1291SOL    HW2 4773   0.224   3.855   5.332
 1292SOL     OW 4774   0.385   6.189   2.386
 1292SOL    HW1 4775   0.323   6.204   2.308
 1292SOL    HW2 4776   0.400   6.276   2.433
 1293SOL     OW 4777   1.168   1.344   6.951
 1293SOL    HW1 4778   1.222   1.341   0.015
 1293SOL    HW2 4779   1.072   1.331   6.973
 1294SOL     OW 4780   1.500   3.976   6.874
 1294SOL    HW1 4781   1.565   4.025   6.815
 1294SOL    HW2 4782   1.408   4.008   6.855
 1295SOL     OW 4783   6.908   3.587   2.544
 1295SOL    HW1 4784   6.931   3.670   2.596
 1295SOL    HW2 4785   6.949   3.593   2.453
 1296SOL     OW 4786   3.316   0.513   5.431
 1296SOL    HW1 4787   3.350   0.565   5.353
 1296SOL    HW2 4788   3.335   0.563   5.515
 1297SOL     OW 4789   5.877   1.037   1.099
 1297SOL    HW1 4790   5.841   1.107   1.161
 1297SOL    HW2 4791   5.817   0.957   1.101
 1298SOL     OW 4792   6.171   4.792   2.752
 1298SOL    HW1 4793   6.139   4.821   2.662
 1298SOL    HW2 4794   6.148   4.862   2.820
 1299SOL     OW 4795   0.874   3.980   3.113
 1299SOL    HW1 4796   0.872   3.892   3.161
 1299SOL    HW2 4797   0.805   4.041   3.152
 1300SOL     OW 4798   3.544   3.125   1.541
 1300SOL    HW1 4799   3.450   3.094   1.521
 1300SOL    HW2 4800   3.553   3.142   1.639
 1301SOL     OW 4801   0.505   5.355   1.431
 1301SOL    HW1 4802   0.476   5.431   1.490
 1301SOL    HW2 4803   0.475   5.269   1.472
 1302SOL     OW 4804   4.218   0.530   5.556
 1302SOL    HW1 4805   4.205   0.431   5.561
 1302SOL    HW2 4806   4.156   0.576   5.620
 1303SOL     OW 4807   4.381   1.489   2.484
 1303SOL    HW1 4808   4.404   1.575   2.529
 1303SOL    HW2 4809   4.312   1.440   2.537
 1304SOL     OW 4810   1.450   0.815   6.818
 1304SOL    HW1 4811   1.359   0.795   6.782
 1304SOL    HW2 4812   1.447   0.901   6.870
 1305SOL     OW 4813   4.631   3.019   6.919
 1305SOL    HW1 4814   4.661   2.956   6.847
 1305SOL    HW2 4815   4.676   3.108   6.906
 1306SOL     OW 4816   0.444   4.177   5.013
 1306SOL    HW1 4817   0.349   4.166   5.042
 1306SOL    HW2 4818   0.485   4.255   5.062
 1307SOL     OW 4819   0.980   3.533   4.945
 1307SOL    HW1 4820   0.999   3.502   5.039
 1307SOL    HW2 4821   1.032   3.478   4.880
 1308SOL     OW 4822   5.332   6.447   4.320
 1308SOL    HW1 4823   5.294   6.526   4.272
 1308SOL    HW2 4824   5.358   6.377   4.254
 1309SOL     OW 4825   4.796   3.222   5.315
 1309SOL    HW1 4826   4.705   3.263   5.309
 1309SOL    HW2 4827   4.832   3.234   5.407
 1310SOL     OW 4828   0.493   3.971   4.816
 1310SOL    HW1 4829   0.409   3.916   4.809
 1310SOL    HW2 4830   0.476   4.050   4.874
 1311SOL     OW 4831   0.188   0.589   4.472
 1311SOL    HW1 4832   0.116   0.659   4.465
 1311SOL    HW2 4833   0.164   0.511   4.414
 1312SOL     OW 4834   1.326   0.538   6.563
 1312SOL    HW1 4835   1.236   0.514   6.526
 1312SOL    HW2 4836   1.334   0.502   6.656
 1313SOL     OW 4837   0.949   4.394   4.168
 1313SOL    HW1 4838   0.946   4.471   4.232
 1313SOL    HW2 4839   0.923   4.310   4.215
 1314SOL     OW 4840   3.798   1.044   5.516
 1314SOL    HW1 4841   3.857   1.074   5.441
 1314SOL    HW2 4842   3.750   1.123   5.554
 1315SOL     OW 4843   0.165   1.031   0.738
 1315SOL    HW1 4844   0.240   1.004   0.799
 1315SOL    HW2 4845   0.108   1.098   0.785
 1316SOL     OW 4846   1.928   6.562   4.411
 1316SOL    HW1 4847   1.834   6.552   4.378
 1316SOL    HW2 4848   1.932   6.538   4.508
 1317SOL     OW 4849   1.987   4.121   5.587
 1317SOL    HW1 4850   2.050   4.188   5.626
 1317SOL    HW2 4851   2.012   4.104   5.491
 1318SOL     OW 4852   1.090   0.891   0.650
 1318SOL    HW1 4853   1.106   0.866   0.746
 1318SOL    HW2 4854   1.085   0.990   0.642
 1319SOL     OW 4855   0.048   0.934   6.289
 1319SOL    HW1 4856   0.118   0.891   6.346
 1319SOL    HW2 4857   0.065   1.033   6.286
 1320SOL     OW 4858   5.525   3.588   0.456
 1320SOL    HW1 4859   5.612   3.554   0.422
 1320SOL    HW2 4860   5.456   3.581   0.385
 1321SOL     OW 4861   5.009   1.980   6.042
 1321SOL    HW1 4862   4.946   2.009   5.970
 1321SOL    HW2 4863   4.961   1.921   6.107
 1322SOL     OW 4864   3.974   0.645   3.832
 1322SOL    HW1 4865   3.927   0.626   3.918
 1322SOL    HW2 4866   3.917   0.616   3.755
 1323SOL     OW 4867   4.596   1.510   5.863
 1323SOL    HW1 4868   4.653   1.483   5.786
 1323SOL    HW2 4869   4.506   1.537   5.830
 1324SOL     OW 4870   1.233   2.977   0.182
 1324SOL    HW1 4871   1.262   3.047   0.116
 1324SOL    HW2 4872   1.234   3.016   0.274
 1325SOL     OW 4873   1.805   6.638   2.075
 1325SOL    HW1 4874   1.889   6.673   2.032
 1325SOL    HW2 4875   1.735   6.710   2.074
 1326SOL     OW 4876   4.930   3.292   5.081
 1326SOL    HW1 4877   4.890   3.376   5.045
 1326SOL    HW2 4878   4.872   3.256   5.154
 1327SOL     OW 4879   1.876   4.553   1.714
 1327SOL    HW1 4880   1.832   4.632   1.672
 1327SOL    HW2 4881   1.971   4.575   1.735
 1328SOL     OW 4882   1.500   2.923   1.084
 1328SOL    HW1 4883   1.430   2.993   1.093
 1328SOL    HW2 4884   1.579   2.961   1.035
 1329SOL     OW 4885   1.094   2.667   1.093
 1329SOL    HW1 4886   1.020   2.676   1.026
 1329SOL    HW2 4887   1.059   2.688   1.184
 1330SOL     OW 4888   6.952   0.887   1.509
 1330SOL    HW1 4889   6.999   0.893   1.597
 1330SOL    HW2 4890   6.853   0.898   1.523
 1331SOL     OW 4891   4.944   2.644   3.424
 1331SOL    HW1 4892   4.935   2.560   3.371
 1331SOL    HW2 4893   4.853   2.682   3.442
 1332SOL     OW 4894   2.688   6.985   0.318
 1332SOL    HW1 4895   2.666   6.891   0.294
 1332SOL    HW2 4896   2.782   7.005   0.290
 1333SOL     OW 4897   3.485   3.189   5.478
 1333SOL    HW1 4898   3.583   3.203   5.472
 1333SOL    HW2 4899   3.464   3.137   5.561
 1334SOL     OW 4900   6.270   2.121   4.439
 1334SOL    HW1 4901   6.171   2.119   4.452
 1334SOL    HW2 4902   6.303   2.215   4.441
 1335SOL     OW 4903   2.802   1.268   3.329
 1335SOL    HW1 4904   2.797   1.215   3.414
 1335SOL    HW2 4905   2.772   1.362   3.348
 1336SOL     OW 4906   1.675   2.063   5.838
 1336SOL    HW1 4907   1.755   2.016   5.799
 1336SOL    HW2 4908   1.706   2.136   5.899
 1337SOL     OW 4909   1.759   1.996   5.280
 1337SOL    HW1 4910   1.663   1.973   5.262
 1337SOL    HW2 4911   1.764   2.069   5.348
 1338SOL     OW 4912   5.622   2.038   6.271
 1338SOL    HW1 4913   5.694   2.020   6.204
 1338SOL    HW2 4914   5.643   1.988   6.356
 1339SOL     OW 4915   0.721   1.034   6.282
 1339SOL    HW1 4916   0.775   0.952   6.305
 1339SOL    HW2 4917   0.731   1.102   6.354
 1340SOL     OW 4918   0.485   2.104   2.102
 1340SOL    HW1 4919   0.570   2.068   2.140
 1340SOL    HW2 4920   0.501   2.198   2.069
 1341SOL     OW 4921   5.274   0.395   5.936
 1341SOL    HW1 4922   5.340   0.465   5.906
 1341SOL    HW2 4923   5.223   0.429   6.015
 1342SOL     OW 4924   1.704   5.203   5.921
 1342SOL    HW1 4925   1.631   5.207   5.989
 1342SOL    HW2 4926   1.702   5.113   5.877
 1343SOL     OW 4927   4.471   5.953   2.542
 1343SOL    HW1 4928   4.404   5.921   2.609
 1343SOL    HW2 4929   4.554   5.897   2.549
 1344SOL     OW 4930   6.921   4.711   3.795
 1344SOL    HW1 4931   6.999   4.652   3.817
 1344SOL    HW2 4932   6.850   4.656   3.750
 1345SOL     OW 4933   1.775   1.142   2.737
 1345SOL    HW1 4934   1.773   1.049   2.700
 1345SOL    HW2 4935   1.683   1.179   2.739
 1346SOL     OW 4936   0.877   6.616   4.161
 1346SOL    HW1 4937   0.782   6.611   4.130
 1346SOL    HW2 4938   0.881   6.654   4.253
 1347SOL     OW 4939   6.564   5.600   4.614
 1347SOL    HW1 4940   6.642   5.663   4.613
 1347SOL    HW2 4941   6.595   5.509   4.587
 1348SOL     OW 4942   5.251   5.045   2.336
 1348SOL    HW1 4943   5.227   4.948   2.346
 1348SOL    HW2 4944   5.191   5.100   2.394
 1349SOL     OW 4945   4.532   1.874   6.171
 1349SOL    HW1 4946   4.487   1.851   6.257
 1349SOL    HW2 4947   4.605   1.940   6.187
 1350SOL     OW 4948   4.800   4.330   6.681
 1350SOL    HW1 4949   4.820   4.286   6.768
 1350SOL    HW2 4950   4.877   4.387   6.654
 1351SOL     OW 4951   6.644   1.572   3.436
 1351SOL    HW1 4952   6.639   1.552   3.533
 1351SOL    HW2 4953   6.581   1.646   3.413
 1352SOL     OW 4954   6.472   0.098   2.978
 1352SOL    HW1 4955   6.549   0.159   2.992
 1352SOL    HW2 4956   6.485   0.045   2.894
 1353SOL     OW 4957   6.751   3.896   6.214
 1353SOL    HW1 4958   6.811   3.833   6.263
 1353SOL    HW2 4959   6.788   3.912   6.122
 1354SOL     OW 4960   0.695   2.098   0.314
 1354SOL    HW1 4961   0.768   2.041   0.276
 1354SOL    HW2 4962   0.710   2.112   0.412
 1355SOL     OW 4963   0.108   2.775   5.431
 1355SOL    HW1 4964   0.207   2.777   5.444
 1355SOL    HW2 4965   0.063   2.761   5.520
 1356SOL     OW 4966   2.912   3.605   2.659
 1356SOL    HW1 4967   2.873   3.625   2.570
 1356SOL    HW2 4968   3.004   3.568   2.648
 1357SOL     OW 4969   1.269   3.958   5.310
 1357SOL    HW1 4970   1.267   3.975   5.212
 1357SOL    HW2 4971   1.186   3.994   5.352
 1358SOL     OW 4972   4.140   1.106   5.995
 1358SOL    HW1 4973   4.188   1.104   6.083
 1358SOL    HW2 4974   4.109   1.014   5.971
 1359SOL     OW 4975   6.426   4.970   1.814
 1359SOL    HW1 4976   6.493   4.949   1.885
 1359SOL    HW2 4977   6.369   5.047   1.843
 1360SOL     OW 4978   4.217   2.807   1.121
 1360SOL    HW1 4979   4.274   2.883   1.151
 1360SOL    HW2 4980   4.132   2.806   1.173
 1361SOL     OW 4981   0.309   5.963   5.676
 1361SOL    HW1 4982   0.290   6.015   5.592
 1361SOL    HW2 4983   0.294   6.021   5.755
 1362SOL     OW 4984   3.012   3.856   4.446
 1362SOL    HW1 4985   3.053   3.945   4.427
 1362SOL    HW2 4986   2.969   3.858   4.537
 1363SOL     OW 4987   6.811   5.792   3.398
 1363SOL    HW1 4988   6.808   5.876   3.451
 1363SOL    HW2 4989   6.886   5.797   3.332
 1364SOL     OW 4990   6.755   2.401   0.741
 1364SOL    HW1 4991   6.811   2.467   0.691
 1364SOL    HW2 4992   6.811   2.323   0.768
 1365SOL     OW 4993   0.931   2.789   5.563
 1365SOL    HW1 4994   0.967   2.771   5.654
 1365SOL    HW2 4995   0.926   2.887   5.547
 1366SOL     OW 4996   0.331   4.314   0.293
 1366SOL    HW1 4997   0.408   4.355   0.244
 1366SOL    HW2 4998   0.362   4.281   0.382
 1367SOL     OW 4999   1.655   6.128   2.569
 1367SOL    HW1 5000   1.680   6.126   2.666
 1367SOL    HW2 5001   1.729   6.087   2.515
 1368SOL     OW 5002   6.813   0.322   4.177
 1368SOL    HW1 5003   6.831   0.385   4.102
 1368SOL    HW2 5004   6.787   0.374   4.259
 1369SOL     OW 5005   2.652   0.203   2.503
 1369SOL    HW1 5006   2.564   0.232   2.542
 1369SOL    HW2 5007   2.680   0.116   2.543
 1370SOL     OW 5008   4.507   1.762   2.316
 1370SOL    HW1 5009   4.593   1.721   2.348
 1370SOL    HW2 5010   4.443   1.767   2.393
 1371SOL     OW 5011   6.359   1.671   4.714
 1371SOL    HW1 5012   6.279   1.624   4.675
 1371SOL    HW2 5013   6.336   1.766   4.732
 1372SOL     OW 5014   1.205   2.654   0.706
 1372SOL    HW1 5015   1.207   2.668   0.805
 1372SOL    HW2 5016   1.261   2.575   0.682
 1373SOL     OW 5017   4.370   2.936   0.349
 1373SOL    HW1 5018   4.428   3.001   0.299
 1373SOL    HW2 5019   4.428   2.865   0.390
 1374SOL     OW 5020   4.422   2.264   1.149
 1374SOL    HW1 5021   4.335   2.230   1.186
 1374SOL    HW2 5022   4.495   2.199   1.169
 1375SOL     OW 5023   0.216   5.837   6.280
 1375SOL    HW1 5024   0.165   5.894   6.344
 1375SOL    HW2 5025   0.259   5.762   6.330
 1376SOL     OW 5026   4.504   4.753   5.245
 1376SOL    HW1 5027   4.540   4.745   5.152
 1376SOL    HW2 5028   4.570   4.802   5.303
 1377SOL     OW 5029   0.852   3.315   5.306
 1377SOL    HW1 5030   0.789   3.352   5.375
 1377SOL    HW2 5031   0.802   3.253   5.245
 1378SOL     OW 5032   5.860   1.657   4.713
 1378SOL    HW1 5033   5.829   1.742   4.756
 1378SOL    HW2 5034   5.885   1.591   4.784
 1379SOL     OW 5035   4.313   6.236   3.178
 1379SOL    HW1 5036   4.382   6.308   3.179
 1379SOL    HW2 5037   4.347   6.156   3.228
 1380SOL     OW 5038   0.098   6.784   3.831
 1380SOL    HW1 5039   0.105   6.884   3.826
 1380SOL    HW2 5040   0.155   6.743   3.760
 1381SOL     OW 5041   6.166   1.687   0.460
 1381SOL    HW1 5042   6.075   1.699   0.499
 1381SOL    HW2 5043   6.166   1.719   0.366
 1382SOL     OW 5044   5.265   3.016   0.747
 1382SOL    HW1 5045   5.276   3.056   0.838
 1382SOL    HW2 5046   5.205   2.937   0.753
 1383SOL     OW 5047   0.683   0.508   2.333
 1383SOL    HW1 5048   0.674   0.607   2.343
 1383SOL    HW2 5049   0.670   0.463   2.421
 1384SOL     OW 5050   4.685   0.740   2.082
 1384SOL    HW1 5051   4.639   0.820   2.044
 1384SOL    HW2 5052   4.777   0.733   2.045
 1385SOL     OW 5053   2.765   4.721   3.470
 1385SOL    HW1 5054   2.863   4.731   3.452
 1385SOL    HW2 5055   2.749   4.728   3.569
 1386SOL     OW 5056   3.035   0.659   3.782
 1386SOL    HW1 5057   2.938   0.638   3.789
 1386SOL    HW2 5058   3.065   0.707   3.865
 1387SOL     OW 5059   3.235   5.926   2.734
 1387SOL    HW1 5060   3.212   6.009   2.684
 1387SOL    HW2 5061   3.335   5.914   2.734
 1388SOL     OW 5062   0.337   0.813   3.066
 1388SOL    HW1 5063   0.253   0.769   3.097
 1388SOL    HW2 5064   0.395   0.836   3.144
 1389SOL     OW 5065   6.965   1.528   3.904
 1389SOL    HW1 5066   6.900   1.537   3.829
 1389SOL    HW2 5067   0.026   1.481   3.872
 1390SOL     OW 5068   6.029   2.979   6.332
 1390SOL    HW1 5069   6.026   2.917   6.410
 1390SOL    HW2 5070   6.051   3.072   6.364
 1391SOL     OW 5071   6.080   0.067   5.424
 1391SOL    HW1 5072   6.176   0.046   5.406
 1391SOL    HW2 5073   6.054   0.149   5.372
 1392SOL     OW 5074   5.705   6.497   5.730
 1392SOL    HW1 5075   5.768   6.451   5.668
 1392SOL    HW2 5076   5.705   6.450   5.819
 1393SOL     OW 5077   6.792   4.147   6.325
 1393SOL    HW1 5078   6.891   4.151   6.336
 1393SOL    HW2 5079   6.767   4.057   6.288
 1394SOL     OW 5080   3.506   6.002   5.764
 1394SOL    HW1 5081   3.486   5.911   5.726
 1394SOL    HW2 5082   3.450   6.016   5.846
 1395SOL     OW 5083   1.530   4.673   4.779
 1395SOL    HW1 5084   1.466   4.598   4.795
 1395SOL    HW2 5085   1.513   4.713   4.690
 1396SOL     OW 5086   6.978   1.366   4.973
 1396SOL    HW1 5087   6.985   1.320   4.884
 1396SOL    HW2 5088   6.921   1.448   4.963
 1397SOL     OW 5089   0.622   6.142   4.936
 1397SOL    HW1 5090   0.609   6.190   4.850
 1397SOL    HW2 5091   0.532   6.122   4.976
 1398SOL     OW 5092   2.664   0.517   6.434
 1398SOL    HW1 5093   2.730   0.527   6.359
 1398SOL    HW2 5094   2.680   0.588   6.502
 1399SOL     OW 5095   4.102   5.726   0.628
 1399SOL    HW1 5096   4.094   5.722   0.528
 1399SOL    HW2 5097   4.088   5.820   0.659
 1400SOL     OW 5098   0.277   1.754   3.922
 1400SOL    HW1 5099   0.288   1.854   3.922
 1400SOL    HW2 5100   0.263   1.722   3.828
 1401SOL     OW 5101   5.941   0.226   4.009
 1401SOL    HW1 5102   5.964   0.164   3.934
 1401SOL    HW2 5103   5.841   0.232   4.018
 1402SOL     OW 5104   5.210   3.928   6.158
 1402SOL    HW1 5105   5.292   3.942   6.102
 1402SOL    HW2 5106   5.129   3.934   6.099
 1403SOL     OW 5107   2.672   1.738   0.432
 1403SOL    HW1 5108   2.768   1.711   0.424
 1403SOL    HW2 5109   2.665   1.837   0.434
 1404SOL     OW 5110   6.760   0.203   6.841
 1404SOL    HW1 5111   6.660   0.207   6.851
 1404SOL    HW2 5112   6.803   0.244   6.922
 1405SOL     OW 5113   2.754   2.912   0.830
 1405SOL    HW1 5114   2.657   2.914   0.852
 1405SOL    HW2 5115   2.777   2.825   0.786
 1406SOL     OW 5116   1.336   5.743   0.847
 1406SOL    HW1 5117   1.390   5.718   0.927
 1406SOL    HW2 5118   1.239   5.741   0.870
 1407SOL     OW 5119   0.465   3.247   4.055
 1407SOL    HW1 5120   0.409   3.168   4.078
 1407SOL    HW2 5121   0.482   3.301   4.137
 1408SOL     OW 5122   4.674   1.247   6.335
 1408SOL    HW1 5123   4.605   1.230   6.404
 1408SOL    HW2 5124   4.696   1.345   6.333
 1409SOL     OW 5125   0.305   0.308   5.346
 1409SOL    HW1 5126   0.226   0.281   5.402
 1409SOL    HW2 5127   0.383   0.325   5.405
 1410SOL     OW 5128   1.359   4.299   6.132
 1410SOL    HW1 5129   1.378   4.352   6.214
 1410SOL    HW2 5130   1.446   4.270   6.090
 1411SOL     OW 5131   3.024   6.780   0.453
 1411SOL    HW1 5132   3.073   6.713   0.399
 1411SOL    HW2 5133   3.035   6.871   0.412
 1412SOL     OW 5134   1.244   3.340   0.923
 1412SOL    HW1 5135   1.290   3.428   0.932
 1412SOL    HW2 5136   1.261   3.303   0.831
 1413SOL     OW 5137   2.064   1.105   4.540
 1413SOL    HW1 5138   2.123   1.055   4.604
 1413SOL    HW2 5139   2.036   1.043   4.466
 1414SOL     OW 5140   2.067   1.781   1.976
 1414SOL    HW1 5141   2.129   1.703   1.969
 1414SOL    HW2 5142   1.992   1.770   1.911
 1415SOL     OW 5143   1.882   1.307   4.560
 1415SOL    HW1 5144   1.919   1.389   4.604
 1415SOL    HW2 5145   1.953   1.236   4.557
 1416SOL     OW 5146   4.472   6.236   4.652
 1416SOL    HW1 5147   4.491   6.139   4.661
 1416SOL    HW2 5148   4.404   6.251   4.580
 1417SOL     OW 5149   3.121   2.783   0.617
 1417SOL    HW1 5150   3.217   2.760   0.629
 1417SOL    HW2 5151   3.110   2.883   0.619
 1418SOL     OW 5152   3.196   3.490   2.273
 1418SOL    HW1 5153   3.253   3.562   2.313
 1418SOL    HW2 5154   3.239   3.454   2.190
 1419SOL     OW 5155   3.500   6.255   4.178
 1419SOL    HW1 5156   3.459   6.259   4.087
 1419SOL    HW2 5157   3.435   6.213   4.242
 1420SOL     OW 5158   3.003   6.106   2.703
 1420SOL    HW1 5159   2.928   6.122   2.640
 1420SOL    HW2 5160   3.082   6.161   2.676
 1421SOL     OW 5161   1.721   4.829   4.313
 1421SOL    HW1 5162   1.791   4.816   4.382
 1421SOL    HW2 5163   1.652   4.757   4.320
 1422SOL     OW 5164   1.552   4.591   6.388
 1422SOL    HW1 5165   1.510   4.653   6.454
 1422SOL    HW2 5166   1.515   4.499   6.400
 1423SOL     OW 5167   4.476   6.865   4.549
 1423SOL    HW1 5168   4.417   6.824   4.480
 1423SOL    HW2 5169   4.419   6.899   4.625
 1424SOL     OW 5170   6.481   3.577   6.528
 1424SOL    HW1 5171   6.557   3.610   6.584
 1424SOL    HW2 5172   6.477   3.628   6.443
 1425SOL     OW 5173   2.020   5.098   5.818
 1425SOL    HW1 5174   2.045   5.102   5.915
 1425SOL    HW2 5175   2.097   5.060   5.766
 1426SOL     OW 5176   2.763   2.646   6.842
 1426SOL    HW1 5177   2.718   2.732   6.820
 1426SOL    HW2 5178   2.848   2.638   6.790
 1427SOL     OW 5179   6.561   0.061   4.315
 1427SOL    HW1 5180   6.619   0.031   4.391
 1427SOL    HW2 5181   6.531   0.155   4.331
 1428SOL     OW 5182   0.608   1.768   0.033
 1428SOL    HW1 5183   0.530   1.731   0.084
 1428SOL    HW2 5184   0.670   1.694   0.008
 1429SOL     OW 5185   4.585   1.341   0.292
 1429SOL    HW1 5186   4.500   1.290   0.297
 1429SOL    HW2 5187   4.623   1.352   0.384
 1430SOL     OW 5188   2.112   4.916   4.116
 1430SOL    HW1 5189   2.100   4.963   4.028
 1430SOL    HW2 5190   2.095   4.980   4.190
 1431SOL     OW 5191   2.495   2.194   6.538
 1431SOL    HW1 5192   2.472   2.140   6.619
 1431SOL    HW2 5193   2.466   2.289   6.553
 1432SOL     OW 5194   2.932   1.451   1.158
 1432SOL    HW1 5195   2.855   1.393   1.182
 1432SOL    HW2 5196   2.943   1.522   1.228
 1433SOL     OW 5197   5.003   0.327   5.242
 1433SOL    HW1 5198   5.068   0.290   5.176
 1433SOL    HW2 5199   4.922   0.360   5.194
 1434SOL     OW 5200   1.021   0.402   5.897
 1434SOL    HW1 5201   0.974   0.483   5.862
 1434SOL    HW2 5202   1.018   0.329   5.828
 1435SOL     OW 5203   6.684   6.773   3.062
 1435SOL    HW1 5204   6.760   6.836   3.079
 1435SOL    HW2 5205   6.598   6.824   3.057
 1436SOL     OW 5206   4.839   4.143   6.461
 1436SOL    HW1 5207   4.925   4.163   6.415
 1436SOL    HW2 5208   4.827   4.205   6.539
 1437SOL     OW 5209   3.289   1.845   5.575
 1437SOL    HW1 5210   3.222   1.799   5.634
 1437SOL    HW2 5211   3.282   1.809   5.482
 1438SOL     OW 5212   3.132   6.935   2.063
 1438SOL    HW1 5213   3.106   6.941   1.967
 1438SOL    HW2 5214   3.183   7.017   2.089
 1439SOL     OW 5215   6.816   4.589   0.813
 1439SOL    HW1 5216   6.784   4.681   0.837
 1439SOL    HW2 5217   6.835   4.538   0.897
 1440SOL     OW 5218   3.361   2.980   6.192
 1440SOL    HW1 5219   3.340   3.001   6.288
 1440SOL    HW2 5220   3.388   2.884   6.185
 1441SOL     OW 5221   5.962   1.947   3.929
 1441SOL    HW1 5222   6.050   1.991   3.909
 1441SOL    HW2 5223   5.911   2.002   3.994
 1442SOL     OW 5224   6.513   5.186   6.461
 1442SOL    HW1 5225   6.580   5.260   6.457
 1442SOL    HW2 5226   6.560   5.098   6.455
 1443SOL     OW 5227   0.898   3.012   4.229
 1443SOL    HW1 5228   0.846   3.055   4.156
 1443SOL    HW2 5229   0.934   2.924   4.198
 1444SOL     OW 5230   4.000   5.858   1.074
 1444SOL    HW1 5231   4.031   5.953   1.081
 1444SOL    HW2 5232   4.012   5.812   1.162
 1445SOL     OW 5233   0.457   3.385   2.457
 1445SOL    HW1 5234   0.390   3.390   2.532
 1445SOL    HW2 5235   0.419   3.427   2.375
 1446SOL     OW 5236   4.920   2.397   0.515
 1446SOL    HW1 5237   5.010   2.410   0.474
 1446SOL    HW2 5238   4.913   2.305   0.552
 1447SOL     OW 5239   6.254   6.816   5.643
 1447SOL    HW1 5240   6.209   6.727   5.637
 1447SOL    HW2 5241   6.187   6.885   5.669
 1448SOL     OW 5242   6.375   2.197   6.418
 1448SOL    HW1 5243   6.304   2.253   6.375
 1448SOL    HW2 5244   6.443   2.258   6.461
 1449SOL     OW 5245   0.779   0.875   0.390
 1449SOL    HW1 5246   0.744   0.790   0.428
 1449SOL    HW2 5247   0.879   0.877   0.401
 1450SOL     OW 5248   0.830   2.452   1.350
 1450SOL    HW1 5249   0.791   2.418   1.436
 1450SOL    HW2 5250   0.833   2.377   1.283
 1451SOL     OW 5251   2.312   0.388   2.236
 1451SOL    HW1 5252   2.219   0.361   2.212
 1451SOL    HW2 5253   2.336   0.473   2.190
 1452SOL     OW 5254   4.632   0.760   4.744
 1452SOL    HW1 5255   4.713   0.711   4.776
 1452SOL    HW2 5256   4.588   0.708   4.672
 1453SOL     OW 5257   0.135   3.530   5.321
 1453SOL    HW1 5258   0.069   3.477   5.374
 1453SOL    HW2 5259   0.087   3.585   5.252
 1454SOL     OW 5260   0.012   3.583   2.313
 1454SOL    HW1 5261   6.980   3.542   2.239
 1454SOL    HW2 5262   0.084   3.641   2.275
 1455SOL     OW 5263   0.836   0.783   2.134
 1455SOL    HW1 5264   0.897   0.704   2.126
 1455SOL    HW2 5265   0.782   0.792   2.050
 1456SOL     OW 5266   6.761   6.270   5.023
 1456SOL    HW1 5267   6.728   6.330   5.097
 1456SOL    HW2 5268   6.860   6.257   5.033
 1457SOL     OW 5269   1.240   6.481   1.578
 1457SOL    HW1 5270   1.196   6.548   1.638
 1457SOL    HW2 5271   1.200   6.391   1.592
 1458SOL     OW 5272   5.986   5.321   3.400
 1458SOL    HW1 5273   5.902   5.375   3.409
 1458SOL    HW2 5274   6.053   5.352   3.467
 1459SOL     OW 5275   2.785   5.374   5.850
 1459SOL    HW1 5276   2.817   5.352   5.758
 1459SOL    HW2 5277   2.763   5.471   5.855
 1460SOL     OW 5278   0.559   5.853   5.629
 1460SOL    HW1 5279   0.560   5.771   5.571
 1460SOL    HW2 5280   0.466   5.871   5.659
 1461SOL     OW 5281   6.778   4.974   3.618
 1461SOL    HW1 5282   6.831   4.977   3.703
 1461SOL    HW2 5283   6.689   4.932   3.637
 1462SOL     OW 5284   1.068   0.375   6.486
 1462SOL    HW1 5285   1.003   0.402   6.414
 1462SOL    HW2 5286   1.124   0.300   6.453
 1463SOL     OW 5287   0.240   5.912   6.977
 1463SOL    HW1 5288   0.163   5.861   6.939
 1463SOL    HW2 5289   0.316   5.849   6.995
 1464SOL     OW 5290   6.685   0.392   1.240
 1464SOL    HW1 5291   6.765   0.443   1.208
 1464SOL    HW2 5292   6.692   0.378   1.339
 1465SOL     OW 5293   1.778   1.189   3.528
 1465SOL    HW1 5294   1.767   1.139   3.442
 1465SOL    HW2 5295   1.843   1.141   3.587
 1466SOL     OW 5296   1.134   1.647   2.211
 1466SOL    HW1 5297   1.127   1.558   2.165
 1466SOL    HW2 5298   1.052   1.661   2.267
 1467SOL     OW 5299   1.803   2.063   3.003
 1467SOL    HW1 5300   1.900   2.073   2.979
 1467SOL    HW2 5301   1.749   2.132   2.956
 1468SOL     OW 5302   4.756   5.869   2.499
 1468SOL    HW1 5303   4.772   5.770   2.508
 1468SOL    HW2 5304   4.794   5.901   2.412
 1469SOL     OW 5305   0.774   1.282   1.976
 1469SOL    HW1 5306   0.765   1.363   1.918
 1469SOL    HW2 5307   0.839   1.218   1.935
 1470SOL     OW 5308   1.546   1.745   2.484
 1470SOL    HW1 5309   1.528   1.842   2.472
 1470SOL    HW2 5310   1.487   1.708   2.556
 1471SOL     OW 5311   0.658   0.075   0.955
 1471SOL    HW1 5312   0.749   0.053   0.919
 1471SOL    HW2 5313   0.655   0.055   1.053
 1472SOL     OW 5314   3.860   6.311   5.734
 1472SOL    HW1 5315   3.889   6.403   5.761
 1472SOL    HW2 5316   3.913   6.243   5.786
 1473SOL     OW 5317   5.251   6.322   4.717
 1473SOL    HW1 5318   5.250   6.397   4.783
 1473SOL    HW2 5319   5.225   6.237   4.763
 1474SOL     OW 5320   5.597   5.513   2.589
 1474SOL    HW1 5321   5.652   5.534   2.670
 1474SOL    HW2 5322   5.649   5.452   2.529
 1475SOL     OW 5323   6.669   6.860   2.037
 1475SOL    HW1 5324   6.728   6.934   2.070
 1475SOL    HW2 5325   6.576   6.895   2.024
 1476SOL     OW 5326   2.727   1.292   1.264
 1476SOL    HW1 5327   2.794   1.219   1.252
 1476SOL    HW2 5328   2.643   1.269   1.214
 1477SOL     OW 5329   3.654   0.095   6.537
 1477SOL    HW1 5330   3.555   0.085   6.544
 1477SOL    HW2 5331   3.688   0.141   6.619
 1478SOL     OW 5332   6.257   5.300   0.137
 1478SOL    HW1 5333   6.208   5.241   0.073
 1478SOL    HW2 5334   6.355   5.295   0.119
 1479SOL     OW 5335   1.710   2.904   6.838
 1479SOL    HW1 5336   1.654   2.825   6.811
 1479SOL    HW2 5337   1.706   2.914   6.938
 1480SOL     OW 5338   3.203   0.580   5.831
 1480SOL    HW1 5339   3.121   0.619   5.788
 1480SOL    HW2 5340   3.284   0.609   5.781
 1481SOL     OW 5341   6.648   2.702   5.744
 1481SOL    HW1 5342   6.717   2.632   5.764
 1481SOL    HW2 5343   6.615   2.691   5.650
 1482SOL     OW 5344   4.783   2.416   1.532
 1482SOL    HW1 5345   4.754   2.511   1.542
 1482SOL    HW2 5346   4.738   2.360   1.600
 1483SOL     OW 5347   4.881   1.963   6.855
 1483SOL    HW1 5348   4.908   2.045   6.804
 1483SOL    HW2 5349   4.938   1.886   6.827
 1484SOL     OW 5350   5.953   4.703   4.017
 1484SOL    HW1 5351   6.022   4.753   4.070
 1484SOL    HW2 5352   5.863   4.715   4.059
 1485SOL     OW 5353   3.830   1.420   3.249
 1485SOL    HW1 5354   3.738   1.436   3.284
 1485SOL    HW2 5355   3.881   1.507   3.249
 1486SOL     OW 5356   5.203   1.946   3.097
 1486SOL    HW1 5357   5.281   1.958   3.036
 1486SOL    HW2 5358   5.139   2.022   3.085
 1487SOL     OW 5359   6.193   2.376   6.279
 1487SOL    HW1 5360   6.284   2.393   6.241
 1487SOL    HW2 5361   6.145   2.463   6.290
 1488SOL     OW 5362   5.322   1.324   3.878
 1488SOL    HW1 5363   5.281   1.235   3.860
 1488SOL    HW2 5364   5.411   1.330   3.831
 1489SOL     OW 5365   3.793   5.435   4.487
 1489SOL    HW1 5366   3.860   5.507   4.468
 1489SOL    HW2 5367   3.789   5.371   4.410
 1490SOL     OW 5368   1.246   2.859   1.968
 1490SOL    HW1 5369   1.224   2.905   1.882
 1490SOL    HW2 5370   1.214   2.764   1.964
 1491SOL     OW 5371   5.874   3.569   3.428
 1491SOL    HW1 5372   5.876   3.549   3.526
 1491SOL    HW2 5373   5.957   3.534   3.385
 1492SOL     OW 5374   5.872   0.736   2.469
 1492SOL    HW1 5375   5.865   0.779   2.379
 1492SOL    HW2 5376   5.927   0.653   2.462
 1493SOL     OW 5377   4.309   6.596   4.835
 1493SOL    HW1 5378   4.371   6.587   4.757
 1493SOL    HW2 5379   4.280   6.505   4.865
 1494SOL     OW 5380   5.663   1.858   6.475
 1494SOL    HW1 5381   5.735   1.875   6.543
 1494SOL    HW2 5382   5.678   1.770   6.432
 1495SOL     OW 5383   6.618   2.503   4.670
 1495SOL    HW1 5384   6.562   2.585   4.655
 1495SOL    HW2 5385   6.654   2.504   4.763
 1496SOL     OW 5386   0.454   1.371   1.655
 1496SOL    HW1 5387   0.471   1.275   1.634
 1496SOL    HW2 5388   0.537   1.413   1.691
 1497SOL     OW 5389   6.195   3.125   3.192
 1497SOL    HW1 5390   6.103   3.105   3.159
 1497SOL    HW2 5391   6.206   3.224   3.202
 1498SOL     OW 5392   1.958   5.262   6.582
 1498SOL    HW1 5393   1.909   5.178   6.606
 1498SOL    HW2 5394   1.902   5.318   6.522
 1499SOL     OW 5395   0.958   2.964   6.776
 1499SOL    HW1 5396   1.017   2.884   6.789
 1499SOL    HW2 5397   0.877   2.955   6.833
 1500SOL     OW 5398   6.647   6.520   0.296
 1500SOL    HW1 5399   6.550   6.501   0.304
 1500SOL    HW2 5400   6.676   6.510   0.200
 1501SOL     OW 5401   5.331   2.420   6.258
 1501SOL    HW1 5402   5.392   2.350   6.220
 1501SOL    HW2 5403   5.254   2.434   6.196
 1502SOL     OW 5404   4.639   0.205   0.533
 1502SOL    HW1 5405   4.600   0.252   0.454
 1502SOL    HW2 5406   4.739   0.207   0.528
 1503SOL     OW 5407   0.987   3.885   1.212
 1503SOL    HW1 5408   0.958   3.862   1.305
 1503SOL    HW2 5409   1.020   3.979   1.209
 1504SOL     OW 5410   0.594   0.575   5.578
 1504SOL    HW1 5411   0.613   0.545   5.671
 1504SOL    HW2 5412   0.644   0.658   5.557
 1505SOL     OW 5413   5.576   0.841   5.809
 1505SOL    HW1 5414   5.487   0.850   5.764
 1505SOL    HW2 5415   5.645   0.893   5.758
 1506SOL     OW 5416   0.962   5.999   1.008
 1506SOL    HW1 5417   0.879   6.025   1.057
 1506SOL    HW2 5418   0.951   5.906   0.971
 1507SOL     OW 5419   0.915   1.897   5.696
 1507SOL    HW1 5420   0.829   1.938   5.664
 1507SOL    HW2 5421   0.906   1.798   5.698
 1508SOL     OW 5422   6.883   0.863   2.214
 1508SOL    HW1 5423   6.916   0.925   2.286
 1508SOL    HW2 5424   6.821   0.796   2.254
 1509SOL     OW 5425   4.227   1.659   6.235
 1509SOL    HW1 5426   4.162   1.731   6.209
 1509SOL    HW2 5427   4.218   1.582   6.172
 1510SOL     OW 5428   4.510   2.184   4.794
 1510SOL    HW1 5429   4.579   2.114   4.774
 1510SOL    HW2 5430   4.543   2.245   4.866
 1511SOL     OW 5431   3.695   3.160   1.772
 1511SOL    HW1 5432   3.764   3.225   1.739
 1511SOL    HW2 5433   3.724   3.067   1.750
 1512SOL     OW 5434   0.344   4.926   1.437
 1512SOL    HW1 5435   0.421   4.863   1.451
 1512SOL    HW2 5436   0.347   4.998   1.505
 1513SOL     OW 5437   3.491   0.997   4.001
 1513SOL    HW1 5438   3.552   0.920   4.019
 1513SOL    HW2 5439   3.531   1.057   3.932
 1514SOL     OW 5440   4.068   1.872   6.164
 1514SOL    HW1 5441   4.008   1.833   6.094
 1514SOL    HW2 5442   4.013   1.908   6.239
 1515SOL     OW 5443   5.606   2.197   3.443
 1515SOL    HW1 5444   5.532   2.171   3.506
 1515SOL    HW2 5445   5.653   2.115   3.412
 1516SOL     OW 5446   6.207   0.155   0.531
 1516SOL    HW1 5447   6.278   0.206   0.482
 1516SOL    HW2 5448   6.201   0.187   0.626
 1517SOL     OW 5449   4.591   6.154   3.700
 1517SOL    HW1 5450   4.665   6.141   3.766
 1517SOL    HW2 5451   4.610   6.103   3.617
 1518SOL     OW 5452   0.977   3.163   0.381
 1518SOL    HW1 5453   0.983   3.240   0.318
 1518SOL    HW2 5454   1.060   3.107   0.372
 1519SOL     OW 5455   6.238   4.942   1.395
 1519SOL    HW1 5456   6.305   4.929   1.468
 1519SOL    HW2 5457   6.151   4.902   1.422
 1520SOL     OW 5458   0.373   3.883   2.517
 1520SOL    HW1 5459   0.285   3.927   2.531
 1520SOL    HW2 5460   0.379   3.850   2.423
 1521SOL     OW 5461   1.771   3.815   6.225
 1521SOL    HW1 5462   1.848   3.834   6.163
 1521SOL    HW2 5463   1.803   3.820   6.319
 1522SOL     OW 5464   6.341   6.991   5.406
 1522SOL    HW1 5465   6.301   6.928   5.473
 1522SOL    HW2 5466   6.401   0.035   5.453
 1523SOL     OW 5467   5.230   5.047   1.089
 1523SOL    HW1 5468   5.305   5.107   1.059
 1523SOL    HW2 5469   5.265   4.955   1.102
 1524SOL     OW 5470   1.824   2.024   1.801
 1524SOL    HW1 5471   1.820   1.977   1.889
 1524SOL    HW2 5472   1.837   2.122   1.816
 1525SOL     OW 5473   6.569   2.607   6.836
 1525SOL    HW1 5474   6.471   2.626   6.848
 1525SOL    HW2 5475   6.620   2.644   6.913
 1526SOL     OW 5476   6.746   6.962   6.778
 1526SOL    HW1 5477   6.648   6.959   6.758
 1526SOL    HW2 5478   6.768   0.029   6.822
 1527SOL     OW 5479   3.391   1.358   5.146
 1527SOL    HW1 5480   3.332   1.280   5.168
 1527SOL    HW2 5481   3.339   1.442   5.158
 1528SOL     OW 5482   5.081   6.075   2.815
 1528SOL    HW1 5483   5.117   6.129   2.739
 1528SOL    HW2 5484   5.156   6.051   2.877
 1529SOL     OW 5485   4.007   0.607   0.471
 1529SOL    HW1 5486   4.047   0.611   0.563
 1529SOL    HW2 5487   4.077   0.629   0.403
 1530SOL     OW 5488   3.278   1.827   2.227
 1530SOL    HW1 5489   3.363   1.881   2.233
 1530SOL    HW2 5490   3.245   1.806   2.319
 1531SOL     OW 5491   4.333   1.121   5.123
 1531SOL    HW1 5492   4.250   1.172   5.147
 1531SOL    HW2 5493   4.404   1.185   5.096
 1532SOL     OW 5494   2.621   3.645   6.074
 1532SOL    HW1 5495   2.594   3.699   6.154
 1532SOL    HW2 5496   2.539   3.620   6.022
 1533SOL     OW 5497   6.739   3.255   0.067
 1533SOL    HW1 5498   6.662   3.301   0.023
 1533SOL    HW2 5499   6.771   3.311   0.144
 1534SOL     OW 5500   2.032   4.888   6.742
 1534SOL    HW1 5501   1.981   4.917   6.823
 1534SOL    HW2 5502   1.969   4.857   6.671
 1535SOL     OW 5503   4.970   6.304   3.604
 1535SOL    HW1 5504   4.963   6.292   3.703
 1535SOL    HW2 5505   5.027   6.385   3.584
 1536SOL     OW 5506   4.050   4.270   5.280
 1536SOL    HW1 5507   4.111   4.333   5.232
 1536SOL    HW2 5508   3.986   4.228   5.215
 1537SOL     OW 5509   4.585   6.328   3.008
 1537SOL    HW1 5510   4.546   6.293   2.923
 1537SOL    HW2 5511   4.644   6.407   2.988
 1538SOL     OW 5512   3.917   6.087   5.879
 1538SOL    HW1 5513   3.991   6.020   5.884
 1538SOL    HW2 5514   3.863   6.083   5.964
 1539SOL     OW 5515   4.168   3.763   1.846
 1539SOL    HW1 5516   4.077   3.794   1.873
 1539SOL    HW2 5517   4.230   3.841   1.838
 1540SOL     OW 5518   1.832   6.016   5.726
 1540SOL    HW1 5519   1.892   5.936   5.736
 1540SOL    HW2 5520   1.859   6.087   5.791
 1541SOL     OW 5521   3.673   2.888   2.575
 1541SOL    HW1 5522   3.576   2.883   2.552
 1541SOL    HW2 5523   3.719   2.805   2.542
 1542SOL     OW 5524   6.167   5.940   1.859
 1542SOL    HW1 5525   6.259   5.942   1.819
 1542SOL    HW2 5526   6.174   5.922   1.957
 1543SOL     OW 5527   3.493   4.254   5.432
 1543SOL    HW1 5528   3.465   4.189   5.502
 1543SOL    HW2 5529   3.486   4.211   5.342
 1544SOL     OW 5530   3.171   3.655   3.039
 1544SOL    HW1 5531   3.099   3.693   2.980
 1544SOL    HW2 5532   3.244   3.722   3.050
 1545SOL     OW 5533   4.694   0.894   4.115
 1545SOL    HW1 5534   4.648   0.895   4.026
 1545SOL    HW2 5535   4.773   0.955   4.112
 1546SOL     OW 5536   3.513   6.308   5.994
 1546SOL    HW1 5537   3.553   6.388   6.037
 1546SOL    HW2 5538   3.549   6.298   5.901
 1547SOL     OW 5539   1.402   3.850   2.986
 1547SOL    HW1 5540   1.444   3.763   3.011
 1547SOL    HW2 5541   1.419   3.916   3.059
 1548SOL     OW 5542   4.713   4.035   5.655
 1548SOL    HW1 5543   4.683   3.955   5.707
 1548SOL    HW2 5544   4.796   4.072   5.696
 1549SOL     OW 5545   4.552   1.038   3.299
 1549SOL    HW1 5546   4.558   1.119   3.240
 1549SOL    HW2 5547   4.622   0.972   3.273
 1550SOL     OW 5548   2.960   4.461   6.925
 1550SOL    HW1 5549   2.962   4.534   6.993
 1550SOL    HW2 5550   2.984   4.374   6.968
 1551SOL     OW 5551   2.191   4.114   6.195
 1551SOL    HW1 5552   2.282   4.108   6.236
 1551SOL    HW2 5553   2.183   4.200   6.144
 1552SOL     OW 5554   6.706   6.519   0.026
 1552SOL    HW1 5555   6.657   6.515   6.960
 1552SOL    HW2 5556   6.804   6.516   0.010
 1553SOL     OW 5557   0.140   1.031   5.487
 1553SOL    HW1 5558   0.222   1.071   5.446
 1553SOL    HW2 5559   0.060   1.083   5.460
 1554SOL     OW 5560   4.687   1.490   3.350
 1554SOL    HW1 5561   4.619   1.553   3.387
 1554SOL    HW2 5562   4.743   1.539   3.282
 1555SOL     OW 5563   4.976   1.843   0.372
 1555SOL    HW1 5564   4.975   1.850   0.472
 1555SOL    HW2 5565   5.024   1.921   0.333
 1556SOL     OW 5566   2.519   1.105   0.752
 1556SOL    HW1 5567   2.554   1.022   0.709
 1556SOL    HW2 5568   2.569   1.122   0.837
 1557SOL     OW 5569   1.777   1.165   6.573
 1557SOL    HW1 5570   1.745   1.075   6.600
 1557SOL    HW2 5571   1.712   1.235   6.604
 1558SOL     OW 5572   5.540   0.920   4.802
 1558SOL    HW1 5573   5.555   0.854   4.876
 1558SOL    HW2 5574   5.529   1.012   4.841
 1559SOL     OW 5575   0.307   2.569   0.089
 1559SOL    HW1 5576   0.318   2.668   0.075
 1559SOL    HW2 5577   0.225   2.552   0.145
 1560SOL     OW 5578   2.856   2.097   6.085
 1560SOL    HW1 5579   2.849   2.143   6.174
 1560SOL    HW2 5580   2.797   2.017   6.085
 1561SOL     OW 5581   0.397   6.061   3.228
 1561SOL    HW1 5582   0.321   6.013   3.272
 1561SOL    HW2 5583   0.480   6.005   3.234
 1562SOL     OW 5584   3.673   5.582   2.635
 1562SOL    HW1 5585   3.636   5.563   2.544
 1562SOL    HW2 5586   3.769   5.554   2.639
 1563SOL     OW 5587   2.091   0.404   5.941
 1563SOL    HW1 5588   2.015   0.339   5.946
 1563SOL    HW2 5589   2.169   0.367   5.992
 1564SOL     OW 5590   1.186   3.205   3.091
 1564SOL    HW1 5591   1.220   3.141   3.022
 1564SOL    HW2 5592   1.155   3.154   3.171
 1565SOL     OW 5593   4.563   5.124   4.649
 1565SOL    HW1 5594   4.481   5.161   4.693
 1565SOL    HW2 5595   4.617   5.072   4.716
 1566SOL     OW 5596   5.345   4.742   3.865
 1566SOL    HW1 5597   5.249   4.723   3.887
 1566SOL    HW2 5598   5.397   4.756   3.950
 1567SOL     OW 5599   6.177   6.064   6.851
 1567SOL    HW1 5600   6.260   6.052   6.906
 1567SOL    HW2 5601   6.196   6.037   6.756
 1568SOL     OW 5602   1.926   5.516   0.909
 1568SOL    HW1 5603   1.876   5.602   0.898
 1568SOL    HW2 5604   1.924   5.489   1.006
 1569SOL     OW 5605   3.224   6.896   3.630
 1569SOL    HW1 5606   3.194   6.941   3.547
 1569SOL    HW2 5607   3.195   6.800   3.629
 1570SOL     OW 5608   2.119   6.804   0.806
 1570SOL    HW1 5609   2.080   6.721   0.846
 1570SOL    HW2 5610   2.205   6.782   0.760
 1571SOL     OW 5611   6.047   1.715   2.446
 1571SOL    HW1 5612   6.125   1.734   2.505
 1571SOL    HW2 5613   6.078   1.686   2.356
 1572SOL     OW 5614   0.915   6.089   0.415
 1572SOL    HW1 5615   0.972   6.026   0.363
 1572SOL    HW2 5616   0.856   6.038   0.478
 1573SOL     OW 5617   6.311   3.224   1.901
 1573SOL    HW1 5618   6.238   3.279   1.861
 1573SOL    HW2 5619   6.400   3.265   1.878
 1574SOL     OW 5620   0.119   1.186   3.239
 1574SOL    HW1 5621   0.136   1.212   3.144
 1574SOL    HW2 5622   0.191   1.125   3.271
 1575SOL     OW 5623   2.654   2.137   1.126
 1575SOL    HW1 5624   2.563   2.099   1.143
 1575SOL    HW2 5625   2.701   2.152   1.213
 1576SOL     OW 5626   0.640   1.077   3.039
 1576SOL    HW1 5627   0.594   1.166   3.039
 1576SOL    HW2 5628   0.675   1.058   2.947
 1577SOL     OW 5629   2.660   0.658   5.325
 1577SOL    HW1 5630   2.731   0.604   5.372
 1577SOL    HW2 5631   2.701   0.707   5.249
 1578SOL     OW 5632   5.486   2.900   6.065
 1578SOL    HW1 5633   5.402   2.955   6.075
 1578SOL    HW2 5634   5.468   2.807   6.095
 1579SOL     OW 5635   0.816   1.867   2.683
 1579SOL    HW1 5636   0.888   1.936   2.680
 1579SOL    HW2 5637   0.810   1.829   2.775
 1580SOL     OW 5638   3.188   4.061   4.090
 1580SOL    HW1 5639   3.278   4.017   4.091
 1580SOL    HW2 5640   3.116   3.992   4.093
 1581SOL     OW 5641   6.681   4.251   5.673
 1581SOL    HW1 5642   6.622   4.212   5.602
 1581SOL    HW2 5643   6.759   4.297   5.630
 1582SOL     OW 5644   2.517   0.033   4.108
 1582SOL    HW1 5645   2.547   6.994   4.034
 1582SOL    HW2 5646   2.484   6.999   4.185
 1583SOL     OW 5647   1.052   5.524   3.374
 1583SOL    HW1 5648   1.119   5.477   3.432
 1583SOL    HW2 5649   0.984   5.459   3.342
 1584SOL     OW 5650   0.723   5.930   6.347
 1584SOL    HW1 5651   0.733   5.948   6.249
 1584SOL    HW2 5652   0.743   6.014   6.398
 1585SOL     OW 5653   5.132   1.311   3.477
 1585SOL    HW1 5654   5.138   1.274   3.570
 1585SOL    HW2 5655   5.141   1.237   3.411
 1586SOL     OW 5656   3.416   4.938   2.039
 1586SOL    HW1 5657   3.495   4.876   2.040
 1586SOL    HW2 5658   3.339   4.895   2.086
 1587SOL     OW 5659   3.032   5.516   6.607
 1587SOL    HW1 5660   3.091   5.483   6.533
 1587SOL    HW2 5661   3.020   5.615   6.597
 1588SOL     OW 5662   3.958   0.365   2.778
 1588SOL    HW1 5663   4.004   0.438   2.728
 1588SOL    HW2 5664   4.014   0.339   2.857
 1589SOL     OW 5665   6.391   3.041   2.293
 1589SOL    HW1 5666   6.342   2.973   2.238
 1589SOL    HW2 5667   6.385   3.130   2.248
 1590SOL     OW 5668   4.031   6.517   5.596
 1590SOL    HW1 5669   4.107   6.503   5.661
 1590SOL    HW2 5670   4.036   6.449   5.524
 1591SOL     OW 5671   6.832   5.114   2.047
 1591SOL    HW1 5672   6.846   5.127   1.949
 1591SOL    HW2 5673   6.899   5.050   2.083
 1592SOL     OW 5674   1.785   3.834   6.959
 1592SOL    HW1 5675   1.829   3.761   7.012
 1592SOL    HW2 5676   1.806   3.822   6.862
 1593SOL     OW 5677   1.369   6.166   5.821
 1593SOL    HW1 5678   1.446   6.108   5.848
 1593SOL    HW2 5679   1.396   6.224   5.745
 1594SOL     OW 5680   0.527   6.347   1.621
 1594SOL    HW1 5681   0.460   6.391   1.680
 1594SOL    HW2 5682   0.507   6.369   1.525
 1595SOL     OW 5683   1.500   5.425   0.246
 1595SOL    HW1 5684   1.565   5.482   0.196
 1595SOL    HW2 5685   1.483   5.465   0.336
 1596SOL     OW 5686   0.263   2.624   3.634
 1596SOL    HW1 5687   0.279   2.680   3.553
 1596SOL    HW2 5688   0.165   2.624   3.656
 1597SOL     OW 5689   1.327   6.360   6.988
 1597SOL    HW1 5690   1.401   6.307   0.007
 1597SOL    HW2 5691   1.362   6.450   6.959
 1598SOL     OW 5692   7.013   4.021   5.765
 1598SOL    HW1 5693   0.032   4.061   5.682
 1598SOL    HW2 5694   0.000   4.087   5.840
 1599SOL     OW 5695   4.696   4.968   4.825
 1599SOL    HW1 5696   4.767   5.026   4.865
 1599SOL    HW2 5697   4.666   4.901   4.893
 1600SOL     OW 5698   4.574   1.247   3.146
 1600SOL    HW1 5699   4.507   1.321   3.138
 1600SOL    HW2 5700   4.662   1.277   3.108
 1601SOL     OW 5701   6.863   5.530   4.740
 1601SOL    HW1 5702   6.961   5.552   4.750
 1601SOL    HW2 5703   6.852   5.431   4.731
 1602SOL     OW 5704   3.978   5.688   3.008
 1602SOL    HW1 5705   3.970   5.709   3.105
 1602SOL    HW2 5706   3.895   5.643   2.976
 1603SOL     OW 5707   1.184   6.468   3.442
 1603SOL    HW1 5708   1.137   6.397   3.388
 1603SOL    HW2 5709   1.234   6.529   3.380
 1604SOL     OW 5710   5.890   4.503   1.313
 1604SOL    HW1 5711   5.952   4.468   1.383
 1604SOL    HW2 5712   5.844   4.585   1.347
 1605SOL     OW 5713   6.536   5.567   1.341
 1605SOL    HW1 5714   6.572   5.574   1.248
 1605SOL    HW2 5715   6.464   5.497   1.343
 1606SOL     OW 5716   3.485   1.009   5.634
 1606SOL    HW1 5717   3.548   1.086   5.637
 1606SOL    HW2 5718   3.470   0.974   5.726
 1607SOL     OW 5719   4.302   1.040   1.148
 1607SOL    HW1 5720   4.248   1.100   1.206
 1607SOL    HW2 5721   4.384   1.011   1.197
 1608SOL     OW 5722   0.683   0.761   3.594
 1608SOL    HW1 5723   0.698   0.804   3.505
 1608SOL    HW2 5724   0.625   0.821   3.650
 1609SOL     OW 5725   4.289   0.074   0.327
 1609SOL    HW1 5726   4.294   0.019   0.411
 1609SOL    HW2 5727   4.200   0.061   0.283
 1610SOL     OW 5728   5.925   4.803   6.555
 1610SOL    HW1 5729   6.012   4.755   6.548
 1610SOL    HW2 5730   5.918   4.872   6.483
 1611SOL     OW 5731   2.334   3.583   0.851
 1611SOL    HW1 5732   2.271   3.660   0.851
 1611SOL    HW2 5733   2.335   3.540   0.941
 1612SOL     OW 5734   2.746   6.838   6.398
 1612SOL    HW1 5735   2.817   6.896   6.359
 1612SOL    HW2 5736   2.750   6.843   6.498
 1613SOL     OW 5737   1.602   4.955   2.017
 1613SOL    HW1 5738   1.629   4.881   1.955
 1613SOL    HW2 5739   1.622   5.043   1.975
 1614SOL     OW 5740   5.604   3.414   0.190
 1614SOL    HW1 5741   5.663   3.460   0.256
 1614SOL    HW2 5742   5.659   3.358   0.128
 1615SOL     OW 5743   5.646   4.929   0.748
 1615SOL    HW1 5744   5.595   5.001   0.795
 1615SOL    HW2 5745   5.587   4.849   0.735
 1616SOL     OW 5746   2.950   1.240   5.043
 1616SOL    HW1 5747   3.019   1.264   4.975
 1616SOL    HW2 5748   2.867   1.293   5.026
 1617SOL     OW 5749   6.279   6.968   2.725
 1617SOL    HW1 5750   6.262   6.957   2.627
 1617SOL    HW2 5751   6.374   6.995   2.740
 1618SOL     OW 5752   1.747   4.464   1.995
 1618SOL    HW1 5753   1.726   4.466   1.897
 1618SOL    HW2 5754   1.723   4.374   2.032
 1619SOL     OW 5755   1.496   3.565   2.095
 1619SOL    HW1 5756   1.492   3.546   2.193
 1619SOL    HW2 5757   1.589   3.591   2.070
 1620SOL     OW 5758   2.719   4.825   1.915
 1620SOL    HW1 5759   2.778   4.905   1.926
 1620SOL    HW2 5760   2.770   4.742   1.938
 1621SOL     OW 5761   0.346   1.118   0.497
 1621SOL    HW1 5762   0.422   1.122   0.562
 1621SOL    HW2 5763   0.263   1.087   0.543
 1622SOL     OW 5764   0.644   3.109   4.836
 1622SOL    HW1 5765   0.610   3.096   4.743
 1622SOL    HW2 5766   0.686   3.024   4.868
 1623SOL     OW 5767   2.178   3.180   4.927
 1623SOL    HW1 5768   2.142   3.238   5.001
 1623SOL    HW2 5769   2.256   3.128   4.960
 1624SOL     OW 5770   2.792   0.760   5.126
 1624SOL    HW1 5771   2.841   0.846   5.142
 1624SOL    HW2 5772   2.739   0.768   5.042
 1625SOL     OW 5773   0.987   5.306   0.411
 1625SOL    HW1 5774   1.030   5.222   0.381
 1625SOL    HW2 5775   0.922   5.286   0.485
 1626SOL     OW 5776   4.302   2.058   0.103
 1626SOL    HW1 5777   4.287   2.141   0.049
 1626SOL    HW2 5778   4.237   2.055   0.179
 1627SOL     OW 5779   5.957   3.649   3.132
 1627SOL    HW1 5780   5.988   3.580   3.067
 1627SOL    HW2 5781   5.878   3.614   3.182
 1628SOL     OW 5782   4.661   4.161   6.969
 1628SOL    HW1 5783   4.749   4.208   6.973
 1628SOL    HW2 5784   4.676   4.065   6.946
 1629SOL     OW 5785   2.806   0.930   3.932
 1629SOL    HW1 5786   2.866   1.005   3.905
 1629SOL    HW2 5787   2.861   0.848   3.949
 1630SOL     OW 5788   1.170   5.099   5.358
 1630SOL    HW1 5789   1.236   5.025   5.345
 1630SOL    HW2 5790   1.219   5.187   5.359
 1631SOL     OW 5791   1.331   2.992   6.746
 1631SOL    HW1 5792   1.374   2.959   6.661
 1631SOL    HW2 5793   1.276   2.919   6.786
 1632SOL     OW 5794   6.759   2.324   7.011
 1632SOL    HW1 5795   6.749   2.365   6.921
 1632SOL    HW2 5796   6.778   2.226   7.002
 1633SOL     OW 5797   5.360   3.477   4.459
 1633SOL    HW1 5798   5.309   3.481   4.545
 1633SOL    HW2 5799   5.379   3.569   4.427
 1634SOL     OW 5800   4.500   5.663   4.881
 1634SOL    HW1 5801   4.489   5.613   4.967
 1634SOL    HW2 5802   4.414   5.709   4.858
 1635SOL     OW 5803   0.308   4.819   6.025
 1635SOL    HW1 5804   0.253   4.755   5.971
 1635SOL    HW2 5805   0.347   4.772   6.104
 1636SOL     OW 5806   3.036   4.315   1.666
 1636SOL    HW1 5807   3.001   4.401   1.703
 1636SOL    HW2 5808   2.986   4.239   1.705
 1637SOL     OW 5809   1.046   0.607   2.612
 1637SOL    HW1 5810   0.957   0.652   2.625
 1637SOL    HW2 5811   1.085   0.584   2.701
 1638SOL     OW 5812   0.342   4.385   3.508
 1638SOL    HW1 5813   0.417   4.340   3.557
 1638SOL    HW2 5814   0.281   4.316   3.470
 1639SOL     OW 5815   5.120   0.142   2.444
 1639SOL    HW1 5816   5.068   0.058   2.427
 1639SOL    HW2 5817   5.178   0.130   2.524
 1640SOL     OW 5818   6.013   1.055   0.259
 1640SOL    HW1 5819   6.028   0.960   0.233
 1640SOL    HW2 5820   6.100   1.104   0.258
 1641SOL     OW 5821   4.713   2.408   3.428
 1641SOL    HW1 5822   4.648   2.476   3.395
 1641SOL    HW2 5823   4.787   2.397   3.362
 1642SOL     OW 5824   5.958   3.667   6.289
 1642SOL    HW1 5825   5.993   3.575   6.305
 1642SOL    HW2 5826   5.984   3.727   6.364
 1643SOL     OW 5827   3.176   4.918   4.818
 1643SOL    HW1 5828   3.231   4.836   4.833
 1643SOL    HW2 5829   3.091   4.911   4.869
 1644SOL     OW 5830   6.289   3.601   0.593
 1644SOL    HW1 5831   6.191   3.598   0.610
 1644SOL    HW2 5832   6.306   3.630   0.499
 1645SOL     OW 5833   3.187   5.484   5.649
 1645SOL    HW1 5834   3.088   5.490   5.635
 1645SOL    HW2 5835   3.220   5.570   5.688
 1646SOL     OW 5836   2.839   6.066   0.429
 1646SOL    HW1 5837   2.930   6.038   0.397
 1646SOL    HW2 5838   2.841   6.076   0.529
 1647SOL     OW 5839   5.621   2.794   4.663
 1647SOL    HW1 5840   5.643   2.700   4.639
 1647SOL    HW2 5841   5.535   2.821   4.618
 1648SOL     OW 5842   5.569   5.245   0.535
 1648SOL    HW1 5843   5.487   5.243   0.593
 1648SOL    HW2 5844   5.632   5.315   0.569
 1649SOL     OW 5845   3.187   0.870   4.651
 1649SOL    HW1 5846   3.122   0.896   4.580
 1649SOL    HW2 5847   3.153   0.901   4.740
 1650SOL     OW 5848   1.830   6.037   5.462
 1650SOL    HW1 5849   1.809   6.028   5.560
 1650SOL    HW2 5850   1.864   5.950   5.427
 1651SOL     OW 5851   0.849   2.044   1.382
 1651SOL    HW1 5852   0.838   2.112   1.310
 1651SOL    HW2 5853   0.774   2.052   1.448
 1652SOL     OW 5854   1.119   3.757   2.565
 1652SOL    HW1 5855   1.085   3.681   2.509
 1652SOL    HW2 5856   1.137   3.724   2.658
 1653SOL     OW 5857   1.141   6.969   0.993
 1653SOL    HW1 5858   1.148   6.876   1.029
 1653SOL    HW2 5859   1.197   0.010   1.048
 1654SOL     OW 5860   0.509   3.770   1.208
 1654SOL    HW1 5861   0.554   3.684   1.183
 1654SOL    HW2 5862   0.544   3.844   1.149
 1655SOL     OW 5863   6.945   2.385   5.394
 1655SOL    HW1 5864   6.914   2.315   5.459
 1655SOL    HW2 5865   7.015   2.345   5.335
 1656SOL     OW 5866   2.663   4.655   2.394
 1656SOL    HW1 5867   2.604   4.654   2.314
 1656SOL    HW2 5868   2.758   4.647   2.365
 1657SOL     OW 5869   0.125   1.287   3.498
 1657SOL    HW1 5870   0.142   1.249   3.407
 1657SOL    HW2 5871   0.028   1.283   3.519
 1658SOL     OW 5872   0.640   5.989   0.992
 1658SOL    HW1 5873   0.661   6.043   0.911
 1658SOL    HW2 5874   0.555   6.023   1.033
 1659SOL     OW 5875   3.810   0.377   6.047
 1659SOL    HW1 5876   3.737   0.311   6.063
 1659SOL    HW2 5877   3.777   0.470   6.062
 1660SOL     OW 5878   1.038   5.439   4.061
 1660SOL    HW1 5879   1.006   5.475   4.149
 1660SOL    HW2 5880   1.069   5.344   4.074
 1661SOL     OW 5881   2.542   0.795   1.991
 1661SOL    HW1 5882   2.619   0.775   2.051
 1661SOL    HW2 5883   2.550   0.741   1.907
 1662SOL     OW 5884   6.443   0.563   4.269
 1662SOL    HW1 5885   6.468   0.482   4.323
 1662SOL    HW2 5886   6.434   0.642   4.330
 1663SOL     OW 5887   4.403   5.773   2.321
 1663SOL    HW1 5888   4.326   5.743   2.377
 1663SOL    HW2 5889   4.440   5.859   2.357
 1664SOL     OW 5890   2.034   0.400   4.502
 1664SOL    HW1 5891   1.967   0.475   4.504
 1664SOL    HW2 5892   1.987   0.313   4.513
 1665SOL     OW 5893   0.143   1.863   2.905
 1665SOL    HW1 5894   0.217   1.904   2.852
 1665SOL    HW2 5895   0.178   1.833   2.994
 1666SOL     OW 5896   5.321   2.753   6.930
 1666SOL    HW1 5897   5.359   2.786   7.017
 1666SOL    HW2 5898   5.350   2.658   6.916
 1667SOL     OW 5899   7.011   5.644   1.451
 1667SOL    HW1 5900   6.930   5.650   1.393
 1667SOL    HW2 5901   0.066   5.603   1.400
 1668SOL     OW 5902   4.911   5.946   5.524
 1668SOL    HW1 5903   4.856   5.863   5.529
 1668SOL    HW2 5904   5.007   5.922   5.512
 1669SOL     OW 5905   6.866   5.622   6.482
 1669SOL    HW1 5906   6.821   5.701   6.525
 1669SOL    HW2 5907   6.965   5.629   6.495
 1670SOL     OW 5908   0.127   3.722   5.738
 1670SOL    HW1 5909   0.105   3.739   5.834
 1670SOL    HW2 5910   0.205   3.779   5.711
 1671SOL     OW 5911   5.253   1.387   1.364
 1671SOL    HW1 5912   5.347   1.354   1.374
 1671SOL    HW2 5913   5.240   1.468   1.421
 1672SOL     OW 5914   1.841   2.891   1.162
 1672SOL    HW1 5915   1.936   2.921   1.164
 1672SOL    HW2 5916   1.830   2.809   1.219
 1673SOL     OW 5917   0.543   1.894   4.473
 1673SOL    HW1 5918   0.614   1.923   4.409
 1673SOL    HW2 5919   0.520   1.798   4.456
 1674SOL     OW 5920   0.754   3.548   2.696
 1674SOL    HW1 5921   0.768   3.637   2.741
 1674SOL    HW2 5922   0.672   3.504   2.734
 1675SOL     OW 5923   4.836   0.104   6.479
 1675SOL    HW1 5924   4.829   0.032   6.410
 1675SOL    HW2 5925   4.915   0.086   6.538
 1676SOL     OW 5926   1.808   2.534   1.894
 1676SOL    HW1 5927   1.894   2.585   1.892
 1676SOL    HW2 5928   1.756   2.553   1.811
 1677SOL     OW 5929   2.981   3.659   5.028
 1677SOL    HW1 5930   2.968   3.560   5.017
 1677SOL    HW2 5931   3.075   3.683   5.004
 1678SOL     OW 5932   4.819   4.085   4.486
 1678SOL    HW1 5933   4.827   4.060   4.389
 1678SOL    HW2 5934   4.833   4.183   4.496
 1679SOL     OW 5935   2.586   2.334   4.120
 1679SOL    HW1 5936   2.523   2.410   4.112
 1679SOL    HW2 5937   2.557   2.259   4.060
 1680SOL     OW 5938   0.152   3.115   4.716
 1680SOL    HW1 5939   0.127   3.075   4.628
 1680SOL    HW2 5940   0.208   3.050   4.767
 1681SOL     OW 5941   6.702   5.949   0.193
 1681SOL    HW1 5942   6.721   5.961   0.095
 1681SOL    HW2 5943   6.650   5.865   0.207
 1682SOL     OW 5944   1.080   0.879   4.300
 1682SOL    HW1 5945   1.134   0.963   4.306
 1682SOL    HW2 5946   1.101   0.833   4.214
 1683SOL     OW 5947   4.815   5.178   1.560
 1683SOL    HW1 5948   4.744   5.182   1.630
 1683SOL    HW2 5949   4.866   5.093   1.569
 1684SOL     OW 5950   1.642   5.750   2.312
 1684SOL    HW1 5951   1.714   5.709   2.368
 1684SOL    HW2 5952   1.682   5.789   2.229
 1685SOL     OW 5953   2.513   0.975   5.386
 1685SOL    HW1 5954   2.597   0.962   5.440
 1685SOL    HW2 5955   2.537   0.977   5.289
 1686SOL     OW 5956   2.925   5.860   5.145
 1686SOL    HW1 5957   2.878   5.772   5.150
 1686SOL    HW2 5958   2.897   5.908   5.061
 1687SOL     OW 5959   2.129   3.924   1.477
 1687SOL    HW1 5960   2.098   3.875   1.559
 1687SOL    HW2 5961   2.194   3.867   1.427
 1688SOL     OW 5962   1.965   2.412   4.213
 1688SOL    HW1 5963   1.925   2.335   4.262
 1688SOL    HW2 5964   2.060   2.391   4.190
 1689SOL     OW 5965   5.957   1.699   2.721
 1689SOL    HW1 5966   5.984   1.664   2.632
 1689SOL    HW2 5967   6.025   1.764   2.754
 1690SOL     OW 5968   1.554   2.948   3.637
 1690SOL    HW1 5969   1.484   2.916   3.574
 1690SOL    HW2 5970   1.575   3.044   3.617
 1691SOL     OW 5971   5.743   3.836   3.323
 1691SOL    HW1 5972   5.801   3.770   3.370
 1691SOL    HW2 5973   5.692   3.789   3.251
 1692SOL     OW 5974   5.557   6.920   1.348
 1692SOL    HW1 5975   5.652   6.906   1.377
 1692SOL    HW2 5976   5.508   6.832   1.351
 1693SOL     OW 5977   0.294   2.357   1.642
 1693SOL    HW1 5978   0.264   2.268   1.608
 1693SOL    HW2 5979   0.365   2.343   1.711
 1694SOL     OW 5980   5.318   0.364   2.743
 1694SOL    HW1 5981   5.232   0.394   2.702
 1694SOL    HW2 5982   5.335   0.416   2.826
 1695SOL     OW 5983   3.212   1.294   5.620
 1695SOL    HW1 5984   3.225   1.295   5.719
 1695SOL    HW2 5985   3.183   1.203   5.591
 1696SOL     OW 5986   4.736   4.373   0.773
 1696SOL    HW1 5987   4.639   4.362   0.755
 1696SOL    HW2 5988   4.759   4.470   0.773
 1697SOL     OW 5989   5.511   0.119   0.618
 1697SOL    HW1 5990   5.577   0.174   0.669
 1697SOL    HW2 5991   5.548   0.026   0.607
 1698SOL     OW 5992   4.326   0.399   0.239
 1698SOL    HW1 5993   4.362   0.471   0.179
 1698SOL    HW2 5994   4.353   0.309   0.203
 1699SOL     OW 5995   1.517   0.552   0.682
 1699SOL    HW1 5996   1.421   0.569   0.661
 1699SOL    HW2 5997   1.544   0.462   0.648
 1700SOL     OW 5998   5.504   2.769   3.111
 1700SOL    HW1 5999   5.562   2.704   3.161
 1700SOL    HW2 6000   5.411   2.764   3.146
 1701SOL     OW 6001   4.479   4.393   6.462
 1701SOL    HW1 6002   4.508   4.417   6.555
 1701SOL    HW2 6003   4.447   4.475   6.415
 1702SOL     OW 6004   7.014   2.660   0.177
 1702SOL    HW1 6005   0.029   2.567   0.178
 1702SOL    HW2 6006   6.924   2.662   0.221
 1703SOL     OW 6007   2.981   2.651   1.718
 1703SOL    HW1 6008   2.964   2.601   1.803
 1703SOL    HW2 6009   2.974   2.588   1.641
 1704SOL     OW 6010   0.974   2.366   0.771
 1704SOL    HW1 6011   1.016   2.427   0.705
 1704SOL    HW2 6012   0.887   2.403   0.802
 1705SOL     OW 6013   3.485   1.790   1.700
 1705SOL    HW1 6014   3.412   1.756   1.641
 1705SOL    HW2 6015   3.453   1.793   1.795
 1706SOL     OW 6016   4.619   1.134   2.338
 1706SOL    HW1 6017   4.598   1.231   2.337
 1706SOL    HW2 6018   4.573   1.089   2.262
 1707SOL     OW 6019   5.426   2.255   1.962
 1707SOL    HW1 6020   5.434   2.186   1.891
 1707SOL    HW2 6021   5.495   2.239   2.033
 1708SOL     OW 6022   5.227   5.089   2.053
 1708SOL    HW1 6023   5.243   5.070   2.150
 1708SOL    HW2 6024   5.133   5.121   2.041
 1709SOL     OW 6025   3.231   5.512   2.205
 1709SOL    HW1 6026   3.309   5.502   2.143
 1709SOL    HW2 6027   3.171   5.433   2.195
 1710SOL     OW 6028   5.322   5.377   4.187
 1710SOL    HW1 6029   5.279   5.381   4.097
 1710SOL    HW2 6030   5.252   5.391   4.257
 1711SOL     OW 6031   0.765   4.796   4.366
 1711SOL    HW1 6032   0.723   4.773   4.454
 1711SOL    HW2 6033   0.839   4.731   4.347
 1712SOL     OW 6034   0.087   2.570   5.852
 1712SOL    HW1 6035   0.018   2.610   5.913
 1712SOL    HW2 6036   0.177   2.576   5.896
 1713SOL     OW 6037   5.135   2.763   1.704
 1713SOL    HW1 6038   5.181   2.677   1.727
 1713SOL    HW2 6039   5.041   2.744   1.678
 1714SOL     OW 6040   3.397   2.058   5.703
 1714SOL    HW1 6041   3.360   1.977   5.658
 1714SOL    HW2 6042   3.334   2.135   5.691
 1715SOL     OW 6043   0.274   5.686   2.844
 1715SOL    HW1 6044   0.184   5.721   2.870
 1715SOL    HW2 6045   0.298   5.719   2.753
 1716SOL     OW 6046   4.838   6.663   3.076
 1716SOL    HW1 6047   4.862   6.580   3.025
 1716SOL    HW2 6048   4.738   6.670   3.082
 1717SOL     OW 6049   2.276   6.428   5.774
 1717SOL    HW1 6050   2.213   6.504   5.789
 1717SOL    HW2 6051   2.269   6.363   5.850
 1718SOL     OW 6052   2.182   1.853   1.197
 1718SOL    HW1 6053   2.097   1.898   1.223
 1718SOL    HW2 6054   2.205   1.879   1.103
 1719SOL     OW 6055   1.876   3.324   0.557
 1719SOL    HW1 6056   1.776   3.325   0.567
 1719SOL    HW2 6057   1.918   3.362   0.639
 1720SOL     OW 6058   0.300   2.557   6.835
 1720SOL    HW1 6059   0.335   2.648   6.810
 1720SOL    HW2 6060   0.323   2.537   6.930
 1721SOL     OW 6061   1.435   6.250   1.465
 1721SOL    HW1 6062   1.393   6.340   1.457
 1721SOL    HW2 6063   1.524   6.251   1.418
 1722SOL     OW 6064   3.751   1.441   3.968
 1722SOL    HW1 6065   3.748   1.517   4.033
 1722SOL    HW2 6066   3.818   1.373   3.999
 1723SOL     OW 6067   5.962   2.613   2.894
 1723SOL    HW1 6068   5.873   2.654   2.913
 1723SOL    HW2 6069   5.951   2.535   2.832
 1724SOL     OW 6070   6.792   2.961   1.239
 1724SOL    HW1 6071   6.842   2.875   1.234
 1724SOL    HW2 6072   6.789   2.993   1.334
 1725SOL     OW 6073   1.874   4.945   6.394
 1725SOL    HW1 6074   1.972   4.964   6.386
 1725SOL    HW2 6075   1.833   5.006   6.461
 1726SOL     OW 6076   5.492   4.530   5.207
 1726SOL    HW1 6077   5.521   4.625   5.222
 1726SOL    HW2 6078   5.492   4.482   5.295
 1727SOL     OW 6079   3.555   3.111   4.074
 1727SOL    HW1 6080   3.652   3.087   4.070
 1727SOL    HW2 6081   3.543   3.187   4.138
 1728SOL     OW 6082   4.723   4.932   5.351
 1728SOL    HW1 6083   4.735   4.897   5.444
 1728SOL    HW2 6084   4.811   4.959   5.314
 1729SOL     OW 6085   2.507   4.450   3.253
 1729SOL    HW1 6086   2.590   4.499   3.278
 1729SOL    HW2 6087   2.462   4.495   3.176
 1730SOL     OW 6088   0.962   6.984   5.701
 1730SOL    HW1 6089   0.994   6.942   5.786
 1730SOL    HW2 6090   0.886   6.930   5.664
 1731SOL     OW 6091   6.758   3.882   2.954
 1731SOL    HW1 6092   6.697   3.864   3.031
 1731SOL    HW2 6093   6.831   3.814   2.952
 1732SOL     OW 6094   2.233   4.989   5.684
 1732SOL    HW1 6095   2.327   4.969   5.712
 1732SOL    HW2 6096   2.229   4.998   5.585
 1733SOL     OW 6097   1.766   4.199   1.462
 1733SOL    HW1 6098   1.711   4.158   1.535
 1733SOL    HW2 6099   1.713   4.271   1.416
 1734SOL     OW 6100   4.375   3.030   1.195
 1734SOL    HW1 6101   4.412   3.075   1.276
 1734SOL    HW2 6102   4.448   2.983   1.146
 1735SOL     OW 6103   5.279   6.124   0.797
 1735SOL    HW1 6104   5.230   6.089   0.877
 1735SOL    HW2 6105   5.248   6.216   0.776
 1736SOL     OW 6106   3.309   3.045   0.375
 1736SOL    HW1 6107   3.212   3.049   0.397
 1736SOL    HW2 6108   3.354   3.129   0.406
 1737SOL     OW 6109   2.889   1.196   4.125
 1737SOL    HW1 6110   2.958   1.213   4.196
 1737SOL    HW2 6111   2.935   1.188   4.036
 1738SOL     OW 6112   2.166   2.208   3.872
 1738SOL    HW1 6113   2.142   2.154   3.792
 1738SOL    HW2 6114   2.146   2.305   3.854
 1739SOL     OW 6115   0.268   1.941   5.443
 1739SOL    HW1 6116   0.322   1.945   5.528
 1739SOL    HW2 6117   0.323   1.903   5.370
 1740SOL     OW 6118   6.863   1.941   5.621
 1740SOL    HW1 6119   6.940   1.917   5.562
 1740SOL    HW2 6120   6.877   1.904   5.712
 1741SOL     OW 6121   2.254   1.149   3.806
 1741SOL    HW1 6122   2.337   1.178   3.854
 1741SOL    HW2 6123   2.262   1.052   3.781
 1742SOL     OW 6124   5.578   0.670   6.014
 1742SOL    HW1 6125   5.593   0.734   5.938
 1742SOL    HW2 6126   5.660   0.666   6.071
 1743SOL     OW 6127   1.090   2.292   1.329
 1743SOL    HW1 6128   1.164   2.329   1.272
 1743SOL    HW2 6129   1.004   2.296   1.278
 1744SOL     OW 6130   6.848   1.750   2.337
 1744SOL    HW1 6131   6.750   1.731   2.339
 1744SOL    HW2 6132   6.889   1.728   2.425
 1745SOL     OW 6133   6.223   6.544   2.669
 1745SOL    HW1 6134   6.242   6.476   2.598
 1745SOL    HW2 6135   6.174   6.621   2.630
 1746SOL     OW 6136   1.982   4.820   4.780
 1746SOL    HW1 6137   1.903   4.823   4.841
 1746SOL    HW2 6138   2.025   4.910   4.777
 1747SOL     OW 6139   5.890   1.950   2.462
 1747SOL    HW1 6140   5.937   1.862   2.453
 1747SOL    HW2 6141   5.862   1.963   2.558
 1748SOL     OW 6142   0.936   0.516   4.826
 1748SOL    HW1 6143   0.878   0.487   4.750
 1748SOL    HW2 6144   0.928   0.449   4.901
 1749SOL     OW 6145   2.818   0.311   4.903
 1749SOL    HW1 6146   2.730   0.359   4.903
 1749SOL    HW2 6147   2.873   0.342   4.825
 1750SOL     OW 6148   5.222   6.914   4.137
 1750SOL    HW1 6149   5.208   6.933   4.234
 1750SOL    HW2 6150   5.317   6.933   4.113
 1751SOL     OW 6151   4.058   6.447   5.055
 1751SOL    HW1 6152   4.109   6.480   5.135
 1751SOL    HW2 6153   4.076   6.349   5.042
 1752SOL     OW 6154   0.027   2.073   1.191
 1752SOL    HW1 6155   0.108   2.132   1.185
 1752SOL    HW2 6156   6.966   2.126   1.167
 1753SOL     OW 6157   0.256   1.351   0.814
 1753SOL    HW1 6158   0.256   1.429   0.751
 1753SOL    HW2 6159   0.175   1.295   0.797
 1754SOL     OW 6160   1.976   4.297   0.549
 1754SOL    HW1 6161   1.932   4.334   0.468
 1754SOL    HW2 6162   2.075   4.310   0.542
 1755SOL     OW 6163   0.057   6.030   2.110
 1755SOL    HW1 6164   7.006   6.098   2.107
 1755SOL    HW2 6165   0.075   5.997   2.017
 1756SOL     OW 6166   4.193   5.869   5.665
 1756SOL    HW1 6167   4.108   5.896   5.620
 1756SOL    HW2 6168   4.207   5.771   5.656
 1757SOL     OW 6169   2.766   5.478   4.874
 1757SOL    HW1 6170   2.832   5.551   4.891
 1757SOL    HW2 6171   2.741   5.435   4.961
 1758SOL     OW 6172   1.855   0.192   4.153
 1758SOL    HW1 6173   1.954   0.201   4.151
 1758SOL    HW2 6174   1.822   0.203   4.247
 1759SOL     OW 6175   1.832   5.408   6.358
 1759SOL    HW1 6176   1.733   5.420   6.347
 1759SOL    HW2 6177   1.876   5.497   6.363
 1760SOL     OW 6178   5.472   1.792   2.852
 1760SOL    HW1 6179   5.554   1.790   2.796
 1760SOL    HW2 6180   5.489   1.846   2.934
 1761SOL     OW 6181   0.009   0.068   0.898
 1761SOL    HW1 6182   0.037   0.150   0.949
 1761SOL    HW2 6183   0.048   0.070   0.807
 1762SOL     OW 6184   0.199   1.205   5.198
 1762SOL    HW1 6185   0.285   1.158   5.179
 1762SOL    HW2 6186   0.124   1.139   5.195
 1763SOL     OW 6187   1.516   3.658   3.617
 1763SOL    HW1 6188   1.526   3.733   3.683
 1763SOL    HW2 6189   1.509   3.697   3.525
 1764SOL     OW 6190   2.158   3.767   2.669
 1764SOL    HW1 6191   2.078   3.811   2.711
 1764SOL    HW2 6192   2.188   3.691   2.727
 1765SOL     OW 6193   3.576   1.066   0.923
 1765SOL    HW1 6194   3.674   1.053   0.939
 1765SOL    HW2 6195   3.534   1.110   1.002
 1766SOL     OW 6196   4.731   4.328   2.842
 1766SOL    HW1 6197   4.736   4.284   2.753
 1766SOL    HW2 6198   4.800   4.287   2.903
 1767SOL     OW 6199   0.221   3.459   3.237
 1767SOL    HW1 6200   0.235   3.361   3.229
 1767SOL    HW2 6201   0.291   3.497   3.298
 1768SOL     OW 6202   4.339   1.307   5.818
 1768SOL    HW1 6203   4.378   1.292   5.727
 1768SOL    HW2 6204   4.367   1.233   5.879
 1769SOL     OW 6205   4.403   2.216   5.809
 1769SOL    HW1 6206   4.437   2.124   5.792
 1769SOL    HW2 6207   4.446   2.253   5.891
 1770SOL     OW 6208   6.702   4.457   4.397
 1770SOL    HW1 6209   6.786   4.433   4.446
 1770SOL    HW2 6210   6.654   4.374   4.371
 1771SOL     OW 6211   1.889   5.019   0.185
 1771SOL    HW1 6212   1.942   5.069   0.116
 1771SOL    HW2 6213   1.829   5.082   0.233
 1772SOL     OW 6214   3.334   0.063   3.235
 1772SOL    HW1 6215   3.355   7.015   3.304
 1772SOL    HW2 6216   3.255   0.118   3.265
 1773SOL     OW 6217   3.379   4.008   6.775
 1773SOL    HW1 6218   3.352   4.100   6.747
 1773SOL    HW2 6219   3.434   4.013   6.858
 1774SOL     OW 6220   4.532   0.608   1.800
 1774SOL    HW1 6221   4.582   0.651   1.876
 1774SOL    HW2 6222   4.569   0.517   1.784
 1775SOL     OW 6223   1.979   5.780   4.397
 1775SOL    HW1 6224   1.907   5.798   4.464
 1775SOL    HW2 6225   2.052   5.727   4.439
 1776SOL     OW 6226   4.221   0.907   5.569
 1776SOL    HW1 6227   4.192   0.996   5.533
 1776SOL    HW2 6228   4.318   0.910   5.591
 1777SOL     OW 6229   3.184   5.791   5.908
 1777SOL    HW1 6230   3.200   5.775   5.811
 1777SOL    HW2 6231   3.143   5.881   5.920
 1778SOL     OW 6232   4.183   2.322   4.562
 1778SOL    HW1 6233   4.164   2.278   4.474
 1778SOL    HW2 6234   4.266   2.377   4.554
 1779SOL     OW 6235   4.280   2.057   3.961
 1779SOL    HW1 6236   4.222   2.053   3.880
 1779SOL    HW2 6237   4.271   1.972   4.013
 1780SOL     OW 6238   2.116   4.343   5.703
 1780SOL    HW1 6239   2.088   4.413   5.637
 1780SOL    HW2 6240   2.214   4.352   5.722
 1781SOL     OW 6241   4.689   5.273   3.669
 1781SOL    HW1 6242   4.690   5.368   3.699
 1781SOL    HW2 6243   4.631   5.220   3.731
 1782SOL     OW 6244   2.846   1.607   3.191
 1782SOL    HW1 6245   2.817   1.571   3.279
 1782SOL    HW2 6246   2.945   1.620   3.191
 1783SOL     OW 6247   2.087   3.149   6.671
 1783SOL    HW1 6248   2.023   3.073   6.670
 1783SOL    HW2 6249   2.065   3.212   6.597
 1784SOL     OW 6250   2.998   0.771   3.060
 1784SOL    HW1 6251   3.036   0.729   3.142
 1784SOL    HW2 6252   3.044   0.858   3.042
 1785SOL     OW 6253   5.200   5.423   3.948
 1785SOL    HW1 6254   5.243   5.376   3.871
 1785SOL    HW2 6255   5.198   5.521   3.931
 1786SOL     OW 6256   1.429   2.976   0.690
 1786SOL    HW1 6257   1.521   2.946   0.666
 1786SOL    HW2 6258   1.378   2.900   0.730
 1787SOL     OW 6259   1.850   0.666   4.861
 1787SOL    HW1 6260   1.808   0.756   4.874
 1787SOL    HW2 6261   1.788   0.595   4.893
 1788SOL     OW 6262   3.128   3.980   0.102
 1788SOL    HW1 6263   3.150   3.994   0.199
 1788SOL    HW2 6264   3.045   4.031   0.079
 1789SOL     OW 6265   6.484   2.469   2.101
 1789SOL    HW1 6266   6.545   2.483   2.179
 1789SOL    HW2 6267   6.399   2.427   2.132
 1790SOL     OW 6268   4.071   6.232   4.745
 1790SOL    HW1 6269   4.155   6.252   4.796
 1790SOL    HW2 6270   4.088   6.245   4.647
 1791SOL     OW 6271   0.465   1.946   4.881
 1791SOL    HW1 6272   0.421   2.036   4.886
 1791SOL    HW2 6273   0.514   1.929   4.967
 1792SOL     OW 6274   0.281   1.649   4.560
 1792SOL    HW1 6275   0.216   1.669   4.488
 1792SOL    HW2 6276   0.263   1.708   4.639
 1793SOL     OW 6277   6.582   0.419   3.871
 1793SOL    HW1 6278   6.551   0.395   3.780
 1793SOL    HW2 6279   6.529   0.497   3.906
 1794SOL     OW 6280   5.230   6.493   6.567
 1794SOL    HW1 6281   5.182   6.578   6.547
 1794SOL    HW2 6282   5.177   6.439   6.633
 1795SOL     OW 6283   0.179   4.800   2.518
 1795SOL    HW1 6284   0.242   4.753   2.580
 1795SOL    HW2 6285   0.199   4.774   2.424
 1796SOL     OW 6286   1.854   1.446   4.282
 1796SOL    HW1 6287   1.776   1.503   4.307
 1796SOL    HW2 6288   1.887   1.397   4.362
 1797SOL     OW 6289   1.452   0.414   6.009
 1797SOL    HW1 6290   1.397   0.418   5.925
 1797SOL    HW2 6291   1.476   0.506   6.038
 1798SOL     OW 6292   4.819   2.640   5.088
 1798SOL    HW1 6293   4.812   2.648   5.187
 1798SOL    HW2 6294   4.744   2.690   5.044
 1799SOL     OW 6295   5.889   1.903   6.627
 1799SOL    HW1 6296   5.923   1.824   6.677
 1799SOL    HW2 6297   5.966   1.956   6.592
 1800SOL     OW 6298   5.064   4.727   3.885
 1800SOL    HW1 6299   5.046   4.722   3.983
 1800SOL    HW2 6300   4.978   4.729   3.834
 1801SOL     OW 6301   1.180   1.498   2.555
 1801SOL    HW1 6302   1.083   1.499   2.580
 1801SOL    HW2 6303   1.204   1.408   2.518
 1802SOL     OW 6304   5.355   5.329   2.610
 1802SOL    HW1 6305   5.390   5.238   2.629
 1802SOL    HW2 6306   5.402   5.396   2.668
 1803SOL     OW 6307   6.574   6.163   0.873
 1803SOL    HW1 6308   6.629   6.095   0.921
 1803SOL    HW2 6309   6.544   6.125   0.786
 1804SOL     OW 6310   3.033   3.370   5.436
 1804SOL    HW1 6311   2.959   3.302   5.430
 1804SOL    HW2 6312   3.105   3.346   5.371
 1805SOL     OW 6313   0.497   4.064   5.763
 1805SOL    HW1 6314   0.586   4.067   5.719
 1805SOL    HW2 6315   0.508   4.064   5.862
 1806SOL     OW 6316   1.476   1.727   1.752
 1806SOL    HW1 6317   1.532   1.711   1.833
 1806SOL    HW2 6318   1.379   1.721   1.777
 1807SOL     OW 6319   6.066   2.352   6.678
 1807SOL    HW1 6320   6.140   2.389   6.622
 1807SOL    HW2 6321   5.993   2.317   6.619
 1808SOL     OW 6322   6.213   4.328   4.869
 1808SOL    HW1 6323   6.200   4.373   4.958
 1808SOL    HW2 6324   6.125   4.322   4.822
 1809SOL     OW 6325   2.199   2.313   4.455
 1809SOL    HW1 6326   2.214   2.338   4.359
 1809SOL    HW2 6327   2.237   2.384   4.514
 1810SOL     OW 6328   2.160   0.346   5.252
 1810SOL    HW1 6329   2.117   0.336   5.163
 1810SOL    HW2 6330   2.255   0.375   5.240
 1811SOL     OW 6331   4.259   4.746   3.286
 1811SOL    HW1 6332   4.178   4.762   3.342
 1811SOL    HW2 6333   4.298   4.833   3.258
 1812SOL     OW 6334   4.553   0.248   5.848
 1812SOL    HW1 6335   4.621   0.283   5.783
 1812SOL    HW2 6336   4.594   0.241   5.938
 1813SOL     OW 6337   4.286   4.943   1.281
 1813SOL    HW1 6338   4.305   4.940   1.379
 1813SOL    HW2 6339   4.194   4.907   1.264
 1814SOL     OW 6340   6.554   1.087   0.377
 1814SOL    HW1 6341   6.526   1.183   0.379
 1814SOL    HW2 6342   6.478   1.031   0.342
 1815SOL     OW 6343   6.222   1.394   2.111
 1815SOL    HW1 6344   6.153   1.348   2.167
 1815SOL    HW2 6345   6.195   1.391   2.015
 1816SOL     OW 6346   1.689   4.809   0.930
 1816SOL    HW1 6347   1.764   4.875   0.938
 1816SOL    HW2 6348   1.660   4.780   1.021
 1817SOL     OW 6349   3.696   6.614   3.362
 1817SOL    HW1 6350   3.616   6.578   3.313
 1817SOL    HW2 6351   3.665   6.667   3.441
 1818SOL     OW 6352   2.431   5.914   1.227
 1818SOL    HW1 6353   2.422   6.009   1.196
 1818SOL    HW2 6354   2.457   5.856   1.151
 1819SOL     OW 6355   1.169   5.872   1.739
 1819SOL    HW1 6356   1.210   5.784   1.762
 1819SOL    HW2 6357   1.126   5.866   1.649
 1820SOL     OW 6358   3.025   0.158   2.364
 1820SOL    HW1 6359   3.004   0.061   2.351
 1820SOL    HW2 6360   2.946   0.213   2.334
 1821SOL     OW 6361   2.590   1.060   1.895
 1821SOL    HW1 6362   2.575   0.968   1.932
 1821SOL    HW2 6363   2.507   1.115   1.907
 1822SOL     OW 6364   1.090   2.961   1.103
 1822SOL    HW1 6365   1.153   2.969   1.181
 1822SOL    HW2 6366   1.072   2.864   1.085
 1823SOL     OW 6367   3.116   6.029   3.231
 1823SOL    HW1 6368   3.056   5.978   3.293
 1823SOL    HW2 6369   3.107   5.994   3.138
 1824SOL     OW 6370   3.483   3.390   0.402
 1824SOL    HW1 6371   3.419   3.389   0.480
 1824SOL    HW2 6372   3.431   3.378   0.318
 1825SOL     OW 6373   2.105   1.942   4.817
 1825SOL    HW1 6374   2.054   1.910   4.736
 1825SOL    HW2 6375   2.113   2.041   4.814
 1826SOL     OW 6376   3.782   1.587   1.228
 1826SOL    HW1 6377   3.783   1.488   1.214
 1826SOL    HW2 6378   3.777   1.607   1.326
 1827SOL     OW 6379   0.041   5.404   1.183
 1827SOL    HW1 6380   0.032   5.376   1.088
 1827SOL    HW2 6381   0.103   5.341   1.230
 1828SOL     OW 6382   1.808   2.328   0.642
 1828SOL    HW1 6383   1.857   2.328   0.555
 1828SOL    HW2 6384   1.734   2.395   0.638
 1829SOL     OW 6385   3.207   1.009   2.979
 1829SOL    HW1 6386   3.186   1.061   3.061
 1829SOL    HW2 6387   3.304   1.017   2.958
 1830SOL     OW 6388   5.709   6.374   4.123
 1830SOL    HW1 6389   5.799   6.339   4.150
 1830SOL    HW2 6390   5.712   6.474   4.117
 1831SOL     OW 6391   5.805   0.046   1.782
 1831SOL    HW1 6392   5.849   0.024   1.869
 1831SOL    HW2 6393   5.841   7.007   1.710
 1832SOL     OW 6394   4.549   1.901   1.662
 1832SOL    HW1 6395   4.502   1.897   1.750
 1832SOL    HW2 6396   4.501   1.843   1.596
 1833SOL     OW 6397   5.508   0.988   0.735
 1833SOL    HW1 6398   5.587   1.040   0.767
 1833SOL    HW2 6399   5.438   0.986   0.806
 1834SOL     OW 6400   2.394   3.406   0.650
 1834SOL    HW1 6401   2.380   3.470   0.574
 1834SOL    HW2 6402   2.380   3.453   0.737
 1835SOL     OW 6403   0.486   4.864   2.407
 1835SOL    HW1 6404   0.486   4.943   2.346
 1835SOL    HW2 6405   0.457   4.893   2.499
 1836SOL     OW 6406   5.351   1.871   1.374
 1836SOL    HW1 6407   5.314   1.912   1.457
 1836SOL    HW2 6408   5.295   1.898   1.295
 1837SOL     OW 6409   1.100   0.233   4.627
 1837SOL    HW1 6410   1.009   0.194   4.646
 1837SOL    HW2 6411   1.094   0.297   4.551
 1838SOL     OW 6412   6.580   1.210   5.824
 1838SOL    HW1 6413   6.581   1.283   5.756
 1838SOL    HW2 6414   6.620   1.127   5.785
 1839SOL     OW 6415   6.936   2.238   4.939
 1839SOL    HW1 6416   6.985   2.315   4.980
 1839SOL    HW2 6417   6.980   2.152   4.964
 1840SOL     OW 6418   3.662   0.387   1.682
 1840SOL    HW1 6419   3.683   0.378   1.779
 1840SOL    HW2 6420   3.579   0.441   1.671
 1841SOL     OW 6421   2.058   1.558   3.709
 1841SOL    HW1 6422   2.060   1.484   3.776
 1841SOL    HW2 6423   2.031   1.643   3.754
 1842SOL     OW 6424   1.336   5.766   0.183
 1842SOL    HW1 6425   1.410   5.720   0.232
 1842SOL    HW2 6426   1.345   5.865   0.192
 1843SOL     OW 6427   5.761   1.756   3.845
 1843SOL    HW1 6428   5.831   1.825   3.864
 1843SOL    HW2 6429   5.784   1.671   3.893
 1844SOL     OW 6430   3.303   6.250   5.328
 1844SOL    HW1 6431   3.360   6.267   5.408
 1844SOL    HW2 6432   3.210   6.231   5.357
 1845SOL     OW 6433   3.376   0.341   4.639
 1845SOL    HW1 6434   3.411   0.421   4.686
 1845SOL    HW2 6435   3.321   0.286   4.702
 1846SOL     OW 6436   3.206   1.482   1.894
 1846SOL    HW1 6437   3.284   1.447   1.842
 1846SOL    HW2 6438   3.151   1.541   1.836
 1847SOL     OW 6439   1.525   0.707   6.572
 1847SOL    HW1 6440   1.511   0.751   6.661
 1847SOL    HW2 6441   1.447   0.647   6.552
 1848SOL     OW 6442   2.049   6.216   3.439
 1848SOL    HW1 6443   1.976   6.149   3.449
 1848SOL    HW2 6444   2.048   6.278   3.517
 1849SOL     OW 6445   4.027   2.950   1.455
 1849SOL    HW1 6446   4.031   2.915   1.361
 1849SOL    HW2 6447   3.980   2.884   1.514
 1850SOL     OW 6448   0.455   2.632   2.468
 1850SOL    HW1 6449   0.417   2.651   2.378
 1850SOL    HW2 6450   0.483   2.717   2.512
 1851SOL     OW 6451   0.404   2.923   0.324
 1851SOL    HW1 6452   0.485   2.869   0.347
 1851SOL    HW2 6453   0.417   3.017   0.355
 1852SOL     OW 6454   6.609   4.023   2.327
 1852SOL    HW1 6455   6.527   4.030   2.385
 1852SOL    HW2 6456   6.684   3.983   2.380
 1853SOL     OW 6457   0.718   2.601   2.878
 1853SOL    HW1 6458   0.746   2.696   2.881
 1853SOL    HW2 6459   0.634   2.592   2.825
 1854SOL     OW 6460   2.486   5.425   3.208
 1854SOL    HW1 6461   2.396   5.470   3.205
 1854SOL    HW2 6462   2.490   5.363   3.286
 1855SOL     OW 6463   5.155   3.124   5.421
 1855SOL    HW1 6464   5.128   3.164   5.509
 1855SOL    HW2 6465   5.224   3.053   5.437
 1856SOL     OW 6466   5.406   4.014   5.980
 1856SOL    HW1 6467   5.379   3.988   5.887
 1856SOL    HW2 6468   5.506   4.010   5.987
 1857SOL     OW 6469   4.571   2.330   6.298
 1857SOL    HW1 6470   4.654   2.356   6.347
 1857SOL    HW2 6471   4.537   2.243   6.334
 1858SOL     OW 6472   5.554   3.898   2.844
 1858SOL    HW1 6473   5.647   3.879   2.874
 1858SOL    HW2 6474   5.505   3.812   2.831
 1859SOL     OW 6475   4.984   1.782   4.053
 1859SOL    HW1 6476   4.936   1.783   3.965
 1859SOL    HW2 6477   4.918   1.778   4.127
 1860SOL     OW 6478   0.434   1.064   5.454
 1860SOL    HW1 6479   0.470   1.157   5.451
 1860SOL    HW2 6480   0.467   1.017   5.536
 1861SOL     OW 6481   6.460   6.645   1.994
 1861SOL    HW1 6482   6.486   6.549   1.983
 1861SOL    HW2 6483   6.541   6.700   2.012
 1862SOL     OW 6484   3.432   0.104   6.932
 1862SOL    HW1 6485   3.435   0.179   6.865
 1862SOL    HW2 6486   3.341   0.100   6.973
 1863SOL     OW 6487   0.372   2.961   3.287
 1863SOL    HW1 6488   0.346   2.971   3.382
 1863SOL    HW2 6489   0.468   2.934   3.281
 1864SOL     OW 6490   1.670   6.472   5.349
 1864SOL    HW1 6491   1.631   6.520   5.271
 1864SOL    HW2 6492   1.667   6.373   5.332
 1865SOL     OW 6493   4.094   6.612   0.155
 1865SOL    HW1 6494   4.005   6.582   0.122
 1865SOL    HW2 6495   4.081   6.671   0.235
 1866SOL     OW 6496   6.008   4.981   3.566
 1866SOL    HW1 6497   6.083   5.041   3.539
 1866SOL    HW2 6498   5.981   4.923   3.488
 1867SOL     OW 6499   0.584   4.024   0.073
 1867SOL    HW1 6500   0.624   3.946   0.121
 1867SOL    HW2 6501   0.525   4.075   0.136
 1868SOL     OW 6502   4.684   3.405   6.411
 1868SOL    HW1 6503   4.608   3.382   6.350
 1868SOL    HW2 6504   4.653   3.399   6.506
 1869SOL     OW 6505   6.757   3.319   4.861
 1869SOL    HW1 6506   6.829   3.354   4.920
 1869SOL    HW2 6507   6.761   3.365   4.772
 1870SOL     OW 6508   1.826   2.769   4.628
 1870SOL    HW1 6509   1.847   2.697   4.561
 1870SOL    HW2 6510   1.905   2.829   4.640
 1871SOL     OW 6511   0.630   0.742   0.048
 1871SOL    HW1 6512   0.557   0.800   0.085
 1871SOL    HW2 6513   0.716   0.793   0.049
 1872SOL     OW 6514   4.548   1.694   0.257
 1872SOL    HW1 6515   4.520   1.783   0.291
 1872SOL    HW2 6516   4.615   1.706   0.184
 1873SOL     OW 6517   5.838   1.383   5.976
 1873SOL    HW1 6518   5.745   1.420   5.973
 1873SOL    HW2 6519   5.903   1.458   5.986
 1874SOL     OW 6520   2.128   0.964   0.193
 1874SOL    HW1 6521   2.080   1.023   0.259
 1874SOL    HW2 6522   2.226   0.975   0.205
 1875SOL     OW 6523   0.327   0.697   0.449
 1875SOL    HW1 6524   0.394   0.763   0.414
 1875SOL    HW2 6525   0.312   0.714   0.547
 1876SOL     OW 6526   2.908   6.249   5.897
 1876SOL    HW1 6527   2.975   6.198   5.842
 1876SOL    HW2 6528   2.954   6.323   5.946
 1877SOL     OW 6529   0.326   1.966   3.132
 1877SOL    HW1 6530   0.382   1.982   3.051
 1877SOL    HW2 6531   0.377   1.994   3.214
 1878SOL     OW 6532   6.229   3.186   4.178
 1878SOL    HW1 6533   6.198   3.271   4.135
 1878SOL    HW2 6534   6.324   3.198   4.208
 1879SOL     OW 6535   1.720   5.383   3.719
 1879SOL    HW1 6536   1.661   5.393   3.639
 1879SOL    HW2 6537   1.719   5.467   3.772
 1880SOL     OW 6538   6.828   1.690   4.181
 1880SOL    HW1 6539   6.756   1.659   4.118
 1880SOL    HW2 6540   6.834   1.626   4.258
 1881SOL     OW 6541   1.032   2.840   2.877
 1881SOL    HW1 6542   0.951   2.869   2.928
 1881SOL    HW2 6543   1.048   2.743   2.893
 1882SOL     OW 6544   0.983   3.834   6.890
 1882SOL    HW1 6545   0.959   3.739   6.872
 1882SOL    HW2 6546   0.959   3.891   6.812
 1883SOL     OW 6547   1.387   2.887   3.903
 1883SOL    HW1 6548   1.390   2.824   3.825
 1883SOL    HW2 6549   1.477   2.891   3.946
 1884SOL     OW 6550   5.750   2.654   6.685
 1884SOL    HW1 6551   5.729   2.584   6.617
 1884SOL    HW2 6552   5.834   2.629   6.733
 1885SOL     OW 6553   0.729   2.490   6.352
 1885SOL    HW1 6554   0.829   2.493   6.349
 1885SOL    HW2 6555   0.699   2.396   6.366
 1886SOL     OW 6556   2.126   1.065   1.715
 1886SOL    HW1 6557   2.057   1.027   1.652
 1886SOL    HW2 6558   2.217   1.047   1.679
 1887SOL     OW 6559   1.289   5.902   6.292
 1887SOL    HW1 6560   1.217   5.877   6.226
 1887SOL    HW2 6561   1.372   5.926   6.242
 1888SOL     OW 6562   3.007   2.368   6.573
 1888SOL    HW1 6563   2.916   2.348   6.608
 1888SOL    HW2 6564   3.075   2.313   6.622
 1889SOL     OW 6565   5.583   2.841   6.587
 1889SOL    HW1 6566   5.621   2.754   6.616
 1889SOL    HW2 6567   5.494   2.827   6.545
 1890SOL     OW 6568   1.425   5.672   5.168
 1890SOL    HW1 6569   1.424   5.679   5.068
 1890SOL    HW2 6570   1.486   5.598   5.195
 1891SOL     OW 6571   5.638   2.327   3.160
 1891SOL    HW1 6572   5.551   2.310   3.206
 1891SOL    HW2 6573   5.688   2.241   3.150
 1892SOL     OW 6574   3.579   0.691   0.853
 1892SOL    HW1 6575   3.520   0.730   0.783
 1892SOL    HW2 6576   3.643   0.761   0.886
 1893SOL     OW 6577   3.324   3.029   6.784
 1893SOL    HW1 6578   3.409   3.078   6.768
 1893SOL    HW2 6579   3.329   2.938   6.741
 1894SOL     OW 6580   3.750   3.682   3.062
 1894SOL    HW1 6581   3.817   3.629   3.010
 1894SOL    HW2 6582   3.774   3.681   3.159
 1895SOL     OW 6583   5.888   0.929   2.264
 1895SOL    HW1 6584   5.892   0.861   2.190
 1895SOL    HW2 6585   5.968   0.989   2.258
 1896SOL     OW 6586   0.501   0.584   2.122
 1896SOL    HW1 6587   0.459   0.493   2.123
 1896SOL    HW2 6588   0.582   0.585   2.181
 1897SOL     OW 6589   1.391   4.721   2.733
 1897SOL    HW1 6590   1.337   4.697   2.652
 1897SOL    HW2 6591   1.384   4.647   2.801
 1898SOL     OW 6592   3.155   4.844   2.745
 1898SOL    HW1 6593   3.112   4.841   2.835
 1898SOL    HW2 6594   3.086   4.860   2.674
 1899SOL     OW 6595   0.912   1.661   2.361
 1899SOL    HW1 6596   0.901   1.654   2.460
 1899SOL    HW2 6597   0.872   1.580   2.317
 1900SOL     OW 6598   1.221   0.201   5.995
 1900SOL    HW1 6599   1.292   0.144   5.954
 1900SOL    HW2 6600   1.222   0.292   5.952
 1901SOL     OW 6601   2.419   1.577   1.675
 1901SOL    HW1 6602   2.456   1.630   1.751
 1901SOL    HW2 6603   2.373   1.637   1.610
 1902SOL     OW 6604   2.503   2.391   4.850
 1902SOL    HW1 6605   2.590   2.372   4.805
 1902SOL    HW2 6606   2.506   2.356   4.943
 1903SOL     OW 6607   6.280   3.016   3.591
 1903SOL    HW1 6608   6.271   3.000   3.689
 1903SOL    HW2 6609   6.213   3.085   3.562
 1904SOL     OW 6610   5.775   6.620   4.717
 1904SOL    HW1 6611   5.755   6.575   4.630
 1904SOL    HW2 6612   5.851   6.684   4.704
 1905SOL     OW 6613   2.099   0.885   4.027
 1905SOL    HW1 6614   2.095   0.854   3.932
 1905SOL    HW2 6615   2.158   0.966   4.033
 1906SOL     OW 6616   2.298   0.067   5.350
 1906SOL    HW1 6617   2.286   7.014   5.283
 1906SOL    HW2 6618   2.372   0.127   5.320
 1907SOL     OW 6619   3.470   6.515   3.270
 1907SOL    HW1 6620   3.436   6.491   3.179
 1907SOL    HW2 6621   3.453   6.439   3.333
 1908SOL     OW 6622   3.965   0.354   5.315
 1908SOL    HW1 6623   3.942   0.302   5.233
 1908SOL    HW2 6624   4.056   0.393   5.305
 1909SOL     OW 6625   0.857   4.331   2.796
 1909SOL    HW1 6626   0.809   4.386   2.864
 1909SOL    HW2 6627   0.906   4.257   2.842
 1910SOL     OW 6628   6.819   2.994   6.343
 1910SOL    HW1 6629   6.802   2.955   6.433
 1910SOL    HW2 6630   6.740   3.049   6.315
 1911SOL     OW 6631   5.782   3.451   5.044
 1911SOL    HW1 6632   5.758   3.500   4.960
 1911SOL    HW2 6633   5.778   3.513   5.121
 1912SOL     OW 6634   2.844   6.944   1.045
 1912SOL    HW1 6635   2.876   6.852   1.067
 1912SOL    HW2 6636   2.915   7.011   1.069
 1913SOL     OW 6637   1.190   5.855   5.447
 1913SOL    HW1 6638   1.140   5.771   5.424
 1913SOL    HW2 6639   1.158   5.890   5.535
 1914SOL     OW 6640   3.957   3.072   6.804
 1914SOL    HW1 6641   3.925   3.006   6.872
 1914SOL    HW2 6642   3.953   3.164   6.843
 1915SOL     OW 6643   3.662   2.138   5.178
 1915SOL    HW1 6644   3.632   2.166   5.269
 1915SOL    HW2 6645   3.586   2.144   5.114
 1916SOL     OW 6646   3.496   5.739   1.271
 1916SOL    HW1 6647   3.484   5.653   1.220
 1916SOL    HW2 6648   3.407   5.775   1.297
 1917SOL     OW 6649   2.958   3.167   4.777
 1917SOL    HW1 6650   2.871   3.122   4.796
 1917SOL    HW2 6651   2.965   3.251   4.831
 1918SOL     OW 6652   0.661   1.129   5.811
 1918SOL    HW1 6653   0.718   1.147   5.890
 1918SOL    HW2 6654   0.687   1.190   5.736
 1919SOL     OW 6655   2.672   0.716   1.634
 1919SOL    HW1 6656   2.657   0.631   1.584
 1919SOL    HW2 6657   2.587   0.769   1.636
 1920SOL     OW 6658   1.874   4.790   2.644
 1920SOL    HW1 6659   1.838   4.705   2.682
 1920SOL    HW2 6660   1.855   4.865   2.707
 1921SOL     OW 6661   1.108   4.847   0.135
 1921SOL    HW1 6662   1.179   4.777   0.139
 1921SOL    HW2 6663   1.122   4.905   0.054
 1922SOL     OW 6664   2.450   4.449   0.821
 1922SOL    HW1 6665   2.498   4.375   0.868
 1922SOL    HW2 6666   2.424   4.519   0.888
 1923SOL     OW 6667   2.973   0.700   5.758
 1923SOL    HW1 6668   2.887   0.649   5.755
 1923SOL    HW2 6669   2.962   0.780   5.817
 1924SOL     OW 6670   4.299   5.296   1.271
 1924SOL    HW1 6671   4.321   5.392   1.289
 1924SOL    HW2 6672   4.352   5.237   1.333
 1925SOL     OW 6673   1.873   4.354   0.295
 1925SOL    HW1 6674   1.843   4.263   0.267
 1925SOL    HW2 6675   1.927   4.395   0.221
 1926SOL     OW 6676   2.481   6.722   3.252
 1926SOL    HW1 6677   2.577   6.703   3.235
 1926SOL    HW2 6678   2.466   6.739   3.349
 1927SOL     OW 6679   3.157   4.003   6.501
 1927SOL    HW1 6680   3.246   3.970   6.532
 1927SOL    HW2 6681   3.167   4.093   6.458
 1928SOL     OW 6682   6.457   4.364   5.745
 1928SOL    HW1 6683   6.553   4.341   5.730
 1928SOL    HW2 6684   6.449   4.418   5.829
 1929SOL     OW 6685   0.821   5.105   1.472
 1929SOL    HW1 6686   0.860   5.031   1.525
 1929SOL    HW2 6687   0.786   5.176   1.534
 1930SOL     OW 6688   3.688   3.709   6.764
 1930SOL    HW1 6689   3.669   3.688   6.668
 1930SOL    HW2 6690   3.609   3.687   6.820
 1931SOL     OW 6691   0.288   3.363   2.655
 1931SOL    HW1 6692   0.306   3.398   2.747
 1931SOL    HW2 6693   0.282   3.263   2.658
 1932SOL     OW 6694   4.942   3.585   3.292
 1932SOL    HW1 6695   5.021   3.559   3.348
 1932SOL    HW2 6696   4.919   3.510   3.231
 1933SOL     OW 6697   1.955   4.138   0.754
 1933SOL    HW1 6698   1.965   4.200   0.676
 1933SOL    HW2 6699   2.045   4.104   0.781
 1934SOL     OW 6700   0.591   6.811   5.050
 1934SOL    HW1 6701   0.606   6.756   5.133
 1934SOL    HW2 6702   0.588   6.751   4.971
 1935SOL     OW 6703   4.358   5.843   3.645
 1935SOL    HW1 6704   4.384   5.833   3.549
 1935SOL    HW2 6705   4.412   5.917   3.687
 1936SOL     OW 6706   5.901   3.668   3.999
 1936SOL    HW1 6707   5.971   3.677   3.929
 1936SOL    HW2 6708   5.811   3.686   3.958
 1937SOL     OW 6709   3.629   6.947   1.314
 1937SOL    HW1 6710   3.659   6.852   1.318
 1937SOL    HW2 6711   3.640   6.982   1.221
 1938SOL     OW 6712   1.710   1.961   1.354
 1938SOL    HW1 6713   1.640   2.030   1.372
 1938SOL    HW2 6714   1.729   1.910   1.438
 1939SOL     OW 6715   6.741   0.117   4.911
 1939SOL    HW1 6716   6.641   0.112   4.906
 1939SOL    HW2 6717   6.768   0.207   4.945
 1940SOL     OW 6718   5.097   4.759   0.791
 1940SOL    HW1 6719   5.073   4.771   0.695
 1940SOL    HW2 6720   5.109   4.662   0.810
 1941SOL     OW 6721   0.586   3.950   3.892
 1941SOL    HW1 6722   0.619   4.017   3.959
 1941SOL    HW2 6723   0.612   3.858   3.922
 1942SOL     OW 6724   5.477   1.167   1.112
 1942SOL    HW1 6725   5.482   1.213   1.200
 1942SOL    HW2 6726   5.530   1.083   1.114
 1943SOL     OW 6727   2.365   6.257   3.279
 1943SOL    HW1 6728   2.411   6.169   3.289
 1943SOL    HW2 6729   2.341   6.294   3.369
 1944SOL     OW 6730   6.374   2.876   6.983
 1944SOL    HW1 6731   6.423   2.961   6.966
 1944SOL    HW2 6732   6.397   2.842   0.054
 1945SOL     OW 6733   4.117   5.405   1.008
 1945SOL    HW1 6734   4.145   5.391   1.103
 1945SOL    HW2 6735   4.198   5.408   0.949
 1946SOL     OW 6736   6.665   0.080   1.139
 1946SOL    HW1 6737   6.762   0.092   1.160
 1946SOL    HW2 6738   6.611   0.145   1.194
 1947SOL     OW 6739   4.910   6.383   5.199
 1947SOL    HW1 6740   4.943   6.351   5.288
 1947SOL    HW2 6741   4.910   6.306   5.134
 1948SOL     OW 6742   5.599   5.377   3.908
 1948SOL    HW1 6743   5.567   5.288   3.876
 1948SOL    HW2 6744   5.559   5.449   3.851
 1949SOL     OW 6745   3.325   4.289   6.443
 1949SOL    HW1 6746   3.401   4.225   6.448
 1949SOL    HW2 6747   3.344   4.368   6.502
 1950SOL     OW 6748   3.811   3.899   0.100
 1950SOL    HW1 6749   3.863   3.921   0.018
 1950SOL    HW2 6750   3.816   3.800   0.116
 1951SOL     OW 6751   6.204   3.340   7.013
 1951SOL    HW1 6752   6.139   3.289   0.048
 1951SOL    HW2 6753   6.173   3.434   7.003
 1952SOL     OW 6754   4.837   3.215   0.828
 1952SOL    HW1 6755   4.877   3.161   0.902
 1952SOL    HW2 6756   4.838   3.162   0.744
 1953SOL     OW 6757   6.630   1.404   5.593
 1953SOL    HW1 6758   6.544   1.454   5.582
 1953SOL    HW2 6759   6.697   1.462   5.639
 1954SOL     OW 6760   6.225   0.650   2.818
 1954SOL    HW1 6761   6.255   0.732   2.770
 1954SOL    HW2 6762   6.285   0.632   2.896
 1955SOL     OW 6763   0.249   1.260   2.738
 1955SOL    HW1 6764   0.283   1.193   2.803
 1955SOL    HW2 6765   0.302   1.256   2.654
 1956SOL     OW 6766   5.012   0.051   2.852
 1956SOL    HW1 6767   4.941   0.026   2.918
 1956SOL    HW2 6768   5.099   0.062   2.900
 1957SOL     OW 6769   5.789   4.313   4.415
 1957SOL    HW1 6770   5.768   4.390   4.355
 1957SOL    HW2 6771   5.846   4.247   4.366
 1958SOL     OW 6772   5.053   2.113   2.088
 1958SOL    HW1 6773   5.091   2.202   2.064
 1958SOL    HW2 6774   4.991   2.082   2.015
 1959SOL     OW 6775   1.093   0.433   4.461
 1959SOL    HW1 6776   1.120   0.528   4.447
 1959SOL    HW2 6777   1.085   0.387   4.373
 1960SOL     OW 6778   6.696   4.493   2.337
 1960SOL    HW1 6779   6.681   4.500   2.435
 1960SOL    HW2 6780   6.774   4.550   2.310
 1961SOL     OW 6781   6.097   4.156   3.459
 1961SOL    HW1 6782   6.113   4.254   3.471
 1961SOL    HW2 6783   6.180   4.105   3.483
 1962SOL     OW 6784   1.618   6.647   3.664
 1962SOL    HW1 6785   1.563   6.710   3.717
 1962SOL    HW2 6786   1.703   6.628   3.712
 1963SOL     OW 6787   0.845   2.244   1.158
 1963SOL    HW1 6788   0.863   2.152   1.124
 1963SOL    HW2 6789   0.832   2.306   1.081
 1964SOL     OW 6790   4.680   4.772   0.650
 1964SOL    HW1 6791   4.591   4.794   0.690
 1964SOL    HW2 6792   4.746   4.758   0.724
 1965SOL     OW 6793   1.988   3.008   4.509
 1965SOL    HW1 6794   1.991   3.090   4.565
 1965SOL    HW2 6795   2.076   2.997   4.462
 1966SOL     OW 6796   0.177   6.464   0.992
 1966SOL    HW1 6797   0.171   6.562   0.973
 1966SOL    HW2 6798   0.087   6.423   0.984
 1967SOL     OW 6799   5.747   2.659   5.863
 1967SOL    HW1 6800   5.795   2.654   5.950
 1967SOL    HW2 6801   5.658   2.613   5.871
 1968SOL     OW 6802   1.704   6.303   6.148
 1968SOL    HW1 6803   1.787   6.261   6.110
 1968SOL    HW2 6804   1.723   6.340   6.239
 1969SOL     OW 6805   0.450   1.501   1.180
 1969SOL    HW1 6806   0.358   1.535   1.161
 1969SOL    HW2 6807   0.474   1.520   1.276
 1970SOL     OW 6808   2.597   6.447   5.954
 1970SOL    HW1 6809   2.640   6.532   5.925
 1970SOL    HW2 6810   2.631   6.421   6.044
 1971SOL     OW 6811   0.684   0.214   5.759
 1971SOL    HW1 6812   0.625   0.290   5.786
 1971SOL    HW2 6813   0.667   0.135   5.817
 1972SOL     OW 6814   5.645   2.211   2.148
 1972SOL    HW1 6815   5.622   2.179   2.240
 1972SOL    HW2 6816   5.684   2.135   2.096
 1973SOL     OW 6817   3.363   3.004   0.105
 1973SOL    HW1 6818   3.320   2.926   0.059
 1973SOL    HW2 6819   3.319   3.018   0.194
 1974SOL     OW 6820   6.180   6.895   5.019
 1974SOL    HW1 6821   6.093   6.872   4.974
 1974SOL    HW2 6822   6.183   6.851   5.109
 1975SOL     OW 6823   1.742   1.344   3.993
 1975SOL    HW1 6824   1.716   1.420   3.933
 1975SOL    HW2 6825   1.751   1.377   4.087
 1976SOL     OW 6826   0.079   6.965   0.368
 1976SOL    HW1 6827   0.142   6.990   0.294
 1976SOL    HW2 6828   7.006   6.974   0.336
 1977SOL     OW 6829   1.519   3.256   4.801
 1977SOL    HW1 6830   1.464   3.282   4.880
 1977SOL    HW2 6831   1.474   3.285   4.717
 1978SOL     OW 6832   1.923   6.325   2.920
 1978SOL    HW1 6833   1.903   6.315   3.018
 1978SOL    HW2 6834   1.952   6.418   2.901
 1979SOL     OW 6835   6.060   4.054   6.304
 1979SOL    HW1 6836   5.992   3.993   6.264
 1979SOL    HW2 6837   6.047   4.057   6.403
 1980SOL     OW 6838   3.717   0.610   4.654
 1980SOL    HW1 6839   3.672   0.524   4.678
 1980SOL    HW2 6840   3.769   0.597   4.569
 1981SOL     OW 6841   0.147   2.524   2.693
 1981SOL    HW1 6842   0.205   2.469   2.753
 1981SOL    HW2 6843   0.173   2.509   2.598
 1982SOL     OW 6844   0.217   4.723   4.152
 1982SOL    HW1 6845   0.195   4.793   4.220
 1982SOL    HW2 6846   0.133   4.677   4.124
 1983SOL     OW 6847   1.110   0.642   2.883
 1983SOL    HW1 6848   1.038   0.647   2.952
 1983SOL    HW2 6849   1.193   0.603   2.923
 1984SOL     OW 6850   5.052   1.660   5.164
 1984SOL    HW1 6851   5.144   1.621   5.162
 1984SOL    HW2 6852   5.036   1.704   5.252
 1985SOL     OW 6853   1.331   6.369   2.513
 1985SOL    HW1 6854   1.237   6.356   2.544
 1985SOL    HW2 6855   1.391   6.379   2.592
 1986SOL     OW 6856   2.280   1.050   6.774
 1986SOL    HW1 6857   2.248   0.955   6.777
 1986SOL    HW2 6858   2.207   1.111   6.802
 1987SOL     OW 6859   1.982   2.431   2.659
 1987SOL    HW1 6860   1.907   2.463   2.601
 1987SOL    HW2 6861   1.956   2.438   2.755
 1988SOL     OW 6862   6.599   3.624   1.133
 1988SOL    HW1 6863   6.635   3.713   1.107
 1988SOL    HW2 6864   6.582   3.570   1.050
 1989SOL     OW 6865   2.400   5.348   5.210
 1989SOL    HW1 6866   2.452   5.432   5.199
 1989SOL    HW2 6867   2.351   5.328   5.125
 1990SOL     OW 6868   3.659   6.107   0.771
 1990SOL    HW1 6869   3.564   6.136   0.757
 1990SOL    HW2 6870   3.671   6.015   0.733
 1991SOL     OW 6871   3.321   5.244   6.794
 1991SOL    HW1 6872   3.287   5.329   6.833
 1991SOL    HW2 6873   3.351   5.184   6.868
 1992SOL     OW 6874   0.488   0.923   0.374
 1992SOL    HW1 6875   0.429   0.993   0.414
 1992SOL    HW2 6876   0.583   0.948   0.389
 1993SOL     OW 6877   3.313   2.186   5.338
 1993SOL    HW1 6878   3.224   2.143   5.356
 1993SOL    HW2 6879   3.303   2.253   5.264
 1994SOL     OW 6880   0.860   1.374   0.221
 1994SOL    HW1 6881   0.863   1.275   0.206
 1994SOL    HW2 6882   0.910   1.397   0.304
 1995SOL     OW 6883   5.111   2.543   3.640
 1995SOL    HW1 6884   5.112   2.580   3.547
 1995SOL    HW2 6885   5.045   2.593   3.695
 1996SOL     OW 6886   1.912   2.992   0.218
 1996SOL    HW1 6887   1.921   3.027   0.311
 1996SOL    HW2 6888   1.925   3.066   0.152
 1997SOL     OW 6889   3.336   1.489   4.805
 1997SOL    HW1 6890   3.307   1.555   4.736
 1997SOL    HW2 6891   3.431   1.462   4.788
 1998SOL     OW 6892   2.804   4.650   6.683
 1998SOL    HW1 6893   2.726   4.607   6.638
 1998SOL    HW2 6894   2.826   4.601   6.767
 1999SOL     OW 6895   2.180   6.141   6.292
 1999SOL    HW1 6896   2.182   6.074   6.218
 1999SOL    HW2 6897   2.090   6.140   6.336
 2000SOL     OW 6898   4.391   2.456   5.230
 2000SOL    HW1 6899   4.296   2.473   5.204
 2000SOL    HW2 6900   4.400   2.460   5.330
 2001SOL     OW 6901   2.844   0.131   1.453
 2001SOL    HW1 6902   2.842   0.192   1.533
 2001SOL    HW2 6903   2.934   0.136   1.409
 2002SOL     OW 6904   0.546   4.447   0.184
 2002SOL    HW1 6905   0.525   4.534   0.227
 2002SOL    HW2 6906   0.646   4.436   0.177
 2003SOL     OW 6907   6.227   5.740   2.441
 2003SOL    HW1 6908   6.178   5.725   2.527
 2003SOL    HW2 6909   6.252   5.652   2.401
 2004SOL     OW 6910   4.681   1.563   5.016
 2004SOL    HW1 6911   4.680   1.660   5.038
 2004SOL    HW2 6912   4.772   1.525   5.034
 2005SOL     OW 6913   0.371   5.136   0.079
 2005SOL    HW1 6914   0.450   5.075   0.091
 2005SOL    HW2 6915   0.318   5.139   0.164
 2006SOL     OW 6916   5.822   0.225   3.421
 2006SOL    HW1 6917   5.887   0.220   3.345
 2006SOL    HW2 6918   5.873   0.232   3.507
 2007SOL     OW 6919   4.788   4.632   0.890
 2007SOL    HW1 6920   4.711   4.609   0.949
 2007SOL    HW2 6921   4.849   4.696   0.937
 2008SOL     OW 6922   2.122   4.498   3.870
 2008SOL    HW1 6923   2.198   4.508   3.934
 2008SOL    HW2 6924   2.110   4.402   3.846
 2009SOL     OW 6925   5.103   0.772   2.611
 2009SOL    HW1 6926   5.073   0.762   2.515
 2009SOL    HW2 6927   5.074   0.692   2.663
 2010SOL     OW 6928   2.173   1.997   1.827
 2010SOL    HW1 6929   2.135   2.041   1.909
 2010SOL    HW2 6930   2.131   1.907   1.815
 2011SOL     OW 6931   6.553   6.521   4.721
 2011SOL    HW1 6932   6.514   6.596   4.773
 2011SOL    HW2 6933   6.593   6.556   4.636
 2012SOL     OW 6934   1.270   3.959   2.310
 2012SOL    HW1 6935   1.215   3.898   2.367
 2012SOL    HW2 6936   1.363   3.923   2.302
 2013SOL     OW 6937   5.925   2.498   3.488
 2013SOL    HW1 6938   5.951   2.586   3.526
 2013SOL    HW2 6939   5.831   2.476   3.516
 2014SOL     OW 6940   2.597   6.345   3.612
 2014SOL    HW1 6941   2.509   6.356   3.565
 2014SOL    HW2 6942   2.659   6.291   3.556
 2015SOL     OW 6943   1.786   0.386   6.875
 2015SOL    HW1 6944   1.831   0.369   6.964
 2015SOL    HW2 6945   1.791   0.483   6.853
 2016SOL     OW 6946   1.955   5.735   6.115
 2016SOL    HW1 6947   1.952   5.752   6.213
 2016SOL    HW2 6948   1.951   5.637   6.097
 2017SOL     OW 6949   3.636   6.643   4.566
 2017SOL    HW1 6950   3.706   6.574   4.549
 2017SOL    HW2 6951   3.646   6.718   4.501
 2018SOL     OW 6952   5.321   1.426   5.619
 2018SOL    HW1 6953   5.361   1.352   5.673
 2018SOL    HW2 6954   5.225   1.405   5.601
 2019SOL     OW 6955   5.339   3.238   6.039
 2019SOL    HW1 6956   5.268   3.308   6.040
 2019SOL    HW2 6957   5.421   3.274   6.083
 2020SOL     OW 6958   1.584   0.049   5.256
 2020SOL    HW1 6959   1.573   0.116   5.330
 2020SOL    HW2 6960   1.519   6.996   5.268
 2021SOL     OW 6961   0.597   6.371   5.132
 2021SOL    HW1 6962   0.655   6.338   5.058
 2021SOL    HW2 6963   0.638   6.454   5.171
 2022SOL     OW 6964   1.413   4.226   3.630
 2022SOL    HW1 6965   1.479   4.157   3.600
 2022SOL    HW2 6966   1.443   4.316   3.597
 2023SOL     OW 6967   6.904   0.690   6.828
 2023SOL    HW1 6968   6.881   0.622   6.759
 2023SOL    HW2 6969   6.976   0.654   6.888
 2024SOL     OW 6970   0.018   6.205   3.148
 2024SOL    HW1 6971   0.078   6.202   3.069
 2024SOL    HW2 6972   7.000   6.296   3.158
 2025SOL     OW 6973   3.091   1.345   3.689
 2025SOL    HW1 6974   3.025   1.419   3.674
 2025SOL    HW2 6975   3.068   1.268   3.629
 2026SOL     OW 6976   6.738   2.990   5.292
 2026SOL    HW1 6977   6.812   3.052   5.318
 2026SOL    HW2 6978   6.704   2.943   5.374
 2027SOL     OW 6979   1.430   0.218   0.540
 2027SOL    HW1 6980   1.511   0.167   0.567
 2027SOL    HW2 6981   1.351   0.183   0.590
 2028SOL     OW 6982   2.864   6.385   4.956
 2028SOL    HW1 6983   2.779   6.389   4.904
 2028SOL    HW2 6984   2.844   6.387   5.054
 2029SOL     OW 6985   6.920   1.047   0.026
 2029SOL    HW1 6986   6.880   1.071   6.958
 2029SOL    HW2 6987   6.865   1.088   0.099
 2030SOL     OW 6988   2.987   0.967   3.287
 2030SOL    HW1 6989   2.887   0.976   3.291
 2030SOL    HW2 6990   3.018   0.905   3.358
 2031SOL     OW 6991   6.757   5.777   1.243
 2031SOL    HW1 6992   6.711   5.692   1.217
 2031SOL    HW2 6993   6.852   5.773   1.213
 2032SOL     OW 6994   4.973   0.521   2.158
 2032SOL    HW1 6995   4.992   0.608   2.204
 2032SOL    HW2 6996   4.973   0.447   2.226
 2033SOL     OW 6997   3.303   3.183   5.850
 2033SOL    HW1 6998   3.286   3.277   5.819
 2033SOL    HW2 6999   3.269   3.173   5.944
 2034SOL     OW 7000   2.336   5.439   5.710
 2034SOL    HW1 7001   2.353   5.518   5.652
 2034SOL    HW2 7002   2.252   5.393   5.679
 2035SOL     OW 7003   6.683   6.335   3.881
 2035SOL    HW1 7004   6.599   6.283   3.897
 2035SOL    HW2 7005   6.749   6.278   3.831
 2036SOL     OW 7006   1.406   4.662   3.034
 2036SOL    HW1 7007   1.378   4.599   3.106
 2036SOL    HW2 7008   1.500   4.642   3.007
 2037SOL     OW 7009   6.471   3.141   5.690
 2037SOL    HW1 7010   6.564   3.162   5.659
 2037SOL    HW2 7011   6.438   3.059   5.642
 2038SOL     OW 7012   1.786   2.198   0.220
 2038SOL    HW1 7013   1.701   2.235   0.184
 2038SOL    HW2 7014   1.832   2.268   0.275
 2039SOL     OW 7015   0.165   5.112   4.089
 2039SOL    HW1 7016   0.184   5.200   4.044
 2039SOL    HW2 7017   0.071   5.084   4.069
 2040SOL     OW 7018   2.820   3.159   5.579
 2040SOL    HW1 7019   2.786   3.123   5.492
 2040SOL    HW2 7020   2.747   3.155   5.647
 2041SOL     OW 7021   1.019   6.199   6.121
 2041SOL    HW1 7022   0.920   6.191   6.122
 2041SOL    HW2 7023   1.049   6.258   6.195
 2042SOL     OW 7024   4.608   5.930   6.877
 2042SOL    HW1 7025   4.628   5.947   6.974
 2042SOL    HW2 7026   4.605   6.018   6.829
 2043SOL     OW 7027   6.153   4.024   2.900
 2043SOL    HW1 7028   6.238   4.064   2.935
 2043SOL    HW2 7029   6.170   3.985   2.810
 2044SOL     OW 7030   0.074   0.570   1.848
 2044SOL    HW1 7031   0.118   0.654   1.815
 2044SOL    HW2 7032   6.998   0.572   1.822
 2045SOL     OW 7033   1.510   5.325   4.283
 2045SOL    HW1 7034   1.443   5.394   4.309
 2045SOL    HW2 7035   1.475   5.234   4.306
 2046SOL     OW 7036   6.960   2.177   4.230
 2046SOL    HW1 7037   6.930   2.270   4.208
 2046SOL    HW2 7038   6.880   2.122   4.255
 2047SOL     OW 7039   0.044   2.766   6.910
 2047SOL    HW1 7040   0.029   2.711   6.993
 2047SOL    HW2 7041   0.140   2.792   6.905
 2048SOL     OW 7042   1.730   6.550   5.925
 2048SOL    HW1 7043   1.726   6.626   5.860
 2048SOL    HW2 7044   1.761   6.467   5.877
 2049SOL     OW 7045   6.086   2.018   4.878
 2049SOL    HW1 7046   6.034   1.982   4.800
 2049SOL    HW2 7047   6.182   1.991   4.868
 2050SOL     OW 7048   6.201   2.290   4.133
 2050SOL    HW1 7049   6.190   2.191   4.124
 2050SOL    HW2 7050   6.113   2.335   4.113
 2051SOL     OW 7051   0.661   5.832   0.133
 2051SOL    HW1 7052   0.661   5.898   0.059
 2051SOL    HW2 7053   0.569   5.822   0.170
 2052SOL     OW 7054   1.322   3.127   1.164
 2052SOL    HW1 7055   1.395   3.135   1.232
 2052SOL    HW2 7056   1.273   3.214   1.157
 2053SOL     OW 7057   6.679   5.716   4.381
 2053SOL    HW1 7058   6.588   5.680   4.363
 2053SOL    HW2 7059   6.691   5.803   4.332
 2054SOL     OW 7060   3.277   4.068   3.065
 2054SOL    HW1 7061   3.300   4.092   3.159
 2054SOL    HW2 7062   3.350   4.098   3.004
 2055SOL     OW 7063   5.646   3.664   3.836
 2055SOL    HW1 7064   5.584   3.717   3.778
 2055SOL    HW2 7065   5.611   3.570   3.844
 2056SOL     OW 7066   4.257   5.567   2.024
 2056SOL    HW1 7067   4.248   5.642   1.958
 2056SOL    HW2 7068   4.174   5.561   2.079
 2057SOL     OW 7069   5.119   3.931   5.666
 2057SOL    HW1 7070   5.193   3.927   5.733
 2057SOL    HW2 7071   5.038   3.973   5.708
 2058SOL     OW 7072   0.158   0.740   3.295
 2058SOL    HW1 7073   0.085   0.805   3.273
 2058SOL    HW2 7074   0.117   0.654   3.327
 2059SOL     OW 7075   2.004   5.990   6.578
 2059SOL    HW1 7076   1.971   6.003   6.485
 2059SOL    HW2 7077   1.972   6.066   6.636
 2060SOL     OW 7078   0.622   4.093   1.454
 2060SOL    HW1 7079   0.651   4.075   1.548
 2060SOL    HW2 7080   0.589   4.008   1.413
 2061SOL     OW 7081   1.358   1.659   2.662
 2061SOL    HW1 7082   1.284   1.599   2.632
 2061SOL    HW2 7083   1.414   1.612   2.730
 2062SOL     OW 7084   6.754   5.584   4.997
 2062SOL    HW1 7085   6.799   5.556   4.912
 2062SOL    HW2 7086   6.706   5.506   5.037
 2063SOL     OW 7087   1.307   6.455   5.520
 2063SOL    HW1 7088   1.322   6.468   5.618
 2063SOL    HW2 7089   1.241   6.382   5.506
 2064SOL     OW 7090   0.677   2.505   5.192
 2064SOL    HW1 7091   0.731   2.563   5.254
 2064SOL    HW2 7092   0.731   2.484   5.111
 2065SOL     OW 7093   5.776   2.308   5.701
 2065SOL    HW1 7094   5.711   2.343   5.633
 2065SOL    HW2 7095   5.864   2.353   5.690
 2066SOL     OW 7096   0.279   4.640   4.449
 2066SOL    HW1 7097   0.311   4.735   4.443
 2066SOL    HW2 7098   0.251   4.621   4.543
 2067SOL     OW 7099   7.012   5.298   0.920
 2067SOL    HW1 7100   6.963   5.211   0.911
 2067SOL    HW2 7101   6.984   5.360   0.847
 2068SOL     OW 7102   2.299   0.437   4.433
 2068SOL    HW1 7103   2.317   0.484   4.346
 2068SOL    HW2 7104   2.202   0.417   4.440
 2069SOL     OW 7105   6.321   2.714   3.826
 2069SOL    HW1 7106   6.263   2.677   3.754
 2069SOL    HW2 7107   6.412   2.732   3.790
 2070SOL     OW 7108   0.945   1.077   1.246
 2070SOL    HW1 7109   1.014   1.032   1.303
 2070SOL    HW2 7110   0.957   1.176   1.250
 2071SOL     OW 7111   5.899   0.409   6.199
 2071SOL    HW1 7112   5.958   0.376   6.272
 2071SOL    HW2 7113   5.853   0.332   6.155
 2072SOL     OW 7114   4.179   5.126   4.095
 2072SOL    HW1 7115   4.215   5.034   4.114
 2072SOL    HW2 7116   4.191   5.147   3.998
 2073SOL     OW 7117   4.447   6.719   5.050
 2073SOL    HW1 7118   4.546   6.733   5.053
 2073SOL    HW2 7119   4.422   6.677   4.963
 2074SOL     OW 7120   2.133   2.133   6.307
 2074SOL    HW1 7121   2.046   2.128   6.259
 2074SOL    HW2 7122   2.200   2.077   6.260
 2075SOL     OW 7123   6.762   2.620   3.260
 2075SOL    HW1 7124   6.849   2.573   3.242
 2075SOL    HW2 7125   6.703   2.613   3.180
 2076SOL     OW 7126   5.446   0.106   5.968
 2076SOL    HW1 7127   5.403   0.145   5.886
 2076SOL    HW2 7128   5.496   0.178   6.017
 2077SOL     OW 7129   6.219   2.215   3.025
 2077SOL    HW1 7130   6.303   2.190   2.976
 2077SOL    HW2 7131   6.232   2.303   3.072
 2078SOL     OW 7132   1.443   5.668   6.101
 2078SOL    HW1 7133   1.463   5.609   6.023
 2078SOL    HW2 7134   1.360   5.636   6.147
 2079SOL     OW 7135   6.639   2.316   2.990
 2079SOL    HW1 7136   6.683   2.232   3.022
 2079SOL    HW2 7137   6.565   2.342   3.053
 2080SOL     OW 7138   1.740   0.452   4.993
 2080SOL    HW1 7139   1.752   0.469   5.091
 2080SOL    HW2 7140   1.739   0.354   4.975
 2081SOL     OW 7141   0.880   6.414   4.568
 2081SOL    HW1 7142   0.895   6.389   4.472
 2081SOL    HW2 7143   0.958   6.468   4.600
 2082SOL     OW 7144   0.599   6.850   3.345
 2082SOL    HW1 7145   0.679   6.795   3.367
 2082SOL    HW2 7146   0.517   6.792   3.347
 2083SOL     OW 7147   0.908   4.713   5.921
 2083SOL    HW1 7148   0.841   4.652   5.962
 2083SOL    HW2 7149   0.990   4.661   5.897
 2084SOL     OW 7150   0.581   4.683   3.134
 2084SOL    HW1 7151   0.580   4.767   3.080
 2084SOL    HW2 7152   0.552   4.703   3.227
 2085SOL     OW 7153   5.337   1.028   0.531
 2085SOL    HW1 7154   5.368   1.015   0.437
 2085SOL    HW2 7155   5.413   1.012   0.594
 2086SOL     OW 7156   3.880   6.781   6.488
 2086SOL    HW1 7157   3.934   6.758   6.406
 2086SOL    HW2 7158   3.854   6.696   6.534
 2087SOL     OW 7159   4.883   1.131   1.659
 2087SOL    HW1 7160   4.949   1.207   1.659
 2087SOL    HW2 7161   4.858   1.110   1.565
 2088SOL     OW 7162   1.014   6.201   6.663
 2088SOL    HW1 7163   1.090   6.147   6.628
 2088SOL    HW2 7164   0.996   6.278   6.601
 2089SOL     OW 7165   4.805   2.791   6.103
 2089SOL    HW1 7166   4.744   2.864   6.135
 2089SOL    HW2 7167   4.877   2.830   6.047
 2090SOL     OW 7168   4.142   3.343   6.200
 2090SOL    HW1 7169   4.197   3.423   6.175
 2090SOL    HW2 7170   4.045   3.363   6.186
 2091SOL     OW 7171   6.964   5.092   0.599
 2091SOL    HW1 7172   6.987   5.009   0.548
 2091SOL    HW2 7173   0.009   5.105   0.673
 2092SOL     OW 7174   5.276   3.603   0.329
 2092SOL    HW1 7175   5.229   3.531   0.278
 2092SOL    HW2 7176   5.238   3.692   0.303
 2093SOL     OW 7177   3.037   2.064   1.190
 2093SOL    HW1 7178   3.132   2.033   1.188
 2093SOL    HW2 7179   2.976   1.986   1.175
 2094SOL     OW 7180   5.853   1.614   2.042
 2094SOL    HW1 7181   5.893   1.691   1.993
 2094SOL    HW2 7182   5.768   1.644   2.086
 2095SOL     OW 7183   6.596   6.673   5.023
 2095SOL    HW1 7184   6.625   6.639   5.113
 2095SOL    HW2 7185   6.675   6.677   4.962
 2096SOL     OW 7186   4.914   4.719   3.203
 2096SOL    HW1 7187   4.901   4.753   3.109
 2096SOL    HW2 7188   4.942   4.624   3.201
 2097SOL     OW 7189   3.145   2.730   6.380
 2097SOL    HW1 7190   3.164   2.773   6.291
 2097SOL    HW2 7191   3.051   2.696   6.381
 2098SOL     OW 7192   4.710   5.831   1.601
 2098SOL    HW1 7193   4.668   5.820   1.691
 2098SOL    HW2 7194   4.807   5.853   1.611
 2099SOL     OW 7195   3.603   2.080   6.597
 2099SOL    HW1 7196   3.595   2.080   6.696
 2099SOL    HW2 7197   3.687   2.032   6.570
 2100SOL     OW 7198   5.209   1.834   0.665
 2100SOL    HW1 7199   5.240   1.769   0.596
 2100SOL    HW2 7200   5.264   1.825   0.748
 2101SOL     OW 7201   0.372   6.537   1.175
 2101SOL    HW1 7202   0.400   6.624   1.136
 2101SOL    HW2 7203   0.307   6.491   1.114
 2102SOL     OW 7204   5.069   4.324   2.366
 2102SOL    HW1 7205   5.105   4.378   2.443
 2102SOL    HW2 7206   5.007   4.381   2.312
 2103SOL     OW 7207   3.602   3.519   0.040
 2103SOL    HW1 7208   3.549   3.446   0.084
 2103SOL    HW2 7209   3.543   3.569   6.997
 2104SOL     OW 7210   1.722   4.365   2.411
 2104SOL    HW1 7211   1.733   4.424   2.331
 2104SOL    HW2 7212   1.643   4.396   2.464
 2105SOL     OW 7213   4.591   4.782   6.769
 2105SOL    HW1 7214   4.586   4.682   6.763
 2105SOL    HW2 7215   4.518   4.815   6.828
 2106SOL     OW 7216   5.810   3.329   1.056
 2106SOL    HW1 7217   5.893   3.318   1.001
 2106SOL    HW2 7218   5.754   3.403   1.018
 2107SOL     OW 7219   6.800   2.215   5.554
 2107SOL    HW1 7220   6.852   2.155   5.614
 2107SOL    HW2 7221   6.786   2.171   5.466
 2108SOL     OW 7222   6.007   5.666   5.086
 2108SOL    HW1 7223   5.930   5.608   5.111
 2108SOL    HW2 7224   6.068   5.617   5.025
 2109SOL     OW 7225   4.192   5.953   2.136
 2109SOL    HW1 7226   4.283   5.922   2.108
 2109SOL    HW2 7227   4.197   6.047   2.169
 2110SOL     OW 7228   2.779   0.604   0.394
 2110SOL    HW1 7229   2.871   0.576   0.367
 2110SOL    HW2 7230   2.723   0.523   0.410
 2111SOL     OW 7231   1.998   2.895   6.952
 2111SOL    HW1 7232   2.045   2.982   6.960
 2111SOL    HW2 7233   1.900   2.908   6.965
 2112SOL     OW 7234   5.496   2.438   0.548
 2112SOL    HW1 7235   5.525   2.445   0.644
 2112SOL    HW2 7236   5.460   2.526   0.518
 2113SOL     OW 7237   2.419   1.328   4.859
 2113SOL    HW1 7238   2.393   1.401   4.796
 2113SOL    HW2 7239   2.408   1.360   4.953
 2114SOL     OW 7240   2.414   1.726   6.731
 2114SOL    HW1 7241   2.464   1.660   6.787
 2114SOL    HW2 7242   2.457   1.733   6.641
 2115SOL     OW 7243   0.487   4.448   2.859
 2115SOL    HW1 7244   0.572   4.443   2.910
 2115SOL    HW2 7245   0.411   4.417   2.916
 2116SOL     OW 7246   0.911   3.931   2.673
 2116SOL    HW1 7247   0.993   3.881   2.644
 2116SOL    HW2 7248   0.859   3.960   2.593
 2117SOL     OW 7249   6.578   4.438   1.333
 2117SOL    HW1 7250   6.673   4.462   1.354
 2117SOL    HW2 7251   6.570   4.415   1.236
 2118SOL     OW 7252   5.845   3.212   3.289
 2118SOL    HW1 7253   5.887   3.127   3.323
 2118SOL    HW2 7254   5.841   3.279   3.364
 2119SOL     OW 7255   1.152   0.293   1.298
 2119SOL    HW1 7256   1.228   0.296   1.363
 2119SOL    HW2 7257   1.082   0.230   1.331
 2120SOL     OW 7258   0.721   4.280   3.423
 2120SOL    HW1 7259   0.734   4.376   3.396
 2120SOL    HW2 7260   0.648   4.240   3.369
 2121SOL     OW 7261   1.303   3.083   5.195
 2121SOL    HW1 7262   1.209   3.085   5.229
 2121SOL    HW2 7263   1.359   3.147   5.248
 2122SOL     OW 7264   6.186   5.412   6.457
 2122SOL    HW1 7265   6.101   5.451   6.422
 2122SOL    HW2 7266   6.199   5.320   6.419
 2123SOL     OW 7267   6.864   5.315   2.265
 2123SOL    HW1 7268   6.871   5.261   2.182
 2123SOL    HW2 7269   6.849   5.254   2.343
 2124SOL     OW 7270   3.211   1.738   0.929
 2124SOL    HW1 7271   3.118   1.738   0.968
 2124SOL    HW2 7272   3.205   1.729   0.830
 2125SOL     OW 7273   1.644   6.421   2.063
 2125SOL    HW1 7274   1.701   6.503   2.061
 2125SOL    HW2 7275   1.556   6.443   2.104
 2126SOL     OW 7276   3.838   2.827   6.453
 2126SOL    HW1 7277   3.862   2.733   6.428
 2126SOL    HW2 7278   3.917   2.872   6.494
 2127SOL     OW 7279   0.843   1.657   6.008
 2127SOL    HW1 7280   0.784   1.724   6.054
 2127SOL    HW2 7281   0.935   1.694   5.999
 2128SOL     OW 7282   6.248   2.946   2.960
 2128SOL    HW1 7283   6.279   3.020   3.020
 2128SOL    HW2 7284   6.294   2.861   2.984
 2129SOL     OW 7285   5.067   3.618   5.104
 2129SOL    HW1 7286   5.130   3.546   5.131
 2129SOL    HW2 7287   4.975   3.580   5.091
 2130SOL     OW 7288   3.047   6.438   2.719
 2130SOL    HW1 7289   3.085   6.501   2.787
 2130SOL    HW2 7290   3.054   6.479   2.628
 2131SOL     OW 7291   5.026   1.778   0.901
 2131SOL    HW1 7292   4.935   1.817   0.916
 2131SOL    HW2 7293   5.067   1.821   0.821
 2132SOL     OW 7294   3.139   1.157   0.414
 2132SOL    HW1 7295   3.063   1.115   0.365
 2132SOL    HW2 7296   3.185   1.222   0.354
 2133SOL     OW 7297   3.484   2.232   1.295
 2133SOL    HW1 7298   3.410   2.272   1.349
 2133SOL    HW2 7299   3.526   2.157   1.346
 2134SOL     OW 7300   0.848   0.999   4.235
 2134SOL    HW1 7301   0.924   0.941   4.266
 2134SOL    HW2 7302   0.843   1.081   4.292
 2135SOL     OW 7303   0.698   1.974   4.265
 2135SOL    HW1 7304   0.710   2.074   4.265
 2135SOL    HW2 7305   0.745   1.935   4.186
 2136SOL     OW 7306   1.079   4.076   4.513
 2136SOL    HW1 7307   1.151   4.139   4.539
 2136SOL    HW2 7308   1.060   4.014   4.589
 2137SOL     OW 7309   0.111   5.894   3.957
 2137SOL    HW1 7310   0.161   5.981   3.957
 2137SOL    HW2 7311   0.014   5.911   3.941
 2138SOL     OW 7312   6.985   1.129   1.350
 2138SOL    HW1 7313   6.952   1.073   1.425
 2138SOL    HW2 7314   6.914   1.135   1.279
 2139SOL     OW 7315   3.717   0.713   2.811
 2139SOL    HW1 7316   3.672   0.800   2.791
 2139SOL    HW2 7317   3.759   0.718   2.902
 2140SOL     OW 7318   3.302   5.723   3.214
 2140SOL    HW1 7319   3.380   5.744   3.155
 2140SOL    HW2 7320   3.217   5.731   3.162
 2141SOL     OW 7321   6.575   4.416   1.044
 2141SOL    HW1 7322   6.507   4.402   0.973
 2141SOL    HW2 7323   6.662   4.444   1.003
 2142SOL     OW 7324   1.109   1.869   3.039
 2142SOL    HW1 7325   1.110   1.953   3.093
 2142SOL    HW2 7326   1.126   1.891   2.943
 2143SOL     OW 7327   3.180   4.819   1.430
 2143SOL    HW1 7328   3.102   4.855   1.378
 2143SOL    HW2 7329   3.205   4.729   1.394
 2144SOL     OW 7330   1.572   5.738   3.104
 2144SOL    HW1 7331   1.659   5.783   3.084
 2144SOL    HW2 7332   1.589   5.642   3.127
 2145SOL     OW 7333   3.281   6.366   4.452
 2145SOL    HW1 7334   3.327   6.401   4.534
 2145SOL    HW2 7335   3.317   6.414   4.372
 2146SOL     OW 7336   2.645   3.525   1.744
 2146SOL    HW1 7337   2.638   3.617   1.706
 2146SOL    HW2 7338   2.574   3.512   1.813
 2147SOL     OW 7339   0.431   1.257   6.399
 2147SOL    HW1 7340   0.441   1.330   6.467
 2147SOL    HW2 7341   0.480   1.282   6.316
 2148SOL     OW 7342   5.117   2.679   4.402
 2148SOL    HW1 7343   5.101   2.758   4.461
 2148SOL    HW2 7344   5.106   2.705   4.306
 2149SOL     OW 7345   3.794   1.320   1.191
 2149SOL    HW1 7346   3.818   1.237   1.241
 2149SOL    HW2 7347   3.850   1.328   1.109
 2150SOL     OW 7348   2.401   2.530   2.318
 2150SOL    HW1 7349   2.318   2.548   2.371
 2150SOL    HW2 7350   2.478   2.515   2.380
 2151SOL     OW 7351   2.002   1.205   4.109
 2151SOL    HW1 7352   1.946   1.122   4.109
 2151SOL    HW2 7353   1.945   1.283   4.135
 2152SOL     OW 7354   3.808   6.568   1.242
 2152SOL    HW1 7355   3.716   6.531   1.239
 2152SOL    HW2 7356   3.843   6.578   1.148
 2153SOL     OW 7357   3.704   0.020   3.095
 2153SOL    HW1 7358   3.791   0.015   3.046
 2153SOL    HW2 7359   3.633   6.995   3.041
 2154SOL     OW 7360   5.246   0.541   4.556
 2154SOL    HW1 7361   5.218   0.446   4.545
 2154SOL    HW2 7362   5.340   0.552   4.524
 2155SOL     OW 7363   1.922   5.284   0.374
 2155SOL    HW1 7364   1.946   5.308   0.280
 2155SOL    HW2 7365   1.831   5.242   0.375
 2156SOL     OW 7366   2.418   0.691   2.754
 2156SOL    HW1 7367   2.397   0.756   2.827
 2156SOL    HW2 7368   2.333   0.649   2.722
 2157SOL     OW 7369   6.020   0.545   3.245
 2157SOL    HW1 7370   6.078   0.623   3.219
 2157SOL    HW2 7371   5.998   0.551   3.342
 2158SOL     OW 7372   3.876   6.546   0.976
 2158SOL    HW1 7373   3.796   6.537   0.917
 2158SOL    HW2 7374   3.958   6.553   0.921
 2159SOL     OW 7375   2.427   6.601   5.456
 2159SOL    HW1 7376   2.425   6.504   5.478
 2159SOL    HW2 7377   2.467   6.652   5.533
 2160SOL     OW 7378   4.548   3.514   0.990
 2160SOL    HW1 7379   4.537   3.417   0.966
 2160SOL    HW2 7380   4.584   3.521   1.083
 2161SOL     OW 7381   5.171   3.554   3.433
 2161SOL    HW1 7382   5.163   3.651   3.455
 2161SOL    HW2 7383   5.264   3.523   3.453
 2162SOL     OW 7384   2.755   0.490   0.125
 2162SOL    HW1 7385   2.761   0.578   0.171
 2162SOL    HW2 7386   2.790   0.499   0.031
 2163SOL     OW 7387   6.844   4.715   6.225
 2163SOL    HW1 7388   6.823   4.812   6.240
 2163SOL    HW2 7389   6.859   4.699   6.127
 2164SOL     OW 7390   1.571   2.309   0.112
 2164SOL    HW1 7391   1.489   2.325   0.167
 2164SOL    HW2 7392   1.576   2.377   0.039
 2165SOL     OW 7393   1.430   1.534   2.881
 2165SOL    HW1 7394   1.408   1.610   2.941
 2165SOL    HW2 7395   1.370   1.456   2.903
 2166SOL     OW 7396   1.753   2.269   5.405
 2166SOL    HW1 7397   1.716   2.278   5.312
 2166SOL    HW2 7398   1.847   2.303   5.405
 2167SOL     OW 7399   1.452   0.873   3.569
 2167SOL    HW1 7400   1.415   0.807   3.635
 2167SOL    HW2 7401   1.377   0.916   3.519
 2168SOL     OW 7402   0.659   1.897   3.877
 2168SOL    HW1 7403   0.644   1.806   3.838
 2168SOL    HW2 7404   0.579   1.924   3.931
 2169SOL     OW 7405   5.551   2.249   5.534
 2169SOL    HW1 7406   5.622   2.215   5.471
 2169SOL    HW2 7407   5.464   2.205   5.513
 2170SOL     OW 7408   5.750   4.858   6.166
 2170SOL    HW1 7409   5.762   4.769   6.123
 2170SOL    HW2 7410   5.658   4.892   6.145
 2171SOL     OW 7411   6.401   3.084   1.606
 2171SOL    HW1 7412   6.410   3.046   1.514
 2171SOL    HW2 7413   6.452   3.169   1.612
 2172SOL     OW 7414   2.926   1.713   0.472
 2172SOL    HW1 7415   2.936   1.776   0.549
 2172SOL    HW2 7416   2.992   1.736   0.401
 2173SOL     OW 7417   4.206   0.262   5.623
 2173SOL    HW1 7418   4.163   0.279   5.712
 2173SOL    HW2 7419   4.239   0.168   5.621
 2174SOL     OW 7420   5.627   4.875   5.864
 2174SOL    HW1 7421   5.669   4.861   5.774
 2174SOL    HW2 7422   5.611   4.973   5.878
 2175SOL     OW 7423   3.470   1.981   3.471
 2175SOL    HW1 7424   3.559   2.009   3.436
 2175SOL    HW2 7425   3.417   2.062   3.497
 2176SOL     OW 7426   0.620   3.231   6.936
 2176SOL    HW1 7427   0.684   3.201   6.866
 2176SOL    HW2 7428   0.670   3.249   0.000
 2177SOL     OW 7429   6.627   0.800   3.428
 2177SOL    HW1 7430   6.712   0.753   3.402
 2177SOL    HW2 7431   6.641   0.848   3.515
 2178SOL     OW 7432   1.505   4.127   0.113
 2178SOL    HW1 7433   1.431   4.120   0.180
 2178SOL    HW2 7434   1.503   4.049   0.052
 2179SOL     OW 7435   1.403   5.709   4.882
 2179SOL    HW1 7436   1.429   5.779   4.816
 2179SOL    HW2 7437   1.455   5.625   4.864
 2180SOL     OW 7438   2.947   3.468   1.799
 2180SOL    HW1 7439   2.947   3.368   1.800
 2180SOL    HW2 7440   2.853   3.501   1.785
 2181SOL     OW 7441   5.131   4.156   5.502
 2181SOL    HW1 7442   5.033   4.161   5.481
 2181SOL    HW2 7443   5.150   4.072   5.552
 2182SOL     OW 7444   6.360   2.587   4.916
 2182SOL    HW1 7445   6.453   2.564   4.944
 2182SOL    HW2 7446   6.352   2.580   4.817
 2183SOL     OW 7447   3.470   3.422   6.516
 2183SOL    HW1 7448   3.553   3.477   6.527
 2183SOL    HW2 7449   3.493   3.339   6.464
 2184SOL     OW 7450   3.938   1.501   5.451
 2184SOL    HW1 7451   3.981   1.565   5.515
 2184SOL    HW2 7452   3.998   1.487   5.372
 2185SOL     OW 7453   1.588   2.010   0.516
 2185SOL    HW1 7454   1.506   2.020   0.573
 2185SOL    HW2 7455   1.652   2.084   0.536
 2186SOL     OW 7456   6.887   4.680   2.294
 2186SOL    HW1 7457   6.960   4.613   2.308
 2186SOL    HW2 7458   6.891   4.749   2.366
 2187SOL     OW 7459   0.466   1.921   1.910
 2187SOL    HW1 7460   0.468   1.983   1.988
 2187SOL    HW2 7461   0.376   1.878   1.904
 2188SOL     OW 7462   5.444   6.249   4.146
 2188SOL    HW1 7463   5.402   6.165   4.113
 2188SOL    HW2 7464   5.540   6.252   4.119
 2189SOL     OW 7465   1.809   6.527   6.776
 2189SOL    HW1 7466   1.812   6.618   6.817
 2189SOL    HW2 7467   1.888   6.515   6.715
 2190SOL     OW 7468   0.453   2.959   2.305
 2190SOL    HW1 7469   0.420   2.986   2.395
 2190SOL    HW2 7470   0.393   2.889   2.267
 2191SOL     OW 7471   3.362   1.606   6.558
 2191SOL    HW1 7472   3.360   1.652   6.469
 2191SOL    HW2 7473   3.374   1.674   6.630
 2192SOL     OW 7474   3.660   6.769   3.620
 2192SOL    HW1 7475   3.582   6.823   3.587
 2192SOL    HW2 7476   3.650   6.753   3.718
 2193SOL     OW 7477   0.394   6.005   6.480
 2193SOL    HW1 7478   0.416   5.970   6.571
 2193SOL    HW2 7479   0.464   5.974   6.415
 2194SOL     OW 7480   2.445   4.785   6.800
 2194SOL    HW1 7481   2.531   4.748   6.834
 2194SOL    HW2 7482   2.374   4.715   6.803
 2195SOL     OW 7483   0.085   6.912   3.280
 2195SOL    HW1 7484   0.107   6.829   3.331
 2195SOL    HW2 7485   7.008   6.931   3.289
 2196SOL     OW 7486   3.512   6.974   5.708
 2196SOL    HW1 7487   3.438   6.938   5.764
 2196SOL    HW2 7488   3.477   6.994   5.616
 2197SOL     OW 7489   3.795   3.801   1.538
 2197SOL    HW1 7490   3.864   3.788   1.466
 2197SOL    HW2 7491   3.799   3.724   1.602
 2198SOL     OW 7492   6.277   1.213   6.774
 2198SOL    HW1 7493   6.226   1.267   6.841
 2198SOL    HW2 7494   6.370   1.249   6.767
 2199SOL     OW 7495   4.875   0.816   2.887
 2199SOL    HW1 7496   4.901   0.775   2.799
 2199SOL    HW2 7497   4.957   0.849   2.933
 2200SOL     OW 7498   3.951   0.293   4.688
 2200SOL    HW1 7499   3.950   0.194   4.699
 2200SOL    HW2 7500   3.887   0.319   4.616
 2201SOL     OW 7501   6.657   2.581   2.582
 2201SOL    HW1 7502   6.668   2.498   2.637
 2201SOL    HW2 7503   6.606   2.649   2.633
 2202SOL     OW 7504   3.618   5.032   3.446
 2202SOL    HW1 7505   3.538   4.971   3.449
 2202SOL    HW2 7506   3.668   5.025   3.533
 2203SOL     OW 7507   2.029   2.684   1.850
 2203SOL    HW1 7508   2.113   2.631   1.837
 2203SOL    HW2 7509   2.049   2.781   1.841
 2204SOL     OW 7510   3.924   2.009   6.979
 2204SOL    HW1 7511   3.988   1.935   6.993
 2204SOL    HW2 7512   3.973   2.092   6.951
 2205SOL     OW 7513   2.052   6.902   6.181
 2205SOL    HW1 7514   2.077   6.993   6.214
 2205SOL    HW2 7515   1.959   6.880   6.211
 2206SOL     OW 7516   2.607   4.122   5.644
 2206SOL    HW1 7517   2.577   4.052   5.579
 2206SOL    HW2 7518   2.613   4.083   5.735
 2207SOL     OW 7519   2.159   3.884   6.539
 2207SOL    HW1 7520   2.106   3.833   6.471
 2207SOL    HW2 7521   2.210   3.957   6.493
 2208SOL     OW 7522   1.800   5.342   2.681
 2208SOL    HW1 7523   1.801   5.242   2.681
 2208SOL    HW2 7524   1.706   5.374   2.687
 2209SOL     OW 7525   1.546   5.453   5.908
 2209SOL    HW1 7526   1.496   5.375   5.946
 2209SOL    HW2 7527   1.638   5.424   5.881
 2210SOL     OW 7528   6.767   4.517   3.673
 2210SOL    HW1 7529   6.694   4.499   3.738
 2210SOL    HW2 7530   6.728   4.555   3.589
 2211SOL     OW 7531   5.174   0.800   6.657
 2211SOL    HW1 7532   5.267   0.806   6.622
 2211SOL    HW2 7533   5.158   0.709   6.694
 2212SOL     OW 7534   1.865   6.051   0.178
 2212SOL    HW1 7535   1.836   6.141   0.210
 2212SOL    HW2 7536   1.785   5.998   0.150
 2213SOL     OW 7537   4.045   2.683   5.337
 2213SOL    HW1 7538   4.069   2.600   5.287
 2213SOL    HW2 7539   4.027   2.757   5.272
 2214SOL     OW 7540   4.608   2.334   5.596
 2214SOL    HW1 7541   4.700   2.336   5.635
 2214SOL    HW2 7542   4.556   2.259   5.637
 2215SOL     OW 7543   6.225   2.010   6.740
 2215SOL    HW1 7544   6.175   1.954   6.805
 2215SOL    HW2 7545   6.160   2.062   6.683
 2216SOL     OW 7546   1.797   0.968   6.339
 2216SOL    HW1 7547   1.818   1.020   6.422
 2216SOL    HW2 7548   1.728   0.899   6.360
 2217SOL     OW 7549   3.332   0.419   1.448
 2217SOL    HW1 7550   3.397   0.466   1.508
 2217SOL    HW2 7551   3.381   0.382   1.369
 2218SOL     OW 7552   0.932   0.036   0.859
 2218SOL    HW1 7553   0.937   0.030   0.759
 2218SOL    HW2 7554   1.020   0.011   0.898
 2219SOL     OW 7555   0.525   3.427   2.854
 2219SOL    HW1 7556   0.438   3.465   2.885
 2219SOL    HW2 7557   0.531   3.331   2.880
 2220SOL     OW 7558   7.009   0.846   4.514
 2220SOL    HW1 7559   6.909   0.849   4.512
 2220SOL    HW2 7560   0.024   0.937   4.493
 2221SOL     OW 7561   6.241   1.123   6.219
 2221SOL    HW1 7562   6.327   1.089   6.258
 2221SOL    HW2 7563   6.242   1.113   6.120
 2222SOL     OW 7564   3.813   0.945   1.046
 2222SOL    HW1 7565   3.807   0.992   1.134
 2222SOL    HW2 7566   3.815   0.846   1.060
 2223SOL     OW 7567   6.119   6.403   4.032
 2223SOL    HW1 7568   6.199   6.377   4.085
 2223SOL    HW2 7569   6.139   6.397   3.934
 2224SOL     OW 7570   2.166   4.584   2.242
 2224SOL    HW1 7571   2.145   4.645   2.165
 2224SOL    HW2 7572   2.121   4.619   2.324
 2225SOL     OW 7573   6.346   5.804   3.220
 2225SOL    HW1 7574   6.440   5.770   3.220
 2225SOL    HW2 7575   6.282   5.727   3.222
 2226SOL     OW 7576   4.181   4.167   0.404
 2226SOL    HW1 7577   4.168   4.096   0.335
 2226SOL    HW2 7578   4.273   4.205   0.396
 2227SOL     OW 7579   5.535   3.603   6.987
 2227SOL    HW1 7580   5.459   3.556   6.943
 2227SOL    HW2 7581   5.565   3.549   0.046
 2228SOL     OW 7582   2.901   5.479   1.297
 2228SOL    HW1 7583   2.912   5.578   1.284
 2228SOL    HW2 7584   2.852   5.462   1.383
 2229SOL     OW 7585   4.066   1.331   4.732
 2229SOL    HW1 7586   4.097   1.342   4.637
 2229SOL    HW2 7587   3.976   1.288   4.732
 2230SOL     OW 7588   0.012   5.764   5.519
 2230SOL    HW1 7589   0.042   5.675   5.554
 2230SOL    HW2 7590   7.016   5.826   5.596
 2231SOL     OW 7591   1.914   0.757   1.254
 2231SOL    HW1 7592   1.897   0.848   1.291
 2231SOL    HW2 7593   1.939   0.765   1.157
 2232SOL     OW 7594   1.494   1.893   3.839
 2232SOL    HW1 7595   1.412   1.853   3.880
 2232SOL    HW2 7596   1.494   1.874   3.740
 2233SOL     OW 7597   2.427   4.431   1.371
 2233SOL    HW1 7598   2.359   4.443   1.443
 2233SOL    HW2 7599   2.515   4.408   1.412
 2234SOL     OW 7600   4.884   2.283   1.873
 2234SOL    HW1 7601   4.866   2.189   1.902
 2234SOL    HW2 7602   4.966   2.317   1.920
 2235SOL     OW 7603   1.982   6.976   1.013
 2235SOL    HW1 7604   1.959   6.915   0.938
 2235SOL    HW2 7605   2.071   6.949   1.051
 2236SOL     OW 7606   0.708   4.288   6.959
 2236SOL    HW1 7607   0.754   4.317   0.022
 2236SOL    HW2 7608   0.626   4.235   6.983
 2237SOL     OW 7609   5.494   4.404   4.499
 2237SOL    HW1 7610   5.405   4.418   4.456
 2237SOL    HW2 7611   5.496   4.314   4.543
 2238SOL     OW 7612   5.792   5.633   1.801
 2238SOL    HW1 7613   5.823   5.588   1.885
 2238SOL    HW2 7614   5.708   5.683   1.820
 2239SOL     OW 7615   3.804   5.477   3.557
 2239SOL    HW1 7616   3.800   5.531   3.473
 2239SOL    HW2 7617   3.732   5.506   3.619
 2240SOL     OW 7618   5.584   5.998   3.940
 2240SOL    HW1 7619   5.580   6.095   3.916
 2240SOL    HW2 7620   5.494   5.956   3.926
 2241SOL     OW 7621   0.408   6.842   2.594
 2241SOL    HW1 7622   0.342   6.768   2.585
 2241SOL    HW2 7623   0.501   6.805   2.588
 2242SOL     OW 7624   5.321   2.718   2.841
 2242SOL    HW1 7625   5.272   2.660   2.775
 2242SOL    HW2 7626   5.338   2.665   2.924
 2243SOL     OW 7627   2.993   6.262   5.477
 2243SOL    HW1 7628   2.941   6.199   5.419
 2243SOL    HW2 7629   2.933   6.334   5.511
 2244SOL     OW 7630   3.505   0.481   3.064
 2244SOL    HW1 7631   3.408   0.457   3.071
 2244SOL    HW2 7632   3.529   0.495   2.968
 2245SOL     OW 7633   0.522   2.319   1.800
 2245SOL    HW1 7634   0.529   2.355   1.893
 2245SOL    HW2 7635   0.564   2.228   1.796
 2246SOL     OW 7636   1.024   1.302   4.635
 2246SOL    HW1 7637   0.964   1.333   4.708
 2246SOL    HW2 7638   1.038   1.376   4.569
 2247SOL     OW 7639   2.810   2.614   5.871
 2247SOL    HW1 7640   2.904   2.648   5.874
 2247SOL    HW2 7641   2.751   2.672   5.928
 2248SOL     OW 7642   4.256   3.987   6.588
 2248SOL    HW1 7643   4.346   3.992   6.544
 2248SOL    HW2 7644   4.184   3.994   6.519
 2249SOL     OW 7645   6.250   6.356   2.471
 2249SOL    HW1 7646   6.223   6.272   2.519
 2249SOL    HW2 7647   6.185   6.374   2.397
 2250SOL     OW 7648   5.239   3.698   0.870
 2250SOL    HW1 7649   5.249   3.705   0.770
 2250SOL    HW2 7650   5.233   3.790   0.909
 2251SOL     OW 7651   5.325   1.542   0.241
 2251SOL    HW1 7652   5.229   1.517   0.238
 2251SOL    HW2 7653   5.364   1.538   0.148
 2252SOL     OW 7654   6.782   2.552   3.614
 2252SOL    HW1 7655   6.816   2.484   3.549
 2252SOL    HW2 7656   6.751   2.506   3.697
 2253SOL     OW 7657   0.745   3.308   0.152
 2253SOL    HW1 7658   0.701   3.360   0.225
 2253SOL    HW2 7659   0.842   3.296   0.173
 2254SOL     OW 7660   2.182   2.869   5.626
 2254SOL    HW1 7661   2.264   2.905   5.581
 2254SOL    HW2 7662   2.159   2.779   5.588
 2255SOL     OW 7663   5.189   2.450   0.476
 2255SOL    HW1 7664   5.220   2.545   0.485
 2255SOL    HW2 7665   5.260   2.389   0.512
 2256SOL     OW 7666   4.050   6.717   1.591
 2256SOL    HW1 7667   4.097   6.643   1.639
 2256SOL    HW2 7668   3.979   6.756   1.651
 2257SOL     OW 7669   0.296   3.047   4.082
 2257SOL    HW1 7670   0.218   2.995   4.047
 2257SOL    HW2 7671   0.365   2.984   4.116
 2258SOL     OW 7672   0.862   5.273   5.414
 2258SOL    HW1 7673   0.777   5.262   5.465
 2258SOL    HW2 7674   0.863   5.208   5.338
 2259SOL     OW 7675   4.762   3.667   7.002
 2259SOL    HW1 7676   4.720   3.613   0.054
 2259SOL    HW2 7677   4.815   3.607   6.942
 2260SOL     OW 7678   5.333   4.649   2.950
 2260SOL    HW1 7679   5.273   4.570   2.962
 2260SOL    HW2 7680   5.412   4.640   3.011
 2261SOL     OW 7681   6.114   6.476   1.064
 2261SOL    HW1 7682   6.187   6.431   1.116
 2261SOL    HW2 7683   6.151   6.513   0.979
 2262SOL     OW 7684   5.703   2.735   2.499
 2262SOL    HW1 7685   5.621   2.701   2.546
 2262SOL    HW2 7686   5.680   2.761   2.405
 2263SOL     OW 7687   2.747   5.641   5.836
 2263SOL    HW1 7688   2.647   5.642   5.835
 2263SOL    HW2 7689   2.780   5.632   5.930
 2264SOL     OW 7690   3.493   3.475   1.678
 2264SOL    HW1 7691   3.511   3.377   1.675
 2264SOL    HW2 7692   3.396   3.491   1.660
 2265SOL     OW 7693   0.393   0.513   4.237
 2265SOL    HW1 7694   0.306   0.498   4.191
 2265SOL    HW2 7695   0.443   0.427   4.244
 2266SOL     OW 7696   6.133   1.613   1.288
 2266SOL    HW1 7697   6.110   1.526   1.245
 2266SOL    HW2 7698   6.064   1.636   1.357
 2267SOL     OW 7699   5.095   2.045   5.254
 2267SOL    HW1 7700   5.191   2.024   5.234
 2267SOL    HW2 7701   5.051   1.964   5.293
 2268SOL     OW 7702   6.355   4.077   6.356
 2268SOL    HW1 7703   6.352   4.120   6.266
 2268SOL    HW2 7704   6.285   4.118   6.415
 2269SOL     OW 7705   5.828   5.867   5.088
 2269SOL    HW1 7706   5.884   5.947   5.107
 2269SOL    HW2 7707   5.883   5.784   5.098
 2270SOL     OW 7708   3.557   3.136   6.981
 2270SOL    HW1 7709   3.463   3.101   6.981
 2270SOL    HW2 7710   3.600   3.117   6.892
 2271SOL     OW 7711   6.035   4.151   0.685
 2271SOL    HW1 7712   5.970   4.178   0.613
 2271SOL    HW2 7713   6.097   4.227   0.703
 2272SOL     OW 7714   5.673   2.056   5.125
 2272SOL    HW1 7715   5.626   1.974   5.159
 2272SOL    HW2 7716   5.768   2.034   5.104
 2273SOL     OW 7717   1.630   0.973   1.578
 2273SOL    HW1 7718   1.655   0.878   1.558
 2273SOL    HW2 7719   1.621   1.024   1.493
 2274SOL     OW 7720   0.963   2.517   6.029
 2274SOL    HW1 7721   0.953   2.550   6.123
 2274SOL    HW2 7722   0.968   2.417   6.028
 2275SOL     OW 7723   5.603   0.370   4.267
 2275SOL    HW1 7724   5.674   0.354   4.336
 2275SOL    HW2 7725   5.564   0.461   4.282
 2276SOL     OW 7726   2.917   4.883   1.314
 2276SOL    HW1 7727   2.853   4.807   1.310
 2276SOL    HW2 7728   2.924   4.927   1.224
 2277SOL     OW 7729   3.335   4.138   4.619
 2277SOL    HW1 7730   3.289   4.127   4.531
 2277SOL    HW2 7731   3.274   4.108   4.693
 2278SOL     OW 7732   5.453   6.434   4.555
 2278SOL    HW1 7733   5.400   6.447   4.471
 2278SOL    HW2 7734   5.397   6.387   4.622
 2279SOL     OW 7735   4.918   5.902   4.743
 2279SOL    HW1 7736   4.866   5.859   4.817
 2279SOL    HW2 7737   5.007   5.858   4.735
 2280SOL     OW 7738   6.877   6.434   4.696
 2280SOL    HW1 7739   6.835   6.460   4.783
 2280SOL    HW2 7740   6.811   6.383   4.641
 2281SOL     OW 7741   3.249   0.995   1.691
 2281SOL    HW1 7742   3.161   0.997   1.739
 2281SOL    HW2 7743   3.307   1.068   1.726
 2282SOL     OW 7744   5.239   0.311   4.735
 2282SOL    HW1 7745   5.249   0.363   4.821
 2282SOL    HW2 7746   5.228   0.214   4.756
 2283SOL     OW 7747   6.855   4.418   1.002
 2283SOL    HW1 7748   6.904   4.339   0.967
 2283SOL    HW2 7749   6.903   4.454   1.082
 2284SOL     OW 7750   2.124   1.686   0.440
 2284SOL    HW1 7751   2.080   1.729   0.361
 2284SOL    HW2 7752   2.199   1.628   0.409
 2285SOL     OW 7753   1.575   2.923   0.367
 2285SOL    HW1 7754   1.670   2.895   0.381
 2285SOL    HW2 7755   1.573   3.016   0.331
 2286SOL     OW 7756   6.813   6.809   4.633
 2286SOL    HW1 7757   6.779   6.895   4.594
 2286SOL    HW2 7758   6.833   6.745   4.560
 2287SOL     OW 7759   2.292   2.848   1.926
 2287SOL    HW1 7760   2.368   2.798   1.885
 2287SOL    HW2 7761   2.235   2.888   1.854
 2288SOL     OW 7762   6.671   4.789   4.695
 2288SOL    HW1 7763   6.701   4.708   4.746
 2288SOL    HW2 7764   6.580   4.815   4.726
 2289SOL     OW 7765   6.334   4.368   2.518
 2289SOL    HW1 7766   6.397   4.356   2.594
 2289SOL    HW2 7767   6.336   4.287   2.459
 2290SOL     OW 7768   2.192   3.872   2.221
 2290SOL    HW1 7769   2.258   3.801   2.194
 2290SOL    HW2 7770   2.100   3.838   2.205
 2291SOL     OW 7771   2.078   2.106   0.319
 2291SOL    HW1 7772   2.005   2.052   0.278
 2291SOL    HW2 7773   2.125   2.052   0.390
 2292SOL     OW 7774   5.247   2.242   3.036
 2292SOL    HW1 7775   5.280   2.225   3.129
 2292SOL    HW2 7776   5.148   2.227   3.033
 2293SOL     OW 7777   6.758   0.163   0.869
 2293SOL    HW1 7778   6.851   0.127   0.858
 2293SOL    HW2 7779   6.720   0.131   0.956
 2294SOL     OW 7780   3.362   1.673   6.271
 2294SOL    HW1 7781   3.418   1.589   6.269
 2294SOL    HW2 7782   3.378   1.725   6.187
 2295SOL     OW 7783   0.590   1.565   2.869
 2295SOL    HW1 7784   0.583   1.612   2.957
 2295SOL    HW2 7785   0.645   1.482   2.880
 2296SOL     OW 7786   3.353   5.331   2.503
 2296SOL    HW1 7787   3.408   5.252   2.477
 2296SOL    HW2 7788   3.314   5.317   2.594
 2297SOL     OW 7789   4.739   4.712   5.851
 2297SOL    HW1 7790   4.754   4.634   5.790
 2297SOL    HW2 7791   4.642   4.736   5.851
 2298SOL     OW 7792   4.083   3.406   2.752
 2298SOL    HW1 7793   3.989   3.375   2.741
 2298SOL    HW2 7794   4.134   3.338   2.805
 2299SOL     OW 7795   4.957   4.449   5.179
 2299SOL    HW1 7796   5.049   4.411   5.166
 2299SOL    HW2 7797   4.964   4.536   5.229
 2300SOL     OW 7798   2.736   6.658   3.209
 2300SOL    HW1 7799   2.761   6.732   3.147
 2300SOL    HW2 7800   2.742   6.570   3.161
 2301SOL     OW 7801   3.956   3.021   3.202
 2301SOL    HW1 7802   4.002   2.932   3.204
 2301SOL    HW2 7803   3.967   3.066   3.291
 2302SOL     OW 7804   3.565   0.726   1.402
 2302SOL    HW1 7805   3.656   0.701   1.436
 2302SOL    HW2 7806   3.509   0.759   1.478
 2303SOL     OW 7807   2.683   3.274   1.053
 2303SOL    HW1 7808   2.676   3.367   1.019
 2303SOL    HW2 7809   2.776   3.256   1.085
 2304SOL     OW 7810   5.811   6.086   4.495
 2304SOL    HW1 7811   5.729   6.114   4.446
 2304SOL    HW2 7812   5.838   6.158   4.558
 2305SOL     OW 7813   2.028   0.347   3.121
 2305SOL    HW1 7814   2.115   0.350   3.072
 2305SOL    HW2 7815   2.035   0.285   3.199
 2306SOL     OW 7816   1.942   4.922   1.487
 2306SOL    HW1 7817   1.863   4.976   1.460
 2306SOL    HW2 7818   1.978   4.956   1.574
 2307SOL     OW 7819   0.438   3.014   5.756
 2307SOL    HW1 7820   0.501   2.952   5.709
 2307SOL    HW2 7821   0.344   2.986   5.738
 2308SOL     OW 7822   2.930   4.535   1.345
 2308SOL    HW1 7823   2.946   4.500   1.253
 2308SOL    HW2 7824   3.018   4.554   1.389
 2309SOL     OW 7825   1.817   0.959   5.019
 2309SOL    HW1 7826   1.753   0.990   4.949
 2309SOL    HW2 7827   1.911   0.974   4.988
 2310SOL     OW 7828   5.828   5.891   1.931
 2310SOL    HW1 7829   5.860   5.962   1.868
 2310SOL    HW2 7830   5.732   5.872   1.914
 2311SOL     OW 7831   2.378   6.531   0.728
 2311SOL    HW1 7832   2.300   6.475   0.754
 2311SOL    HW2 7833   2.439   6.478   0.669
 2312SOL     OW 7834   4.984   5.580   3.356
 2312SOL    HW1 7835   5.022   5.488   3.365
 2312SOL    HW2 7836   5.003   5.615   3.264
 2313SOL     OW 7837   4.864   5.706   2.254
 2313SOL    HW1 7838   4.892   5.802   2.250
 2313SOL    HW2 7839   4.780   5.694   2.201
 2314SOL     OW 7840   4.820   6.024   2.789
 2314SOL    HW1 7841   4.811   5.932   2.751
 2314SOL    HW2 7842   4.916   6.043   2.809
 2315SOL     OW 7843   5.004   2.945   5.985
 2315SOL    HW1 7844   4.953   3.024   6.018
 2315SOL    HW2 7845   5.101   2.957   6.007
 2316SOL     OW 7846   4.320   1.789   4.076
 2316SOL    HW1 7847   4.318   1.818   4.172
 2316SOL    HW2 7848   4.405   1.739   4.059
 2317SOL     OW 7849   0.434   5.765   3.125
 2317SOL    HW1 7850   0.436   5.860   3.097
 2317SOL    HW2 7851   0.472   5.707   3.053
 2318SOL     OW 7852   0.670   3.008   3.494
 2318SOL    HW1 7853   0.655   2.921   3.540
 2318SOL    HW2 7854   0.604   3.076   3.528
 2319SOL     OW 7855   1.230   4.884   4.428
 2319SOL    HW1 7856   1.186   4.797   4.451
 2319SOL    HW2 7857   1.170   4.960   4.454
 2320SOL     OW 7858   0.746   2.539   3.848
 2320SOL    HW1 7859   0.746   2.491   3.760
 2320SOL    HW2 7860   0.654   2.576   3.865
 2321SOL     OW 7861   3.250   1.009   5.478
 2321SOL    HW1 7862   3.271   1.001   5.381
 2321SOL    HW2 7863   3.325   1.056   5.525
 2322SOL     OW 7864   2.428   1.906   5.225
 2322SOL    HW1 7865   2.526   1.918   5.207
 2322SOL    HW2 7866   2.377   1.916   5.140
 2323SOL     OW 7867   3.201   4.855   2.243
 2323SOL    HW1 7868   3.116   4.803   2.254
 2323SOL    HW2 7869   3.221   4.905   2.327
 2324SOL     OW 7870   0.121   6.267   2.900
 2324SOL    HW1 7871   0.067   6.351   2.899
 2324SOL    HW2 7872   0.190   6.270   2.829
 2325SOL     OW 7873   0.514   4.341   1.403
 2325SOL    HW1 7874   0.565   4.260   1.432
 2325SOL    HW2 7875   0.577   4.415   1.383
 2326SOL     OW 7876   3.303   4.088   6.159
 2326SOL    HW1 7877   3.309   4.119   6.254
 2326SOL    HW2 7878   3.385   4.115   6.109
 2327SOL     OW 7879   5.673   2.535   4.611
 2327SOL    HW1 7880   5.668   2.464   4.681
 2327SOL    HW2 7881   5.767   2.547   4.582
 2328SOL     OW 7882   4.507   1.715   3.292
 2328SOL    HW1 7883   4.585   1.762   3.334
 2328SOL    HW2 7884   4.448   1.679   3.364
 2329SOL     OW 7885   1.545   5.095   4.638
 2329SOL    HW1 7886   1.533   5.096   4.538
 2329SOL    HW2 7887   1.636   5.061   4.660
 2330SOL     OW 7888   6.936   4.164   2.736
 2330SOL    HW1 7889   6.853   4.164   2.792
 2330SOL    HW2 7890   6.931   4.237   2.668
 2331SOL     OW 7891   6.241   4.861   6.758
 2331SOL    HW1 7892   6.281   4.953   6.752
 2331SOL    HW2 7893   6.250   4.827   6.852
 2332SOL     OW 7894   4.033   1.915   5.229
 2332SOL    HW1 7895   4.130   1.891   5.234
 2332SOL    HW2 7896   3.989   1.861   5.158
 2333SOL     OW 7897   6.424   4.936   2.976
 2333SOL    HW1 7898   6.520   4.959   2.956
 2333SOL    HW2 7899   6.416   4.838   2.989
 2334SOL     OW 7900   2.856   0.245   0.334
 2334SOL    HW1 7901   2.786   0.310   0.361
 2334SOL    HW2 7902   2.862   0.241   0.234
 2335SOL     OW 7903   6.153   0.753   3.105
 2335SOL    HW1 7904   6.248   0.781   3.094
 2335SOL    HW2 7905   6.111   0.743   3.015
 2336SOL     OW 7906   4.319   1.961   5.574
 2336SOL    HW1 7907   4.358   1.945   5.483
 2336SOL    HW2 7908   4.390   1.948   5.644
 2337SOL     OW 7909   4.869   0.865   3.609
 2337SOL    HW1 7910   4.779   0.906   3.592
 2337SOL    HW2 7911   4.860   0.794   3.679
 2338SOL     OW 7912   0.648   0.259   0.039
 2338SOL    HW1 7913   0.744   0.229   0.035
 2338SOL    HW2 7914   0.617   0.258   0.134
 2339SOL     OW 7915   3.552   3.736   5.089
 2339SOL    HW1 7916   3.548   3.699   4.996
 2339SOL    HW2 7917   3.465   3.779   5.112
 2340SOL     OW 7918   4.689   6.653   5.562
 2340SOL    HW1 7919   4.772   6.600   5.545
 2340SOL    HW2 7920   4.617   6.624   5.499
 2341SOL     OW 7921   4.944   3.565   1.040
 2341SOL    HW1 7922   4.995   3.535   0.959
 2341SOL    HW2 7923   4.936   3.665   1.039
 2342SOL     OW 7924   0.859   6.127   5.798
 2342SOL    HW1 7925   0.912   6.211   5.798
 2342SOL    HW2 7926   0.822   6.111   5.706
 2343SOL     OW 7927   1.993   6.551   1.269
 2343SOL    HW1 7928   1.992   6.627   1.334
 2343SOL    HW2 7929   2.062   6.484   1.298
 2344SOL     OW 7930   2.012   0.977   1.033
 2344SOL    HW1 7931   1.920   1.006   1.058
 2344SOL    HW2 7932   2.013   0.877   1.022
 2345SOL     OW 7933   2.144   6.158   5.336
 2345SOL    HW1 7934   2.219   6.134   5.397
 2345SOL    HW2 7935   2.074   6.208   5.387
 2346SOL     OW 7936   5.022   3.178   4.849
 2346SOL    HW1 7937   5.000   3.220   4.937
 2346SOL    HW2 7938   4.962   3.099   4.834
 2347SOL     OW 7939   1.994   4.179   2.042
 2347SOL    HW1 7940   2.091   4.173   2.022
 2347SOL    HW2 7941   1.954   4.258   1.995
 2348SOL     OW 7942   2.701   6.063   3.525
 2348SOL    HW1 7943   2.760   6.091   3.600
 2348SOL    HW2 7944   2.627   6.005   3.560
 2349SOL     OW 7945   0.537   6.266   0.205
 2349SOL    HW1 7946   0.596   6.231   0.132
 2349SOL    HW2 7947   0.503   6.190   0.260
 2350SOL     OW 7948   4.384   0.061   5.915
 2350SOL    HW1 7949   4.352   0.082   6.007
 2350SOL    HW2 7950   4.451   0.129   5.886
 2351SOL     OW 7951   2.970   5.466   3.435
 2351SOL    HW1 7952   3.018   5.382   3.411
 2351SOL    HW2 7953   2.948   5.465   3.532
 2352SOL     OW 7954   0.365   4.705   2.809
 2352SOL    HW1 7955   0.452   4.672   2.774
 2352SOL    HW2 7956   0.308   4.627   2.836
 2353SOL     OW 7957   2.386   4.436   4.583
 2353SOL    HW1 7958   2.390   4.433   4.683
 2353SOL    HW2 7959   2.343   4.353   4.549
 2354SOL     OW 7960   3.880   2.570   6.354
 2354SOL    HW1 7961   3.872   2.593   6.257
 2354SOL    HW2 7962   3.795   2.529   6.385
 2355SOL     OW 7963   0.749   5.181   0.594
 2355SOL    HW1 7964   0.770   5.276   0.614
 2355SOL    HW2 7965   0.660   5.175   0.548
 2356SOL     OW 7966   2.111   4.217   1.109
 2356SOL    HW1 7967   2.059   4.282   1.053
 2356SOL    HW2 7968   2.066   4.207   1.197
 2357SOL     OW 7969   3.838   4.822   4.082
 2357SOL    HW1 7970   3.872   4.916   4.069
 2357SOL    HW2 7971   3.885   4.781   4.160
 2358SOL     OW 7972   3.306   6.092   4.336
 2358SOL    HW1 7973   3.284   6.167   4.399
 2358SOL    HW2 7974   3.221   6.051   4.302
 2359SOL     OW 7975   1.949   0.976   6.122
 2359SOL    HW1 7976   2.047   0.975   6.142
 2359SOL    HW2 7977   1.898   0.978   6.208
 2360SOL     OW 7978   4.701   5.762   5.794
 2360SOL    HW1 7979   4.634   5.830   5.763
 2360SOL    HW2 7980   4.743   5.792   5.879
 2361SOL     OW 7981   2.577   0.379   3.898
 2361SOL    HW1 7982   2.604   0.374   3.994
 2361SOL    HW2 7983   2.644   0.330   3.842
 2362SOL     OW 7984   4.694   0.059   5.040
 2362SOL    HW1 7985   4.729   0.085   4.950
 2362SOL    HW2 7986   4.596   0.043   5.034
 2363SOL     OW 7987   4.499   2.751   5.255
 2363SOL    HW1 7988   4.543   2.783   5.339
 2363SOL    HW2 7989   4.447   2.668   5.275
 2364SOL     OW 7990   6.030   1.805   1.860
 2364SOL    HW1 7991   5.995   1.834   1.771
 2364SOL    HW2 7992   6.069   1.884   1.908
 2365SOL     OW 7993   5.600   3.603   5.710
 2365SOL    HW1 7994   5.623   3.624   5.805
 2365SOL    HW2 7995   5.680   3.565   5.664
 2366SOL     OW 7996   1.015   4.112   5.416
 2366SOL    HW1 7997   1.027   4.119   5.317
 2366SOL    HW2 7998   0.950   4.038   5.436
 2367SOL     OW 7999   1.621   3.498   6.398
 2367SOL    HW1 8000   1.609   3.508   6.300
 2367SOL    HW2 8001   1.683   3.421   6.417
 2368SOL     OW 8002   4.896   1.106   4.965
 2368SOL    HW1 8003   4.879   1.047   4.886
 2368SOL    HW2 8004   4.816   1.105   5.025
 2369SOL     OW 8005   2.619   2.466   3.866
 2369SOL    HW1 8006   2.643   2.435   3.957
 2369SOL    HW2 8007   2.677   2.420   3.798
 2370SOL     OW 8008   4.258   3.599   6.894
 2370SOL    HW1 8009   4.223   3.622   6.804
 2370SOL    HW2 8010   4.306   3.511   6.890
 2371SOL     OW 8011   1.876   5.745   1.966
 2371SOL    HW1 8012   1.934   5.722   2.044
 2371SOL    HW2 8013   1.823   5.827   1.988
 2372SOL     OW 8014   0.864   1.608   0.051
 2372SOL    HW1 8015   0.953   1.628   0.012
 2372SOL    HW2 8016   0.865   1.517   0.092
 2373SOL     OW 8017   6.247   1.009   6.577
 2373SOL    HW1 8018   6.332   1.005   6.523
 2373SOL    HW2 8019   6.265   1.055   6.664
 2374SOL     OW 8020   6.161   5.681   3.688
 2374SOL    HW1 8021   6.129   5.660   3.780
 2374SOL    HW2 8022   6.212   5.768   3.689
 2375SOL     OW 8023   0.872   0.131   4.750
 2375SOL    HW1 8024   0.822   0.044   4.745
 2375SOL    HW2 8025   0.921   0.136   4.837
 2376SOL     OW 8026   5.895   2.717   3.239
 2376SOL    HW1 8027   5.805   2.686   3.270
 2376SOL    HW2 8028   5.945   2.639   3.202
 2377SOL     OW 8029   3.458   3.567   4.487
 2377SOL    HW1 8030   3.370   3.532   4.518
 2377SOL    HW2 8031   3.527   3.495   4.491
 2378SOL     OW 8032   5.443   1.954   0.484
 2378SOL    HW1 8033   5.438   1.898   0.401
 2378SOL    HW2 8034   5.358   2.005   0.495
 2379SOL     OW 8035   6.697   2.759   0.009
 2379SOL    HW1 8036   6.731   2.852   7.012
 2379SOL    HW2 8037   6.692   2.744   0.108
 2380SOL     OW 8038   6.787   0.810   5.310
 2380SOL    HW1 8039   6.882   0.800   5.340
 2380SOL    HW2 8040   6.726   0.773   5.380
 2381SOL     OW 8041   1.451   4.391   4.740
 2381SOL    HW1 8042   1.377   4.428   4.797
 2381SOL    HW2 8043   1.538   4.400   4.788
 2382SOL     OW 8044   2.051   5.472   2.636
 2382SOL    HW1 8045   2.065   5.488   2.539
 2382SOL    HW2 8046   1.967   5.420   2.650
 2383SOL     OW 8047   5.504   6.494   6.450
 2383SOL    HW1 8048   5.411   6.505   6.486
 2383SOL    HW2 8049   5.540   6.405   6.478
 2384SOL     OW 8050   0.978   1.615   1.628
 2384SOL    HW1 8051   1.024   1.703   1.617
 2384SOL    HW2 8052   1.011   1.570   1.711
 2385SOL     OW 8053   0.182   0.565   0.933
 2385SOL    HW1 8054   0.199   0.639   0.999
 2385SOL    HW2 8055   0.260   0.503   0.931
 2386SOL     OW 8056   3.127   5.392   4.490
 2386SOL    HW1 8057   3.037   5.408   4.530
 2386SOL    HW2 8058   3.163   5.478   4.453
 2387SOL     OW 8059   6.649   3.059   4.324
 2387SOL    HW1 8060   6.556   3.025   4.339
 2387SOL    HW2 8061   6.714   2.996   4.367
 2388SOL     OW 8062   1.296   1.648   5.419
 2388SOL    HW1 8063   1.305   1.585   5.496
 2388SOL    HW2 8064   1.202   1.680   5.414
 2389SOL     OW 8065   4.462   4.661   4.108
 2389SOL    HW1 8066   4.451   4.631   4.014
 2389SOL    HW2 8067   4.515   4.592   4.159
 2390SOL     OW 8068   3.597   3.641   4.831
 2390SOL    HW1 8069   3.534   3.699   4.779
 2390SOL    HW2 8070   3.688   3.682   4.830
 2391SOL     OW 8071   3.544   4.502   6.272
 2391SOL    HW1 8072   3.476   4.430   6.289
 2391SOL    HW2 8073   3.537   4.532   6.177
 2392SOL     OW 8074   3.226   4.818   6.525
 2392SOL    HW1 8075   3.281   4.828   6.608
 2392SOL    HW2 8076   3.129   4.815   6.549
 2393SOL     OW 8077   3.864   5.345   1.285
 2393SOL    HW1 8078   3.826   5.350   1.192
 2393SOL    HW2 8079   3.790   5.358   1.351
 2394SOL     OW 8080   1.071   3.759   4.588
 2394SOL    HW1 8081   1.022   3.673   4.601
 2394SOL    HW2 8082   1.100   3.768   4.493
 2395SOL     OW 8083   6.946   2.644   6.689
 2395SOL    HW1 8084   6.953   2.683   6.782
 2395SOL    HW2 8085   0.013   2.651   6.643
 2396SOL     OW 8086   6.027   6.075   0.617
 2396SOL    HW1 8087   5.929   6.096   0.623
 2396SOL    HW2 8088   6.067   6.073   0.708
 2397SOL     OW 8089   6.677   4.936   0.029
 2397SOL    HW1 8090   6.692   4.955   0.126
 2397SOL    HW2 8091   6.608   4.865   0.019
 2398SOL     OW 8092   2.632   4.721   4.770
 2398SOL    HW1 8093   2.533   4.728   4.784
 2398SOL    HW2 8094   2.678   4.717   4.858
 2399SOL     OW 8095   4.340   1.408   3.241
 2399SOL    HW1 8096   4.292   1.322   3.262
 2399SOL    HW2 8097   4.388   1.440   3.322
 2400SOL     OW 8098   2.725   3.588   0.817
 2400SOL    HW1 8099   2.730   3.491   0.795
 2400SOL    HW2 8100   2.748   3.642   0.737
 2401SOL     OW 8101   3.444   0.510   4.821
 2401SOL    HW1 8102   3.515   0.562   4.868
 2401SOL    HW2 8103   3.354   0.547   4.844
 2402SOL     OW 8104   0.054   1.710   3.702
 2402SOL    HW1 8105   7.005   1.672   3.641
 2402SOL    HW2 8106   0.013   1.730   3.791
 2403SOL     OW 8107   3.459   3.012   0.660
 2403SOL    HW1 8108   3.369   3.054   0.658
 2403SOL    HW2 8109   3.521   3.068   0.716
 2404SOL     OW 8110   5.504   1.684   1.779
 2404SOL    HW1 8111   5.439   1.760   1.791
 2404SOL    HW2 8112   5.496   1.622   1.856
 2405SOL     OW 8113   3.696   3.921   5.295
 2405SOL    HW1 8114   3.719   3.848   5.230
 2405SOL    HW2 8115   3.607   3.960   5.271
 2406SOL     OW 8116   2.121   0.837   2.940
 2406SOL    HW1 8117   2.220   0.847   2.932
 2406SOL    HW2 8118   2.090   0.761   2.883
 2407SOL     OW 8119   4.432   2.348   2.757
 2407SOL    HW1 8120   4.522   2.304   2.767
 2407SOL    HW2 8121   4.444   2.438   2.715
 2408SOL     OW 8122   3.637   4.890   3.198
 2408SOL    HW1 8123   3.649   4.941   3.282
 2408SOL    HW2 8124   3.727   4.865   3.161
 2409SOL     OW 8125   1.878   2.546   1.532
 2409SOL    HW1 8126   1.948   2.576   1.597
 2409SOL    HW2 8127   1.879   2.446   1.526
 2410SOL     OW 8128   6.785   3.355   5.347
 2410SOL    HW1 8129   6.853   3.321   5.283
 2410SOL    HW2 8130   6.803   3.451   5.368
 2411SOL     OW 8131   3.403   4.100   5.728
 2411SOL    HW1 8132   3.304   4.112   5.731
 2411SOL    HW2 8133   3.443   4.138   5.812
 2412SOL     OW 8134   2.649   3.419   0.457
 2412SOL    HW1 8135   2.567   3.466   0.489
 2412SOL    HW2 8136   2.628   3.368   0.373
 2413SOL     OW 8137   5.990   3.540   6.620
 2413SOL    HW1 8138   6.025   3.469   6.682
 2413SOL    HW2 8139   5.983   3.503   6.528
 2414SOL     OW 8140   5.747   3.674   2.873
 2414SOL    HW1 8141   5.800   3.728   2.938
 2414SOL    HW2 8142   5.669   3.633   2.920
 2415SOL     OW 8143   2.113   0.608   1.616
 2415SOL    HW1 8144   2.201   0.594   1.662
 2415SOL    HW2 8145   2.092   0.528   1.560
 2416SOL     OW 8146   1.427   1.408   4.661
 2416SOL    HW1 8147   1.375   1.485   4.625
 2416SOL    HW2 8148   1.420   1.407   4.761
 2417SOL     OW 8149   5.576   2.157   0.570
 2417SOL    HW1 8150   5.534   2.246   0.554
 2417SOL    HW2 8151   5.513   2.084   0.544
 2418SOL     OW 8152   3.289   3.805   5.169
 2418SOL    HW1 8153   3.243   3.866   5.234
 2418SOL    HW2 8154   3.273   3.710   5.196
 2419SOL     OW 8155   0.917   0.048   5.262
 2419SOL    HW1 8156   0.833   0.039   5.208
 2419SOL    HW2 8157   0.986   0.095   5.208
 2420SOL     OW 8158   3.829   7.008   2.329
 2420SOL    HW1 8159   3.877   6.976   2.411
 2420SOL    HW2 8160   3.782   0.072   2.349
 2421SOL     OW 8161   3.003   0.368   4.701
 2421SOL    HW1 8162   2.992   0.296   4.632
 2421SOL    HW2 8163   3.006   0.457   4.656
 2422SOL     OW 8164   4.853   0.736   0.766
 2422SOL    HW1 8165   4.910   0.679   0.709
 2422SOL    HW2 8166   4.869   0.714   0.863
 2423SOL     OW 8167   2.054   5.797   2.162
 2423SOL    HW1 8168   2.065   5.896   2.159
 2423SOL    HW2 8169   2.048   5.767   2.257
 2424SOL     OW 8170   5.647   6.187   6.695
 2424SOL    HW1 8171   5.584   6.233   6.758
 2424SOL    HW2 8172   5.621   6.090   6.688
 2425SOL     OW 8173   6.334   6.569   5.011
 2425SOL    HW1 8174   6.418   6.618   5.034
 2425SOL    HW2 8175   6.304   6.594   4.919
 2426SOL     OW 8176   1.214   6.037   4.771
 2426SOL    HW1 8177   1.206   6.135   4.752
 2426SOL    HW2 8178   1.166   6.016   4.856
 2427SOL     OW 8179   5.382   5.468   6.713
 2427SOL    HW1 8180   5.416   5.527   6.639
 2427SOL    HW2 8181   5.426   5.379   6.708
 2428SOL     OW 8182   0.347   0.532   3.282
 2428SOL    HW1 8183   0.420   0.539   3.350
 2428SOL    HW2 8184   0.290   0.614   3.284
 2429SOL     OW 8185   5.877   5.363   2.973
 2429SOL    HW1 8186   5.799   5.319   3.016
 2429SOL    HW2 8187   5.956   5.361   3.035
 2430SOL     OW 8188   5.432   2.665   0.937
 2430SOL    HW1 8189   5.439   2.686   0.839
 2430SOL    HW2 8190   5.426   2.750   0.989
 2431SOL     OW 8191   4.490   0.932   1.491
 2431SOL    HW1 8192   4.517   0.935   1.395
 2431SOL    HW2 8193   4.492   0.837   1.523
 2432SOL     OW 8194   3.716   6.768   2.736
 2432SOL    HW1 8195   3.632   6.818   2.756
 2432SOL    HW2 8196   3.697   6.670   2.738
 2433SOL     OW 8197   2.489   6.703   0.170
 2433SOL    HW1 8198   2.496   6.679   0.267
 2433SOL    HW2 8199   2.498   6.619   0.115
 2434SOL     OW 8200   5.326   1.645   3.529
 2434SOL    HW1 8201   5.231   1.618   3.548
 2434SOL    HW2 8202   5.388   1.575   3.563
 2435SOL     OW 8203   5.014   4.840   0.536
 2435SOL    HW1 8204   5.048   4.934   0.521
 2435SOL    HW2 8205   4.972   4.806   0.453
 2436SOL     OW 8206   1.619   6.592   1.469
 2436SOL    HW1 8207   1.613   6.571   1.566
 2436SOL    HW2 8208   1.605   6.691   1.456
 2437SOL     OW 8209   5.300   5.646   1.184
 2437SOL    HW1 8210   5.317   5.707   1.262
 2437SOL    HW2 8211   5.379   5.587   1.170
 2438SOL     OW 8212   3.975   0.937   4.531
 2438SOL    HW1 8213   4.058   0.942   4.588
 2438SOL    HW2 8214   3.903   0.994   4.572
 2439SOL     OW 8215   1.089   3.880   0.407
 2439SOL    HW1 8216   1.160   3.817   0.377
 2439SOL    HW2 8217   1.010   3.873   0.346
 2440SOL     OW 8218   3.963   6.663   5.379
 2440SOL    HW1 8219   3.918   6.596   5.320
 2440SOL    HW2 8220   3.990   6.619   5.465
 2441SOL     OW 8221   5.479   0.516   0.400
 2441SOL    HW1 8222   5.528   0.444   0.350
 2441SOL    HW2 8223   5.471   0.490   0.496
 2442SOL     OW 8224   5.725   5.590   2.871
 2442SOL    HW1 8225   5.785   5.514   2.895
 2442SOL    HW2 8226   5.757   5.673   2.915
 2443SOL     OW 8227   2.874   0.528   6.260
 2443SOL    HW1 8228   2.881   0.445   6.205
 2443SOL    HW2 8229   2.838   0.603   6.204
 2444SOL     OW 8230   3.539   4.025   7.019
 2444SOL    HW1 8231   3.541   4.104   0.059
 2444SOL    HW2 8232   3.619   4.028   6.959
 2445SOL     OW 8233   6.872   1.323   2.295
 2445SOL    HW1 8234   6.875   1.281   2.205
 2445SOL    HW2 8235   6.825   1.262   2.359
 2446SOL     OW 8236   0.938   2.633   4.634
 2446SOL    HW1 8237   0.875   2.662   4.706
 2446SOL    HW2 8238   0.908   2.673   4.547
 2447SOL     OW 8239   2.433   1.470   1.248
 2447SOL    HW1 8240   2.475   1.445   1.161
 2447SOL    HW2 8241   2.472   1.556   1.281
 2448SOL     OW 8242   6.539   1.120   4.345
 2448SOL    HW1 8243   6.459   1.133   4.287
 2448SOL    HW2 8244   6.609   1.069   4.294
 2449SOL     OW 8245   0.306   3.660   2.646
 2449SOL    HW1 8246   0.323   3.567   2.615
 2449SOL    HW2 8247   0.372   3.722   2.603
 2450SOL     OW 8248   3.112   5.165   6.114
 2450SOL    HW1 8249   3.014   5.146   6.111
 2450SOL    HW2 8250   3.150   5.129   6.200
 2451SOL     OW 8251   1.464   0.097   3.856
 2451SOL    HW1 8252   1.405   0.177   3.848
 2451SOL    HW2 8253   1.527   0.108   3.933
 2452SOL     OW 8254   3.413   1.794   4.029
 2452SOL    HW1 8255   3.462   1.724   3.975
 2452SOL    HW2 8256   3.373   1.861   3.967
 2453SOL     OW 8257   6.898   3.334   0.600
 2453SOL    HW1 8258   6.882   3.365   0.507
 2453SOL    HW2 8259   6.962   3.258   0.600
 2454SOL     OW 8260   3.371   0.768   6.324
 2454SOL    HW1 8261   3.437   0.692   6.324
 2454SOL    HW2 8262   3.418   0.853   6.303
 2455SOL     OW 8263   4.309   0.570   0.509
 2455SOL    HW1 8264   4.298   0.595   0.413
 2455SOL    HW2 8265   4.373   0.493   0.516
 2456SOL     OW 8266   6.106   2.590   0.047
 2456SOL    HW1 8267   6.037   2.647   0.092
 2456SOL    HW2 8268   6.182   2.574   0.109
 2457SOL     OW 8269   6.120   0.239   6.852
 2457SOL    HW1 8270   6.172   0.314   6.810
 2457SOL    HW2 8271   6.182   0.182   6.907
 2458SOL     OW 8272   1.752   6.160   4.183
 2458SOL    HW1 8273   1.769   6.106   4.265
 2458SOL    HW2 8274   1.654   6.180   4.175
 2459SOL     OW 8275   2.586   6.045   5.957
 2459SOL    HW1 8276   2.685   6.028   5.954
 2459SOL    HW2 8277   2.560   6.101   5.878
 2460SOL     OW 8278   1.739   1.366   1.385
 2460SOL    HW1 8279   1.765   1.382   1.480
 2460SOL    HW2 8280   1.821   1.343   1.333
 2461SOL     OW 8281   4.685   0.833   3.211
 2461SOL    HW1 8282   4.753   0.784   3.266
 2461SOL    HW2 8283   4.646   0.772   3.143
 2462SOL     OW 8284   1.750   5.380   6.829
 2462SOL    HW1 8285   1.704   5.426   6.753
 2462SOL    HW2 8286   1.815   5.442   6.871
 2463SOL     OW 8287   6.068   1.881   6.077
 2463SOL    HW1 8288   6.146   1.943   6.078
 2463SOL    HW2 8289   6.060   1.836   6.166
 2464SOL     OW 8290   2.192   4.196   2.631
 2464SOL    HW1 8291   2.206   4.176   2.728
 2464SOL    HW2 8292   2.175   4.111   2.581
 2465SOL     OW 8293   0.735   0.375   0.580
 2465SOL    HW1 8294   0.702   0.293   0.531
 2465SOL    HW2 8295   0.807   0.419   0.527
 2466SOL     OW 8296   2.624   1.767   3.072
 2466SOL    HW1 8297   2.628   1.793   2.976
 2466SOL    HW2 8298   2.707   1.717   3.097
 2467SOL     OW 8299   4.912   1.453   5.102
 2467SOL    HW1 8300   4.963   1.535   5.125
 2467SOL    HW2 8301   4.918   1.388   5.178
 2468SOL     OW 8302   4.266   6.491   1.723
 2468SOL    HW1 8303   4.284   6.452   1.814
 2468SOL    HW2 8304   4.225   6.421   1.665
 2469SOL     OW 8305   4.295   3.940   5.679
 2469SOL    HW1 8306   4.231   3.947   5.602
 2469SOL    HW2 8307   4.298   4.027   5.728
 2470SOL     OW 8308   4.514   4.663   6.158
 2470SOL    HW1 8309   4.458   4.586   6.125
 2470SOL    HW2 8310   4.601   4.664   6.108
 2471SOL     OW 8311   2.601   5.990   0.344
 2471SOL    HW1 8312   2.693   6.012   0.376
 2471SOL    HW2 8313   2.606   5.938   0.259
 2472SOL     OW 8314   4.677   2.649   4.037
 2472SOL    HW1 8315   4.603   2.584   4.023
 2472SOL    HW2 8316   4.740   2.614   4.106
 2473SOL     OW 8317   1.603   3.867   5.030
 2473SOL    HW1 8318   1.637   3.880   5.123
 2473SOL    HW2 8319   1.629   3.946   4.974
 2474SOL     OW 8320   0.813   5.394   1.026
 2474SOL    HW1 8321   0.744   5.341   0.976
 2474SOL    HW2 8322   0.819   5.360   1.120
 2475SOL     OW 8323   4.197   0.892   2.917
 2475SOL    HW1 8324   4.266   0.945   2.966
 2475SOL    HW2 8325   4.186   0.803   2.961
 2476SOL     OW 8326   0.005   1.574   2.843
 2476SOL    HW1 8327   0.067   1.622   2.782
 2476SOL    HW2 8328   0.029   1.594   2.938
 2477SOL     OW 8329   4.537   1.381   2.285
 2477SOL    HW1 8330   4.479   1.379   2.366
 2477SOL    HW2 8331   4.483   1.406   2.205
 2478SOL     OW 8332   6.118   0.952   1.934
 2478SOL    HW1 8333   6.194   0.995   1.884
 2478SOL    HW2 8334   6.052   0.915   1.869
 2479SOL     OW 8335   1.389   3.893   1.165
 2479SOL    HW1 8336   1.402   3.795   1.178
 2479SOL    HW2 8337   1.344   3.932   1.246
 2480SOL     OW 8338   4.837   4.152   0.878
 2480SOL    HW1 8339   4.807   4.206   0.800
 2480SOL    HW2 8340   4.757   4.117   0.927
 2481SOL     OW 8341   2.294   0.424   0.610
 2481SOL    HW1 8342   2.196   0.442   0.605
 2481SOL    HW2 8343   2.343   0.506   0.638
 2482SOL     OW 8344   4.901   3.200   6.104
 2482SOL    HW1 8345   4.919   3.169   6.197
 2482SOL    HW2 8346   4.825   3.266   6.105
 2483SOL     OW 8347   2.306   1.518   0.315
 2483SOL    HW1 8348   2.217   1.490   0.278
 2483SOL    HW2 8349   2.369   1.441   0.310
 2484SOL     OW 8350   3.599   0.679   0.110
 2484SOL    HW1 8351   3.570   0.685   0.205
 2484SOL    HW2 8352   3.556   0.600   0.066
 2485SOL     OW 8353   6.287   3.952   1.410
 2485SOL    HW1 8354   6.372   3.902   1.396
 2485SOL    HW2 8355   6.285   3.988   1.504
 2486SOL     OW 8356   1.907   4.779   4.505
 2486SOL    HW1 8357   1.912   4.795   4.604
 2486SOL    HW2 8358   1.994   4.804   4.462
 2487SOL     OW 8359   3.992   5.675   0.371
 2487SOL    HW1 8360   3.932   5.627   0.436
 2487SOL    HW2 8361   4.038   5.608   0.313
 2488SOL     OW 8362   2.096   4.490   2.739
 2488SOL    HW1 8363   2.163   4.442   2.795
 2488SOL    HW2 8364   2.131   4.580   2.715
 2489SOL     OW 8365   1.327   5.235   2.353
 2489SOL    HW1 8366   1.300   5.211   2.260
 2489SOL    HW2 8367   1.385   5.316   2.351
 2490SOL     OW 8368   6.429   4.890   1.557
 2490SOL    HW1 8369   6.431   4.929   1.649
 2490SOL    HW2 8370   6.442   4.791   1.562
 2491SOL     OW 8371   2.778   5.318   1.075
 2491SOL    HW1 8372   2.741   5.399   1.029
 2491SOL    HW2 8373   2.826   5.346   1.158
 2492SOL     OW 8374   4.568   2.125   1.467
 2492SOL    HW1 8375   4.583   2.051   1.532
 2492SOL    HW2 8376   4.620   2.107   1.383
 2493SOL     OW 8377   5.457   0.974   1.885
 2493SOL    HW1 8378   5.432   0.946   1.978
 2493SOL    HW2 8379   5.474   0.893   1.829
 2494SOL     OW 8380   6.122   3.552   2.210
 2494SOL    HW1 8381   6.054   3.612   2.252
 2494SOL    HW2 8382   6.101   3.457   2.234
 2495SOL     OW 8383   5.442   0.202   4.115
 2495SOL    HW1 8384   5.344   0.217   4.124
 2495SOL    HW2 8385   5.489   0.245   4.193
 2496SOL     OW 8386   6.739   3.417   5.771
 2496SOL    HW1 8387   6.745   3.377   5.863
 2496SOL    HW2 8388   6.780   3.508   5.771
 2497SOL     OW 8389   0.653   0.652   0.516
 2497SOL    HW1 8390   0.653   0.628   0.419
 2497SOL    HW2 8391   0.663   0.570   0.571
 2498SOL     OW 8392   2.936   1.020   4.497
 2498SOL    HW1 8393   2.890   1.066   4.573
 2498SOL    HW2 8394   2.971   1.088   4.432
 2499SOL     OW 8395   5.781   2.064   3.152
 2499SOL    HW1 8396   5.852   2.088   3.085
 2499SOL    HW2 8397   5.824   2.048   3.241
 2500SOL     OW 8398   4.885   3.004   0.228
 2500SOL    HW1 8399   4.939   3.007   0.313
 2500SOL    HW2 8400   4.866   2.908   0.205
 2501SOL     OW 8401   5.575   5.691   6.795
 2501SOL    HW1 8402   5.575   5.711   6.893
 2501SOL    HW2 8403   5.524   5.606   6.779
 2502SOL     OW 8404   1.524   5.454   3.517
 2502SOL    HW1 8405   1.560   5.430   3.427
 2502SOL    HW2 8406   1.451   5.522   3.506
 2503SOL     OW 8407   3.098   5.440   4.176
 2503SOL    HW1 8408   3.099   5.518   4.239
 2503SOL    HW2 8409   3.050   5.363   4.219
 2504SOL     OW 8410   3.876   5.400   4.733
 2504SOL    HW1 8411   3.849   5.421   4.639
 2504SOL    HW2 8412   3.799   5.419   4.794
 2505SOL     OW 8413   1.505   6.114   3.479
 2505SOL    HW1 8414   1.542   6.025   3.505
 2505SOL    HW2 8415   1.441   6.145   3.549
 2506SOL     OW 8416   6.842   3.942   5.335
 2506SOL    HW1 8417   6.805   3.850   5.350
 2506SOL    HW2 8418   6.941   3.941   5.353
 2507SOL     OW 8419   0.875   4.335   0.975
 2507SOL    HW1 8420   0.911   4.414   1.024
 2507SOL    HW2 8421   0.855   4.262   1.039
 2508SOL     OW 8422   2.181   1.688   2.329
 2508SOL    HW1 8423   2.244   1.681   2.251
 2508SOL    HW2 8424   2.171   1.784   2.355
 2509SOL     OW 8425   6.941   2.496   1.776
 2509SOL    HW1 8426   6.887   2.560   1.831
 2509SOL    HW2 8427   6.948   2.531   1.682
 2510SOL     OW 8428   3.215   4.498   1.432
 2510SOL    HW1 8429   3.163   4.428   1.383
 2510SOL    HW2 8430   3.309   4.467   1.447
 2511SOL     OW 8431   2.932   1.558   3.641
 2511SOL    HW1 8432   2.957   1.643   3.596
 2511SOL    HW2 8433   2.919   1.574   3.739
 2512SOL     OW 8434   4.954   4.800   4.987
 2512SOL    HW1 8435   4.993   4.747   5.062
 2512SOL    HW2 8436   5.026   4.848   4.937
 2513SOL     OW 8437   0.958   3.959   4.750
 2513SOL    HW1 8438   0.972   3.879   4.691
 2513SOL    HW2 8439   0.979   3.935   4.845
 2514SOL     OW 8440   6.547   3.639   4.301
 2514SOL    HW1 8441   6.555   3.622   4.399
 2514SOL    HW2 8442   6.529   3.736   4.285
 2515SOL     OW 8443   1.531   6.341   0.355
 2515SOL    HW1 8444   1.491   6.425   0.319
 2515SOL    HW2 8445   1.465   6.267   0.347
 2516SOL     OW 8446   6.405   0.867   3.063
 2516SOL    HW1 8447   6.356   0.944   3.022
 2516SOL    HW2 8448   6.479   0.900   3.120
 2517SOL     OW 8449   0.950   5.386   6.113
 2517SOL    HW1 8450   0.916   5.355   6.201
 2517SOL    HW2 8451   0.910   5.475   6.090
 2518SOL     OW 8452   1.384   4.304   6.950
 2518SOL    HW1 8453   1.410   4.391   6.992
 2518SOL    HW2 8454   1.441   4.231   6.985
 2519SOL     OW 8455   5.103   6.761   3.664
 2519SOL    HW1 8456   5.039   6.719   3.728
 2519SOL    HW2 8457   5.186   6.787   3.713
 2520SOL     OW 8458   2.426   2.030   6.744
 2520SOL    HW1 8459   2.445   1.939   6.782
 2520SOL    HW2 8460   2.363   2.021   6.667
 2521SOL     OW 8461   1.030   0.083   5.008
 2521SOL    HW1 8462   1.004   7.016   5.047
 2521SOL    HW2 8463   1.129   0.096   5.017
 2522SOL     OW 8464   0.671   3.156   5.598
 2522SOL    HW1 8465   0.676   3.256   5.597
 2522SOL    HW2 8466   0.598   3.126   5.659
 2523SOL     OW 8467   0.442   2.663   1.940
 2523SOL    HW1 8468   0.526   2.613   1.917
 2523SOL    HW2 8469   0.369   2.636   1.877
 2524SOL     OW 8470   1.108   5.994   5.679
 2524SOL    HW1 8471   1.129   5.900   5.705
 2524SOL    HW2 8472   1.026   6.024   5.727
 2525SOL     OW 8473   1.053   2.332   4.679
 2525SOL    HW1 8474   0.991   2.285   4.616
 2525SOL    HW2 8475   1.115   2.392   4.628
 2526SOL     OW 8476   1.421   4.157   5.580
 2526SOL    HW1 8477   1.394   4.131   5.673
 2526SOL    HW2 8478   1.470   4.244   5.583
 2527SOL     OW 8479   5.607   5.589   4.790
 2527SOL    HW1 8480   5.629   5.680   4.754
 2527SOL    HW2 8481   5.583   5.597   4.887
 2528SOL     OW 8482   5.329   4.782   1.150
 2528SOL    HW1 8483   5.358   4.711   1.086
 2528SOL    HW2 8484   5.377   4.770   1.237
 2529SOL     OW 8485   6.514   6.818   6.358
 2529SOL    HW1 8486   6.513   6.849   6.453
 2529SOL    HW2 8487   6.574   6.877   6.304
 2530SOL     OW 8488   2.372   0.129   4.804
 2530SOL    HW1 8489   2.425   0.115   4.887
 2530SOL    HW2 8490   2.418   0.086   4.727
 2531SOL     OW 8491   5.219   5.930   4.376
 2531SOL    HW1 8492   5.138   5.877   4.399
 2531SOL    HW2 8493   5.246   5.987   4.454
 2532SOL     OW 8494   1.159   6.660   0.623
 2532SOL    HW1 8495   1.204   6.644   0.710
 2532SOL    HW2 8496   1.065   6.689   0.639
 2533SOL     OW 8497   3.092   0.343   2.963
 2533SOL    HW1 8498   3.132   0.413   2.903
 2533SOL    HW2 8499   3.105   0.253   2.922
 2534SOL     OW 8500   3.373   1.284   3.092
 2534SOL    HW1 8501   3.405   1.221   3.022
 2534SOL    HW2 8502   3.300   1.241   3.145
 2535SOL     OW 8503   3.192   2.459   6.081
 2535SOL    HW1 8504   3.255   2.435   6.155
 2535SOL    HW2 8505   3.101   2.478   6.119
 2536SOL     OW 8506   0.119   2.067   4.687
 2536SOL    HW1 8507   0.037   2.116   4.657
 2536SOL    HW2 8508   0.192   2.078   4.620
 2537SOL     OW 8509   3.938   0.272   6.409
 2537SOL    HW1 8510   3.981   0.258   6.320
 2537SOL    HW2 8511   3.926   0.184   6.455
 2538SOL     OW 8512   1.027   5.078   5.012
 2538SOL    HW1 8513   1.094   5.148   4.988
 2538SOL    HW2 8514   1.071   4.988   5.013
 2539SOL     OW 8515   5.144   0.787   5.550
 2539SOL    HW1 8516   5.199   0.779   5.467
 2539SOL    HW2 8517   5.048   0.802   5.525
 2540SOL     OW 8518   4.148   1.043   2.422
 2540SOL    HW1 8519   4.126   1.124   2.477
 2540SOL    HW2 8520   4.081   1.033   2.349
 2541SOL     OW 8521   1.948   6.689   5.097
 2541SOL    HW1 8522   1.964   6.628   5.174
 2541SOL    HW2 8523   1.885   6.762   5.126
 2542SOL     OW 8524   4.690   0.659   5.819
 2542SOL    HW1 8525   4.747   0.595   5.871
 2542SOL    HW2 8526   4.666   0.617   5.731
 2543SOL     OW 8527   1.690   1.547   2.907
 2543SOL    HW1 8528   1.722   1.466   2.956
 2543SOL    HW2 8529   1.590   1.547   2.903
 2544SOL     OW 8530   0.504   5.600   1.210
 2544SOL    HW1 8531   0.540   5.526   1.267
 2544SOL    HW2 8532   0.416   5.631   1.247
 2545SOL     OW 8533   1.864   0.691   1.701
 2545SOL    HW1 8534   1.865   0.789   1.717
 2545SOL    HW2 8535   1.956   0.661   1.673
 2546SOL     OW 8536   0.614   2.053   1.552
 2546SOL    HW1 8537   0.638   2.059   1.649
 2546SOL    HW2 8538   0.531   1.998   1.542
 2547SOL     OW 8539   6.025   3.451   0.336
 2547SOL    HW1 8540   6.096   3.398   0.382
 2547SOL    HW2 8541   6.067   3.528   0.287
 2548SOL     OW 8542   2.497   6.662   5.735
 2548SOL    HW1 8543   2.441   6.616   5.804
 2548SOL    HW2 8544   2.589   6.676   5.771
 2549SOL     OW 8545   1.637   0.344   1.123
 2549SOL    HW1 8546   1.673   0.251   1.113
 2549SOL    HW2 8547   1.710   0.410   1.101
 2550SOL     OW 8548   6.667   0.513   5.939
 2550SOL    HW1 8549   6.723   0.570   5.878
 2550SOL    HW2 8550   6.571   0.540   5.930
 2551SOL     OW 8551   3.595   5.102   0.406
 2551SOL    HW1 8552   3.617   5.198   0.392
 2551SOL    HW2 8553   3.644   5.068   0.487
 2552SOL     OW 8554   1.952   5.685   6.397
 2552SOL    HW1 8555   1.935   5.721   6.489
 2552SOL    HW2 8556   2.050   5.684   6.380
 2553SOL     OW 8557   4.309   3.301   6.883
 2553SOL    HW1 8558   4.274   3.208   6.891
 2553SOL    HW2 8559   4.306   3.330   6.787
 2554SOL     OW 8560   1.794   6.317   6.964
 2554SOL    HW1 8561   1.784   6.410   6.928
 2554SOL    HW2 8562   1.891   6.295   6.974
 2555SOL     OW 8563   6.034   6.550   6.837
 2555SOL    HW1 8564   5.941   6.518   6.821
 2555SOL    HW2 8565   6.099   6.489   6.790
 2556SOL     OW 8566   4.621   5.426   0.014
 2556SOL    HW1 8567   4.693   5.359   7.016
 2556SOL    HW2 8568   4.531   5.383   0.004
 2557SOL     OW 8569   2.737   2.935   6.353
 2557SOL    HW1 8570   2.784   3.003   6.409
 2557SOL    HW2 8571   2.786   2.922   6.267
 2558SOL     OW 8572   4.451   3.196   5.789
 2558SOL    HW1 8573   4.365   3.146   5.786
 2558SOL    HW2 8574   4.450   3.259   5.866
 2559SOL     OW 8575   6.206   3.707   4.116
 2559SOL    HW1 8576   6.291   3.728   4.067
 2559SOL    HW2 8577   6.174   3.790   4.163
 2560SOL     OW 8578   5.528   3.382   3.922
 2560SOL    HW1 8579   5.531   3.327   3.838
 2560SOL    HW2 8580   5.473   3.334   3.991
 2561SOL     OW 8581   2.464   0.233   4.385
 2561SOL    HW1 8582   2.498   0.251   4.293
 2561SOL    HW2 8583   2.391   0.297   4.407
 2562SOL     OW 8584   1.400   5.889   2.449
 2562SOL    HW1 8585   1.477   5.837   2.413
 2562SOL    HW2 8586   1.394   5.977   2.401
 2563SOL     OW 8587   3.912   2.312   0.211
 2563SOL    HW1 8588   3.874   2.371   0.283
 2563SOL    HW2 8589   3.958   2.369   0.143
 2564SOL     OW 8590   1.788   6.453   6.413
 2564SOL    HW1 8591   1.698   6.446   6.455
 2564SOL    HW2 8592   1.857   6.411   6.473
 2565SOL     OW 8593   6.791   0.518   0.637
 2565SOL    HW1 8594   6.733   0.549   0.562
 2565SOL    HW2 8595   6.848   0.442   0.606
 2566SOL     OW 8596   1.505   6.873   1.507
 2566SOL    HW1 8597   1.510   6.956   1.451
 2566SOL    HW2 8598   1.409   6.847   1.518
 2567SOL     OW 8599   0.935   1.353   1.705
 2567SOL    HW1 8600   0.956   1.284   1.774
 2567SOL    HW2 8601   0.968   1.322   1.615
 2568SOL     OW 8602   3.304   6.826   0.032
 2568SOL    HW1 8603   3.212   6.863   0.020
 2568SOL    HW2 8604   3.329   6.772   6.972
 2569SOL     OW 8605   2.762   1.111   1.691
 2569SOL    HW1 8606   2.712   1.123   1.605
 2569SOL    HW2 8607   2.697   1.095   1.766
 2570SOL     OW 8608   5.688   0.680   0.078
 2570SOL    HW1 8609   5.720   0.773   0.062
 2570SOL    HW2 8610   5.758   0.630   0.130
 2571SOL     OW 8611   1.733   4.332   5.369
 2571SOL    HW1 8612   1.668   4.358   5.440
 2571SOL    HW2 8613   1.719   4.390   5.288
 2572SOL     OW 8614   2.342   5.281   0.456
 2572SOL    HW1 8615   2.261   5.239   0.497
 2572SOL    HW2 8616   2.316   5.331   0.374
 2573SOL     OW 8617   6.673   1.601   1.774
 2573SOL    HW1 8618   6.648   1.595   1.870
 2573SOL    HW2 8619   6.714   1.690   1.755
 2574SOL     OW 8620   6.129   3.654   0.160
 2574SOL    HW1 8621   6.163   3.741   0.126
 2574SOL    HW2 8622   6.073   3.610   0.090
 2575SOL     OW 8623   5.136   5.370   6.845
 2575SOL    HW1 8624   5.222   5.380   6.794
 2575SOL    HW2 8625   5.100   5.278   6.831
 2576SOL     OW 8626   3.723   0.308   4.514
 2576SOL    HW1 8627   3.730   0.222   4.565
 2576SOL    HW2 8628   3.635   0.311   4.467
 2577SOL     OW 8629   3.696   6.717   1.725
 2577SOL    HW1 8630   3.710   6.662   1.643
 2577SOL    HW2 8631   3.600   6.715   1.752
 2578SOL     OW 8632   5.038   2.201   3.460
 2578SOL    HW1 8633   5.103   2.125   3.458
 2578SOL    HW2 8634   5.020   2.227   3.555
 2579SOL     OW 8635   1.699   6.193   2.831
 2579SOL    HW1 8636   1.619   6.227   2.881
 2579SOL    HW2 8637   1.775   6.256   2.844
 2580SOL     OW 8638   2.537   3.013   6.933
 2580SOL    HW1 8639   2.469   3.016   7.007
 2580SOL    HW2 8640   2.559   3.106   6.904
 2581SOL     OW 8641   0.160   3.999   0.988
 2581SOL    HW1 8642   0.209   4.016   1.073
 2581SOL    HW2 8643   0.143   3.901   0.978
 2582SOL     OW 8644   0.961   4.600   2.264
 2582SOL    HW1 8645   0.891   4.665   2.292
 2582SOL    HW2 8646   0.960   4.521   2.325
 2583SOL     OW 8647   0.657   1.681   0.788
 2583SOL    HW1 8648   0.590   1.742   0.830
 2583SOL    HW2 8649   0.611   1.597   0.757
 2584SOL     OW 8650   4.213   5.619   0.204
 2584SOL    HW1 8651   4.187   5.557   0.130
 2584SOL    HW2 8652   4.292   5.582   0.253
 2585SOL     OW 8653   5.120   2.471   0.773
 2585SOL    HW1 8654   5.121   2.554   0.717
 2585SOL    HW2 8655   5.159   2.491   0.863
 2586SOL     OW 8656   3.531   1.431   3.276
 2586SOL    HW1 8657   3.499   1.525   3.282
 2586SOL    HW2 8658   3.475   1.381   3.210
 2587SOL     OW 8659   0.407   1.121   3.331
 2587SOL    HW1 8660   0.449   1.035   3.300
 2587SOL    HW2 8661   0.400   1.120   3.431
 2588SOL     OW 8662   4.125   0.681   6.035
 2588SOL    HW1 8663   4.221   0.709   6.032
 2588SOL    HW2 8664   4.106   0.636   6.122
 2589SOL     OW 8665   0.225   6.179   6.634
 2589SOL    HW1 8666   0.265   6.271   6.625
 2589SOL    HW2 8667   0.257   6.122   6.559
 2590SOL     OW 8668   3.359   6.236   1.001
 2590SOL    HW1 8669   3.425   6.286   0.944
 2590SOL    HW2 8670   3.268   6.246   0.962
 2591SOL     OW 8671   0.050   5.925   2.403
 2591SOL    HW1 8672   0.033   5.949   2.307
 2591SOL    HW2 8673   0.032   5.828   2.417
 2592SOL     OW 8674   3.663   6.298   1.081
 2592SOL    HW1 8675   3.624   6.225   1.137
 2592SOL    HW2 8676   3.745   6.266   1.035
 2593SOL     OW 8677   3.267   5.558   1.063
 2593SOL    HW1 8678   3.362   5.587   1.072
 2593SOL    HW2 8679   3.244   5.546   0.967
 2594SOL     OW 8680   1.056   5.034   6.360
 2594SOL    HW1 8681   1.078   5.029   6.262
 2594SOL    HW2 8682   0.965   4.995   6.376
 2595SOL     OW 8683   6.635   1.615   4.012
 2595SOL    HW1 8684   6.571   1.654   4.079
 2595SOL    HW2 8685   6.624   1.661   3.924
 2596SOL     OW 8686   3.833   1.645   2.017
 2596SOL    HW1 8687   3.789   1.733   2.002
 2596SOL    HW2 8688   3.778   1.572   1.975
 2597SOL     OW 8689   1.576   4.628   5.940
 2597SOL    HW1 8690   1.605   4.607   6.034
 2597SOL    HW2 8691   1.621   4.565   5.877
 2598SOL     OW 8692   6.048   1.303   3.457
 2598SOL    HW1 8693   6.132   1.345   3.423
 2598SOL    HW2 8694   6.059   1.204   3.459
 2599SOL     OW 8695   1.920   6.661   0.962
 2599SOL    HW1 8696   1.829   6.632   0.931
 2599SOL    HW2 8697   1.919   6.674   1.061
 2600SOL     OW 8698   5.254   3.598   4.759
 2600SOL    HW1 8699   5.336   3.542   4.767
 2600SOL    HW2 8700   5.183   3.564   4.821
 2601SOL     OW 8701   2.040   1.927   0.716
 2601SOL    HW1 8702   2.021   1.830   0.729
 2601SOL    HW2 8703   1.957   1.980   0.733
 2602SOL     OW 8704   0.687   4.343   4.061
 2602SOL    HW1 8705   0.703   4.416   4.128
 2602SOL    HW2 8706   0.589   4.339   4.039
 2603SOL     OW 8707   2.494   1.446   3.098
 2603SOL    HW1 8708   2.502   1.360   3.148
 2603SOL    HW2 8709   2.524   1.521   3.156
 2604SOL     OW 8710   4.978   2.100   2.760
 2604SOL    HW1 8711   4.907   2.162   2.726
 2604SOL    HW2 8712   4.982   2.019   2.703
 2605SOL     OW 8713   1.921   4.193   3.049
 2605SOL    HW1 8714   2.011   4.217   3.011
 2605SOL    HW2 8715   1.932   4.166   3.144
 2606SOL     OW 8716   5.820   4.623   2.170
 2606SOL    HW1 8717   5.756   4.592   2.240
 2606SOL    HW2 8718   5.803   4.573   2.085
 2607SOL     OW 8719   1.399   1.346   1.214
 2607SOL    HW1 8720   1.322   1.363   1.152
 2607SOL    HW2 8721   1.482   1.332   1.161
 2608SOL     OW 8722   4.661   4.692   1.462
 2608SOL    HW1 8723   4.664   4.637   1.545
 2608SOL    HW2 8724   4.572   4.679   1.417
 2609SOL     OW 8725   0.020   1.560   0.587
 2609SOL    HW1 8726   6.995   1.481   0.629
 2609SOL    HW2 8727   6.973   1.632   0.570
 2610SOL     OW 8728   0.872   4.878   4.688
 2610SOL    HW1 8729   0.797   4.826   4.647
 2610SOL    HW2 8730   0.835   4.959   4.733
 2611SOL     OW 8731   4.532   6.775   0.995
 2611SOL    HW1 8732   4.516   6.772   1.094
 2611SOL    HW2 8733   4.602   6.842   0.974
 2612SOL     OW 8734   6.717   7.019   5.858
 2612SOL    HW1 8735   6.789   7.002   5.791
 2612SOL    HW2 8736   6.742   0.076   5.915
 2613SOL     OW 8737   2.461   6.173   6.287
 2613SOL    HW1 8738   2.472   6.175   6.386
 2613SOL    HW2 8739   2.365   6.187   6.263
 2614SOL     OW 8740   6.726   0.479   5.576
 2614SOL    HW1 8741   6.815   0.468   5.620
 2614SOL    HW2 8742   6.736   0.470   5.477
 2615SOL     OW 8743   0.379   2.720   2.948
 2615SOL    HW1 8744   0.412   2.812   2.967
 2615SOL    HW2 8745   0.284   2.712   2.980
 2616SOL     OW 8746   3.304   3.525   5.172
 2616SOL    HW1 8747   3.382   3.485   5.126
 2616SOL    HW2 8748   3.263   3.458   5.234
 2617SOL     OW 8749   3.571   6.637   0.470
 2617SOL    HW1 8750   3.515   6.717   0.447
 2617SOL    HW2 8751   3.659   6.644   0.423
 2618SOL     OW 8752   6.975   0.616   4.303
 2618SOL    HW1 8753   6.895   0.628   4.245
 2618SOL    HW2 8754   6.969   0.678   4.381
 2619SOL     OW 8755   4.345   1.916   3.161
 2619SOL    HW1 8756   4.385   1.846   3.221
 2619SOL    HW2 8757   4.309   1.872   3.079
 2620SOL     OW 8758   6.722   0.209   3.445
 2620SOL    HW1 8759   6.673   0.152   3.511
 2620SOL    HW2 8760   6.675   0.296   3.434
 2621SOL     OW 8761   1.059   5.622   2.702
 2621SOL    HW1 8762   1.152   5.658   2.703
 2621SOL    HW2 8763   1.062   5.525   2.678
 2622SOL     OW 8764   1.815   3.460   5.368
 2622SOL    HW1 8765   1.884   3.532   5.371
 2622SOL    HW2 8766   1.842   3.385   5.427
 2623SOL     OW 8767   1.621   0.749   5.773
 2623SOL    HW1 8768   1.633   0.662   5.725
 2623SOL    HW2 8769   1.698   0.765   5.834
 2624SOL     OW 8770   6.664   1.233   5.377
 2624SOL    HW1 8771   6.576   1.207   5.337
 2624SOL    HW2 8772   6.648   1.281   5.464
 2625SOL     OW 8773   1.862   3.169   5.205
 2625SOL    HW1 8774   1.913   3.229   5.143
 2625SOL    HW2 8775   1.772   3.149   5.166
 2626SOL     OW 8776   0.616   0.509   5.871
 2626SOL    HW1 8777   0.624   0.443   5.946
 2626SOL    HW2 8778   0.534   0.564   5.884
 2627SOL     OW 8779   1.431   1.116   5.811
 2627SOL    HW1 8780   1.426   1.199   5.755
 2627SOL    HW2 8781   1.350   1.111   5.869
 2628SOL     OW 8782   1.883   4.745   5.558
 2628SOL    HW1 8783   1.930   4.783   5.638
 2628SOL    HW2 8784   1.902   4.800   5.478
 2629SOL     OW 8785   3.134   3.005   1.540
 2629SOL    HW1 8786   3.224   2.975   1.509
 2629SOL    HW2 8787   3.102   2.943   1.612
 2630SOL     OW 8788   3.304   2.146   2.742
 2630SOL    HW1 8789   3.283   2.070   2.803
 2630SOL    HW2 8790   3.403   2.161   2.740
 2631SOL     OW 8791   5.488   1.025   5.373
 2631SOL    HW1 8792   5.583   1.028   5.343
 2631SOL    HW2 8793   5.458   1.116   5.401
 2632SOL     OW 8794   4.732   3.014   6.474
 2632SOL    HW1 8795   4.772   2.947   6.537
 2632SOL    HW2 8796   4.805   3.060   6.424
 2633SOL     OW 8797   0.598   2.376   4.848
 2633SOL    HW1 8798   0.526   2.445   4.847
 2633SOL    HW2 8799   0.638   2.368   4.757
 2634SOL     OW 8800   0.800   4.557   3.351
 2634SOL    HW1 8801   0.867   4.614   3.303
 2634SOL    HW2 8802   0.715   4.608   3.364
 2635SOL     OW 8803   6.790   5.509   5.545
 2635SOL    HW1 8804   6.886   5.531   5.566
 2635SOL    HW2 8805   6.784   5.475   5.451
 2636SOL     OW 8806   3.879   0.852   5.088
 2636SOL    HW1 8807   3.787   0.888   5.106
 2636SOL    HW2 8808   3.887   0.760   5.127
 2637SOL     OW 8809   5.015   1.565   3.444
 2637SOL    HW1 8810   4.968   1.561   3.356
 2637SOL    HW2 8811   5.046   1.473   3.469
 2638SOL     OW 8812   6.546   0.239   4.078
 2638SOL    HW1 8813   6.625   0.236   4.139
 2638SOL    HW2 8814   6.564   0.305   4.005
 2639SOL     OW 8815   0.287   5.297   0.768
 2639SOL    HW1 8816   0.256   5.260   0.855
 2639SOL    HW2 8817   0.319   5.391   0.780
 2640SOL     OW 8818   0.522   6.376   5.516
 2640SOL    HW1 8819   0.538   6.352   5.611
 2640SOL    HW2 8820   0.606   6.415   5.477
 2641SOL     OW 8821   5.582   3.367   2.227
 2641SOL    HW1 8822   5.638   3.449   2.236
 2641SOL    HW2 8823   5.628   3.301   2.168
 2642SOL     OW 8824   4.588   6.477   3.730
 2642SOL    HW1 8825   4.575   6.400   3.669
 2642SOL    HW2 8826   4.653   6.542   3.689
 2643SOL     OW 8827   0.582   3.671   3.457
 2643SOL    HW1 8828   0.680   3.659   3.476
 2643SOL    HW2 8829   0.547   3.588   3.412
 2644SOL     OW 8830   5.489   6.381   5.517
 2644SOL    HW1 8831   5.567   6.424   5.561
 2644SOL    HW2 8832   5.489   6.405   5.420
 2645SOL     OW 8833   4.340   6.046   4.079
 2645SOL    HW1 8834   4.266   6.108   4.102
 2645SOL    HW2 8835   4.344   5.972   4.146
 2646SOL     OW 8836   6.026   0.976   6.368
 2646SOL    HW1 8837   6.054   0.890   6.324
 2646SOL    HW2 8838   6.104   1.014   6.417
 2647SOL     OW 8839   6.422   0.184   2.023
 2647SOL    HW1 8840   6.360   0.141   1.958
 2647SOL    HW2 8841   6.378   0.265   2.062
 2648SOL     OW 8842   0.574   0.058   4.203
 2648SOL    HW1 8843   0.628   7.007   4.249
 2648SOL    HW2 8844   0.479   0.027   4.195
 2649SOL     OW 8845   5.732   3.266   0.018
 2649SOL    HW1 8846   5.660   3.199   0.032
 2649SOL    HW2 8847   5.821   3.222   0.028
 2650SOL     OW 8848   1.261   4.828   3.840
 2650SOL    HW1 8849   1.231   4.847   3.934
 2650SOL    HW2 8850   1.192   4.771   3.795
 2651SOL     OW 8851   1.916   1.512   1.113
 2651SOL    HW1 8852   2.003   1.504   1.163
 2651SOL    HW2 8853   1.866   1.592   1.146
 2652SOL     OW 8854   4.049   3.512   4.648
 2652SOL    HW1 8855   4.084   3.550   4.562
 2652SOL    HW2 8856   4.081   3.418   4.659
 2653SOL     OW 8857   5.240   6.583   4.930
 2653SOL    HW1 8858   5.151   6.628   4.919
 2653SOL    HW2 8859   5.263   6.578   5.027
 2654SOL     OW 8860   4.492   6.400   2.140
 2654SOL    HW1 8861   4.565   6.357   2.192
 2654SOL    HW2 8862   4.442   6.464   2.199
 2655SOL     OW 8863   4.369   6.170   4.397
 2655SOL    HW1 8864   4.368   6.238   4.324
 2655SOL    HW2 8865   4.443   6.105   4.381
 2656SOL     OW 8866   3.829   4.904   4.721
 2656SOL    HW1 8867   3.771   4.835   4.765
 2656SOL    HW2 8868   3.919   4.865   4.703
 2657SOL     OW 8869   1.212   4.417   6.563
 2657SOL    HW1 8870   1.209   4.320   6.541
 2657SOL    HW2 8871   1.121   4.457   6.553
 2658SOL     OW 8872   4.864   4.381   1.023
 2658SOL    HW1 8873   4.837   4.300   0.971
 2658SOL    HW2 8874   4.805   4.458   0.997
 2659SOL     OW 8875   5.437   3.070   4.356
 2659SOL    HW1 8876   5.526   3.108   4.380
 2659SOL    HW2 8877   5.368   3.142   4.361
 2660SOL     OW 8878   1.813   0.234   1.819
 2660SOL    HW1 8879   1.895   0.287   1.841
 2660SOL    HW2 8880   1.830   0.177   1.739
 2661SOL     OW 8881   2.269   0.439   1.187
 2661SOL    HW1 8882   2.181   0.392   1.192
 2661SOL    HW2 8883   2.340   0.375   1.157
 2662SOL     OW 8884   4.965   6.869   4.762
 2662SOL    HW1 8885   4.925   6.819   4.839
 2662SOL    HW2 8886   4.900   6.937   4.729
 2663SOL     OW 8887   3.138   3.873   6.858
 2663SOL    HW1 8888   3.215   3.902   6.800
 2663SOL    HW2 8889   3.149   3.910   6.950
 2664SOL     OW 8890   4.239   3.777   5.168
 2664SOL    HW1 8891   4.234   3.685   5.130
 2664SOL    HW2 8892   4.331   3.793   5.205
 2665SOL     OW 8893   2.677   2.943   5.333
 2665SOL    HW1 8894   2.670   2.844   5.320
 2665SOL    HW2 8895   2.597   2.988   5.293
 2666SOL     OW 8896   6.001   4.912   1.120
 2666SOL    HW1 8897   6.037   4.873   1.205
 2666SOL    HW2 8898   5.902   4.894   1.115
 2667SOL     OW 8899   0.257   5.753   4.206
 2667SOL    HW1 8900   0.208   5.761   4.119
 2667SOL    HW2 8901   0.343   5.803   4.200
 2668SOL     OW 8902   6.960   2.890   4.871
 2668SOL    HW1 8903   6.896   2.966   4.857
 2668SOL    HW2 8904   7.016   2.878   4.789
 2669SOL     OW 8905   2.713   4.421   5.341
 2669SOL    HW1 8906   2.782   4.470   5.288
 2669SOL    HW2 8907   2.734   4.323   5.342
 2670SOL     OW 8908   5.386   2.968   5.824
 2670SOL    HW1 8909   5.405   3.065   5.813
 2670SOL    HW2 8910   5.448   2.929   5.892
 2671SOL     OW 8911   4.230   5.663   6.350
 2671SOL    HW1 8912   4.283   5.722   6.411
 2671SOL    HW2 8913   4.200   5.582   6.400
 2672SOL     OW 8914   1.967   4.952   0.638
 2672SOL    HW1 8915   1.940   4.887   0.567
 2672SOL    HW2 8916   2.015   4.904   0.711
 2673SOL     OW 8917   5.907   1.259   2.439
 2673SOL    HW1 8918   5.914   1.309   2.353
 2673SOL    HW2 8919   5.913   1.161   2.421
 2674SOL     OW 8920   1.032   4.533   3.758
 2674SOL    HW1 8921   1.097   4.471   3.802
 2674SOL    HW2 8922   1.075   4.578   3.680
 2675SOL     OW 8923   6.276   5.122   4.017
 2675SOL    HW1 8924   6.199   5.072   3.977
 2675SOL    HW2 8925   6.251   5.155   4.107
 2676SOL     OW 8926   3.763   2.104   0.937
 2676SOL    HW1 8927   3.684   2.122   0.879
 2676SOL    HW2 8928   3.841   2.158   0.907
 2677SOL     OW 8929   2.402   3.609   0.446
 2677SOL    HW1 8930   2.420   3.584   0.351
 2677SOL    HW2 8931   2.364   3.702   0.449
 2678SOL     OW 8932   0.405   2.877   1.398
 2678SOL    HW1 8933   0.398   2.958   1.340
 2678SOL    HW2 8934   0.501   2.863   1.423
 2679SOL     OW 8935   2.211   4.270   1.685
 2679SOL    HW1 8936   2.295   4.242   1.733
 2679SOL    HW2 8937   2.212   4.370   1.673
 2680SOL     OW 8938   1.097   1.458   0.406
 2680SOL    HW1 8939   1.103   1.452   0.506
 2680SOL    HW2 8940   1.188   1.475   0.368
 2681SOL     OW 8941   1.626   2.648   4.430
 2681SOL    HW1 8942   1.591   2.574   4.487
 2681SOL    HW2 8943   1.723   2.631   4.409
 2682SOL     OW 8944   4.942   4.444   3.136
 2682SOL    HW1 8945   4.936   4.345   3.127
 2682SOL    HW2 8946   4.851   4.484   3.126
 2683SOL     OW 8947   2.793   5.446   1.552
 2683SOL    HW1 8948   2.829   5.353   1.566
 2683SOL    HW2 8949   2.716   5.462   1.613
 2684SOL     OW 8950   4.889   5.515   1.738
 2684SOL    HW1 8951   4.980   5.478   1.718
 2684SOL    HW2 8952   4.832   5.508   1.656
 2685SOL     OW 8953   5.752   6.405   6.064
 2685SOL    HW1 8954   5.779   6.497   6.037
 2685SOL    HW2 8955   5.653   6.402   6.077
 2686SOL     OW 8956   1.884   1.909   5.705
 2686SOL    HW1 8957   1.832   1.832   5.669
 2686SOL    HW2 8958   1.977   1.881   5.725
 2687SOL     OW 8959   4.820   5.010   1.256
 2687SOL    HW1 8960   4.842   4.913   1.254
 2687SOL    HW2 8961   4.725   5.021   1.285
 2688SOL     OW 8962   3.446   4.083   0.340
 2688SOL    HW1 8963   3.412   3.993   0.312
 2688SOL    HW2 8964   3.544   4.089   0.322
 2689SOL     OW 8965   1.452   4.501   3.563
 2689SOL    HW1 8966   1.519   4.575   3.569
 2689SOL    HW2 8967   1.362   4.539   3.544
 2690SOL     OW 8968   3.649   2.884   4.393
 2690SOL    HW1 8969   3.574   2.848   4.449
 2690SOL    HW2 8970   3.642   2.846   4.301
 2691SOL     OW 8971   1.913   5.530   3.113
 2691SOL    HW1 8972   1.889   5.434   3.097
 2691SOL    HW2 8973   1.863   5.565   3.192
 2692SOL     OW 8974   3.120   5.720   2.613
 2692SOL    HW1 8975   3.051   5.736   2.543
 2692SOL    HW2 8976   3.142   5.807   2.658
 2693SOL     OW 8977   2.339   5.330   3.826
 2693SOL    HW1 8978   2.315   5.322   3.729
 2693SOL    HW2 8979   2.439   5.331   3.836
 2694SOL     OW 8980   3.509   5.811   2.791
 2694SOL    HW1 8981   3.535   5.717   2.767
 2694SOL    HW2 8982   3.560   5.875   2.734
 2695SOL     OW 8983   5.614   0.633   1.913
 2695SOL    HW1 8984   5.584   0.661   1.822
 2695SOL    HW2 8985   5.658   0.543   1.908
 2696SOL     OW 8986   3.837   3.378   5.812
 2696SOL    HW1 8987   3.905   3.395   5.740
 2696SOL    HW2 8988   3.751   3.424   5.789
 2697SOL     OW 8989   3.222   1.392   2.741
 2697SOL    HW1 8990   3.297   1.397   2.807
 2697SOL    HW2 8991   3.138   1.425   2.784
 2698SOL     OW 8992   1.760   5.808   0.371
 2698SOL    HW1 8993   1.725   5.894   0.409
 2698SOL    HW2 8994   1.739   5.733   0.433
 2699SOL     OW 8995   2.163   6.058   0.223
 2699SOL    HW1 8996   2.068   6.059   0.190
 2699SOL    HW2 8997   2.174   5.986   0.291
 2700SOL     OW 8998   2.439   3.594   0.185
 2700SOL    HW1 8999   2.355   3.647   0.172
 2700SOL    HW2 9000   2.510   3.628   0.124
 2701SOL     OW 9001   5.299   1.352   5.908
 2701SOL    HW1 9002   5.265   1.333   6.000
 2701SOL    HW2 9003   5.343   1.270   5.871
 2702SOL     OW 9004   0.861   3.079   3.307
 2702SOL    HW1 9005   0.952   3.110   3.336
 2702SOL    HW2 9006   0.803   3.065   3.387
 2703SOL     OW 9007   1.015   0.063   1.353
 2703SOL    HW1 9008   1.058   0.055   1.443
 2703SOL    HW2 9009   0.969   6.998   1.329
 2704SOL     OW 9010   0.241   5.365   1.703
 2704SOL    HW1 9011   0.236   5.447   1.760
 2704SOL    HW2 9012   0.208   5.387   1.611
 2705SOL     OW 9013   0.137   5.549   4.798
 2705SOL    HW1 9014   0.195   5.620   4.758
 2705SOL    HW2 9015   0.171   5.459   4.771
 2706SOL     OW 9016   6.797   5.102   2.423
 2706SOL    HW1 9017   6.724   5.084   2.357
 2706SOL    HW2 9018   6.843   5.017   2.446
 2707SOL     OW 9019   4.114   6.952   3.968
 2707SOL    HW1 9020   4.103   0.003   3.899
 2707SOL    HW2 9021   4.157   6.872   3.926
 2708SOL     OW 9022   0.596   2.696   0.398
 2708SOL    HW1 9023   0.621   2.771   0.460
 2708SOL    HW2 9024   0.534   2.633   0.445
 2709SOL     OW 9025   5.415   0.115   6.964
 2709SOL    HW1 9026   5.442   0.211   6.960
 2709SOL    HW2 9027   5.496   0.057   6.956
 2710SOL     OW 9028   0.620   3.704   3.996
 2710SOL    HW1 9029   0.587   3.677   4.087
 2710SOL    HW2 9030   0.711   3.665   3.981
 2711SOL     OW 9031   2.582   0.624   4.105
 2711SOL    HW1 9032   2.502   0.629   4.165
 2711SOL    HW2 9033   2.592   0.711   4.057
 2712SOL     OW 9034   3.116   4.232   1.403
 2712SOL    HW1 9035   3.102   4.268   1.495
 2712SOL    HW2 9036   3.029   4.199   1.366
 2713SOL     OW 9037   2.600   2.474   4.544
 2713SOL    HW1 9038   2.502   2.473   4.565
 2713SOL    HW2 9039   2.647   2.536   4.606
 2714SOL     OW 9040   3.666   2.698   0.189
 2714SOL    HW1 9041   3.747   2.687   0.246
 2714SOL    HW2 9042   3.595   2.633   0.218
 2715SOL     OW 9043   5.078   1.454   1.171
 2715SOL    HW1 9044   5.037   1.539   1.206
 2715SOL    HW2 9045   5.158   1.430   1.227
 2716SOL     OW 9046   5.261   3.932   2.249
 2716SOL    HW1 9047   5.228   4.012   2.199
 2716SOL    HW2 9048   5.185   3.870   2.267
 2717SOL     OW 9049   0.900   6.721   2.717
 2717SOL    HW1 9050   0.838   6.659   2.669
 2717SOL    HW2 9051   0.930   6.679   2.803
 2718SOL     OW 9052   1.382   1.741   4.730
 2718SOL    HW1 9053   1.358   1.824   4.780
 2718SOL    HW2 9054   1.307   1.675   4.737
 2719SOL     OW 9055   0.535   4.731   2.052
 2719SOL    HW1 9056   0.544   4.666   1.977
 2719SOL    HW2 9057   0.532   4.682   2.139
 2720SOL     OW 9058   2.098   5.530   1.844
 2720SOL    HW1 9059   2.147   5.611   1.877
 2720SOL    HW2 9060   2.001   5.549   1.839
 2721SOL     OW 9061   2.728   0.184   3.401
 2721SOL    HW1 9062   2.810   0.179   3.343
 2721SOL    HW2 9063   2.711   0.279   3.427
 2722SOL     OW 9064   6.917   5.292   0.370
 2722SOL    HW1 9065   6.858   5.371   0.381
 2722SOL    HW2 9066   7.000   5.304   0.424
 2723SOL     OW 9067   0.404   7.016   6.723
 2723SOL    HW1 9068   0.432   6.920   6.729
 2723SOL    HW2 9069   0.423   0.041   6.810
 2724SOL     OW 9070   2.108   6.727   0.060
 2724SOL    HW1 9071   2.008   6.733   0.059
 2724SOL    HW2 9072   2.137   6.644   0.012
 2725SOL     OW 9073   5.130   4.503   4.496
 2725SOL    HW1 9074   5.152   4.437   4.567
 2725SOL    HW2 9075   5.073   4.459   4.426
 2726SOL     OW 9076   0.560   2.182   0.871
 2726SOL    HW1 9077   0.518   2.128   0.798
 2726SOL    HW2 9078   0.570   2.125   0.953
 2727SOL     OW 9079   0.358   4.984   3.548
 2727SOL    HW1 9080   0.322   4.960   3.639
 2727SOL    HW2 9081   0.307   4.934   3.478
 2728SOL     OW 9082   4.496   6.792   5.888
 2728SOL    HW1 9083   4.445   6.745   5.816
 2728SOL    HW2 9084   4.475   6.890   5.886
 2729SOL     OW 9085   0.159   6.024   0.730
 2729SOL    HW1 9086   0.211   6.095   0.778
 2729SOL    HW2 9087   0.138   6.055   0.637
 2730SOL     OW 9088   1.820   5.934   1.653
 2730SOL    HW1 9089   1.892   5.921   1.585
 2730SOL    HW2 9090   1.858   5.977   1.735
 2731SOL     OW 9091   3.469   4.068   2.874
 2731SOL    HW1 9092   3.547   4.006   2.884
 2731SOL    HW2 9093   3.465   4.100   2.779
 2732SOL     OW 9094   5.340   2.934   1.796
 2732SOL    HW1 9095   5.322   2.980   1.883
 2732SOL    HW2 9096   5.274   2.859   1.784
 2733SOL     OW 9097   6.444   1.863   4.145
 2733SOL    HW1 9098   6.436   1.776   4.194
 2733SOL    HW2 9099   6.353   1.898   4.124
 2734SOL     OW 9100   3.093   5.809   1.151
 2734SOL    HW1 9101   3.152   5.740   1.110
 2734SOL    HW2 9102   2.999   5.773   1.158
 2735SOL     OW 9103   1.143   3.463   1.575
 2735SOL    HW1 9104   1.202   3.541   1.595
 2735SOL    HW2 9105   1.116   3.418   1.660
 2736SOL     OW 9106   5.954   6.383   4.922
 2736SOL    HW1 9107   6.008   6.299   4.930
 2736SOL    HW2 9108   5.857   6.361   4.925
 2737SOL     OW 9109   2.695   3.728   5.803
 2737SOL    HW1 9110   2.674   3.672   5.883
 2737SOL    HW2 9111   2.686   3.825   5.826
 2738SOL     OW 9112   4.970   6.482   1.955
 2738SOL    HW1 9113   4.872   6.499   1.954
 2738SOL    HW2 9114   5.017   6.553   1.903
 2739SOL     OW 9115   0.635   4.402   1.720
 2739SOL    HW1 9116   0.694   4.365   1.792
 2739SOL    HW2 9117   0.590   4.327   1.672
 2740SOL     OW 9118   0.053   3.762   2.671
 2740SOL    HW1 9119   0.131   3.722   2.624
 2740SOL    HW2 9120   0.051   3.860   2.655
 2741SOL     OW 9121   6.192   0.776   4.967
 2741SOL    HW1 9122   6.096   0.747   4.965
 2741SOL    HW2 9123   6.198   0.869   4.930
 2742SOL     OW 9124   2.336   4.852   0.295
 2742SOL    HW1 9125   2.253   4.855   0.238
 2742SOL    HW2 9126   2.322   4.788   0.371
 2743SOL     OW 9127   6.406   4.756   2.565
 2743SOL    HW1 9128   6.335   4.703   2.518
 2743SOL    HW2 9129   6.374   4.780   2.657
 2744SOL     OW 9130   4.837   2.205   6.992
 2744SOL    HW1 9131   4.900   2.155   6.933
 2744SOL    HW2 9132   4.786   2.272   6.938
 2745SOL     OW 9133   0.066   0.232   5.437
 2745SOL    HW1 9134   0.017   0.191   5.360
 2745SOL    HW2 9135   0.038   0.186   5.522
 2746SOL     OW 9136   2.291   1.514   4.714
 2746SOL    HW1 9137   2.243   1.537   4.630
 2746SOL    HW2 9138   2.228   1.518   4.791
 2747SOL     OW 9139   5.790   3.743   6.682
 2747SOL    HW1 9140   5.774   3.712   6.775
 2747SOL    HW2 9141   5.857   3.684   6.637
 2748SOL     OW 9142   5.019   1.366   1.703
 2748SOL    HW1 9143   5.105   1.415   1.706
 2748SOL    HW2 9144   4.943   1.431   1.693
 2749SOL     OW 9145   0.294   4.471   2.455
 2749SOL    HW1 9146   0.364   4.431   2.514
 2749SOL    HW2 9147   0.336   4.535   2.390
 2750SOL     OW 9148   0.838   4.429   1.433
 2750SOL    HW1 9149   0.790   4.406   1.518
 2750SOL    HW2 9150   0.783   4.494   1.381
 2751SOL     OW 9151   1.100   4.465   1.506
 2751SOL    HW1 9152   1.124   4.426   1.595
 2751SOL    HW2 9153   1.002   4.452   1.490
 2752SOL     OW 9154   3.937   5.462   5.710
 2752SOL    HW1 9155   3.859   5.524   5.711
 2752SOL    HW2 9156   3.916   5.380   5.763
 2753SOL     OW 9157   0.409   6.727   5.433
 2753SOL    HW1 9158   0.317   6.693   5.415
 2753SOL    HW2 9159   0.411   6.826   5.422
 2754SOL     OW 9160   0.644   0.337   1.926
 2754SOL    HW1 9161   0.581   0.268   1.891
 2754SOL    HW2 9162   0.654   0.410   1.859
 2755SOL     OW 9163   2.288   6.639   2.802
 2755SOL    HW1 9164   2.346   6.667   2.879
 2755SOL    HW2 9165   2.287   6.539   2.795
 2756SOL     OW 9166   5.663   5.267   6.224
 2756SOL    HW1 9167   5.763   5.269   6.232
 2756SOL    HW2 9168   5.625   5.217   6.302
 2757SOL     OW 9169   2.487   0.307   0.022
 2757SOL    HW1 9170   2.561   0.246   0.052
 2757SOL    HW2 9171   2.487   0.313   6.943
 2758SOL     OW 9172   3.752   6.449   3.885
 2758SOL    HW1 9173   3.789   6.523   3.828
 2758SOL    HW2 9174   3.661   6.424   3.852
 2759SOL     OW 9175   5.744   6.531   5.385
 2759SOL    HW1 9176   5.807   6.464   5.424
 2759SOL    HW2 9177   5.787   6.576   5.307
 2760SOL     OW 9178   0.890   5.869   1.996
 2760SOL    HW1 9179   0.864   5.956   1.954
 2760SOL    HW2 9180   0.827   5.847   2.071
 2761SOL     OW 9181   2.009   5.362   5.179
 2761SOL    HW1 9182   2.065   5.299   5.124
 2761SOL    HW2 9183   2.039   5.456   5.162
 2762SOL     OW 9184   1.573   0.797   4.857
 2762SOL    HW1 9185   1.522   0.856   4.794
 2762SOL    HW2 9186   1.565   0.702   4.826
 2763SOL     OW 9187   4.704   1.828   3.459
 2763SOL    HW1 9188   4.715   1.927   3.466
 2763SOL    HW2 9189   4.758   1.784   3.530
 2764SOL     OW 9190   6.131   0.813   1.575
 2764SOL    HW1 9191   6.219   0.796   1.620
 2764SOL    HW2 9192   6.129   0.764   1.488
 2765SOL     OW 9193   6.142   0.074   0.856
 2765SOL    HW1 9194   6.061   0.054   0.911
 2765SOL    HW2 9195   6.206   7.019   0.861
 2766SOL     OW 9196   5.021   2.809   0.728
 2766SOL    HW1 9197   4.922   2.815   0.715
 2766SOL    HW2 9198   5.042   2.812   0.826
 2767SOL     OW 9199   6.947   5.469   6.942
 2767SOL    HW1 9200   0.020   5.455   6.908
 2767SOL    HW2 9201   6.893   5.388   6.922
 2768SOL     OW 9202   4.136   0.673   1.311
 2768SOL    HW1 9203   4.233   0.649   1.319
 2768SOL    HW2 9204   4.081   0.609   1.364
 2769SOL     OW 9205   2.139   4.928   4.451
 2769SOL    HW1 9206   2.210   4.902   4.386
 2769SOL    HW2 9207   2.179   4.938   4.542
 2770SOL     OW 9208   4.284   6.208   6.249
 2770SOL    HW1 9209   4.343   6.127   6.250
 2770SOL    HW2 9210   4.192   6.183   6.279
 2771SOL     OW 9211   6.368   0.826   3.439
 2771SOL    HW1 9212   6.311   0.747   3.416
 2771SOL    HW2 9213   6.464   0.797   3.449
 2772SOL     OW 9214   3.820   1.859   0.846
 2772SOL    HW1 9215   3.777   1.941   0.882
 2772SOL    HW2 9216   3.867   1.880   0.760
 2773SOL     OW 9217   6.332   2.223   5.072
 2773SOL    HW1 9218   6.252   2.274   5.040
 2773SOL    HW2 9219   6.367   2.263   5.156
 2774SOL     OW 9220   5.687   3.151   2.623
 2774SOL    HW1 9221   5.651   3.179   2.712
 2774SOL    HW2 9222   5.700   3.052   2.623
 2775SOL     OW 9223   6.223   4.805   5.822
 2775SOL    HW1 9224   6.249   4.718   5.780
 2775SOL    HW2 9225   6.138   4.794   5.873
 2776SOL     OW 9226   4.491   4.773   5.848
 2776SOL    HW1 9227   4.427   4.788   5.773
 2776SOL    HW2 9228   4.493   4.854   5.907
 2777SOL     OW 9229   3.044   1.987   1.470
 2777SOL    HW1 9230   3.122   2.049   1.477
 2777SOL    HW2 9231   3.008   1.989   1.377
 2778SOL     OW 9232   1.591   0.282   5.436
 2778SOL    HW1 9233   1.584   0.348   5.361
 2778SOL    HW2 9234   1.577   0.329   5.523
 2779SOL     OW 9235   5.002   6.552   1.598
 2779SOL    HW1 9236   4.983   6.648   1.619
 2779SOL    HW2 9237   5.100   6.539   1.584
 2780SOL     OW 9238   6.685   6.846   0.016
 2780SOL    HW1 9239   6.755   6.856   6.966
 2780SOL    HW2 9240   6.668   6.748   0.031
 2781SOL     OW 9241   5.343   6.711   1.664
 2781SOL    HW1 9242   5.340   6.645   1.589
 2781SOL    HW2 9243   5.421   6.773   1.651
 2782SOL     OW 9244   4.737   2.071   6.137
 2782SOL    HW1 9245   4.756   2.061   6.234
 2782SOL    HW2 9246   4.785   2.151   6.101
 2783SOL     OW 9247   5.157   4.397   2.851
 2783SOL    HW1 9248   5.137   4.301   2.868
 2783SOL    HW2 9249   5.071   4.447   2.836
 2784SOL     OW 9250   3.226   1.699   2.471
 2784SOL    HW1 9251   3.266   1.608   2.467
 2784SOL    HW2 9252   3.165   1.705   2.551
 2785SOL     OW 9253   5.195   2.717   0.530
 2785SOL    HW1 9254   5.168   2.724   0.434
 2785SOL    HW2 9255   5.127   2.761   0.588
 2786SOL     OW 9256   5.216   0.080   3.030
 2786SOL    HW1 9257   5.174   7.012   3.049
 2786SOL    HW2 9258   5.163   0.152   3.074
 2787SOL     OW 9259   5.001   0.739   6.090
 2787SOL    HW1 9260   4.940   0.818   6.085
 2787SOL    HW2 9261   5.090   0.763   6.051
 2788SOL     OW 9262   2.351   5.076   6.119
 2788SOL    HW1 9263   2.380   5.065   6.214
 2788SOL    HW2 9264   2.263   5.030   6.106
 2789SOL     OW 9265   1.419   2.580   3.738
 2789SOL    HW1 9266   1.437   2.517   3.662
 2789SOL    HW2 9267   1.341   2.638   3.715
 2790SOL     OW 9268   3.495   5.787   2.474
 2790SOL    HW1 9269   3.578   5.748   2.435
 2790SOL    HW2 9270   3.448   5.717   2.527
 2791SOL     OW 9271   0.262   3.179   3.181
 2791SOL    HW1 9272   0.302   3.102   3.231
 2791SOL    HW2 9273   0.162   3.173   3.184
 2792SOL     OW 9274   1.739   6.767   4.253
 2792SOL    HW1 9275   1.802   6.813   4.189
 2792SOL    HW2 9276   1.645   6.783   4.223
 2793SOL     OW 9277   5.831   4.158   1.430
 2793SOL    HW1 9278   5.813   4.063   1.456
 2793SOL    HW2 9279   5.915   4.164   1.377
 2794SOL     OW 9280   0.178   2.619   6.617
 2794SOL    HW1 9281   0.227   2.592   6.700
 2794SOL    HW2 9282   0.243   2.625   6.541
 2795SOL     OW 9283   0.733   3.138   0.513
 2795SOL    HW1 9284   0.827   3.149   0.480
 2795SOL    HW2 9285   0.727   3.171   0.607
 2796SOL     OW 9286   0.129   6.461   3.643
 2796SOL    HW1 9287   0.045   6.512   3.660
 2796SOL    HW2 9288   0.148   6.401   3.721
 2797SOL     OW 9289   4.858   5.479   4.806
 2797SOL    HW1 9290   4.803   5.442   4.881
 2797SOL    HW2 9291   4.853   5.579   4.807
 2798SOL     OW 9292   0.504   5.398   1.938
 2798SOL    HW1 9293   0.477   5.413   2.033
 2798SOL    HW2 9294   0.441   5.334   1.895
 2799SOL     OW 9295   5.927   5.250   6.275
 2799SOL    HW1 9296   5.945   5.348   6.287
 2799SOL    HW2 9297   5.992   5.198   6.332
 2800SOL     OW 9298   4.488   6.176   0.162
 2800SOL    HW1 9299   4.441   6.131   0.238
 2800SOL    HW2 9300   4.485   6.275   0.176
 2801SOL     OW 9301   6.639   5.707   5.676
 2801SOL    HW1 9302   6.587   5.638   5.726
 2801SOL    HW2 9303   6.719   5.663   5.633
 2802SOL     OW 9304   5.166   0.520   4.993
 2802SOL    HW1 9305   5.100   0.558   5.057
 2802SOL    HW2 9306   5.165   0.573   4.909
 2803SOL     OW 9307   4.035   5.831   6.200
 2803SOL    HW1 9308   4.103   5.778   6.251
 2803SOL    HW2 9309   3.949   5.780   6.194
 2804SOL     OW 9310   0.373   4.517   5.291
 2804SOL    HW1 9311   0.374   4.603   5.239
 2804SOL    HW2 9312   0.398   4.442   5.230
 2805SOL     OW 9313   6.151   2.929   1.928
 2805SOL    HW1 9314   6.219   2.993   1.893
 2805SOL    HW2 9315   6.110   2.966   2.011
 2806SOL     OW 9316   0.492   3.808   6.272
 2806SOL    HW1 9317   0.409   3.849   6.235
 2806SOL    HW2 9318   0.572   3.850   6.230
 2807SOL     OW 9319   3.658   6.733   3.896
 2807SOL    HW1 9320   3.750   6.766   3.917
 2807SOL    HW2 9321   3.642   6.646   3.942
 2808SOL     OW 9322   6.438   4.702   1.986
 2808SOL    HW1 9323   6.481   4.790   2.007
 2808SOL    HW2 9324   6.439   4.644   2.067
 2809SOL     OW 9325   5.862   2.927   1.010
 2809SOL    HW1 9326   5.820   3.002   1.061
 2809SOL    HW2 9327   5.814   2.841   1.029
 2810SOL     OW 9328   3.298   5.168   3.654
 2810SOL    HW1 9329   3.296   5.247   3.593
 2810SOL    HW2 9330   3.214   5.166   3.708
 2811SOL     OW 9331   1.101   1.849   3.543
 2811SOL    HW1 9332   1.110   1.941   3.506
 2811SOL    HW2 9333   1.067   1.854   3.638
 2812SOL     OW 9334   5.511   2.947   6.830
 2812SOL    HW1 9335   5.539   2.939   6.735
 2812SOL    HW2 9336   5.462   2.864   6.857
 2813SOL     OW 9337   0.508   0.364   6.623
 2813SOL    HW1 9338   0.543   0.351   6.530
 2813SOL    HW2 9339   0.491   0.275   6.666
 2814SOL     OW 9340   3.723   3.579   5.258
 2814SOL    HW1 9341   3.666   3.649   5.214
 2814SOL    HW2 9342   3.731   3.501   5.197
 2815SOL     OW 9343   6.523   6.694   5.977
 2815SOL    HW1 9344   6.585   6.756   5.929
 2815SOL    HW2 9345   6.560   6.673   6.067
 2816SOL     OW 9346   6.267   5.120   3.533
 2816SOL    HW1 9347   6.276   5.059   3.612
 2816SOL    HW2 9348   6.355   5.166   3.517
 2817SOL     OW 9349   3.422   6.748   1.810
 2817SOL    HW1 9350   3.453   6.837   1.844
 2817SOL    HW2 9351   3.331   6.728   1.848
 2818SOL     OW 9352   0.547   0.657   1.452
 2818SOL    HW1 9353   0.545   0.698   1.543
 2818SOL    HW2 9354   0.471   0.592   1.443
 2819SOL     OW 9355   0.894   0.696   1.729
 2819SOL    HW1 9356   0.862   0.660   1.817
 2819SOL    HW2 9357   0.991   0.675   1.719
 2820SOL     OW 9358   0.838   2.374   2.960
 2820SOL    HW1 9359   0.787   2.456   2.934
 2820SOL    HW2 9360   0.775   2.306   2.997
 2821SOL     OW 9361   4.069   4.136   6.249
 2821SOL    HW1 9362   4.151   4.153   6.194
 2821SOL    HW2 9363   4.002   4.087   6.193
 2822SOL     OW 9364   4.050   2.238   0.746
 2822SOL    HW1 9365   4.008   2.329   0.749
 2822SOL    HW2 9366   4.063   2.211   0.650
 2823SOL     OW 9367   4.511   0.692   0.824
 2823SOL    HW1 9368   4.435   0.739   0.868
 2823SOL    HW2 9369   4.597   0.734   0.851
 2824SOL     OW 9370   1.790   1.648   3.327
 2824SOL    HW1 9371   1.730   1.596   3.266
 2824SOL    HW2 9372   1.831   1.586   3.393
 2825SOL     OW 9373   5.471   6.777   6.866
 2825SOL    HW1 9374   5.437   6.846   6.802
 2825SOL    HW2 9375   5.395   6.723   6.900
 2826SOL     OW 9376   4.909   1.029   7.010
 2826SOL    HW1 9377   4.951   1.084   6.938
 2826SOL    HW2 9378   4.861   1.089   0.054
 2827SOL     OW 9379   0.939   1.408   6.100
 2827SOL    HW1 9380   0.875   1.484   6.093
 2827SOL    HW2 9381   0.943   1.375   6.194
 2828SOL     OW 9382   2.635   1.581   0.672
 2828SOL    HW1 9383   2.542   1.544   0.676
 2828SOL    HW2 9384   2.648   1.628   0.585
 2829SOL     OW 9385   3.022   3.405   4.873
 2829SOL    HW1 9386   2.987   3.472   4.809
 2829SOL    HW2 9387   3.122   3.403   4.869
 2830SOL     OW 9388   2.159   3.167   5.889
 2830SOL    HW1 9389   2.237   3.210   5.933
 2830SOL    HW2 9390   2.105   3.236   5.841
 2831SOL     OW 9391   0.562   4.695   3.723
 2831SOL    HW1 9392   0.489   4.698   3.790
 2831SOL    HW2 9393   0.642   4.650   3.763
 2832SOL     OW 9394   1.098   3.187   2.303
 2832SOL    HW1 9395   1.130   3.100   2.265
 2832SOL    HW2 9396   1.011   3.172   2.352
 2833SOL     OW 9397   2.798   2.018   2.392
 2833SOL    HW1 9398   2.791   2.079   2.313
 2833SOL    HW2 9399   2.859   1.942   2.370
 2834SOL     OW 9400   4.136   5.944   5.971
 2834SOL    HW1 9401   4.100   5.915   6.059
 2834SOL    HW2 9402   4.146   5.864   5.911
 2835SOL     OW 9403   0.668   6.195   1.818
 2835SOL    HW1 9404   0.608   6.223   1.743
 2835SOL    HW2 9405   0.729   6.122   1.787
 2836SOL     OW 9406   0.030   6.794   2.396
 2836SOL    HW1 9407   0.047   6.843   2.310
 2836SOL    HW2 9408   6.967   6.830   2.438
 2837SOL     OW 9409   4.497   5.005   2.433
 2837SOL    HW1 9410   4.402   5.013   2.463
 2837SOL    HW2 9411   4.512   4.913   2.396
 2838SOL     OW 9412   3.320   3.904   0.577
 2838SOL    HW1 9413   3.301   3.815   0.618
 2838SOL    HW2 9414   3.419   3.919   0.573
 2839SOL     OW 9415   6.699   2.573   2.984
 2839SOL    HW1 9416   6.668   2.479   2.972
 2839SOL    HW2 9417   6.782   2.588   2.930
 2840SOL     OW 9418   1.340   0.475   3.099
 2840SOL    HW1 9419   1.293   0.387   3.104
 2840SOL    HW2 9420   1.330   0.522   3.186
 2841SOL     OW 9421   6.933   1.196   6.120
 2841SOL    HW1 9422   6.970   1.265   6.181
 2841SOL    HW2 9423   6.833   1.198   6.123
 2842SOL     OW 9424   0.569   4.203   3.657
 2842SOL    HW1 9425   0.644   4.213   3.592
 2842SOL    HW2 9426   0.576   4.115   3.703
 2843SOL     OW 9427   2.165   2.574   2.453
 2843SOL    HW1 9428   2.106   2.551   2.531
 2843SOL    HW2 9429   2.191   2.670   2.458
 2844SOL     OW 9430   6.812   5.258   6.786
 2844SOL    HW1 9431   6.881   5.225   6.722
 2844SOL    HW2 9432   6.741   5.189   6.798
 2845SOL     OW 9433   5.905   3.472   1.736
 2845SOL    HW1 9434   5.880   3.419   1.655
 2845SOL    HW2 9435   6.002   3.460   1.755
 2846SOL     OW 9436   4.322   1.183   0.259
 2846SOL    HW1 9437   4.302   1.108   0.322
 2846SOL    HW2 9438   4.240   1.239   0.246
 2847SOL     OW 9439   5.290   4.130   3.306
 2847SOL    HW1 9440   5.212   4.181   3.342
 2847SOL    HW2 9441   5.375   4.165   3.346
 2848SOL     OW 9442   1.892   2.819   5.306
 2848SOL    HW1 9443   1.970   2.848   5.251
 2848SOL    HW2 9444   1.901   2.855   5.399
 2849SOL     OW 9445   4.324   0.231   0.620
 2849SOL    HW1 9446   4.300   0.134   0.620
 2849SOL    HW2 9447   4.265   0.281   0.556
 2850SOL     OW 9448   2.111   0.160   2.668
 2850SOL    HW1 9449   2.064   0.235   2.622
 2850SOL    HW2 9450   2.078   0.073   2.632
 2851SOL     OW 9451   5.751   1.774   5.848
 2851SOL    HW1 9452   5.749   1.873   5.833
 2851SOL    HW2 9453   5.738   1.754   5.945
 2852SOL     OW 9454   6.419   3.744   6.810
 2852SOL    HW1 9455   6.364   3.663   6.787
 2852SOL    HW2 9456   6.406   3.814   6.739
 2853SOL     OW 9457   1.975   1.015   6.928
 2853SOL    HW1 9458   1.987   1.106   6.888
 2853SOL    HW2 9459   1.997   1.018   0.005
 2854SOL     OW 9460   4.949   0.619   5.136
 2854SOL    HW1 9461   4.885   0.584   5.204
 2854SOL    HW2 9462   4.939   0.718   5.127
 2855SOL     OW 9463   2.002   2.090   6.040
 2855SOL    HW1 9464   2.074   2.041   5.991
 2855SOL    HW2 9465   2.000   2.186   6.010
 2856SOL     OW 9466   0.360   3.525   5.682
 2856SOL    HW1 9467   0.356   3.532   5.781
 2856SOL    HW2 9468   0.401   3.608   5.645
 2857SOL     OW 9469   1.813   3.081   2.030
 2857SOL    HW1 9470   1.757   3.157   2.064
 2857SOL    HW2 9471   1.790   3.063   1.935
 2858SOL     OW 9472   4.764   4.326   1.902
 2858SOL    HW1 9473   4.766   4.270   1.819
 2858SOL    HW2 9474   4.678   4.309   1.951
 2859SOL     OW 9475   5.574   0.880   6.798
 2859SOL    HW1 9476   5.637   0.938   6.850
 2859SOL    HW2 9477   5.595   0.784   6.816
 2860SOL     OW 9478   2.201   2.458   1.842
 2860SOL    HW1 9479   2.214   2.458   1.942
 2860SOL    HW2 9480   2.272   2.403   1.799
 2861SOL     OW 9481   3.637   4.927   5.938
 2861SOL    HW1 9482   3.577   5.007   5.942
 2861SOL    HW2 9483   3.658   4.906   5.843
 2862SOL     OW 9484   5.175   1.898   2.196
 2862SOL    HW1 9485   5.121   1.975   2.162
 2862SOL    HW2 9486   5.115   1.820   2.212
 2863SOL     OW 9487   4.416   1.455   6.864
 2863SOL    HW1 9488   4.494   1.406   6.825
 2863SOL    HW2 9489   4.383   1.522   6.798
 2864SOL     OW 9490   4.076   1.499   2.028
 2864SOL    HW1 9491   3.998   1.552   1.995
 2864SOL    HW2 9492   4.054   1.460   2.118
 2865SOL     OW 9493   3.753   6.089   6.086
 2865SOL    HW1 9494   3.737   6.052   6.177
 2865SOL    HW2 9495   3.674   6.142   6.057
 2866SOL     OW 9496   6.705   5.405   6.448
 2866SOL    HW1 9497   6.744   5.495   6.465
 2866SOL    HW2 9498   6.778   5.340   6.425
 2867SOL     OW 9499   0.041   6.024   3.388
 2867SOL    HW1 9500   0.083   5.935   3.369
 2867SOL    HW2 9501   0.040   6.079   3.304
 2868SOL     OW 9502   1.662   1.088   5.396
 2868SOL    HW1 9503   1.595   1.042   5.455
 2868SOL    HW2 9504   1.614   1.153   5.337
 2869SOL     OW 9505   6.869   1.284   3.527
 2869SOL    HW1 9506   6.819   1.241   3.603
 2869SOL    HW2 9507   6.815   1.276   3.443
 2870SOL     OW 9508   0.578   1.333   4.851
 2870SOL    HW1 9509   0.645   1.294   4.914
 2870SOL    HW2 9510   0.605   1.425   4.825
 2871SOL     OW 9511   0.024   1.404   6.290
 2871SOL    HW1 9512   0.068   1.421   6.378
 2871SOL    HW2 9513   6.991   1.484   6.264
 2872SOL     OW 9514   2.291   2.446   2.090
 2872SOL    HW1 9515   2.347   2.497   2.155
 2872SOL    HW2 9516   2.287   2.350   2.117
 2873SOL     OW 9517   6.515   5.649   2.612
 2873SOL    HW1 9518   6.538   5.706   2.533
 2873SOL    HW2 9519   6.599   5.612   2.652
 2874SOL     OW 9520   5.048   0.271   3.438
 2874SOL    HW1 9521   4.994   0.350   3.469
 2874SOL    HW2 9522   5.059   0.207   3.514
 2875SOL     OW 9523   5.238   0.665   0.986
 2875SOL    HW1 9524   5.276   0.734   0.925
 2875SOL    HW2 9525   5.268   0.683   1.080
 2876SOL     OW 9526   1.965   0.130   2.382
 2876SOL    HW1 9527   2.011   0.152   2.297
 2876SOL    HW2 9528   2.004   0.047   2.421
 2877SOL     OW 9529   2.472   1.808   5.898
 2877SOL    HW1 9530   2.501   1.867   5.822
 2877SOL    HW2 9531   2.434   1.723   5.862
 2878SOL     OW 9532   3.732   4.376   5.400
 2878SOL    HW1 9533   3.775   4.311   5.337
 2878SOL    HW2 9534   3.646   4.338   5.434
 2879SOL     OW 9535   5.477   5.160   0.163
 2879SOL    HW1 9536   5.455   5.157   0.065
 2879SOL    HW2 9537   5.420   5.095   0.212
 2880SOL     OW 9538   0.097   0.777   2.096
 2880SOL    HW1 9539   0.077   0.679   2.089
 2880SOL    HW2 9540   0.018   0.825   2.132
 2881SOL     OW 9541   4.640   5.577   6.293
 2881SOL    HW1 9542   4.560   5.580   6.234
 2881SOL    HW2 9543   4.645   5.660   6.347
 2882SOL     OW 9544   6.911   5.655   2.398
 2882SOL    HW1 9545   6.904   5.596   2.317
 2882SOL    HW2 9546   6.991   5.629   2.451
 2883SOL     OW 9547   6.026   0.139   3.188
 2883SOL    HW1 9548   6.032   0.040   3.182
 2883SOL    HW2 9549   5.991   0.176   3.101
 2884SOL     OW 9550   1.285   6.996   2.869
 2884SOL    HW1 9551   1.231   6.967   2.790
 2884SOL    HW2 9552   1.284   0.075   2.876
 2885SOL     OW 9553   1.532   3.809   3.367
 2885SOL    HW1 9554   1.561   3.904   3.361
 2885SOL    HW2 9555   1.538   3.766   3.277
 2886SOL     OW 9556   1.005   3.870   5.955
 2886SOL    HW1 9557   1.021   3.913   6.044
 2886SOL    HW2 9558   1.019   3.771   5.962
 2887SOL     OW 9559   0.513   0.934   5.686
 2887SOL    HW1 9560   0.557   1.004   5.744
 2887SOL    HW2 9561   0.418   0.923   5.714
 2888SOL     OW 9562   6.978   4.341   6.666
 2888SOL    HW1 9563   7.020   4.387   6.587
 2888SOL    HW2 9564   6.885   4.376   6.679
 2889SOL     OW 9565   2.815   6.191   2.500
 2889SOL    HW1 9566   2.785   6.276   2.456
 2889SOL    HW2 9567   2.782   6.113   2.447
 2890SOL     OW 9568   1.646   6.545   0.083
 2890SOL    HW1 9569   1.637   6.638   0.047
 2890SOL    HW2 9570   1.573   6.527   0.148
 2891SOL     OW 9571   1.086   4.975   3.487
 2891SOL    HW1 9572   1.140   4.939   3.411
 2891SOL    HW2 9573   1.014   5.034   3.451
 2892SOL     OW 9574   5.764   3.527   0.374
 2892SOL    HW1 9575   5.848   3.473   0.373
 2892SOL    HW2 9576   5.780   3.612   0.423
 2893SOL     OW 9577   6.594   5.252   4.606
 2893SOL    HW1 9578   6.557   5.198   4.531
 2893SOL    HW2 9579   6.694   5.255   4.598
 2894SOL     OW 9580   0.994   3.781   2.240
 2894SOL    HW1 9581   0.943   3.740   2.315
 2894SOL    HW2 9582   1.057   3.713   2.201
 2895SOL     OW 9583   5.231   2.599   5.782
 2895SOL    HW1 9584   5.187   2.519   5.743
 2895SOL    HW2 9585   5.214   2.678   5.724
 2896SOL     OW 9586   4.606   5.623   5.397
 2896SOL    HW1 9587   4.542   5.613   5.474
 2896SOL    HW2 9588   4.681   5.684   5.423
 2897SOL     OW 9589   3.933   5.184   3.250
 2897SOL    HW1 9590   3.953   5.238   3.332
 2897SOL    HW2 9591   3.934   5.087   3.273
 2898SOL     OW 9592   4.535   4.705   4.597
 2898SOL    HW1 9593   4.505   4.780   4.538
 2898SOL    HW2 9594   4.479   4.703   4.680
 2899SOL     OW 9595   1.114   1.621   6.931
 2899SOL    HW1 9596   1.152   1.677   6.858
 2899SOL    HW2 9597   1.120   1.525   6.907
 2900SOL     OW 9598   1.743   3.441   5.901
 2900SOL    HW1 9599   1.682   3.440   5.821
 2900SOL    HW2 9600   1.837   3.426   5.871
 2901SOL     OW 9601   3.234   5.338   3.086
 2901SOL    HW1 9602   3.204   5.417   3.032
 2901SOL    HW2 9603   3.175   5.260   3.067
 2902SOL     OW 9604   5.596   5.750   3.197
 2902SOL    HW1 9605   5.586   5.830   3.137
 2902SOL    HW2 9606   5.619   5.781   3.289
 2903SOL     OW 9607   3.048   0.436   0.663
 2903SOL    HW1 9608   2.951   0.443   0.686
 2903SOL    HW2 9609   3.101   0.498   0.722
 2904SOL     OW 9610   2.310   4.553   4.347
 2904SOL    HW1 9611   2.370   4.521   4.420
 2904SOL    HW2 9612   2.273   4.475   4.297
 2905SOL     OW 9613   1.301   2.193   4.738
 2905SOL    HW1 9614   1.234   2.232   4.675
 2905SOL    HW2 9615   1.352   2.267   4.782
 2906SOL     OW 9616   4.357   5.339   2.138
 2906SOL    HW1 9617   4.453   5.331   2.164
 2906SOL    HW2 9618   4.341   5.429   2.098
 2907SOL     OW 9619   0.802   1.031   3.249
 2907SOL    HW1 9620   0.742   1.061   3.175
 2907SOL    HW2 9621   0.860   1.108   3.278
 2908SOL     OW 9622   5.573   6.576   3.488
 2908SOL    HW1 9623   5.508   6.579   3.413
 2908SOL    HW2 9624   5.603   6.481   3.502
 2909SOL     OW 9625   1.800   5.588   3.877
 2909SOL    HW1 9626   1.712   5.625   3.905
 2909SOL    HW2 9627   1.864   5.591   3.954
 2910SOL     OW 9628   4.819   0.724   4.489
 2910SOL    HW1 9629   4.891   0.694   4.426
 2910SOL    HW2 9630   4.730   0.709   4.448
 2911SOL     OW 9631   1.098   5.792   3.485
 2911SOL    HW1 9632   1.089   5.694   3.473
 2911SOL    HW2 9633   1.008   5.834   3.493
 2912SOL     OW 9634   5.397   0.195   6.430
 2912SOL    HW1 9635   5.304   0.206   6.393
 2912SOL    HW2 9636   5.403   0.110   6.481
 2913SOL     OW 9637   2.860   5.205   2.272
 2913SOL    HW1 9638   2.788   5.142   2.301
 2913SOL    HW2 9639   2.946   5.181   2.316
 2914SOL     OW 9640   6.589   5.946   6.357
 2914SOL    HW1 9641   6.621   6.031   6.315
 2914SOL    HW2 9642   6.655   5.915   6.425
 2915SOL     OW 9643   4.584   1.742   3.918
 2915SOL    HW1 9644   4.668   1.688   3.921
 2915SOL    HW2 9645   4.535   1.722   3.833
 2916SOL     OW 9646   0.648   6.624   0.870
 2916SOL    HW1 9647   0.594   6.637   0.953
 2916SOL    HW2 9648   0.741   6.657   0.886
 2917SOL     OW 9649   2.463   0.761   3.428
 2917SOL    HW1 9650   2.368   0.732   3.437
 2917SOL    HW2 9651   2.467   0.856   3.398
 2918SOL     OW 9652   5.887   4.551   4.944
 2918SOL    HW1 9653   5.824   4.473   4.943
 2918SOL    HW2 9654   5.858   4.615   5.016
 2919SOL     OW 9655   5.711   0.852   2.649
 2919SOL    HW1 9656   5.780   0.838   2.720
 2919SOL    HW2 9657   5.744   0.814   2.563
 2920SOL     OW 9658   2.948   1.617   1.396
 2920SOL    HW1 9659   3.017   1.546   1.410
 2920SOL    HW2 9660   2.858   1.581   1.422
 2921SOL     OW 9661   0.771   0.400   4.661
 2921SOL    HW1 9662   0.806   0.306   4.666
 2921SOL    HW2 9663   0.692   0.403   4.601
 2922SOL     OW 9664   4.670   0.982   0.988
 2922SOL    HW1 9665   4.754   1.006   0.940
 2922SOL    HW2 9666   4.598   1.047   0.962
 2923SOL     OW 9667   6.283   5.105   2.495
 2923SOL    HW1 9668   6.294   5.083   2.592
 2923SOL    HW2 9669   6.234   5.031   2.449
 2924SOL     OW 9670   6.808   2.076   6.098
 2924SOL    HW1 9671   6.795   2.005   6.028
 2924SOL    HW2 9672   6.791   2.165   6.057
 2925SOL     OW 9673   4.997   0.741   2.329
 2925SOL    HW1 9674   5.088   0.750   2.289
 2925SOL    HW2 9675   4.953   0.830   2.333
 2926SOL     OW 9676   6.938   1.822   3.938
 2926SOL    HW1 9677   7.007   1.893   3.953
 2926SOL    HW2 9678   6.925   1.770   4.022
 2927SOL     OW 9679   1.458   4.085   0.977
 2927SOL    HW1 9680   1.448   4.002   1.032
 2927SOL    HW2 9681   1.539   4.076   0.919
 2928SOL     OW 9682   0.010   1.218   6.541
 2928SOL    HW1 9683   0.080   1.213   6.470
 2928SOL    HW2 9684   7.009   1.125   6.572
 2929SOL     OW 9685   0.434   2.097   0.204
 2929SOL    HW1 9686   0.531   2.100   0.228
 2929SOL    HW2 9687   0.387   2.177   0.240
 2930SOL     OW 9688   4.856   0.666   4.866
 2930SOL    HW1 9689   4.885   0.617   4.948
 2930SOL    HW2 9690   4.934   0.711   4.824
 2931SOL     OW 9691   5.410   4.784   6.949
 2931SOL    HW1 9692   5.496   4.817   6.989
 2931SOL    HW2 9693   5.418   4.687   6.927
 2932SOL     OW 9694   0.943   5.336   1.946
 2932SOL    HW1 9695   1.030   5.303   1.983
 2932SOL    HW2 9696   0.944   5.436   1.945
 2933SOL     OW 9697   0.205   5.535   3.404
 2933SOL    HW1 9698   0.167   5.616   3.359
 2933SOL    HW2 9699   0.281   5.562   3.463
 2934SOL     OW 9700   4.593   1.573   0.525
 2934SOL    HW1 9701   4.609   1.598   0.429
 2934SOL    HW2 9702   4.584   1.474   0.532
 2935SOL     OW 9703   6.491   3.355   6.962
 2935SOL    HW1 9704   6.396   3.330   6.980
 2935SOL    HW2 9705   6.496   3.452   6.938
 2936SOL     OW 9706   3.770   6.826   0.602
 2936SOL    HW1 9707   3.737   6.913   0.641
 2936SOL    HW2 9708   3.765   6.830   0.502
 2937SOL     OW 9709   5.090   4.462   0.859
 2937SOL    HW1 9710   5.175   4.420   0.891
 2937SOL    HW2 9711   5.017   4.443   0.925
 2938SOL     OW 9712   4.701   5.001   6.244
 2938SOL    HW1 9713   4.708   5.078   6.307
 2938SOL    HW2 9714   4.636   4.934   6.279
 2939SOL     OW 9715   1.720   0.899   2.661
 2939SOL    HW1 9716   1.717   0.839   2.741
 2939SOL    HW2 9717   1.628   0.932   2.641
 2940SOL     OW 9718   5.468   4.702   5.987
 2940SOL    HW1 9719   5.520   4.759   5.924
 2940SOL    HW2 9720   5.531   4.644   6.039
 2941SOL     OW 9721   1.990   1.859   4.563
 2941SOL    HW1 9722   1.983   1.764   4.531
 2941SOL    HW2 9723   2.008   1.919   4.486
 2942SOL     OW 9724   2.390   2.316   0.408
 2942SOL    HW1 9725   2.372   2.412   0.428
 2942SOL    HW2 9726   2.408   2.267   0.494
 2943SOL     OW 9727   4.710   4.371   3.602
 2943SOL    HW1 9728   4.705   4.335   3.509
 2943SOL    HW2 9729   4.621   4.408   3.628
 2944SOL     OW 9730   3.021   6.063   4.215
 2944SOL    HW1 9731   3.061   6.024   4.132
 2944SOL    HW2 9732   2.956   6.135   4.191
 2945SOL     OW 9733   2.967   3.711   3.722
 2945SOL    HW1 9734   2.923   3.741   3.638
 2945SOL    HW2 9735   3.066   3.726   3.715
 2946SOL     OW 9736   0.703   4.557   6.050
 2946SOL    HW1 9737   0.734   4.476   6.100
 2946SOL    HW2 9738   0.700   4.635   6.112
 2947SOL     OW 9739   0.209   3.679   1.178
 2947SOL    HW1 9740   0.282   3.745   1.194
 2947SOL    HW2 9741   0.248   3.587   1.173
 2948SOL     OW 9742   0.768   4.331   5.332
 2948SOL    HW1 9743   0.865   4.321   5.355
 2948SOL    HW2 9744   0.715   4.330   5.417
 2949SOL     OW 9745   2.359   5.556   0.765
 2949SOL    HW1 9746   2.413   5.545   0.849
 2949SOL    HW2 9747   2.403   5.507   0.690
 2950SOL     OW 9748   5.332   4.617   4.333
 2950SOL    HW1 9749   5.260   4.583   4.393
 2950SOL    HW2 9750   5.348   4.714   4.350
 2951SOL     OW 9751   6.123   0.930   0.677
 2951SOL    HW1 9752   6.214   0.914   0.714
 2951SOL    HW2 9753   6.126   1.003   0.609
 2952SOL     OW 9754   6.984   4.455   5.264
 2952SOL    HW1 9755   6.925   4.414   5.194
 2952SOL    HW2 9756   6.928   4.510   5.326
 2953SOL     OW 9757   5.095   3.259   2.322
 2953SOL    HW1 9758   5.040   3.234   2.242
 2953SOL    HW2 9759   5.183   3.296   2.291
 2954SOL     OW 9760   0.952   5.608   1.902
 2954SOL    HW1 9761   0.932   5.697   1.942
 2954SOL    HW2 9762   0.916   5.604   1.809
 2955SOL     OW 9763   0.974   4.040   2.161
 2955SOL    HW1 9764   0.969   3.965   2.227
 2955SOL    HW2 9765   1.056   4.031   2.106
 2956SOL     OW 9766   5.298   5.997   3.427
 2956SOL    HW1 9767   5.213   6.028   3.470
 2956SOL    HW2 9768   5.279   5.921   3.366
 2957SOL     OW 9769   6.182   3.587   1.947
 2957SOL    HW1 9770   6.162   3.562   2.042
 2957SOL    HW2 9771   6.188   3.504   1.892
 2958SOL     OW 9772   2.614   4.622   4.266
 2958SOL    HW1 9773   2.555   4.575   4.201
 2958SOL    HW2 9774   2.606   4.579   4.356
 2959SOL     OW 9775   4.695   4.028   0.361
 2959SOL    HW1 9776   4.696   4.110   0.419
 2959SOL    HW2 9777   4.663   3.950   0.414
 2960SOL     OW 9778   3.192   0.832   6.628
 2960SOL    HW1 9779   3.224   0.913   6.579
 2960SOL    HW2 9780   3.253   0.813   6.705
 2961SOL     OW 9781   5.262   3.561   2.677
 2961SOL    HW1 9782   5.169   3.580   2.648
 2961SOL    HW2 9783   5.320   3.544   2.597
 2962SOL     OW 9784   5.097   6.814   3.017
 2962SOL    HW1 9785   5.007   6.784   3.050
 2962SOL    HW2 9786   5.166   6.797   3.087
 2963SOL     OW 9787   2.234   0.962   6.177
 2963SOL    HW1 9788   2.323   0.948   6.133
 2963SOL    HW2 9789   2.201   0.876   6.216
 2964SOL     OW 9790   0.413   0.276   3.371
 2964SOL    HW1 9791   0.371   0.351   3.320
 2964SOL    HW2 9792   0.449   0.309   3.458
 2965SOL     OW 9793   6.950   1.327   4.136
 2965SOL    HW1 9794   6.922   1.378   4.054
 2965SOL    HW2 9795   6.922   1.376   4.218
 2966SOL     OW 9796   5.069   5.834   3.727
 2966SOL    HW1 9797   4.975   5.849   3.756
 2966SOL    HW2 9798   5.103   5.914   3.679
 2967SOL     OW 9799   6.711   0.651   4.804
 2967SOL    HW1 9800   6.698   0.640   4.903
 2967SOL    HW2 9801   6.789   0.596   4.774
 2968SOL     OW 9802   0.994   2.794   6.467
 2968SOL    HW1 9803   0.930   2.865   6.494
 2968SOL    HW2 9804   1.050   2.767   6.546
 2969SOL     OW 9805   5.101   1.509   3.935
 2969SOL    HW1 9806   5.107   1.608   3.921
 2969SOL    HW2 9807   5.193   1.471   3.939
 2970SOL     OW 9808   1.933   4.100   6.007
 2970SOL    HW1 9809   1.988   4.162   6.064
 2970SOL    HW2 9810   1.968   4.007   6.016
 2971SOL     OW 9811   4.948   4.302   0.223
 2971SOL    HW1 9812   4.928   4.287   0.126
 2971SOL    HW2 9813   4.864   4.328   0.271
 2972SOL     OW 9814   6.401   4.552   6.311
 2972SOL    HW1 9815   6.453   4.473   6.279
 2972SOL    HW2 9816   6.303   4.533   6.306
 2973SOL     OW 9817   5.806   6.481   2.722
 2973SOL    HW1 9818   5.877   6.427   2.678
 2973SOL    HW2 9819   5.730   6.495   2.658
 2974SOL     OW 9820   1.003   4.718   3.225
 2974SOL    HW1 9821   1.090   4.766   3.236
 2974SOL    HW2 9822   1.017   4.633   3.174
 2975SOL     OW 9823   5.374   3.216   4.079
 2975SOL    HW1 9824   5.433   3.159   4.136
 2975SOL    HW2 9825   5.315   3.271   4.137
 2976SOL     OW 9826   4.589   2.043   2.701
 2976SOL    HW1 9827   4.654   2.100   2.651
 2976SOL    HW2 9828   4.607   1.947   2.681
 2977SOL     OW 9829   2.576   6.714   2.775
 2977SOL    HW1 9830   2.492   6.686   2.730
 2977SOL    HW2 9831   2.555   6.750   2.866
 2978SOL     OW 9832   5.245   4.408   0.291
 2978SOL    HW1 9833   5.188   4.443   0.365
 2978SOL    HW2 9834   5.233   4.466   0.210
 2979SOL     OW 9835   3.647   0.725   4.095
 2979SOL    HW1 9836   3.626   0.653   4.029
 2979SOL    HW2 9837   3.633   0.691   4.187
 2980SOL     OW 9838   1.227   5.930   5.194
 2980SOL    HW1 9839   1.322   5.922   5.164
 2980SOL    HW2 9840   1.221   5.912   5.292
 2981SOL     OW 9841   2.568   1.471   5.868
 2981SOL    HW1 9842   2.658   1.503   5.837
 2981SOL    HW2 9843   2.497   1.527   5.828
 2982SOL     OW 9844   3.452   4.872   2.690
 2982SOL    HW1 9845   3.355   4.854   2.702
 2982SOL    HW2 9846   3.485   4.927   2.767
 2983SOL     OW 9847   0.335   1.533   2.729
 2983SOL    HW1 9848   0.290   1.444   2.739
 2983SOL    HW2 9849   0.424   1.531   2.775
 2984SOL     OW 9850   5.200   5.108   1.343
 2984SOL    HW1 9851   5.206   5.207   1.326
 2984SOL    HW2 9852   5.204   5.060   1.255
 2985SOL     OW 9853   1.620   2.859   5.399
 2985SOL    HW1 9854   1.692   2.839   5.333
 2985SOL    HW2 9855   1.661   2.889   5.485
 2986SOL     OW 9856   3.316   4.109   3.827
 2986SOL    HW1 9857   3.406   4.143   3.855
 2986SOL    HW2 9858   3.257   4.100   3.907
 2987SOL     OW 9859   6.561   1.416   4.343
 2987SOL    HW1 9860   6.519   1.325   4.354
 2987SOL    HW2 9861   6.607   1.441   4.428
 2988SOL     OW 9862   1.551   5.496   2.694
 2988SOL    HW1 9863   1.615   5.572   2.706
 2988SOL    HW2 9864   1.530   5.486   2.596
 2989SOL     OW 9865   6.260   5.857   5.975
 2989SOL    HW1 9866   6.353   5.860   5.938
 2989SOL    HW2 9867   6.243   5.938   6.031
 2990SOL     OW 9868   3.598   1.812   4.862
 2990SOL    HW1 9869   3.639   1.901   4.846
 2990SOL    HW2 9870   3.624   1.778   4.952
 2991SOL     OW 9871   6.657   4.150   5.301
 2991SOL    HW1 9872   6.670   4.153   5.202
 2991SOL    HW2 9873   6.715   4.079   5.340
 2992SOL     OW 9874   2.602   6.167   5.170
 2992SOL    HW1 9875   2.571   6.251   5.125
 2992SOL    HW2 9876   2.697   6.178   5.199
 2993SOL     OW 9877   0.705   4.854   1.660
 2993SOL    HW1 9878   0.782   4.859   1.597
 2993SOL    HW2 9879   0.723   4.785   1.730
 2994SOL     OW 9880   4.223   6.092   0.299
 2994SOL    HW1 9881   4.210   6.132   0.208
 2994SOL    HW2 9882   4.164   6.011   0.309
 2995SOL     OW 9883   2.933   2.123   5.807
 2995SOL    HW1 9884   2.902   2.185   5.879
 2995SOL    HW2 9885   2.912   2.028   5.833
 2996SOL     OW 9886   1.280   1.480   3.126
 2996SOL    HW1 9887   1.314   1.464   3.218
 2996SOL    HW2 9888   1.300   1.574   3.098
 2997SOL     OW 9889   6.011   0.024   2.763
 2997SOL    HW1 9890   6.012   0.106   2.821
 2997SOL    HW2 9891   6.101   7.001   2.766
 2998SOL     OW 9892   4.589   0.216   3.868
 2998SOL    HW1 9893   4.660   0.147   3.880
 2998SOL    HW2 9894   4.530   0.218   3.948
 2999SOL     OW 9895   2.584   5.190   4.960
 2999SOL    HW1 9896   2.613   5.108   5.010
 2999SOL    HW2 9897   2.610   5.272   5.011
 3000SOL     OW 9898   2.828   3.743   6.491
 3000SOL    HW1 9899   2.885   3.773   6.414
 3000SOL    HW2 9900   2.880   3.754   6.576
 3001SOL     OW 9901   5.526   6.932   6.153
 3001SOL    HW1 9902   5.599   6.977   6.204
 3001SOL    HW2 9903   5.512   6.979   6.066
 3002SOL     OW 9904   3.362   1.372   6.717
 3002SOL    HW1 9905   3.360   1.438   6.642
 3002SOL    HW2 9906   3.430   1.400   6.785
 3003SOL     OW 9907   1.649   6.862   0.521
 3003SOL    HW1 9908   1.563   6.816   0.540
 3003SOL    HW2 9909   1.662   6.938   0.585
 3004SOL     OW 9910   0.996   4.721   2.888
 3004SOL    HW1 9911   0.979   4.637   2.940
 3004SOL    HW2 9912   1.080   4.764   2.920
 3005SOL     OW 9913   2.522   2.027   0.897
 3005SOL    HW1 9914   2.514   2.084   0.815
 3005SOL    HW2 9915   2.594   2.063   0.956
 3006SOL     OW 9916   5.530   1.658   4.991
 3006SOL    HW1 9917   5.620   1.617   4.981
 3006SOL    HW2 9918   5.483   1.656   4.902
 3007SOL     OW 9919   5.232   4.468   1.341
 3007SOL    HW1 9920   5.321   4.436   1.371
 3007SOL    HW2 9921   5.213   4.558   1.380
 3008SOL     OW 9922   3.581   2.350   5.960
 3008SOL    HW1 9923   3.502   2.372   5.902
 3008SOL    HW2 9924   3.578   2.406   6.043
 3009SOL     OW 9925   0.225   1.781   2.633
 3009SOL    HW1 9926   0.277   1.706   2.674
 3009SOL    HW2 9927   0.285   1.835   2.575
 3010SOL     OW 9928   3.721   6.046   3.325
 3010SOL    HW1 9929   3.765   6.119   3.376
 3010SOL    HW2 9930   3.645   6.083   3.271
 3011SOL     OW 9931   5.906   1.353   2.107
 3011SOL    HW1 9932   5.824   1.297   2.093
 3011SOL    HW2 9933   5.883   1.449   2.089
 3012SOL     OW 9934   1.978   3.671   5.960
 3012SOL    HW1 9935   1.938   3.615   6.032
 3012SOL    HW2 9936   2.029   3.746   6.001
 3013SOL     OW 9937   5.877   5.803   4.366
 3013SOL    HW1 9938   5.846   5.897   4.378
 3013SOL    HW2 9939   5.977   5.801   4.361
 3014SOL     OW 9940   4.434   2.465   4.599
 3014SOL    HW1 9941   4.479   2.554   4.587
 3014SOL    HW2 9942   4.423   2.447   4.696
 3015SOL     OW 9943   3.306   1.627   0.436
 3015SOL    HW1 9944   3.238   1.658   0.369
 3015SOL    HW2 9945   3.317   1.697   0.506
 3016SOL     OW 9946   2.529   6.301   4.092
 3016SOL    HW1 9947   2.551   6.340   4.181
 3016SOL    HW2 9948   2.430   6.289   4.084
 3017SOL     OW 9949   6.597   4.853   2.339
 3017SOL    HW1 9950   6.669   4.785   2.320
 3017SOL    HW2 9951   6.534   4.816   2.407
 3018SOL     OW 9952   2.987   6.655   6.054
 3018SOL    HW1 9953   2.925   6.733   6.040
 3018SOL    HW2 9954   3.071   6.686   6.098
 3019SOL     OW 9955   0.930   0.285   0.149
 3019SOL    HW1 9956   0.926   0.382   0.173
 3019SOL    HW2 9957   1.025   0.259   0.128
 3020SOL     OW 9958   3.858   2.864   1.735
 3020SOL    HW1 9959   3.807   2.882   1.651
 3020SOL    HW2 9960   3.899   2.773   1.731
 3021SOL     OW 9961   3.100   6.965   6.292
 3021SOL    HW1 9962   3.010   7.000   6.266
 3021SOL    HW2 9963   3.152   0.018   6.336
 3022SOL     OW 9964   3.306   5.625   4.490
 3022SOL    HW1 9965   3.399   5.590   4.492
 3022SOL    HW2 9966   3.302   5.712   4.538
 3023SOL     OW 9967   3.364   7.009   2.971
 3023SOL    HW1 9968   3.436   6.939   2.974
 3023SOL    HW2 9969   3.348   0.023   3.064
 3024SOL     OW 9970   4.799   0.110   4.777
 3024SOL    HW1 9971   4.804   0.198   4.823
 3024SOL    HW2 9972   4.853   0.114   4.692
 3025SOL     OW 9973   2.987   0.172   0.551
 3025SOL    HW1 9974   2.926   0.195   0.475
 3025SOL    HW2 9975   3.017   0.256   0.596
 3026SOL     OW 9976   1.385   0.481   6.813
 3026SOL    HW1 9977   1.433   0.410   6.761
 3026SOL    HW2 9978   1.451   0.530   6.870
 3027SOL     OW 9979   4.147   0.653   3.025
 3027SOL    HW1 9980   4.197   0.592   3.086
 3027SOL    HW2 9981   4.179   0.640   2.931
 3028SOL     OW 9982   1.207   3.678   5.661
 3028SOL    HW1 9983   1.298   3.708   5.691
 3028SOL    HW2 9984   1.155   3.644   5.739
 3029SOL     OW 9985   6.972   2.620   5.274
 3029SOL    HW1 9986   6.934   2.543   5.326
 3029SOL    HW2 9987   7.015   2.685   5.337
 3030SOL     OW 9988   0.128   3.222   0.025
 3030SOL    HW1 9989   0.167   3.286   6.979
 3030SOL    HW2 9990   0.042   3.186   7.011
 3031SOL     OW 9991   0.387   3.957   0.280
 3031SOL    HW1 9992   0.438   3.872   0.299
 3031SOL    HW2 9993   0.376   4.008   0.366
 3032SOL     OW 9994   2.986   0.025   0.784
 3032SOL    HW1 9995   2.963   6.951   0.761
 3032SOL    HW2 9996   2.980   0.082   0.702
 3033SOL     OW 9997   5.933   1.951   1.661
 3033SOL    HW1 9998   5.948   2.043   1.624
 3033SOL    HW2 9999   5.836   1.937   1.680
 3034SOL     OW10000   2.119   5.572   2.912
 3034SOL    HW110001   2.041   5.577   2.974
 3034SOL    HW210002   2.088   5.547   2.821
 3035SOL     OW10003   7.002   3.099   6.788
 3035SOL    HW110004   6.945   3.157   6.731
 3035SOL    HW210005   0.026   3.029   6.731
 3036SOL     OW10006   1.949   1.371   6.460
 3036SOL    HW110007   1.883   1.301   6.486
 3036SOL    HW210008   2.035   1.328   6.434
 3037SOL     OW10009   6.221   6.066   5.281
 3037SOL    HW110010   6.230   6.161   5.251
 3037SOL    HW210011   6.304   6.016   5.259
 3038SOL     OW10012   5.022   6.273   5.788
 3038SOL    HW110013   5.096   6.289   5.723
 3038SOL    HW210014   5.021   6.346   5.856
 3039SOL     OW10015   6.530   3.307   0.361
 3039SOL    HW110016   6.614   3.254   0.359
 3039SOL    HW210017   6.533   3.378   0.290
 3040SOL     OW10018   3.815   4.177   6.074
 3040SOL    HW110019   3.902   4.220   6.100
 3040SOL    HW210020   3.802   4.185   5.975
 3041SOL     OW10021   1.867   2.987   4.000
 3041SOL    HW110022   1.814   2.947   3.926
 3041SOL    HW210023   1.815   3.062   4.042
 3042SOL     OW10024   4.974   5.928   1.808
 3042SOL    HW110025   4.901   5.866   1.839
 3042SOL    HW210026   4.962   6.017   1.852
 3043SOL     OW10027   2.424   4.548   1.649
 3043SOL    HW110028   2.355   4.604   1.603
 3043SOL    HW210029   2.426   4.570   1.746
 3044SOL     OW10030   3.702   4.245   5.779
 3044SOL    HW110031   3.634   4.308   5.741
 3044SOL    HW210032   3.709   4.165   5.720
 3045SOL     OW10033   4.331   0.261   2.971
 3045SOL    HW110034   4.291   0.287   2.883
 3045SOL    HW210035   4.431   0.255   2.962
 3046SOL     OW10036   2.564   0.674   6.199
 3046SOL    HW110037   2.569   0.665   6.298
 3046SOL    HW210038   2.523   0.762   6.175
 3047SOL     OW10039   6.319   0.402   2.152
 3047SOL    HW110040   6.325   0.502   2.155
 3047SOL    HW210041   6.306   0.367   2.244
 3048SOL     OW10042   3.977   2.237   1.784
 3048SOL    HW110043   3.885   2.249   1.821
 3048SOL    HW210044   3.970   2.198   1.692
 3049SOL     OW10045   1.941   6.673   2.337
 3049SOL    HW110046   1.919   6.766   2.367
 3049SOL    HW210047   1.884   6.649   2.258
 3050SOL     OW10048   2.976   1.365   1.730
 3050SOL    HW110049   2.895   1.308   1.729
 3050SOL    HW210050   3.042   1.329   1.796
 3051SOL     OW10051   2.200   4.667   6.849
 3051SOL    HW110052   2.151   4.640   6.932
 3051SOL    HW210053   2.148   4.739   6.802
 3052SOL     OW10054   4.957   6.019   1.556
 3052SOL    HW110055   4.972   5.965   1.639
 3052SOL    HW210056   4.956   6.116   1.580
 3053SOL     OW10057   6.855   2.047   6.955
 3053SOL    HW110058   6.844   2.065   6.858
 3053SOL    HW210059   6.836   1.950   6.974
 3054SOL     OW10060   6.829   2.089   0.570
 3054SOL    HW110061   6.806   1.992   0.577
 3054SOL    HW210062   6.847   2.111   0.474
 3055SOL     OW10063   5.053   0.667   4.359
 3055SOL    HW110064   5.037   0.765   4.348
 3055SOL    HW210065   5.140   0.651   4.405
 3056SOL     OW10066   6.450   0.152   4.935
 3056SOL    HW110067   6.423   0.118   5.025
 3056SOL    HW210068   6.431   0.250   4.929
 3057SOL     OW10069   4.519   6.205   2.456
 3057SOL    HW110070   4.490   6.111   2.469
 3057SOL    HW210071   4.562   6.238   2.541
 3058SOL     OW10072   0.219   4.396   2.017
 3058SOL    HW110073   0.193   4.336   1.942
 3058SOL    HW210074   0.290   4.353   2.071
 3059SOL     OW10075   2.893   1.940   4.288
 3059SOL    HW110076   2.915   1.858   4.341
 3059SOL    HW210077   2.904   2.021   4.345
 3060SOL     OW10078   0.915   5.471   0.233
 3060SOL    HW110079   0.934   5.412   0.311
 3060SOL    HW210080   1.001   5.501   0.193
 3061SOL     OW10081   0.273   6.676   4.813
 3061SOL    HW110082   0.236   6.595   4.768
 3061SOL    HW210083   0.259   6.756   4.753
 3062SOL     OW10084   2.094   0.289   0.855
 3062SOL    HW110085   2.139   0.200   0.868
 3062SOL    HW210086   2.087   0.308   0.758
 3063SOL     OW10087   2.477   4.937   2.062
 3063SOL    HW110088   2.551   4.911   2.000
 3063SOL    HW210089   2.458   5.035   2.051
 3064SOL     OW10090   5.474   4.211   2.262
 3064SOL    HW110091   5.421   4.173   2.338
 3064SOL    HW210092   5.546   4.146   2.237
 3065SOL     OW10093   1.939   0.892   0.579
 3065SOL    HW110094   2.028   0.873   0.620
 3065SOL    HW210095   1.946   0.974   0.522
 3066SOL     OW10096   4.744   5.544   0.954
 3066SOL    HW110097   4.682   5.588   1.020
 3066SOL    HW210098   4.828   5.597   0.947
 3067SOL     OW10099   3.158   1.697   5.278
 3067SOL    HW110100   3.195   1.647   5.200
 3067SOL    HW210101   3.132   1.789   5.250
 3068SOL     OW10102   6.552   0.140   0.668
 3068SOL    HW110103   6.474   0.198   0.695
 3068SOL    HW210104   6.619   0.138   0.741
 3069SOL     OW10105   0.124   5.916   1.863
 3069SOL    HW110106   0.068   5.833   1.854
 3069SOL    HW210107   0.221   5.891   1.860
 3070SOL     OW10108   2.627   1.191   0.100
 3070SOL    HW110109   2.608   1.151   0.010
 3070SOL    HW210110   2.714   1.240   0.097
 3071SOL     OW10111   6.167   5.947   3.376
 3071SOL    HW110112   6.238   5.906   3.319
 3071SOL    HW210113   6.077   5.927   3.336
 3072SOL     OW10114   2.250   6.151   6.698
 3072SOL    HW110115   2.239   6.206   6.781
 3072SOL    HW210116   2.195   6.068   6.706
 3073SOL     OW10117   5.720   3.008   4.098
 3073SOL    HW110118   5.753   3.019   4.191
 3073SOL    HW210119   5.751   3.084   4.041
 3074SOL     OW10120   5.626   4.227   0.816
 3074SOL    HW110121   5.614   4.204   0.719
 3074SOL    HW210122   5.574   4.163   0.872
 3075SOL     OW10123   2.799   6.206   1.736
 3075SOL    HW110124   2.738   6.284   1.725
 3075SOL    HW210125   2.810   6.186   1.834
 3076SOL     OW10126   6.521   0.350   4.445
 3076SOL    HW110127   6.503   0.392   4.534
 3076SOL    HW210128   6.614   0.314   4.444
 3077SOL     OW10129   5.419   5.135   1.520
 3077SOL    HW110130   5.355   5.114   1.446
 3077SOL    HW210131   5.401   5.227   1.555
 3078SOL     OW10132   6.981   2.962   2.898
 3078SOL    HW110133   7.013   3.057   2.898
 3078SOL    HW210134   7.014   2.917   2.814
 3079SOL     OW10135   2.340   2.529   2.901
 3079SOL    HW110136   2.315   2.625   2.891
 3079SOL    HW210137   2.398   2.501   2.825
 3080SOL     OW10138   4.668   4.595   2.516
 3080SOL    HW110139   4.766   4.588   2.498
 3080SOL    HW210140   4.649   4.561   2.608
 3081SOL     OW10141   0.775   2.855   4.999
 3081SOL    HW110142   0.725   2.892   5.077
 3081SOL    HW210143   0.855   2.912   4.981
 3082SOL     OW10144   2.791   6.565   4.159
 3082SOL    HW110145   2.780   6.662   4.137
 3082SOL    HW210146   2.728   6.539   4.232
 3083SOL     OW10147   3.285   5.749   4.245
 3083SOL    HW110148   3.274   5.689   4.165
 3083SOL    HW210149   3.291   5.693   4.328
 3084SOL     OW10150   6.823   3.913   4.892
 3084SOL    HW110151   6.849   3.821   4.862
 3084SOL    HW210152   6.904   3.961   4.926
 3085SOL     OW10153   6.191   4.796   0.555
 3085SOL    HW110154   6.109   4.765   0.507
 3085SOL    HW210155   6.165   4.855   0.631
 3086SOL     OW10156   4.797   1.444   1.334
 3086SOL    HW110157   4.855   1.518   1.367
 3086SOL    HW210158   4.772   1.462   1.238
 3087SOL     OW10159   1.026   5.507   3.727
 3087SOL    HW110160   1.024   5.510   3.826
 3087SOL    HW210161   0.936   5.534   3.691
 3088SOL     OW10162   2.082   4.817   5.120
 3088SOL    HW110163   2.054   4.737   5.066
 3088SOL    HW210164   2.177   4.805   5.149
 3089SOL     OW10165   1.843   3.273   6.222
 3089SOL    HW110166   1.899   3.221   6.158
 3089SOL    HW210167   1.749   3.239   6.220
 3090SOL     OW10168   2.380   2.317   1.695
 3090SOL    HW110169   2.434   2.350   1.617
 3090SOL    HW210170   2.405   2.222   1.714
 3091SOL     OW10171   1.337   0.311   1.511
 3091SOL    HW110172   1.278   0.360   1.575
 3091SOL    HW210173   1.408   0.372   1.478
 3092SOL     OW10174   4.655   1.291   0.550
 3092SOL    HW110175   4.746   1.252   0.563
 3092SOL    HW210176   4.591   1.247   0.612
 3093SOL     OW10177   5.464   6.421   6.091
 3093SOL    HW110178   5.433   6.381   6.004
 3093SOL    HW210179   5.451   6.354   6.164
 3094SOL     OW10180   1.972   6.991   4.345
 3094SOL    HW110181   1.909   6.915   4.357
 3094SOL    HW210182   1.966   0.031   4.425
 3095SOL     OW10183   2.489   5.102   5.269
 3095SOL    HW110184   2.585   5.083   5.246
 3095SOL    HW210185   2.474   5.201   5.267
 3096SOL     OW10186   1.627   5.798   5.320
 3096SOL    HW110187   1.575   5.741   5.257
 3096SOL    HW210188   1.570   5.824   5.398
 3097SOL     OW10189   6.077   2.542   0.435
 3097SOL    HW110190   6.126   2.532   0.349
 3097SOL    HW210191   6.051   2.452   0.470
 3098SOL     OW10192   2.122   2.940   1.730
 3098SOL    HW110193   2.115   2.878   1.652
 3098SOL    HW210194   2.032   2.981   1.748
 3099SOL     OW10195   1.131   0.145   3.771
 3099SOL    HW110196   1.089   0.106   3.853
 3099SOL    HW210197   1.205   0.207   3.797
 3100SOL     OW10198   6.942   5.508   3.849
 3100SOL    HW110199   6.869   5.562   3.890
 3100SOL    HW210200   6.908   5.463   3.766
 3101SOL     OW10201   5.715   6.680   6.831
 3101SOL    HW110202   5.733   6.583   6.819
 3101SOL    HW210203   5.618   6.695   6.847
 3102SOL     OW10204   6.574   4.938   2.040
 3102SOL    HW110205   6.560   4.940   2.139
 3102SOL    HW210206   6.656   4.991   2.016
 3103SOL     OW10207   4.302   0.737   2.350
 3103SOL    HW110208   4.359   0.754   2.269
 3103SOL    HW210209   4.321   0.808   2.418
 3104SOL     OW10210   5.117   0.672   4.759
 3104SOL    HW110211   5.112   0.761   4.713
 3104SOL    HW210212   5.142   0.602   4.692
 3105SOL     OW10213   6.202   4.504   1.089
 3105SOL    HW110214   6.188   4.595   1.052
 3105SOL    HW210215   6.129   4.443   1.057
 3106SOL     OW10216   5.795   0.916   3.327
 3106SOL    HW110217   5.777   0.829   3.280
 3106SOL    HW210218   5.713   0.946   3.374
 3107SOL     OW10219   4.499   1.370   5.071
 3107SOL    HW110220   4.577   1.430   5.054
 3107SOL    HW210221   4.423   1.397   5.012
 3108SOL     OW10222   1.703   6.361   3.985
 3108SOL    HW110223   1.760   6.292   4.029
 3108SOL    HW210224   1.655   6.320   3.907
 3109SOL     OW10225   5.803   6.148   3.036
 3109SOL    HW110226   5.810   6.173   3.133
 3109SOL    HW210227   5.880   6.090   3.011
 3110SOL     OW10228   1.067   2.575   2.241
 3110SOL    HW110229   1.066   2.582   2.142
 3110SOL    HW210230   0.975   2.593   2.277
 3111SOL     OW10231   6.447   5.462   3.458
 3111SOL    HW110232   6.443   5.541   3.396
 3111SOL    HW210233   6.518   5.478   3.527
 3112SOL     OW10234   4.395   2.837   7.008
 3112SOL    HW110235   4.378   2.862   0.083
 3112SOL    HW210236   4.471   2.890   6.972
 3113SOL     OW10237   2.689   5.635   3.938
 3113SOL    HW110238   2.640   5.722   3.938
 3113SOL    HW210239   2.786   5.653   3.921
 3114SOL     OW10240   4.593   1.839   1.182
 3114SOL    HW110241   4.604   1.938   1.188
 3114SOL    HW210242   4.501   1.818   1.147
 3115SOL     OW10243   3.734   4.033   6.373
 3115SOL    HW110244   3.781   3.947   6.353
 3115SOL    HW210245   3.798   4.096   6.416
 3116SOL     OW10246   0.393   2.824   6.823
 3116SOL    HW110247   0.483   2.780   6.823
 3116SOL    HW210248   0.402   2.919   6.852
 3117SOL     OW10249   4.247   3.531   5.089
 3117SOL    HW110250   4.248   3.454   5.153
 3117SOL    HW210251   4.335   3.536   5.042
 3118SOL     OW10252   0.904   5.258   2.247
 3118SOL    HW110253   0.809   5.249   2.216
 3118SOL    HW210254   0.914   5.214   2.336
 3119SOL     OW10255   2.304   3.408   6.134
 3119SOL    HW110256   2.292   3.503   6.163
 3119SOL    HW210257   2.258   3.347   6.198
 3120SOL     OW10258   3.644   0.335   5.008
 3120SOL    HW110259   3.605   0.274   4.939
 3120SOL    HW210260   3.665   0.424   4.965
 3121SOL     OW10261   0.196   0.591   3.676
 3121SOL    HW110262   0.278   0.644   3.657
 3121SOL    HW210263   0.154   0.622   3.761
 3122SOL     OW10264   4.427   6.433   6.353
 3122SOL    HW110265   4.392   6.344   6.322
 3122SOL    HW210266   4.379   6.506   6.306
 3123SOL     OW10267   2.565   1.743   3.472
 3123SOL    HW110268   2.579   1.842   3.462
 3123SOL    HW210269   2.485   1.715   3.419
 3124SOL     OW10270   4.305   0.102   4.555
 3124SOL    HW110271   4.369   0.071   4.625
 3124SOL    HW210272   4.221   0.047   4.560
 3125SOL     OW10273   0.160   2.271   5.257
 3125SOL    HW110274   0.231   2.211   5.221
 3125SOL    HW210275   0.117   2.321   5.182
 3126SOL     OW10276   5.557   4.368   5.412
 3126SOL    HW110277   5.590   4.354   5.506
 3126SOL    HW210278   5.478   4.308   5.395
 3127SOL     OW10279   1.432   3.559   5.326
 3127SOL    HW110280   1.485   3.608   5.396
 3127SOL    HW210281   1.495   3.512   5.264
 3128SOL     OW10282   2.600   0.418   5.983
 3128SOL    HW110283   2.583   0.516   5.973
 3128SOL    HW210284   2.605   0.395   6.081
 3129SOL     OW10285   6.076   3.795   6.492
 3129SOL    HW110286   6.096   3.886   6.529
 3129SOL    HW210287   6.093   3.726   6.563
 3130SOL     OW10288   1.748   4.241   0.913
 3130SOL    HW110289   1.825   4.192   0.874
 3130SOL    HW210290   1.768   4.265   1.008
 3131SOL     OW10291   0.656   2.853   1.524
 3131SOL    HW110292   0.659   2.760   1.560
 3131SOL    HW210293   0.729   2.866   1.458
 3132SOL     OW10294   3.714   5.945   6.324
 3132SOL    HW110295   3.656   5.964   6.403
 3132SOL    HW210296   3.727   5.846   6.315
 3133SOL     OW10297   3.842   1.529   3.542
 3133SOL    HW110298   3.833   1.430   3.543
 3133SOL    HW210299   3.938   1.554   3.528
 3134SOL     OW10300   4.686   4.111   1.745
 3134SOL    HW110301   4.597   4.147   1.772
 3134SOL    HW210302   4.687   4.011   1.757
 3135SOL     OW10303   4.531   0.969   5.357
 3135SOL    HW110304   4.436   0.945   5.376
 3135SOL    HW210305   4.581   0.981   5.442
 3136SOL     OW10306   5.343   0.937   0.939
 3136SOL    HW110307   5.346   0.898   1.031
 3136SOL    HW210308   5.299   1.027   0.943
 3137SOL     OW10309   6.636   0.481   2.170
 3137SOL    HW110310   6.538   0.488   2.191
 3137SOL    HW210311   6.649   0.413   2.098
 3138SOL     OW10312   6.001   4.612   3.636
 3138SOL    HW110313   6.062   4.667   3.579
 3138SOL    HW210314   5.944   4.673   3.691
 3139SOL     OW10315   5.199   6.340   0.674
 3139SOL    HW110316   5.177   6.427   0.717
 3139SOL    HW210317   5.200   6.351   0.575
 3140SOL     OW10318   6.484   6.995   0.154
 3140SOL    HW110319   6.551   6.936   0.109
 3140SOL    HW210320   6.482   6.976   0.252
 3141SOL     OW10321   0.682   6.477   6.476
 3141SOL    HW110322   0.693   6.558   6.534
 3141SOL    HW210323   0.595   6.484   6.426
 3142SOL     OW10324   3.935   6.638   2.028
 3142SOL    HW110325   3.853   6.664   2.079
 3142SOL    HW210326   4.004   6.605   2.092
 3143SOL     OW10327   6.516   1.982   6.749
 3143SOL    HW110328   6.422   2.014   6.745
 3143SOL    HW210329   6.517   1.882   6.750
 3144SOL     OW10330   3.909   4.229   1.371
 3144SOL    HW110331   3.951   4.184   1.451
 3144SOL    HW210332   3.951   4.318   1.357
 3145SOL     OW10333   2.046   5.883   0.843
 3145SOL    HW110334   1.986   5.843   0.774
 3145SOL    HW210335   2.024   5.979   0.856
 3146SOL     OW10336   1.591   0.486   3.737
 3146SOL    HW110337   1.641   0.557   3.687
 3146SOL    HW210338   1.645   0.457   3.816
 3147SOL     OW10339   3.245   5.819   1.388
 3147SOL    HW110340   3.198   5.814   1.300
 3147SOL    HW210341   3.181   5.791   1.461
 3148SOL     OW10342   5.906   5.914   4.804
 3148SOL    HW110343   5.937   6.008   4.820
 3148SOL    HW210344   5.940   5.855   4.877
 3149SOL     OW10345   2.424   1.223   5.426
 3149SOL    HW110346   2.469   1.143   5.386
 3149SOL    HW210347   2.400   1.288   5.353
 3150SOL     OW10348   6.086   5.462   4.267
 3150SOL    HW110349   5.990   5.484   4.287
 3150SOL    HW210350   6.108   5.491   4.174
 3151SOL     OW10351   5.929   1.441   5.259
 3151SOL    HW110352   5.960   1.414   5.350
 3151SOL    HW210353   5.894   1.362   5.210
 3152SOL     OW10354   1.372   5.341   0.512
 3152SOL    HW110355   1.381   5.401   0.592
 3152SOL    HW210356   1.312   5.264   0.535
 3153SOL     OW10357   5.661   4.605   1.072
 3153SOL    HW110358   5.704   4.690   1.105
 3153SOL    HW210359   5.728   4.531   1.075
 3154SOL     OW10360   6.321   1.439   6.336
 3154SOL    HW110361   6.343   1.400   6.247
 3154SOL    HW210362   6.259   1.377   6.385
 3155SOL     OW10363   6.211   4.922   0.249
 3155SOL    HW110364   6.214   4.865   0.331
 3155SOL    HW210365   6.250   5.012   0.269
 3156SOL     OW10366   3.093   3.064   3.381
 3156SOL    HW110367   3.088   3.111   3.469
 3156SOL    HW210368   3.189   3.049   3.356
 3157SOL     OW10369   2.577   2.123   4.706
 3157SOL    HW110370   2.583   2.216   4.742
 3157SOL    HW210371   2.668   2.091   4.680
 3158SOL     OW10372   4.652   1.006   3.560
 3158SOL    HW110373   4.671   1.092   3.608
 3158SOL    HW210374   4.613   1.027   3.470
 3159SOL     OW10375   5.588   1.693   0.086
 3159SOL    HW110376   5.662   1.632   0.116
 3159SOL    HW210377   5.526   1.642   0.027
 3160SOL     OW10378   0.141   6.316   5.820
 3160SOL    HW110379   0.075   6.328   5.894
 3160SOL    HW210380   0.206   6.244   5.845
 3161SOL     OW10381   1.824   2.453   3.316
 3161SOL    HW110382   1.834   2.422   3.411
 3161SOL    HW210383   1.899   2.516   3.294
 3162SOL     OW10384   1.534   6.765   2.367
 3162SOL    HW110385   1.520   6.680   2.317
 3162SOL    HW210386   1.542   6.745   2.465
 3163SOL     OW10387   4.729   2.539   6.013
 3163SOL    HW110388   4.638   2.505   6.033
 3163SOL    HW210389   4.733   2.637   6.032
 3164SOL     OW10390   4.355   4.829   0.908
 3164SOL    HW110391   4.385   4.829   0.813
 3164SOL    HW210392   4.317   4.918   0.932
 3165SOL     OW10393   0.455   6.146   1.105
 3165SOL    HW110394   0.397   6.168   1.026
 3165SOL    HW210395   0.418   6.188   1.187
 3166SOL     OW10396   4.336   2.065   4.401
 3166SOL    HW110397   4.398   2.143   4.402
 3166SOL    HW210398   4.352   2.008   4.482
 3167SOL     OW10399   6.362   4.494   0.879
 3167SOL    HW110400   6.313   4.503   0.965
 3167SOL    HW210401   6.297   4.487   0.803
 3168SOL     OW10402   4.401   2.172   6.750
 3168SOL    HW110403   4.305   2.148   6.734
 3168SOL    HW210404   4.449   2.180   6.662
 3169SOL     OW10405   2.100   3.721   4.456
 3169SOL    HW110406   2.104   3.808   4.504
 3169SOL    HW210407   2.137   3.648   4.514
 3170SOL     OW10408   3.958   0.374   1.742
 3170SOL    HW110409   3.945   0.283   1.782
 3170SOL    HW210410   3.991   0.364   1.648
 3171SOL     OW10411   0.178   0.371   1.218
 3171SOL    HW110412   0.218   0.378   1.309
 3171SOL    HW210413   0.250   0.385   1.149
 3172SOL     OW10414   6.805   5.005   0.315
 3172SOL    HW110415   6.801   4.930   0.382
 3172SOL    HW210416   6.829   5.090   0.362
 3173SOL     OW10417   2.858   2.311   0.273
 3173SOL    HW110418   2.770   2.269   0.252
 3173SOL    HW210419   2.848   2.372   0.351
 3174SOL     OW10420   3.016   2.253   6.995
 3174SOL    HW110421   2.947   2.185   6.971
 3174SOL    HW210422   2.972   2.332   0.016
 3175SOL     OW10423   6.910   0.833   1.018
 3175SOL    HW110424   6.918   0.780   0.933
 3175SOL    HW210425   7.002   0.847   1.056
 3176SOL     OW10426   1.414   4.825   5.060
 3176SOL    HW110427   1.415   4.872   4.971
 3176SOL    HW210428   1.479   4.749   5.058
 3177SOL     OW10429   4.903   3.997   4.247
 3177SOL    HW110430   4.974   3.951   4.300
 3177SOL    HW210431   4.892   3.951   4.159
 3178SOL     OW10432   6.168   2.214   0.403
 3178SOL    HW110433   6.120   2.148   0.460
 3178SOL    HW210434   6.221   2.276   0.461
 3179SOL     OW10435   1.150   3.322   2.049
 3179SOL    HW110436   1.131   3.277   2.136
 3179SOL    HW210437   1.244   3.304   2.021
 3180SOL     OW10438   4.512   1.096   0.091
 3180SOL    HW110439   4.444   1.122   0.159
 3180SOL    HW210440   4.603   1.105   0.131
 3181SOL     OW10441   6.745   1.467   2.970
 3181SOL    HW110442   6.843   1.490   2.968
 3181SOL    HW210443   6.722   1.427   3.058
 3182SOL     OW10444   3.044   0.804   5.515
 3182SOL    HW110445   3.012   0.753   5.595
 3182SOL    HW210446   3.138   0.835   5.531
 3183SOL     OW10447   4.284   4.315   1.672
 3183SOL    HW110448   4.338   4.256   1.732
 3183SOL    HW210449   4.233   4.380   1.728
 3184SOL     OW10450   0.775   2.402   2.213
 3184SOL    HW110451   0.847   2.351   2.167
 3184SOL    HW210452   0.754   2.358   2.301
 3185SOL     OW10453   6.237   5.600   6.957
 3185SOL    HW110454   6.155   5.553   6.989
 3185SOL    HW210455   6.277   5.549   6.881
 3186SOL     OW10456   3.690   1.439   1.958
 3186SOL    HW110457   3.671   1.394   2.045
 3186SOL    HW210458   3.738   1.376   1.897
 3187SOL     OW10459   4.427   3.992   0.192
 3187SOL    HW110460   4.478   4.077   0.208
 3187SOL    HW210461   4.426   3.973   0.094
 3188SOL     OW10462   2.448   0.724   4.601
 3188SOL    HW110463   2.470   0.695   4.694
 3188SOL    HW210464   2.476   0.652   4.536
 3189SOL     OW10465   1.231   1.730   1.883
 3189SOL    HW110466   1.176   1.655   1.920
 3189SOL    HW210467   1.181   1.816   1.893
 3190SOL     OW10468   7.010   6.277   0.733
 3190SOL    HW110469   0.046   6.203   0.770
 3190SOL    HW210470   0.027   6.308   0.646
 3191SOL     OW10471   5.328   0.193   1.171
 3191SOL    HW110472   5.299   0.258   1.101
 3191SOL    HW210473   5.385   0.241   1.238
 3192SOL     OW10474   0.287   2.609   1.434
 3192SOL    HW110475   0.350   2.534   1.415
 3192SOL    HW210476   0.332   2.696   1.414
 3193SOL     OW10477   4.021   1.396   6.734
 3193SOL    HW110478   4.039   1.349   6.648
 3193SOL    HW210479   3.994   1.491   6.716
 3194SOL     OW10480   1.612   2.836   6.334
 3194SOL    HW110481   1.588   2.784   6.252
 3194SOL    HW210482   1.704   2.872   6.325
 3195SOL     OW10483   2.494   2.298   3.200
 3195SOL    HW110484   2.578   2.316   3.251
 3195SOL    HW210485   2.511   2.228   3.130
 3196SOL     OW10486   0.840   1.286   5.610
 3196SOL    HW110487   0.818   1.370   5.560
 3196SOL    HW210488   0.824   1.207   5.551
 3197SOL     OW10489   2.179   6.156   3.130
 3197SOL    HW110490   2.252   6.187   3.190
 3197SOL    HW210491   2.096   6.208   3.149
 3198SOL     OW10492   5.805   2.167   5.374
 3198SOL    HW110493   5.850   2.256   5.364
 3198SOL    HW210494   5.781   2.131   5.284
 3199SOL     OW10495   4.721   2.778   2.275
 3199SOL    HW110496   4.717   2.707   2.205
 3199SOL    HW210497   4.716   2.868   2.232
 3200SOL     OW10498   0.088   2.747   2.121
 3200SOL    HW110499   0.039   2.671   2.078
 3200SOL    HW210500   0.029   2.828   2.122
 3201SOL     OW10501   5.372   4.853   4.506
 3201SOL    HW110502   5.427   4.912   4.565
 3201SOL    HW210503   5.311   4.909   4.450
 3202SOL     OW10504   0.958   4.605   1.971
 3202SOL    HW110505   0.952   4.576   2.066
 3202SOL    HW210506   1.028   4.676   1.961
 3203SOL     OW10507   6.309   2.473   6.649
 3203SOL    HW110508   6.395   2.444   6.608
 3203SOL    HW210509   6.327   2.541   6.720
 3204SOL     OW10510   4.594   6.128   1.361
 3204SOL    HW110511   4.587   6.226   1.343
 3204SOL    HW210512   4.580   6.111   1.459
 3205SOL     OW10513   0.156   3.352   6.294
 3205SOL    HW110514   0.065   3.393   6.284
 3205SOL    HW210515   0.181   3.352   6.391
 3206SOL     OW10516   0.450   6.708   6.019
 3206SOL    HW110517   0.453   6.795   5.971
 3206SOL    HW210518   0.355   6.685   6.041
 3207SOL     OW10519   1.267   0.767   5.532
 3207SOL    HW110520   1.198   0.708   5.573
 3207SOL    HW210521   1.325   0.805   5.604
 3208SOL     OW10522   5.010   6.722   5.274
 3208SOL    HW110523   4.966   6.794   5.328
 3208SOL    HW210524   4.986   6.632   5.312
 3209SOL     OW10525   4.048   5.062   2.959
 3209SOL    HW110526   4.066   5.140   3.020
 3209SOL    HW210527   3.980   5.088   2.891
 3210SOL     OW10528   0.771   4.153   1.207
 3210SOL    HW110529   0.869   4.146   1.226
 3210SOL    HW210530   0.722   4.165   1.294
 3211SOL     OW10531   1.649   3.477   1.346
 3211SOL    HW110532   1.673   3.552   1.408
 3211SOL    HW210533   1.732   3.438   1.307
 3212SOL     OW10534   2.825   0.654   0.657
 3212SOL    HW110535   2.816   0.634   0.559
 3212SOL    HW210536   2.829   0.568   0.708
 3213SOL     OW10537   0.249   6.228   2.161
 3213SOL    HW110538   0.171   6.166   2.157
 3213SOL    HW210539   0.231   6.308   2.103
 3214SOL     OW10540   5.094   5.381   0.749
 3214SOL    HW110541   5.029   5.414   0.680
 3214SOL    HW210542   5.087   5.438   0.831
 3215SOL     OW10543   0.390   2.958   0.781
 3215SOL    HW110544   0.382   2.861   0.758
 3215SOL    HW210545   0.337   2.977   0.864
 3216SOL     OW10546   5.586   5.059   1.157
 3216SOL    HW110547   5.518   5.129   1.178
 3216SOL    HW210548   5.602   5.057   1.059
 3217SOL     OW10549   0.029   5.889   2.802
 3217SOL    HW110550   6.971   5.948   2.820
 3217SOL    HW210551   0.105   5.945   2.768
 3218SOL     OW10552   4.400   0.254   4.070
 3218SOL    HW110553   4.406   0.167   4.119
 3218SOL    HW210554   4.368   0.325   4.133
 3219SOL     OW10555   0.056   2.098   3.232
 3219SOL    HW110556   0.129   2.038   3.201
 3219SOL    HW210557   0.057   2.104   3.332
 3220SOL     OW10558   6.488   5.933   5.618
 3220SOL    HW110559   6.533   5.844   5.612
 3220SOL    HW210560   6.534   5.997   5.556
 3221SOL     OW10561   3.391   0.177   1.697
 3221SOL    HW110562   3.433   0.201   1.610
 3221SOL    HW210563   3.423   0.086   1.725
 3222SOL     OW10564   4.368   1.742   2.582
 3222SOL    HW110565   4.275   1.727   2.547
 3222SOL    HW210566   4.382   1.840   2.597
 3223SOL     OW10567   2.258   5.462   6.722
 3223SOL    HW110568   2.243   5.434   6.627
 3223SOL    HW210569   2.172   5.494   6.762
 3224SOL     OW10570   4.508   3.762   0.300
 3224SOL    HW110571   4.585   3.781   0.360
 3224SOL    HW210572   4.477   3.847   0.256
 3225SOL     OW10573   4.680   3.364   6.102
 3225SOL    HW110574   4.671   3.420   6.020
 3225SOL    HW210575   4.590   3.344   6.140
 3226SOL     OW10576   1.985   1.693   4.331
 3226SOL    HW110577   2.085   1.703   4.336
 3226SOL    HW210578   1.962   1.596   4.321
 3227SOL     OW10579   3.591   1.441   0.132
 3227SOL    HW110580   3.577   1.348   0.097
 3227SOL    HW210581   3.686   1.469   0.116
 3228SOL     OW10582   5.540   4.346   2.784
 3228SOL    HW110583   5.637   4.343   2.810
 3228SOL    HW210584   5.524   4.426   2.726
 3229SOL     OW10585   3.626   1.267   5.602
 3229SOL    HW110586   3.680   1.303   5.678
 3229SOL    HW210587   3.628   1.332   5.526
 3230SOL     OW10588   1.766   3.227   4.110
 3230SOL    HW110589   1.770   3.304   4.046
 3230SOL    HW210590   1.672   3.193   4.115
 3231SOL     OW10591   2.446   0.861   1.622
 3231SOL    HW110592   2.358   0.841   1.578
 3231SOL    HW210593   2.464   0.959   1.617
 3232SOL     OW10594   4.042   5.038   5.074
 3232SOL    HW110595   4.000   5.080   4.994
 3232SOL    HW210596   4.108   5.102   5.114
 3233SOL     OW10597   0.764   2.652   1.682
 3233SOL    HW110598   0.852   2.689   1.652
 3233SOL    HW210599   0.766   2.635   1.780
 3234SOL     OW10600   0.289   1.714   6.900
 3234SOL    HW110601   0.277   1.805   6.941
 3234SOL    HW210602   0.291   1.645   6.973
 3235SOL     OW10603   4.851   0.923   1.266
 3235SOL    HW110604   4.821   1.015   1.292
 3235SOL    HW210605   4.825   0.905   1.171
 3236SOL     OW10606   1.223   3.363   0.501
 3236SOL    HW110607   1.256   3.423   0.574
 3236SOL    HW210608   1.297   3.343   0.438
 3237SOL     OW10609   5.474   1.454   4.085
 3237SOL    HW110610   5.416   1.468   4.166
 3237SOL    HW210611   5.417   1.423   4.009
 3238SOL     OW10612   0.160   4.962   0.799
 3238SOL    HW110613   0.251   4.987   0.765
 3238SOL    HW210614   0.123   4.887   0.743
 3239SOL     OW10615   6.720   1.896   1.155
 3239SOL    HW110616   6.791   1.826   1.140
 3239SOL    HW210617   6.735   1.971   1.091
 3240SOL     OW10618   1.472   6.554   6.000
 3240SOL    HW110619   1.571   6.551   5.983
 3240SOL    HW210620   1.447   6.479   6.061
 3241SOL     OW10621   4.186   1.448   5.312
 3241SOL    HW110622   4.250   1.522   5.332
 3241SOL    HW210623   4.189   1.381   5.386
 3242SOL     OW10624   3.351   4.638   0.700
 3242SOL    HW110625   3.253   4.645   0.683
 3242SOL    HW210626   3.377   4.701   0.773
 3243SOL     OW10627   5.331   4.333   0.904
 3243SOL    HW110628   5.415   4.315   0.852
 3243SOL    HW210629   5.304   4.250   0.953
 3244SOL     OW10630   4.952   6.023   0.438
 3244SOL    HW110631   5.029   5.961   0.453
 3244SOL    HW210632   4.877   5.973   0.394
 3245SOL     OW10633   4.872   2.982   5.062
 3245SOL    HW110634   4.781   3.012   5.089
 3245SOL    HW210635   4.926   2.961   5.144
 3246SOL     OW10636   5.109   0.839   3.032
 3246SOL    HW110637   5.156   0.757   3.064
 3246SOL    HW210638   5.142   0.864   2.941
 3247SOL     OW10639   5.804   4.979   2.949
 3247SOL    HW110640   5.901   4.988   2.972
 3247SOL    HW210641   5.785   4.885   2.923
 3248SOL     OW10642   6.842   3.358   1.891
 3248SOL    HW110643   6.834   3.421   1.968
 3248SOL    HW210644   6.885   3.273   1.921
 3249SOL     OW10645   3.670   3.961   4.615
 3249SOL    HW110646   3.643   4.039   4.671
 3249SOL    HW210647   3.737   3.990   4.547
 3250SOL     OW10648   5.626   7.010   2.051
 3250SOL    HW110649   5.544   0.000   2.107
 3250SOL    HW210650   5.600   6.974   1.961
 3251SOL     OW10651   3.501   0.869   2.079
 3251SOL    HW110652   3.403   0.860   2.066
 3251SOL    HW210653   3.549   0.802   2.022
 3252SOL     OW10654   2.483   2.262   2.586
 3252SOL    HW110655   2.486   2.352   2.630
 3252SOL    HW210656   2.388   2.234   2.574
 3253SOL     OW10657   5.935   3.204   1.964
 3253SOL    HW110658   5.973   3.146   2.036
 3253SOL    HW210659   5.913   3.294   2.001
 3254SOL     OW10660   5.293   5.447   5.756
 3254SOL    HW110661   5.250   5.447   5.846
 3254SOL    HW210662   5.388   5.417   5.764
 3255SOL     OW10663   5.447   5.852   1.424
 3255SOL    HW110664   5.413   5.941   1.394
 3255SOL    HW210665   5.373   5.801   1.469
 3256SOL     OW10666   4.765   0.836   0.275
 3256SOL    HW110667   4.830   0.815   0.203
 3256SOL    HW210668   4.803   0.809   0.364
 3257SOL     OW10669   1.349   1.800   1.348
 3257SOL    HW110670   1.417   1.728   1.365
 3257SOL    HW210671   1.260   1.758   1.332
 3258SOL     OW10672   3.916   4.822   1.936
 3258SOL    HW110673   3.946   4.732   1.906
 3258SOL    HW210674   3.816   4.823   1.943
 3259SOL     OW10675   4.680   5.143   3.938
 3259SOL    HW110676   4.661   5.049   3.967
 3259SOL    HW210677   4.778   5.162   3.948
 3260SOL     OW10678   1.198   1.833   0.661
 3260SOL    HW110679   1.279   1.780   0.687
 3260SOL    HW210680   1.119   1.772   0.658
 3261SOL     OW10681   4.820   6.404   0.646
 3261SOL    HW110682   4.883   6.368   0.577
 3261SOL    HW210683   4.795   6.332   0.710
 3262SOL     OW10684   3.568   1.906   2.809
 3262SOL    HW110685   3.561   1.807   2.795
 3262SOL    HW210686   3.608   1.949   2.729
 3263SOL     OW10687   3.370   1.310   3.477
 3263SOL    HW110688   3.366   1.409   3.488
 3263SOL    HW210689   3.445   1.286   3.415
 3264SOL     OW10690   1.231   4.415   0.950
 3264SOL    HW110691   1.301   4.482   0.926
 3264SOL    HW210692   1.180   4.447   1.030
 3265SOL     OW10693   4.767   1.477   5.652
 3265SOL    HW110694   4.799   1.532   5.575
 3265SOL    HW210695   4.828   1.398   5.664
 3266SOL     OW10696   0.659   2.308   0.080
 3266SOL    HW110697   0.695   2.270   0.166
 3266SOL    HW210698   0.648   2.407   0.088
 3267SOL     OW10699   3.716   1.007   6.902
 3267SOL    HW110700   3.644   1.028   6.968
 3267SOL    HW210701   3.746   1.092   6.858
 3268SOL     OW10702   1.356   4.707   0.165
 3268SOL    HW110703   1.407   4.774   0.218
 3268SOL    HW210704   1.414   4.629   0.144
 3269SOL     OW10705   4.350   4.555   1.955
 3269SOL    HW110706   4.307   4.570   2.044
 3269SOL    HW210707   4.425   4.489   1.966
 3270SOL     OW10708   0.743   4.663   4.594
 3270SOL    HW110709   0.687   4.647   4.676
 3270SOL    HW210710   0.792   4.579   4.570
 3271SOL     OW10711   5.630   4.053   2.465
 3271SOL    HW110712   5.625   4.040   2.366
 3271SOL    HW210713   5.573   3.984   2.511
 3272SOL     OW10714   3.751   4.030   6.839
 3272SOL    HW110715   3.829   4.040   6.777
 3272SOL    HW210716   3.701   3.946   6.817
 3273SOL     OW10717   0.562   6.622   2.032
 3273SOL    HW110718   0.564   6.568   1.948
 3273SOL    HW210719   0.546   6.718   2.011
 3274SOL     OW10720   4.384   1.124   1.877
 3274SOL    HW110721   4.304   1.139   1.935
 3274SOL    HW210722   4.439   1.208   1.873
 3275SOL     OW10723   0.241   0.410   6.460
 3275SOL    HW110724   0.325   0.378   6.503
 3275SOL    HW210725   0.165   0.400   6.525
 3276SOL     OW10726   3.516   6.042   0.469
 3276SOL    HW110727   3.459   6.004   0.397
 3276SOL    HW210728   3.608   6.004   0.462
 3277SOL     OW10729   4.899   0.138   0.482
 3277SOL    HW110730   4.897   0.059   0.543
 3277SOL    HW210731   4.916   0.108   0.388
 3278SOL     OW10732   0.043   1.086   5.907
 3278SOL    HW110733   0.063   0.989   5.915
 3278SOL    HW210734   0.018   1.123   5.997
 3279SOL     OW10735   6.303   1.460   0.431
 3279SOL    HW110736   6.298   1.556   0.458
 3279SOL    HW210737   6.211   1.420   0.431
 3280SOL     OW10738   3.475   5.124   4.929
 3280SOL    HW110739   3.475   5.182   4.847
 3280SOL    HW210740   3.386   5.080   4.938
 3281SOL     OW10741   2.282   5.147   1.034
 3281SOL    HW110742   2.374   5.153   1.072
 3281SOL    HW210743   2.262   5.230   0.980
 3282SOL     OW10744   1.008   5.842   4.668
 3282SOL    HW110745   0.982   5.791   4.750
 3282SOL    HW210746   1.090   5.896   4.687
 3283SOL     OW10747   4.218   1.243   0.927
 3283SOL    HW110748   4.241   1.189   1.008
 3283SOL    HW210749   4.134   1.295   0.944
 3284SOL     OW10750   6.129   5.800   6.525
 3284SOL    HW110751   6.086   5.787   6.436
 3284SOL    HW210752   6.156   5.895   6.536
 3285SOL     OW10753   5.151   2.878   3.809
 3285SOL    HW110754   5.126   2.859   3.714
 3285SOL    HW210755   5.196   2.798   3.848
 3286SOL     OW10756   4.008   3.372   2.386
 3286SOL    HW110757   3.948   3.314   2.442
 3286SOL    HW210758   4.075   3.418   2.444
 3287SOL     OW10759   1.545   6.790   6.468
 3287SOL    HW110760   1.456   6.809   6.428
 3287SOL    HW210761   1.573   6.867   6.526
 3288SOL     OW10762   0.733   5.384   6.846
 3288SOL    HW110763   0.651   5.351   6.895
 3288SOL    HW210764   0.783   5.447   6.905
 3289SOL     OW10765   2.734   6.914   5.289
 3289SOL    HW110766   2.700   6.828   5.252
 3289SOL    HW210767   2.717   6.987   5.223
 3290SOL     OW10768   0.470   6.888   2.027
 3290SOL    HW110769   0.399   6.888   2.099
 3290SOL    HW210770   0.559   6.903   2.069
 3291SOL     OW10771   0.879   6.286   0.213
 3291SOL    HW110772   0.884   6.218   0.286
 3291SOL    HW210773   0.864   6.377   0.252
 3292SOL     OW10774   0.574   1.081   0.629
 3292SOL    HW110775   0.561   1.121   0.720
 3292SOL    HW210776   0.608   0.988   0.638
 3293SOL     OW10777   0.004   3.490   3.098
 3293SOL    HW110778   0.079   3.504   3.162
 3293SOL    HW210779   7.017   3.393   3.076
 3294SOL     OW10780   0.486   1.074   6.128
 3294SOL    HW110781   0.479   0.982   6.089
 3294SOL    HW210782   0.544   1.072   6.209
 3295SOL     OW10783   1.510   3.023   1.707
 3295SOL    HW110784   1.512   3.123   1.713
 3295SOL    HW210785   1.582   2.992   1.645
 3296SOL     OW10786   2.155   6.180   2.113
 3296SOL    HW110787   2.222   6.129   2.167
 3296SOL    HW210788   2.065   6.172   2.154
 3297SOL     OW10789   2.848   0.583   4.399
 3297SOL    HW110790   2.858   0.682   4.398
 3297SOL    HW210791   2.937   0.541   4.420
 3298SOL     OW10792   5.606   1.732   4.379
 3298SOL    HW110793   5.596   1.820   4.426
 3298SOL    HW210794   5.608   1.747   4.280
 3299SOL     OW10795   2.270   6.020   4.017
 3299SOL    HW110796   2.339   5.949   4.028
 3299SOL    HW210797   2.255   6.067   4.105
 3300SOL     OW10798   0.252   0.840   5.715
 3300SOL    HW110799   0.218   0.899   5.643
 3300SOL    HW210800   0.216   0.747   5.703
 3301SOL     OW10801   2.061   3.293   2.995
 3301SOL    HW110802   1.977   3.265   2.948
 3301SOL    HW210803   2.057   3.267   3.091
 3302SOL     OW10804   1.373   5.584   5.716
 3302SOL    HW110805   1.343   5.507   5.659
 3302SOL    HW210806   1.445   5.554   5.778
 3303SOL     OW10807   3.653   3.030   2.010
 3303SOL    HW110808   3.652   3.097   1.936
 3303SOL    HW210809   3.745   3.025   2.049
 3304SOL     OW10810   1.763   5.572   4.319
 3304SOL    HW110811   1.829   5.642   4.347
 3304SOL    HW210812   1.695   5.613   4.259
 3305SOL     OW10813   2.057   1.393   2.964
 3305SOL    HW110814   2.113   1.475   2.967
 3305SOL    HW210815   2.090   1.328   3.033
 3306SOL     OW10816   2.161   5.565   4.456
 3306SOL    HW110817   2.260   5.552   4.450
 3306SOL    HW210818   2.117   5.478   4.478
 3307SOL     OW10819   6.763   5.852   6.572
 3307SOL    HW110820   6.817   5.931   6.602
 3307SOL    HW210821   6.719   5.810   6.651
 3308SOL     OW10822   4.102   5.984   6.986
 3308SOL    HW110823   4.078   5.928   6.907
 3308SOL    HW210824   4.121   6.078   6.956
 3309SOL     OW10825   0.407   5.486   2.574
 3309SOL    HW110826   0.403   5.419   2.648
 3309SOL    HW210827   0.489   5.470   2.519
 3310SOL     OW10828   7.004   4.123   4.970
 3310SOL    HW110829   0.054   4.131   5.040
 3310SOL    HW210830   0.021   4.154   4.882
 3311SOL     OW10831   2.342   4.084   1.508
 3311SOL    HW110832   2.293   4.163   1.545
 3311SOL    HW210833   2.281   4.004   1.507
 3312SOL     OW10834   3.347   4.872   5.861
 3312SOL    HW110835   3.369   4.966   5.891
 3312SOL    HW210836   3.305   4.823   5.937
 3313SOL     OW10837   6.736   5.518   2.727
 3313SOL    HW110838   6.828   5.479   2.726
 3313SOL    HW210839   6.675   5.456   2.776
 3314SOL     OW10840   2.593   1.786   3.913
 3314SOL    HW110841   2.625   1.728   3.838
 3314SOL    HW210842   2.597   1.735   3.998
 3315SOL     OW10843   5.944   3.161   4.262
 3315SOL    HW110844   5.909   3.253   4.243
 3315SOL    HW210845   6.041   3.157   4.238
 3316SOL     OW10846   4.355   1.831   6.469
 3316SOL    HW110847   4.319   1.818   6.561
 3316SOL    HW210848   4.283   1.812   6.402
 3317SOL     OW10849   4.779   3.429   1.807
 3317SOL    HW110850   4.819   3.337   1.813
 3317SOL    HW210851   4.735   3.440   1.718
 3318SOL     OW10852   3.556   0.705   0.380
 3318SOL    HW110853   3.584   0.799   0.399
 3318SOL    HW210854   3.623   0.641   0.417
 3319SOL     OW10855   5.983   0.225   4.312
 3319SOL    HW110856   5.942   0.189   4.229
 3319SOL    HW210857   5.979   0.156   4.384
 3320SOL     OW10858   5.787   0.741   5.564
 3320SOL    HW110859   5.780   0.838   5.588
 3320SOL    HW210860   5.816   0.689   5.644
 3321SOL     OW10861   3.910   1.849   1.396
 3321SOL    HW110862   3.817   1.822   1.423
 3321SOL    HW210863   3.904   1.924   1.330
 3322SOL     OW10864   5.125   3.541   1.258
 3322SOL    HW110865   5.040   3.552   1.206
 3322SOL    HW210866   5.183   3.622   1.246
 3323SOL     OW10867   2.508   3.683   6.382
 3323SOL    HW110868   2.568   3.606   6.364
 3323SOL    HW210869   2.523   3.715   6.476
 3324SOL     OW10870   1.217   3.693   6.423
 3324SOL    HW110871   1.300   3.749   6.429
 3324SOL    HW210872   1.217   3.643   6.336
 3325SOL     OW10873   2.210   2.412   6.085
 3325SOL    HW110874   2.184   2.363   6.169
 3325SOL    HW210875   2.288   2.367   6.043
 3326SOL     OW10876   5.692   1.824   2.173
 3326SOL    HW110877   5.592   1.824   2.167
 3326SOL    HW210878   5.719   1.842   2.267
 3327SOL     OW10879   3.169   5.872   1.697
 3327SOL    HW110880   3.203   5.934   1.768
 3327SOL    HW210881   3.129   5.924   1.622
 3328SOL     OW10882   4.593   1.597   1.773
 3328SOL    HW110883   4.534   1.624   1.697
 3328SOL    HW210884   4.557   1.635   1.858
 3329SOL     OW10885   5.452   0.659   4.418
 3329SOL    HW110886   5.485   0.680   4.326
 3329SOL    HW210887   5.404   0.738   4.456
 3330SOL     OW10888   6.256   6.041   1.210
 3330SOL    HW110889   6.235   5.962   1.153
 3330SOL    HW210890   6.174   6.070   1.258
 3331SOL     OW10891   0.821   3.624   1.893
 3331SOL    HW110892   0.906   3.582   1.864
 3331SOL    HW210893   0.746   3.559   1.885
 3332SOL     OW10894   6.557   4.595   0.714
 3332SOL    HW110895   6.488   4.573   0.782
 3332SOL    HW210896   6.648   4.579   0.752
 3333SOL     OW10897   2.943   4.051   6.657
 3333SOL    HW110898   2.986   4.066   6.746
 3333SOL    HW210899   3.013   4.030   6.589
 3334SOL     OW10900   2.287   4.100   2.072
 3334SOL    HW110901   2.314   4.159   2.148
 3334SOL    HW210902   2.226   4.028   2.106
 3335SOL     OW10903   4.790   6.892   6.319
 3335SOL    HW110904   4.789   6.822   6.391
 3335SOL    HW210905   4.815   6.849   6.232
 3336SOL     OW10906   1.591   6.677   4.887
 3336SOL    HW110907   1.596   6.765   4.933
 3336SOL    HW210908   1.594   6.691   4.788
 3337SOL     OW10909   2.975   3.908   1.315
 3337SOL    HW110910   2.910   3.980   1.340
 3337SOL    HW210911   3.050   3.906   1.381
 3338SOL     OW10912   0.315   2.813   1.073
 3338SOL    HW110913   0.258   2.885   1.113
 3338SOL    HW210914   0.269   2.724   1.083
 3339SOL     OW10915   0.931   6.999   6.407
 3339SOL    HW110916   0.916   7.000   6.505
 3339SOL    HW210917   0.852   0.018   6.360
 3340SOL     OW10918   3.404   1.497   2.912
 3340SOL    HW110919   3.330   1.562   2.928
 3340SOL    HW210920   3.402   1.426   2.982
 3341SOL     OW10921   1.461   4.609   3.973
 3341SOL    HW110922   1.551   4.621   3.933
 3341SOL    HW210923   1.422   4.698   3.995
 3342SOL     OW10924   1.548   6.850   4.094
 3342SOL    HW110925   1.542   6.826   3.997
 3342SOL    HW210926   1.465   6.820   4.142
 3343SOL     OW10927   5.350   4.252   6.708
 3343SOL    HW110928   5.392   4.180   6.763
 3343SOL    HW210929   5.418   4.323   6.688
 3344SOL     OW10930   5.531   3.515   3.512
 3344SOL    HW110931   5.493   3.488   3.423
 3344SOL    HW210932   5.489   3.601   3.541
 3345SOL     OW10933   1.577   3.971   6.120
 3345SOL    HW110934   1.647   3.926   6.175
 3345SOL    HW210935   1.606   4.066   6.103
 3346SOL     OW10936   0.955   0.565   0.147
 3346SOL    HW110937   0.933   0.663   0.143
 3346SOL    HW210938   1.035   0.547   0.090
 3347SOL     OW10939   1.229   2.491   5.017
 3347SOL    HW110940   1.151   2.502   4.955
 3347SOL    HW210941   1.262   2.581   5.045
 3348SOL     OW10942   4.135   3.630   4.410
 3348SOL    HW110943   4.089   3.573   4.342
 3348SOL    HW210944   4.231   3.604   4.417
 3349SOL     OW10945   2.063   5.239   3.554
 3349SOL    HW110946   2.009   5.257   3.637
 3349SOL    HW210947   2.135   5.308   3.546
 3350SOL     OW10948   0.067   2.089   5.783
 3350SOL    HW110949   0.020   2.002   5.798
 3350SOL    HW210950   0.089   2.100   5.686
 3351SOL     OW10951   4.601   0.911   2.847
 3351SOL    HW110952   4.695   0.911   2.879
 3351SOL    HW210953   4.586   0.990   2.786
 3352SOL     OW10954   6.806   3.072   1.478
 3352SOL    HW110955   6.777   3.078   1.574
 3352SOL    HW210956   6.880   3.136   1.462
 3353SOL     OW10957   2.849   5.762   1.254
 3353SOL    HW110958   2.911   5.818   1.309
 3353SOL    HW210959   2.757   5.765   1.292
 3354SOL     OW10960   4.266   2.466   5.496
 3354SOL    HW110961   4.287   2.484   5.592
 3354SOL    HW210962   4.182   2.513   5.471
 3355SOL     OW10963   1.688   1.822   6.306
 3355SOL    HW110964   1.738   1.736   6.314
 3355SOL    HW210965   1.712   1.866   6.220
 3356SOL     OW10966   0.790   5.477   6.334
 3356SOL    HW110967   0.736   5.400   6.368
 3356SOL    HW210968   0.751   5.509   6.248
 3357SOL     OW10969   2.327   3.683   1.750
 3357SOL    HW110970   2.245   3.688   1.693
 3357SOL    HW210971   2.336   3.591   1.787
 3358SOL     OW10972   4.514   1.654   2.050
 3358SOL    HW110973   4.471   1.564   2.043
 3358SOL    HW210974   4.512   1.684   2.145
 3359SOL     OW10975   0.880   6.286   3.056
 3359SOL    HW110976   0.792   6.309   3.096
 3359SOL    HW210977   0.869   6.261   2.960
 3360SOL     OW10978   1.447   1.072   6.915
 3360SOL    HW110979   1.414   1.083   6.821
 3360SOL    HW210980   1.465   1.162   6.955
 3361SOL     OW10981   6.728   4.967   4.356
 3361SOL    HW110982   6.703   4.873   4.377
 3361SOL    HW210983   6.678   4.997   4.275
 3362SOL     OW10984   3.757   1.218   2.750
 3362SOL    HW110985   3.720   1.290   2.692
 3362SOL    HW210986   3.769   1.252   2.843
 3363SOL     OW10987   0.189   2.103   1.617
 3363SOL    HW110988   0.093   2.129   1.604
 3363SOL    HW210989   0.197   2.045   1.697
 3364SOL     OW10990   1.866   4.793   4.056
 3364SOL    HW110991   1.949   4.842   4.081
 3364SOL    HW210992   1.801   4.795   4.132
 3365SOL     OW10993   0.467   2.612   4.762
 3365SOL    HW110994   0.406   2.669   4.708
 3365SOL    HW210995   0.424   2.589   4.849
 3366SOL     OW10996   5.734   4.998   4.484
 3366SOL    HW110997   5.774   4.907   4.492
 3366SOL    HW210998   5.662   5.009   4.551
 3367SOL     OW10999   3.898   3.161   2.573
 3367SOL    HW111000   3.798   3.158   2.562
 3367SOL    HW211001   3.920   3.154   2.670
 3368SOL     OW11002   0.772   5.567   6.648
 3368SOL    HW111003   0.740   5.516   6.728
 3368SOL    HW211004   0.856   5.525   6.614
 3369SOL     OW11005   3.647   1.655   0.355
 3369SOL    HW111006   3.590   1.577   0.327
 3369SOL    HW211007   3.634   1.672   0.452
 3370SOL     OW11008   6.574   6.362   1.543
 3370SOL    HW111009   6.612   6.441   1.494
 3370SOL    HW211010   6.649   6.303   1.574
 3371SOL     OW11011   1.951   3.058   1.440
 3371SOL    HW111012   1.992   3.149   1.440
 3371SOL    HW211013   2.014   2.993   1.398
 3372SOL     OW11014   7.001   1.988   6.595
 3372SOL    HW111015   6.911   2.023   6.620
 3372SOL    HW211016   0.050   2.057   6.615
 3373SOL     OW11017   0.360   2.129   4.049
 3373SOL    HW111018   0.401   2.156   4.136
 3373SOL    HW211019   0.380   2.199   3.980
 3374SOL     OW11020   1.219   6.764   3.965
 3374SOL    HW111021   1.262   6.713   4.040
 3374SOL    HW211022   1.195   6.855   3.997
 3375SOL     OW11023   0.181   4.575   0.108
 3375SOL    HW111024   0.200   4.577   0.010
 3375SOL    HW211025   0.131   4.657   0.134
 3376SOL     OW11026   3.864   3.067   4.488
 3376SOL    HW111027   3.834   3.072   4.583
 3376SOL    HW211028   3.809   2.999   4.439
 3377SOL     OW11029   6.413   5.237   5.695
 3377SOL    HW111030   6.406   5.182   5.779
 3377SOL    HW211031   6.367   5.188   5.621
 3378SOL     OW11032   1.376   6.849   0.544
 3378SOL    HW111033   1.312   6.912   0.501
 3378SOL    HW211034   1.325   6.776   0.589
 3379SOL     OW11035   1.077   1.675   4.997
 3379SOL    HW111036   1.117   1.736   5.065
 3379SOL    HW211037   1.063   1.724   4.912
 3380SOL     OW11038   5.464   6.686   4.777
 3380SOL    HW111039   5.466   6.685   4.677
 3380SOL    HW211040   5.378   6.647   4.809
 3381SOL     OW11041   0.797   3.218   1.449
 3381SOL    HW111042   0.814   3.170   1.536
 3381SOL    HW211043   0.700   3.214   1.427
 3382SOL     OW11044   0.736   2.668   6.656
 3382SOL    HW111045   0.818   2.622   6.623
 3382SOL    HW211046   0.732   2.663   6.755
 3383SOL     OW11047   4.010   5.741   1.334
 3383SOL    HW111048   4.080   5.695   1.389
 3383SOL    HW211049   3.920   5.719   1.370
 3384SOL     OW11050   2.032   3.016   0.922
 3384SOL    HW111051   2.078   3.104   0.904
 3384SOL    HW211052   2.073   2.946   0.864
 3385SOL     OW11053   6.771   3.458   4.628
 3385SOL    HW111054   6.814   3.520   4.562
 3385SOL    HW211055   6.675   3.484   4.641
 3386SOL     OW11056   5.416   4.364   0.524
 3386SOL    HW111057   5.352   4.418   0.578
 3386SOL    HW211058   5.399   4.381   0.426
 3387SOL     OW11059   3.951   0.367   3.400
 3387SOL    HW111060   3.870   0.353   3.457
 3387SOL    HW211061   3.923   0.387   3.306
 3388SOL     OW11062   5.412   3.210   2.458
 3388SOL    HW111063   5.351   3.279   2.420
 3388SOL    HW211064   5.503   3.219   2.418
 3389SOL     OW11065   6.729   5.568   6.000
 3389SOL    HW111066   6.657   5.605   6.059
 3389SOL    HW211067   6.689   5.502   5.937
 3390SOL     OW11068   5.132   6.972   5.958
 3390SOL    HW111069   5.181   7.021   6.030
 3390SOL    HW211070   5.059   0.010   5.922
 3391SOL     OW11071   4.886   2.586   4.197
 3391SOL    HW111072   4.948   2.512   4.171
 3391SOL    HW211073   4.877   2.588   4.297
 3392SOL     OW11074   2.929   6.693   3.930
 3392SOL    HW111075   2.858   6.692   3.860
 3392SOL    HW211076   2.902   6.636   4.008
 3393SOL     OW11077   6.480   5.857   0.729
 3393SOL    HW111078   6.481   5.921   0.652
 3393SOL    HW211079   6.573   5.827   0.749
 3394SOL     OW11080   5.254   3.432   1.025
 3394SOL    HW111081   5.217   3.501   0.963
 3394SOL    HW211082   5.216   3.444   1.116
 3395SOL     OW11083   5.060   2.846   3.555
 3395SOL    HW111084   5.028   2.766   3.505
 3395SOL    HW211085   5.095   2.914   3.490
 3396SOL     OW11086   5.513   1.078   3.495
 3396SOL    HW111087   5.495   1.045   3.402
 3396SOL    HW211088   5.487   1.174   3.502
 3397SOL     OW11089   3.175   5.591   6.847
 3397SOL    HW111090   3.138   5.528   6.778
 3397SOL    HW211091   3.184   5.543   6.934
 3398SOL     OW11092   0.844   0.507   4.292
 3398SOL    HW111093   0.796   0.423   4.266
 3398SOL    HW211094   0.910   0.486   4.364
 3399SOL     OW11095   5.485   5.174   3.486
 3399SOL    HW111096   5.463   5.088   3.531
 3399SOL    HW211097   5.414   5.196   3.418
 3400SOL     OW11098   5.484   3.153   6.382
 3400SOL    HW111099   5.553   3.105   6.329
 3400SOL    HW211100   5.525   3.233   6.426
 3401SOL     OW11101   6.843   3.521   6.238
 3401SOL    HW111102   6.793   3.465   6.304
 3401SOL    HW211103   6.868   3.608   6.281
 3402SOL     OW11104   5.041   5.590   6.422
 3402SOL    HW111105   5.007   5.673   6.378
 3402SOL    HW211106   4.992   5.575   6.508
 3403SOL     OW11107   3.826   5.442   6.401
 3403SOL    HW111108   3.908   5.432   6.345
 3403SOL    HW211109   3.750   5.395   6.357
 3404SOL     OW11110   5.624   2.530   0.807
 3404SOL    HW111111   5.566   2.579   0.872
 3404SOL    HW211112   5.635   2.584   0.724
 3405SOL     OW11113   6.064   4.062   6.589
 3405SOL    HW111114   5.999   4.048   6.664
 3405SOL    HW211115   6.087   4.159   6.582
 3406SOL     OW11116   1.210   3.598   2.147
 3406SOL    HW111117   1.302   3.636   2.148
 3406SOL    HW211118   1.206   3.523   2.080
 3407SOL     OW11119   1.355   4.545   6.756
 3407SOL    HW111120   1.380   4.473   6.820
 3407SOL    HW211121   1.313   4.504   6.675
 3408SOL     OW11122   5.339   2.971   4.804
 3408SOL    HW111123   5.318   2.914   4.725
 3408SOL    HW211124   5.298   2.931   4.886
 3409SOL     OW11125   3.804   6.055   0.384
 3409SOL    HW111126   3.834   6.149   0.366
 3409SOL    HW211127   3.855   5.991   0.327
 3410SOL     OW11128   6.947   6.444   1.677
 3410SOL    HW111129   6.955   6.478   1.771
 3410SOL    HW211130   6.942   6.344   1.678
 3411SOL     OW11131   0.283   2.416   0.607
 3411SOL    HW111132   0.279   2.416   0.707
 3411SOL    HW211133   0.377   2.398   0.577
 3412SOL     OW11134   4.772   3.185   1.267
 3412SOL    HW111135   4.832   3.165   1.345
 3412SOL    HW211136   4.798   3.128   1.189
 3413SOL     OW11137   6.152   1.552   0.810
 3413SOL    HW111138   6.238   1.540   0.761
 3413SOL    HW211139   6.143   1.647   0.839
 3414SOL     OW11140   3.607   2.005   5.869
 3414SOL    HW111141   3.517   2.029   5.832
 3414SOL    HW211142   3.663   2.088   5.877
 3415SOL     OW11143   2.280   2.875   3.824
 3415SOL    HW111144   2.340   2.796   3.825
 3415SOL    HW211145   2.254   2.899   3.918
 3416SOL     OW11146   5.747   6.112   0.590
 3416SOL    HW111147   5.707   6.168   0.517
 3416SOL    HW211148   5.674   6.077   0.649
 3417SOL     OW11149   0.542   6.240   4.055
 3417SOL    HW111150   0.612   6.173   4.082
 3417SOL    HW211151   0.514   6.222   3.961
 3418SOL     OW11152   3.584   5.729   3.773
 3418SOL    HW111153   3.574   5.747   3.675
 3418SOL    HW211154   3.511   5.774   3.823
 3419SOL     OW11155   2.775   5.254   6.105
 3419SOL    HW111156   2.747   5.297   6.019
 3419SOL    HW211157   2.837   5.316   6.154
 3420SOL     OW11158   5.934   2.958   3.364
 3420SOL    HW111159   5.904   2.886   3.302
 3420SOL    HW211160   5.889   2.947   3.452
 3421SOL     OW11161   4.891   2.022   3.865
 3421SOL    HW111162   4.797   1.995   3.844
 3421SOL    HW211163   4.953   1.987   3.795
 3422SOL     OW11164   3.156   0.352   0.384
 3422SOL    HW111165   3.098   0.292   0.439
 3422SOL    HW211166   3.101   0.425   0.343
 3423SOL     OW11167   6.909   4.681   5.964
 3423SOL    HW111168   6.887   4.597   5.915
 3423SOL    HW211169   6.887   4.760   5.908
 3424SOL     OW11170   2.255   6.622   1.080
 3424SOL    HW111171   2.165   6.616   1.125
 3424SOL    HW211172   2.252   6.573   0.993
 3425SOL     OW11173   4.626   4.931   2.132
 3425SOL    HW111174   4.532   4.932   2.098
 3425SOL    HW211175   4.634   4.866   2.208
 3426SOL     OW11176   4.499   2.434   1.405
 3426SOL    HW111177   4.521   2.350   1.454
 3426SOL    HW211178   4.440   2.414   1.327
 3427SOL     OW11179   0.948   1.680   0.675
 3427SOL    HW111180   0.876   1.648   0.612
 3427SOL    HW211181   0.910   1.688   0.767
 3428SOL     OW11182   3.338   5.210   0.396
 3428SOL    HW111183   3.423   5.163   0.418
 3428SOL    HW211184   3.359   5.299   0.354
 3429SOL     OW11185   0.455   2.206   1.269
 3429SOL    HW111186   0.408   2.155   1.340
 3429SOL    HW211187   0.523   2.147   1.225
 3430SOL     OW11188   2.000   5.848   5.886
 3430SOL    HW111189   1.997   5.765   5.830
 3430SOL    HW211190   1.996   5.823   5.982
 3431SOL     OW11191   1.434   6.162   1.733
 3431SOL    HW111192   1.515   6.190   1.785
 3431SOL    HW211193   1.455   6.163   1.635
 3432SOL     OW11194   1.877   4.133   5.294
 3432SOL    HW111195   1.822   4.212   5.319
 3432SOL    HW211196   1.841   4.051   5.339
 3433SOL     OW11197   1.403   0.311   5.003
 3433SOL    HW111198   1.356   0.225   5.021
 3433SOL    HW211199   1.349   0.366   4.940
 3434SOL     OW11200   3.986   0.998   2.206
 3434SOL    HW111201   4.030   0.917   2.166
 3434SOL    HW211202   3.892   1.005   2.171
 3435SOL     OW11203   1.979   1.253   1.273
 3435SOL    HW111204   2.047   1.267   1.201
 3435SOL    HW211205   2.012   1.292   1.359
 3436SOL     OW11206   3.929   6.290   0.298
 3436SOL    HW111207   4.004   6.307   0.234
 3436SOL    HW211208   3.893   6.378   0.330
 3437SOL     OW11209   2.948   6.738   5.384
 3437SOL    HW111210   2.980   6.832   5.374
 3437SOL    HW211211   2.858   6.728   5.341
 3438SOL     OW11212   0.603   3.641   0.833
 3438SOL    HW111213   0.606   3.551   0.877
 3438SOL    HW211214   0.655   3.707   0.888
 3439SOL     OW11215   3.339   5.920   4.580
 3439SOL    HW111216   3.332   5.961   4.489
 3439SOL    HW211217   3.328   5.992   4.649
 3440SOL     OW11218   3.328   2.964   1.975
 3440SOL    HW111219   3.426   2.962   1.956
 3440SOL    HW211220   3.280   2.905   1.909
 3441SOL     OW11221   6.831   5.886   6.130
 3441SOL    HW111222   6.813   5.967   6.186
 3441SOL    HW211223   6.844   5.807   6.188
 3442SOL     OW11224   1.950   4.275   1.781
 3442SOL    HW111225   1.908   4.357   1.744
 3442SOL    HW211226   2.043   4.267   1.747
 3443SOL     OW11227   4.125   6.484   2.153
 3443SOL    HW111228   4.142   6.417   2.080
 3443SOL    HW211229   4.213   6.517   2.189
 3444SOL     OW11230   4.764   5.655   7.009
 3444SOL    HW111231   4.697   5.582   6.997
 3444SOL    HW211232   4.843   5.638   6.949
 3445SOL     OW11233   5.480   5.343   2.354
 3445SOL    HW111234   5.430   5.357   2.439
 3445SOL    HW211235   5.415   5.331   2.279
 3446SOL     OW11236   6.245   0.610   1.425
 3446SOL    HW111237   6.226   0.512   1.425
 3446SOL    HW211238   6.316   0.631   1.358
 3447SOL     OW11239   4.745   6.479   1.220
 3447SOL    HW111240   4.754   6.541   1.142
 3447SOL    HW211241   4.648   6.467   1.241
 3448SOL     OW11242   3.949   0.007   6.604
 3448SOL    HW111243   3.965   6.945   6.550
 3448SOL    HW211244   3.851   0.025   6.609
 3449SOL     OW11245   6.171   5.276   5.077
 3449SOL    HW111246   6.120   5.357   5.048
 3449SOL    HW211247   6.158   5.202   5.011
 3450SOL     OW11248   0.836   1.507   6.646
 3450SOL    HW111249   0.825   1.425   6.702
 3450SOL    HW211250   0.768   1.506   6.572
 3451SOL     OW11251   2.779   6.411   6.753
 3451SOL    HW111252   2.800   6.456   6.841
 3451SOL    HW211253   2.862   6.367   6.718
 3452SOL     OW11254   5.516   0.577   6.701
 3452SOL    HW111255   5.452   0.576   6.779
 3452SOL    HW211256   5.574   0.496   6.705
 3453SOL     OW11257   6.412   5.321   6.137
 3453SOL    HW111258   6.363   5.268   6.206
 3453SOL    HW211259   6.364   5.407   6.121
 3454SOL     OW11260   0.982   3.741   5.211
 3454SOL    HW111261   0.991   3.651   5.168
 3454SOL    HW211262   1.055   3.753   5.279
 3455SOL     OW11263   2.545   1.729   4.274
 3455SOL    HW111264   2.572   1.672   4.196
 3455SOL    HW211265   2.536   1.824   4.244
 3456SOL     OW11266   5.730   4.709   1.464
 3456SOL    HW111267   5.642   4.686   1.424
 3456SOL    HW211268   5.718   4.739   1.559
 3457SOL     OW11269   3.730   5.279   3.995
 3457SOL    HW111270   3.649   5.227   3.967
 3457SOL    HW211271   3.727   5.370   3.955
 3458SOL     OW11272   4.384   0.964   2.171
 3458SOL    HW111273   4.348   0.884   2.122
 3458SOL    HW211274   4.311   1.032   2.180
 3459SOL     OW11275   5.445   2.736   2.555
 3459SOL    HW111276   5.399   2.726   2.643
 3459SOL    HW211277   5.415   2.820   2.510
 3460SOL     OW11278   3.107   1.778   0.296
 3460SOL    HW111279   3.059   1.739   0.218
 3460SOL    HW211280   3.139   1.870   0.274
 3461SOL     OW11281   4.732   3.912   6.893
 3461SOL    HW111282   4.824   3.947   6.877
 3461SOL    HW211283   4.737   3.819   6.929
 3462SOL     OW11284   0.810   3.909   5.376
 3462SOL    HW111285   0.754   3.976   5.327
 3462SOL    HW211286   0.854   3.848   5.311
 3463SOL     OW11287   1.195   4.080   2.019
 3463SOL    HW111288   1.194   4.160   2.079
 3463SOL    HW211289   1.278   4.027   2.036
 3464SOL     OW11290   0.173   4.653   5.857
 3464SOL    HW111291   0.106   4.635   5.930
 3464SOL    HW211292   0.146   4.735   5.807
 3465SOL     OW11293   1.453   2.418   2.431
 3465SOL    HW111294   1.543   2.391   2.398
 3465SOL    HW211295   1.382   2.372   2.377
 3466SOL     OW11296   6.662   5.195   6.157
 3466SOL    HW111297   6.746   5.245   6.138
 3466SOL    HW211298   6.585   5.259   6.161
 3467SOL     OW11299   1.952   2.579   6.521
 3467SOL    HW111300   1.980   2.484   6.508
 3467SOL    HW211301   2.007   2.621   6.593
 3468SOL     OW11302   4.389   6.637   2.280
 3468SOL    HW111303   4.335   6.677   2.354
 3468SOL    HW211304   4.391   6.699   2.203
 3469SOL     OW11305   5.707   0.423   3.162
 3469SOL    HW111306   5.664   0.333   3.163
 3469SOL    HW211307   5.796   0.417   3.117
 3470SOL     OW11308   6.843   3.594   0.941
 3470SOL    HW111309   6.881   3.600   0.848
 3470SOL    HW211310   6.854   3.682   0.987
 3471SOL     OW11311   3.614   4.925   4.245
 3471SOL    HW111312   3.688   4.910   4.180
 3471SOL    HW211313   3.647   4.906   4.337
 3472SOL     OW11314   2.049   0.827   2.363
 3472SOL    HW111315   1.962   0.850   2.406
 3472SOL    HW211316   2.124   0.862   2.419
 3473SOL     OW11317   7.010   1.798   6.848
 3473SOL    HW111318   0.088   1.813   6.859
 3473SOL    HW211319   6.981   1.837   6.760
 3474SOL     OW11320   2.680   5.192   1.793
 3474SOL    HW111321   2.614   5.234   1.731
 3474SOL    HW211322   2.684   5.244   1.878
 3475SOL     OW11323   1.056   5.984   5.000
 3475SOL    HW111324   1.116   5.942   5.068
 3475SOL    HW211325   1.010   5.913   4.947
 3476SOL     OW11326   3.439   1.888   3.058
 3476SOL    HW111327   3.470   1.966   3.111
 3476SOL    HW211328   3.503   1.870   2.983
 3477SOL     OW11329   3.191   5.252   0.985
 3477SOL    HW111330   3.176   5.288   1.077
 3477SOL    HW211331   3.107   5.258   0.931
 3478SOL     OW11332   2.313   5.630   4.921
 3478SOL    HW111333   2.374   5.570   4.869
 3478SOL    HW211334   2.366   5.701   4.967
 3479SOL     OW11335   1.178   0.945   2.790
 3479SOL    HW111336   1.160   0.847   2.780
 3479SOL    HW211337   1.156   0.973   2.883
 3480SOL     OW11338   0.042   0.106   5.193
 3480SOL    HW111339   0.048   0.055   5.107
 3480SOL    HW211340   0.073   0.200   5.178
 3481SOL     OW11341   4.881   6.720   0.365
 3481SOL    HW111342   4.830   6.638   0.391
 3481SOL    HW211343   4.880   6.785   0.441
 3482SOL     OW11344   5.721   1.568   0.945
 3482SOL    HW111345   5.699   1.559   0.848
 3482SOL    HW211346   5.791   1.638   0.958
 3483SOL     OW11347   4.132   1.199   1.329
 3483SOL    HW111348   4.123   1.285   1.279
 3483SOL    HW211349   4.089   1.208   1.419
 3484SOL     OW11350   3.230   3.556   1.597
 3484SOL    HW111351   3.158   3.497   1.632
 3484SOL    HW211352   3.202   3.651   1.605
 3485SOL     OW11353   1.351   0.185   4.264
 3485SOL    HW111354   1.422   0.171   4.194
 3485SOL    HW211355   1.334   0.099   4.312
 3486SOL     OW11356   2.956   1.502   2.829
 3486SOL    HW111357   2.954   1.590   2.782
 3486SOL    HW211358   2.874   1.450   2.806
 3487SOL     OW11359   5.555   1.893   5.601
 3487SOL    HW111360   5.557   1.952   5.681
 3487SOL    HW211361   5.648   1.871   5.573
 3488SOL     OW11362   5.292   2.415   4.404
 3488SOL    HW111363   5.205   2.462   4.410
 3488SOL    HW211364   5.364   2.479   4.377
 3489SOL     OW11365   2.776   6.626   0.483
 3489SOL    HW111366   2.752   6.606   0.578
 3489SOL    HW211367   2.852   6.692   0.481
 3490SOL     OW11368   4.833   4.835   6.667
 3490SOL    HW111369   4.814   4.828   6.569
 3490SOL    HW211370   4.750   4.813   6.718
 3491SOL     OW11371   5.665   2.355   4.803
 3491SOL    HW111372   5.747   2.298   4.802
 3491SOL    HW211373   5.584   2.297   4.799
 3492SOL     OW11374   0.886   5.469   1.386
 3492SOL    HW111375   0.817   5.417   1.335
 3492SOL    HW211376   0.906   5.554   1.337
 3493SOL     OW11377   6.614   5.071   6.802
 3493SOL    HW111378   6.605   5.018   6.887
 3493SOL    HW211379   6.523   5.092   6.766
 3494SOL     OW11380   4.009   0.849   1.670
 3494SOL    HW111381   3.971   0.895   1.590
 3494SOL    HW211382   4.100   0.813   1.649
 3495SOL     OW11383   4.333   4.923   2.116
 3495SOL    HW111384   4.327   4.823   2.113
 3495SOL    HW211385   4.273   4.957   2.188
 3496SOL     OW11386   0.283   4.038   0.545
 3496SOL    HW111387   0.261   4.132   0.573
 3496SOL    HW211388   0.324   3.990   0.623
 3497SOL     OW11389   4.300   6.497   3.463
 3497SOL    HW111390   4.310   6.400   3.482
 3497SOL    HW211391   4.217   6.512   3.409
 3498SOL     OW11392   1.841   2.721   0.585
 3498SOL    HW111393   1.906   2.664   0.636
 3498SOL    HW211394   1.857   2.710   0.487
 3499SOL     OW11395   4.754   2.887   4.554
 3499SOL    HW111396   4.760   2.894   4.653
 3499SOL    HW211397   4.706   2.803   4.530
 3500SOL     OW11398   0.693   4.101   5.204
 3500SOL    HW111399   0.708   4.105   5.105
 3500SOL    HW211400   0.719   4.189   5.244
 3501SOL     OW11401   1.245   5.554   3.578
 3501SOL    HW111402   1.283   5.643   3.602
 3501SOL    HW211403   1.167   5.533   3.637
 3502SOL     OW11404   6.718   2.276   1.752
 3502SOL    HW111405   6.656   2.354   1.741
 3502SOL    HW211406   6.720   2.249   1.848
 3503SOL     OW11407   5.653   6.026   5.540
 3503SOL    HW111408   5.745   5.987   5.541
 3503SOL    HW211409   5.615   6.024   5.632
 3504SOL     OW11410   1.972   2.030   1.296
 3504SOL    HW111411   1.960   2.093   1.219
 3504SOL    HW211412   1.888   1.977   1.309
 3505SOL     OW11413   5.251   4.722   5.146
 3505SOL    HW111414   5.255   4.645   5.209
 3505SOL    HW211415   5.326   4.715   5.080
 3506SOL     OW11416   4.598   6.339   5.288
 3506SOL    HW111417   4.642   6.258   5.327
 3506SOL    HW211418   4.667   6.397   5.244
 3507SOL     OW11419   2.459   0.635   0.390
 3507SOL    HW111420   2.399   0.592   0.323
 3507SOL    HW211421   2.500   0.717   0.350
 3508SOL     OW11422   3.535   2.470   6.197
 3508SOL    HW111423   3.455   2.411   6.191
 3508SOL    HW211424   3.587   2.447   6.280
 3509SOL     OW11425   5.130   6.829   6.235
 3509SOL    HW111426   5.057   6.801   6.172
 3509SOL    HW211427   5.209   6.770   6.222
 3510SOL     OW11428   2.295   2.058   1.582
 3510SOL    HW111429   2.273   2.147   1.543
 3510SOL    HW211430   2.255   2.050   1.673
 3511SOL     OW11431   1.823   4.880   6.920
 3511SOL    HW111432   1.772   4.834   6.847
 3511SOL    HW211433   1.855   4.813   6.987
 3512SOL     OW11434   6.739   3.889   1.083
 3512SOL    HW111435   6.778   3.866   1.172
 3512SOL    HW211436   6.813   3.895   1.015
 3513SOL     OW11437   6.213   3.962   0.558
 3513SOL    HW111438   6.140   4.027   0.581
 3513SOL    HW211439   6.260   3.934   0.641
 3514SOL     OW11440   6.963   1.012   2.424
 3514SOL    HW111441   6.913   1.063   2.494
 3514SOL    HW211442   0.040   1.017   2.445
 3515SOL     OW11443   4.798   6.430   2.710
 3515SOL    HW111444   4.808   6.340   2.668
 3515SOL    HW211445   4.810   6.501   2.640
 3516SOL     OW11446   4.548   0.621   1.209
 3516SOL    HW111447   4.507   0.533   1.183
 3516SOL    HW211448   4.648   0.611   1.213
 3517SOL     OW11449   0.862   2.243   6.950
 3517SOL    HW111450   0.782   2.279   6.998
 3517SOL    HW211451   0.870   2.145   6.968
 3518SOL     OW11452   5.591   4.142   4.606
 3518SOL    HW111453   5.636   4.209   4.665
 3518SOL    HW211454   5.652   4.064   4.593
 3519SOL     OW11455   2.252   0.501   6.292
 3519SOL    HW111456   2.336   0.467   6.248
 3519SOL    HW211457   2.199   0.423   6.326
 3520SOL     OW11458   3.015   5.051   0.708
 3520SOL    HW111459   3.072   5.118   0.660
 3520SOL    HW211460   2.987   5.090   0.796
 3521SOL     OW11461   5.696   3.439   1.346
 3521SOL    HW111462   5.777   3.389   1.317
 3521SOL    HW211463   5.614   3.392   1.314
 3522SOL     OW11464   4.640   5.403   2.171
 3522SOL    HW111465   4.661   5.325   2.231
 3522SOL    HW211466   4.717   5.418   2.109
 3523SOL     OW11467   2.647   4.387   5.613
 3523SOL    HW111468   2.619   4.294   5.640
 3523SOL    HW211469   2.683   4.385   5.519
 3524SOL     OW11470   2.677   1.218   0.975
 3524SOL    HW111471   2.644   1.186   1.064
 3524SOL    HW211472   2.751   1.159   0.944
 3525SOL     OW11473   0.728   4.028   2.487
 3525SOL    HW111474   0.654   4.008   2.422
 3525SOL    HW211475   0.735   4.127   2.499
 3526SOL     OW11476   2.211   6.199   3.822
 3526SOL    HW111477   2.179   6.289   3.850
 3526SOL    HW211478   2.233   6.145   3.903
 3527SOL     OW11479   6.134   3.500   5.741
 3527SOL    HW111480   6.063   3.511   5.811
 3527SOL    HW211481   6.126   3.409   5.699
 3528SOL     OW11482   0.981   5.256   3.657
 3528SOL    HW111483   1.058   5.202   3.691
 3528SOL    HW211484   1.002   5.354   3.666
 3529SOL     OW11485   4.666   6.899   5.667
 3529SOL    HW111486   4.665   6.799   5.667
 3529SOL    HW211487   4.749   6.932   5.711
 3530SOL     OW11488   3.000   4.823   3.412
 3530SOL    HW111489   2.986   4.880   3.494
 3530SOL    HW211490   3.085   4.850   3.367
 3531SOL     OW11491   4.795   4.721   1.230
 3531SOL    HW111492   4.764   4.716   1.325
 3531SOL    HW211493   4.889   4.753   1.227
 3532SOL     OW11494   2.643   0.011   0.611
 3532SOL    HW111495   2.583   0.086   0.637
 3532SOL    HW211496   2.672   0.022   0.516
 3533SOL     OW11497   1.078   2.324   3.015
 3533SOL    HW111498   1.112   2.345   2.923
 3533SOL    HW211499   0.980   2.306   3.012
 3534SOL     OW11500   6.571   1.028   4.853
 3534SOL    HW111501   6.541   1.002   4.944
 3534SOL    HW211502   6.658   0.983   4.832
 3535SOL     OW11503   6.274   5.546   0.291
 3535SOL    HW111504   6.264   5.463   0.235
 3535SOL    HW211505   6.205   5.546   0.363
 3536SOL     OW11506   2.275   2.769   3.457
 3536SOL    HW111507   2.354   2.754   3.518
 3536SOL    HW211508   2.216   2.689   3.459
 3537SOL     OW11509   2.511   5.065   0.462
 3537SOL    HW111510   2.470   5.156   0.470
 3537SOL    HW211511   2.439   4.995   0.467
 3538SOL     OW11512   2.978   0.747   4.044
 3538SOL    HW111513   2.952   0.657   4.079
 3538SOL    HW211514   3.015   0.802   4.119
 3539SOL     OW11515   5.602   3.380   6.510
 3539SOL    HW111516   5.634   3.462   6.463
 3539SOL    HW211517   5.646   3.372   6.599
 3540SOL     OW11518   2.232   1.608   5.479
 3540SOL    HW111519   2.225   1.518   5.522
 3540SOL    HW211520   2.143   1.654   5.483
 3541SOL     OW11521   2.509   2.794   6.761
 3541SOL    HW111522   2.514   2.869   6.828
 3541SOL    HW211523   2.506   2.833   6.669
 3542SOL     OW11524   0.016   3.374   1.198
 3542SOL    HW111525   6.937   3.366   1.205
 3542SOL    HW211526   0.041   3.388   1.102
 3543SOL     OW11527   1.796   3.176   4.648
 3543SOL    HW111528   1.717   3.133   4.603
 3543SOL    HW211529   1.849   3.107   4.696
 3544SOL     OW11530   1.993   4.387   6.527
 3544SOL    HW111531   1.926   4.420   6.462
 3544SOL    HW211532   2.085   4.412   6.497
 3545SOL     OW11533   3.678   5.211   6.605
 3545SOL    HW111534   3.606   5.156   6.648
 3545SOL    HW211535   3.656   5.225   6.508
 3546SOL     OW11536   6.355   4.707   3.199
 3546SOL    HW111537   6.432   4.676   3.142
 3546SOL    HW211538   6.384   4.783   3.256
 3547SOL     OW11539   6.871   4.349   5.042
 3547SOL    HW111540   6.779   4.348   5.003
 3547SOL    HW211541   6.912   4.258   5.032
 3548SOL     OW11542   5.581   0.397   5.991
 3548SOL    HW111543   5.564   0.361   5.899
 3548SOL    HW211544   5.568   0.496   5.990
 3549SOL     OW11545   1.968   4.332   6.221
 3549SOL    HW111546   2.019   4.325   6.306
 3549SOL    HW211547   2.029   4.360   6.147
 3550SOL     OW11548   5.994   2.270   4.523
 3550SOL    HW111549   5.979   2.366   4.501
 3550SOL    HW211550   6.073   2.263   4.585
 3551SOL     OW11551   3.958   1.280   4.076
 3551SOL    HW111552   3.990   1.200   4.126
 3551SOL    HW211553   3.968   1.362   4.133
 3552SOL     OW11554   6.389   6.138   1.539
 3552SOL    HW111555   6.429   6.048   1.554
 3552SOL    HW211556   6.458   6.209   1.555
 3553SOL     OW11557   3.459   5.623   0.030
 3553SOL    HW111558   3.402   5.643   6.971
 3553SOL    HW211559   3.554   5.618   0.002
 3554SOL     OW11560   4.377   2.710   0.882
 3554SOL    HW111561   4.289   2.747   0.912
 3554SOL    HW211562   4.408   2.757   0.800
 3555SOL     OW11563   1.200   3.075   4.132
 3555SOL    HW111564   1.216   3.042   4.039
 3555SOL    HW211565   1.110   3.119   4.137
 3556SOL     OW11566   3.699   0.987   3.670
 3556SOL    HW111567   3.712   0.952   3.763
 3556SOL    HW211568   3.729   1.083   3.666
 3557SOL     OW11569   1.348   6.660   4.172
 3557SOL    HW111570   1.420   6.590   4.179
 3557SOL    HW211571   1.301   6.668   4.261
 3558SOL     OW11572   2.216   4.904   1.573
 3558SOL    HW111573   2.205   4.879   1.669
 3558SOL    HW211574   2.134   4.875   1.522
 3559SOL     OW11575   0.908   6.278   4.927
 3559SOL    HW111576   0.844   6.210   4.891
 3559SOL    HW211577   0.981   6.294   4.860
 3560SOL     OW11578   2.366   4.806   2.865
 3560SOL    HW111579   2.285   4.788   2.809
 3560SOL    HW211580   2.406   4.894   2.840
 3561SOL     OW11581   5.381   3.495   5.592
 3561SOL    HW111582   5.424   3.415   5.552
 3561SOL    HW211583   5.446   3.542   5.652
 3562SOL     OW11584   3.061   1.787   3.514
 3562SOL    HW111585   3.027   1.841   3.436
 3562SOL    HW211586   3.161   1.785   3.512
 3563SOL     OW11587   6.394   1.541   6.568
 3563SOL    HW111588   6.440   1.463   6.609
 3563SOL    HW211589   6.372   1.521   6.473
 3564SOL     OW11590   0.294   4.857   3.067
 3564SOL    HW111591   0.273   4.839   2.971
 3564SOL    HW211592   0.364   4.929   3.072
 3565SOL     OW11593   3.773   5.596   3.905
 3565SOL    HW111594   3.723   5.658   3.845
 3565SOL    HW211595   3.728   5.591   3.994
 3566SOL     OW11596   6.126   1.794   6.327
 3566SOL    HW111597   6.203   1.817   6.385
 3566SOL    HW211598   6.103   1.697   6.338
 3567SOL     OW11599   0.457   2.358   6.623
 3567SOL    HW111600   0.481   2.446   6.583
 3567SOL    HW211601   0.457   2.365   6.722
 3568SOL     OW11602   5.141   4.265   5.078
 3568SOL    HW111603   5.221   4.205   5.074
 3568SOL    HW211604   5.061   4.216   5.044
 3569SOL     OW11605   2.916   2.575   6.436
 3569SOL    HW111606   2.951   2.504   6.498
 3569SOL    HW211607   2.829   2.610   6.471
 3570SOL     OW11608   4.917   0.263   6.225
 3570SOL    HW111609   5.000   0.213   6.248
 3570SOL    HW211610   4.858   0.270   6.305
 3571SOL     OW11611   0.838   5.060   0.130
 3571SOL    HW111612   0.871   5.138   0.076
 3571SOL    HW211613   0.892   5.052   0.213
 3572SOL     OW11614   5.481   4.336   3.151
 3572SOL    HW111615   5.574   4.343   3.115
 3572SOL    HW211616   5.426   4.278   3.091
 3573SOL     OW11617   0.555   4.643   3.466
 3573SOL    HW111618   0.464   4.617   3.435
 3573SOL    HW211619   0.552   4.664   3.564
 3574SOL     OW11620   0.517   4.196   0.465
 3574SOL    HW111621   0.612   4.195   0.434
 3574SOL    HW211622   0.494   4.109   0.509
 3575SOL     OW11623   5.107   4.893   2.725
 3575SOL    HW111624   5.014   4.892   2.761
 3575SOL    HW211625   5.118   4.817   2.661
 3576SOL     OW11626   1.968   1.649   5.437
 3576SOL    HW111627   1.882   1.679   5.479
 3576SOL    HW211628   1.989   1.708   5.359
 3577SOL     OW11629   1.303   2.574   6.263
 3577SOL    HW111630   1.209   2.577   6.296
 3577SOL    HW211631   1.321   2.486   6.219
 3578SOL     OW11632   3.226   2.282   0.476
 3578SOL    HW111633   3.210   2.350   0.548
 3578SOL    HW211634   3.145   2.223   0.469
 3579SOL     OW11635   6.265   3.583   4.677
 3579SOL    HW111636   6.222   3.550   4.762
 3579SOL    HW211637   6.198   3.634   4.623
 3580SOL     OW11638   6.262   2.759   1.153
 3580SOL    HW111639   6.298   2.669   1.128
 3580SOL    HW211640   6.294   2.784   1.244
 3581SOL     OW11641   0.398   6.092   3.651
 3581SOL    HW111642   0.366   6.067   3.743
 3581SOL    HW211643   0.424   6.189   3.650
 3582SOL     OW11644   0.979   2.162   5.692
 3582SOL    HW111645   0.974   2.196   5.598
 3582SOL    HW211646   0.977   2.062   5.692
 3583SOL     OW11647   1.319   3.592   6.175
 3583SOL    HW111648   1.412   3.557   6.184
 3583SOL    HW211649   1.322   3.682   6.131
 3584SOL     OW11650   6.116   5.285   6.814
 3584SOL    HW111651   6.191   5.346   6.789
 3584SOL    HW211652   6.150   5.212   6.874
 3585SOL     OW11653   4.436   6.223   5.093
 3585SOL    HW111654   4.491   6.153   5.047
 3585SOL    HW211655   4.485   6.258   5.172
 3586SOL     OW11656   0.424   2.399   5.236
 3586SOL    HW111657   0.391   2.406   5.330
 3586SOL    HW211658   0.517   2.436   5.230
 3587SOL     OW11659   2.736   5.218   6.388
 3587SOL    HW111660   2.727   5.188   6.293
 3587SOL    HW211661   2.680   5.300   6.402
 3588SOL     OW11662   1.031   3.022   4.941
 3588SOL    HW111663   1.106   2.983   4.887
 3588SOL    HW211664   1.059   3.027   5.037
 3589SOL     OW11665   4.123   2.221   4.814
 3589SOL    HW111666   4.163   2.253   4.728
 3589SOL    HW211667   4.136   2.290   4.885
 3590SOL     OW11668   1.456   2.851   6.560
 3590SOL    HW111669   1.501   2.847   6.471
 3590SOL    HW211670   1.474   2.766   6.609
 3591SOL     OW11671   4.895   3.500   6.796
 3591SOL    HW111672   4.940   3.419   6.833
 3591SOL    HW211673   4.831   3.473   6.724
 3592SOL     OW11674   6.460   4.300   1.820
 3592SOL    HW111675   6.553   4.270   1.842
 3592SOL    HW211676   6.421   4.349   1.897
 3593SOL     OW11677   1.912   5.778   4.776
 3593SOL    HW111678   1.964   5.861   4.798
 3593SOL    HW211679   1.871   5.741   4.859
 3594SOL     OW11680   4.565   0.559   3.225
 3594SOL    HW111681   4.556   0.585   3.129
 3594SOL    HW211682   4.481   0.584   3.274
 3595SOL     OW11683   2.522   5.780   0.065
 3595SOL    HW111684   2.507   5.832   7.003
 3595SOL    HW211685   2.434   5.747   0.100
 3596SOL     OW11686   6.727   2.256   3.304
 3596SOL    HW111687   6.759   2.208   3.222
 3596SOL    HW211688   6.688   2.190   3.368
 3597SOL     OW11689   2.332   1.724   4.960
 3597SOL    HW111690   2.390   1.793   4.917
 3597SOL    HW211691   2.389   1.664   5.016
 3598SOL     OW11692   1.209   6.128   6.454
 3598SOL    HW111693   1.182   6.212   6.408
 3598SOL    HW211694   1.187   6.049   6.396
 3599SOL     OW11695   0.686   1.988   5.542
 3599SOL    HW111696   0.747   2.052   5.496
 3599SOL    HW211697   0.623   2.039   5.601
 3600SOL     OW11698   1.021   3.614   0.199
 3600SOL    HW111699   0.992   3.587   0.291
 3600SOL    HW211700   0.941   3.620   0.139
 3601SOL     OW11701   5.674   4.980   6.728
 3601SOL    HW111702   5.687   4.895   6.778
 3601SOL    HW211703   5.740   5.048   6.760
 3602SOL     OW11704   1.366   2.439   0.635
 3602SOL    HW111705   1.452   2.489   0.634
 3602SOL    HW211706   1.364   2.375   0.558
 3603SOL     OW11707   3.297   0.184   3.731
 3603SOL    HW111708   3.386   0.178   3.686
 3603SOL    HW211709   3.228   0.135   3.678
 3604SOL     OW11710   6.950   5.103   3.102
 3604SOL    HW111711   6.988   5.096   3.194
 3604SOL    HW211712   7.014   5.153   3.043
 3605SOL     OW11713   5.650   4.035   4.904
 3605SOL    HW111714   5.731   3.994   4.861
 3605SOL    HW211715   5.569   4.013   4.850
 3606SOL     OW11716   0.037   6.375   5.575
 3606SOL    HW111717   0.071   6.333   5.659
 3606SOL    HW211718   0.108   6.372   5.505
 3607SOL     OW11719   5.369   6.070   1.301
 3607SOL    HW111720   5.459   6.112   1.286
 3607SOL    HW211721   5.333   6.038   1.214
 3608SOL     OW11722   6.487   1.972   3.457
 3608SOL    HW111723   6.485   1.924   3.369
 3608SOL    HW211724   6.402   2.023   3.469
 3609SOL     OW11725   0.650   0.736   4.303
 3609SOL    HW111726   0.714   0.659   4.306
 3609SOL    HW211727   0.664   0.789   4.220
 3610SOL     OW11728   1.419   7.016   5.927
 3610SOL    HW111729   1.444   6.970   5.841
 3610SOL    HW211730   1.466   6.971   6.003
 3611SOL     OW11731   4.784   6.038   5.985
 3611SOL    HW111732   4.776   6.098   5.905
 3611SOL    HW211733   4.879   6.036   6.016
 3612SOL     OW11734   6.076   6.837   6.836
 3612SOL    HW111735   6.172   6.864   6.833
 3612SOL    HW211736   6.069   6.738   6.840
 3613SOL     OW11737   4.863   5.454   2.031
 3613SOL    HW111738   4.863   5.451   1.931
 3613SOL    HW211739   4.925   5.525   2.062
 3614SOL     OW11740   4.001   3.532   2.007
 3614SOL    HW111741   3.921   3.503   2.060
 3614SOL    HW211742   4.070   3.569   2.069
 3615SOL     OW11743   5.374   5.766   0.283
 3615SOL    HW111744   5.348   5.744   0.189
 3615SOL    HW211745   5.318   5.841   0.317
 3616SOL     OW11746   0.713   3.313   6.057
 3616SOL    HW111747   0.739   3.376   6.130
 3616SOL    HW211748   0.795   3.268   6.020
 3617SOL     OW11749   3.852   1.395   6.335
 3617SOL    HW111750   3.947   1.424   6.351
 3617SOL    HW211751   3.812   1.364   6.422
 3618SOL     OW11752   2.460   1.870   5.524
 3618SOL    HW111753   2.446   1.970   5.528
 3618SOL    HW211754   2.423   1.835   5.437
 3619SOL     OW11755   5.366   2.712   4.071
 3619SOL    HW111756   5.401   2.805   4.079
 3619SOL    HW211757   5.284   2.702   4.127
 3620SOL     OW11758   6.455   6.159   6.016
 3620SOL    HW111759   6.456   6.213   5.931
 3620SOL    HW211760   6.485   6.066   5.996
 3621SOL     OW11761   3.786   3.065   5.581
 3621SOL    HW111762   3.755   3.102   5.668
 3621SOL    HW211763   3.721   2.996   5.549
 3622SOL     OW11764   1.655   1.661   4.699
 3622SOL    HW111765   1.706   1.747   4.699
 3622SOL    HW211766   1.562   1.678   4.730
 3623SOL     OW11767   6.327   5.639   4.500
 3623SOL    HW111768   6.285   5.548   4.491
 3623SOL    HW211769   6.406   5.633   4.560
 3624SOL     OW11770   2.225   5.989   1.738
 3624SOL    HW111771   2.262   5.927   1.668
 3624SOL    HW211772   2.274   6.076   1.735
 3625SOL     OW11773   5.717   3.300   6.740
 3625SOL    HW111774   5.700   3.345   6.827
 3625SOL    HW211775   5.746   3.205   6.755
 3626SOL     OW11776   1.047   3.473   6.232
 3626SOL    HW111777   1.030   3.376   6.249
 3626SOL    HW211778   1.145   3.491   6.234
 3627SOL     OW11779   3.476   2.876   3.403
 3627SOL    HW111780   3.406   2.946   3.392
 3627SOL    HW211781   3.493   2.832   3.315
 3628SOL     OW11782   1.326   1.293   1.848
 3628SOL    HW111783   1.364   1.202   1.861
 3628SOL    HW211784   1.314   1.311   1.750
 3629SOL     OW11785   6.732   2.301   5.129
 3629SOL    HW111786   6.779   2.241   5.064
 3629SOL    HW211787   6.799   2.358   5.176
 3630SOL     OW11788   4.871   2.983   3.844
 3630SOL    HW111789   4.869   3.082   3.856
 3630SOL    HW211790   4.955   2.957   3.797
 3631SOL     OW11791   1.766   0.049   3.919
 3631SOL    HW111792   1.774   0.094   3.830
 3631SOL    HW211793   1.839   0.082   3.979
 3632SOL     OW11794   4.899   6.298   1.613
 3632SOL    HW111795   4.963   6.370   1.640
 3632SOL    HW211796   4.867   6.316   1.520
 3633SOL     OW11797   3.562   1.774   5.607
 3633SOL    HW111798   3.626   1.847   5.627
 3633SOL    HW211799   3.476   1.814   5.574
 3634SOL     OW11800   0.678   5.353   4.872
 3634SOL    HW111801   0.726   5.409   4.940
 3634SOL    HW211802   0.581   5.349   4.895
 3635SOL     OW11803   2.851   6.867   5.938
 3635SOL    HW111804   2.768   6.912   5.905
 3635SOL    HW211805   2.931   6.907   5.894
 3636SOL     OW11806   0.208   5.424   0.125
 3636SOL    HW111807   0.214   5.364   0.204
 3636SOL    HW211808   0.235   5.517   0.150
 3637SOL     OW11809   6.746   1.860   1.735
 3637SOL    HW111810   6.826   1.854   1.676
 3637SOL    HW211811   6.677   1.917   1.693
 3638SOL     OW11812   0.788   4.412   4.441
 3638SOL    HW111813   0.694   4.430   4.411
 3638SOL    HW211814   0.825   4.334   4.389
 3639SOL     OW11815   3.485   4.020   0.816
 3639SOL    HW111816   3.401   4.017   0.762
 3639SOL    HW211817   3.557   4.063   0.762
 3640SOL     OW11818   4.002   0.877   0.644
 3640SOL    HW111819   4.071   0.813   0.678
 3640SOL    HW211820   3.940   0.829   0.583
 3641SOL     OW11821   5.323   3.270   3.016
 3641SOL    HW111822   5.322   3.219   2.930
 3641SOL    HW211823   5.390   3.229   3.079
 3642SOL     OW11824   5.164   1.067   0.194
 3642SOL    HW111825   5.130   1.161   0.193
 3642SOL    HW211826   5.214   1.049   0.109
 3643SOL     OW11827   2.476   5.936   5.097
 3643SOL    HW111828   2.538   5.873   5.051
 3643SOL    HW211829   2.524   6.022   5.115
 3644SOL     OW11830   6.885   1.124   1.732
 3644SOL    HW111831   6.959   1.103   1.668
 3644SOL    HW211832   6.853   1.217   1.717
 3645SOL     OW11833   0.078   2.852   3.340
 3645SOL    HW111834   7.003   2.878   3.327
 3645SOL    HW211835   0.124   2.920   3.397
 3646SOL     OW11836   7.011   4.404   6.403
 3646SOL    HW111837   0.021   4.492   6.367
 3646SOL    HW211838   6.912   4.397   6.392
 3647SOL     OW11839   2.604   4.138   6.571
 3647SOL    HW111840   2.643   4.076   6.639
 3647SOL    HW211841   2.550   4.208   6.617
 3648SOL     OW11842   3.485   5.117   2.438
 3648SOL    HW111843   3.559   5.053   2.420
 3648SOL    HW211844   3.400   5.067   2.454
 3649SOL     OW11845   4.618   2.810   1.728
 3649SOL    HW111846   4.647   2.886   1.787
 3649SOL    HW211847   4.568   2.743   1.783
 3650SOL     OW11848   0.473   5.004   0.915
 3650SOL    HW111849   0.474   4.999   1.015
 3650SOL    HW211850   0.534   5.078   0.886
 3651SOL     OW11851   0.163   6.921   4.386
 3651SOL    HW111852   0.205   6.972   4.311
 3651SOL    HW211853   0.148   6.826   4.357
 3652SOL     OW11854   5.692   6.149   3.280
 3652SOL    HW111855   5.603   6.190   3.258
 3652SOL    HW211856   5.756   6.221   3.305
 3653SOL     OW11857   6.955   1.480   4.379
 3653SOL    HW111858   6.881   1.451   4.441
 3653SOL    HW211859   0.022   1.468   4.424
 3654SOL     OW11860   2.539   4.625   1.217
 3654SOL    HW111861   2.470   4.569   1.263
 3654SOL    HW211862   2.600   4.664   1.285
 3655SOL     OW11863   1.510   6.432   4.170
 3655SOL    HW111864   1.427   6.377   4.161
 3655SOL    HW211865   1.582   6.392   4.113
 3656SOL     OW11866   1.010   3.818   1.956
 3656SOL    HW111867   0.942   3.747   1.971
 3656SOL    HW211868   1.008   3.883   2.032
 3657SOL     OW11869   4.962   5.166   5.924
 3657SOL    HW111870   4.959   5.255   5.881
 3657SOL    HW211871   4.869   5.131   5.938
 3658SOL     OW11872   1.788   5.389   5.414
 3658SOL    HW111873   1.878   5.377   5.374
 3658SOL    HW211874   1.757   5.302   5.452
 3659SOL     OW11875   1.335   3.398   4.654
 3659SOL    HW111876   1.237   3.381   4.654
 3659SOL    HW211877   1.352   3.496   4.662
 3660SOL     OW11878   5.911   6.988   3.416
 3660SOL    HW111879   5.873   0.060   3.419
 3660SOL    HW211880   5.849   6.928   3.366
 3661SOL     OW11881   5.414   1.571   5.411
 3661SOL    HW111882   5.385   1.528   5.496
 3661SOL    HW211883   5.513   1.588   5.415
 3662SOL     OW11884   4.270   6.349   3.991
 3662SOL    HW111885   4.303   6.411   3.920
 3662SOL    HW211886   4.177   6.374   4.018
 3663SOL     OW11887   1.861   1.834   0.996
 3663SOL    HW111888   1.841   1.930   0.978
 3663SOL    HW211889   1.848   1.815   1.094
 3664SOL     OW11890   5.236   2.484   1.781
 3664SOL    HW111891   5.205   2.411   1.840
 3664SOL    HW211892   5.319   2.456   1.733
 3665SOL     OW11893   2.035   5.911   5.186
 3665SOL    HW111894   2.075   6.003   5.186
 3665SOL    HW211895   1.935   5.918   5.187
 3666SOL     OW11896   1.030   4.492   3.066
 3666SOL    HW111897   1.064   4.452   3.151
 3666SOL    HW211898   1.061   4.437   2.989
 3667SOL     OW11899   0.530   0.915   2.618
 3667SOL    HW111900   0.513   0.893   2.523
 3667SOL    HW211901   0.468   0.862   2.677
 3668SOL     OW11902   1.742   1.152   1.967
 3668SOL    HW111903   1.800   1.181   2.042
 3668SOL    HW211904   1.756   1.213   1.889
 3669SOL     OW11905   4.807   0.708   3.798
 3669SOL    HW111906   4.768   0.622   3.765
 3669SOL    HW211907   4.872   0.689   3.871
 3670SOL     OW11908   2.789   5.071   0.505
 3670SOL    HW111909   2.691   5.052   0.502
 3670SOL    HW211910   2.836   5.018   0.434
 3671SOL     OW11911   6.110   1.306   3.899
 3671SOL    HW111912   6.125   1.397   3.861
 3671SOL    HW211913   6.197   1.257   3.906
 3672SOL     OW11914   5.869   1.791   1.168
 3672SOL    HW111915   5.840   1.796   1.264
 3672SOL    HW211916   5.967   1.812   1.162
 3673SOL     OW11917   4.160   6.071   6.606
 3673SOL    HW111918   4.128   6.075   6.511
 3673SOL    HW211919   4.256   6.098   6.610
 3674SOL     OW11920   0.899   6.840   5.022
 3674SOL    HW111921   0.874   6.774   5.093
 3674SOL    HW211922   0.851   6.817   4.937
 3675SOL     OW11923   2.102   3.251   4.675
 3675SOL    HW111924   2.018   3.306   4.685
 3675SOL    HW211925   2.135   3.225   4.766
 3676SOL     OW11926   5.089   4.503   3.367
 3676SOL    HW111927   5.130   4.594   3.370
 3676SOL    HW211928   5.077   4.474   3.272
 3677SOL     OW11929   2.226   5.481   3.552
 3677SOL    HW111930   2.187   5.546   3.488
 3677SOL    HW211931   2.289   5.528   3.614
 3678SOL     OW11932   0.771   2.205   5.244
 3678SOL    HW111933   0.673   2.221   5.258
 3678SOL    HW211934   0.809   2.277   5.186
 3679SOL     OW11935   0.772   0.349   3.531
 3679SOL    HW111936   0.826   0.281   3.482
 3679SOL    HW211937   0.832   0.415   3.574
 3680SOL     OW11938   5.734   2.752   3.831
 3680SOL    HW111939   5.655   2.785   3.779
 3680SOL    HW211940   5.798   2.706   3.768
 3681SOL     OW11941   0.398   0.114   6.969
 3681SOL    HW111942   0.354   0.189   6.921
 3681SOL    HW211943   0.487   0.143   7.003
 3682SOL     OW11944   6.044   2.305   0.067
 3682SOL    HW111945   6.075   2.400   0.057
 3682SOL    HW211946   6.124   2.245   0.076
 3683SOL     OW11947   6.547   0.272   2.647
 3683SOL    HW111948   6.596   0.277   2.734
 3683SOL    HW211949   6.458   0.315   2.656
 3684SOL     OW11950   2.097   4.834   0.160
 3684SOL    HW111951   2.039   4.786   0.094
 3684SOL    HW211952   2.039   4.882   0.226
 3685SOL     OW11953   6.736   6.380   6.469
 3685SOL    HW111954   6.727   6.392   6.370
 3685SOL    HW211955   6.832   6.393   6.495
 3686SOL     OW11956   5.825   5.843   3.907
 3686SOL    HW111957   5.732   5.863   3.937
 3686SOL    HW211958   5.825   5.761   3.851
 3687SOL     OW11959   3.471   5.902   5.326
 3687SOL    HW111960   3.460   5.804   5.345
 3687SOL    HW211961   3.387   5.937   5.285
 3688SOL     OW11962   6.479   3.833   6.349
 3688SOL    HW111963   6.571   3.858   6.319
 3688SOL    HW211964   6.424   3.915   6.361
 3689SOL     OW11965   2.324   0.262   6.040
 3689SOL    HW111966   2.404   0.307   6.080
 3689SOL    HW211967   2.354   0.178   5.995
 3690SOL     OW11968   5.081   5.521   0.296
 3690SOL    HW111969   5.138   5.459   0.242
 3690SOL    HW211970   4.985   5.497   0.284
 3691SOL     OW11971   2.738   2.381   6.930
 3691SOL    HW111972   2.673   2.350   7.000
 3691SOL    HW211973   2.724   2.479   6.914
 3692SOL     OW11974   0.132   5.499   5.530
 3692SOL    HW111975   0.110   5.482   5.434
 3692SOL    HW211976   0.222   5.460   5.551
 3693SOL     OW11977   1.945   3.887   2.790
 3693SOL    HW111978   1.986   3.961   2.843
 3693SOL    HW211979   1.845   3.892   2.795
 3694SOL     OW11980   1.406   6.150   2.724
 3694SOL    HW111981   1.473   6.191   2.663
 3694SOL    HW211982   1.376   6.063   2.687
 3695SOL     OW11983   6.774   2.819   1.593
 3695SOL    HW111984   6.741   2.908   1.564
 3695SOL    HW211985   6.714   2.747   1.558
 3696SOL     OW11986   3.709   5.589   5.596
 3696SOL    HW111987   3.693   5.577   5.498
 3696SOL    HW211988   3.700   5.686   5.620
 3697SOL     OW11989   0.345   6.565   2.996
 3697SOL    HW111990   0.269   6.621   2.963
 3697SOL    HW211991   0.315   6.470   3.007
 3698SOL     OW11992   2.268   1.157   4.146
 3698SOL    HW111993   2.294   1.166   4.242
 3698SOL    HW211994   2.173   1.187   4.134
 3699SOL     OW11995   0.996   1.871   3.797
 3699SOL    HW111996   0.970   1.964   3.822
 3699SOL    HW211997   1.037   1.825   3.877
 3700SOL     OW11998   0.840   6.535   4.992
 3700SOL    HW111999   0.909   6.556   5.061
 3700SOL    HW212000   0.844   6.438   4.969
 3701SOL     OW12001   1.710   0.359   3.995
 3701SOL    HW112002   1.789   0.299   4.006
 3701SOL    HW212003   1.630   0.306   3.967
 3702SOL     OW12004   5.980   6.913   3.058
 3702SOL    HW112005   6.070   6.871   3.072
 3702SOL    HW212006   5.952   6.899   2.963
 3703SOL     OW12007   6.144   1.126   5.300
 3703SOL    HW112008   6.108   1.108   5.209
 3703SOL    HW212009   6.095   1.069   5.366
 3704SOL     OW12010   3.714   1.899   1.969
 3704SOL    HW112011   3.633   1.841   1.958
 3704SOL    HW212012   3.685   1.995   1.976
 3705SOL     OW12013   4.090   5.204   3.721
 3705SOL    HW112014   4.078   5.298   3.752
 3705SOL    HW212015   4.031   5.187   3.642
 3706SOL     OW12016   1.752   3.275   6.533
 3706SOL    HW112017   1.805   3.195   6.504
 3706SOL    HW212018   1.671   3.245   6.583
 3707SOL     OW12019   5.579   4.661   4.550
 3707SOL    HW112020   5.510   4.731   4.562
 3707SOL    HW212021   5.536   4.571   4.548
 3708SOL     OW12022   0.139   0.686   6.423
 3708SOL    HW112023   0.049   0.668   6.384
 3708SOL    HW212024   0.187   0.600   6.441
 3709SOL     OW12025   3.107   0.795   1.083
 3709SOL    HW112026   3.047   0.787   1.003
 3709SOL    HW212027   3.191   0.842   1.057
 3710SOL     OW12028   6.525   5.054   5.949
 3710SOL    HW112029   6.587   5.120   5.992
 3710SOL    HW212030   6.439   5.053   5.999
 3711SOL     OW12031   0.641   0.331   4.288
 3711SOL    HW112032   0.606   0.242   4.257
 3711SOL    HW212033   0.611   0.348   4.382
 3712SOL     OW12034   0.428   5.709   0.010
 3712SOL    HW112035   0.377   5.627   7.003
 3712SOL    HW212036   0.508   5.720   6.971
 3713SOL     OW12037   0.833   6.215   5.261
 3713SOL    HW112038   0.905   6.150   5.284
 3713SOL    HW212039   0.861   6.270   5.182
 3714SOL     OW12040   5.147   5.816   5.460
 3714SOL    HW112041   5.198   5.848   5.540
 3714SOL    HW212042   5.208   5.763   5.401
 3715SOL     OW12043   0.100   4.116   2.924
 3715SOL    HW112044   0.026   4.123   2.857
 3715SOL    HW212045   0.145   4.027   2.914
 3716SOL     OW12046   6.372   0.315   5.206
 3716SOL    HW112047   6.298   0.283   5.147
 3716SOL    HW212048   6.342   0.311   5.302
 3717SOL     OW12049   6.242   6.605   6.563
 3717SOL    HW112050   6.219   6.703   6.559
 3717SOL    HW212051   6.166   6.551   6.528
 3718SOL     OW12052   1.564   0.617   6.982
 3718SOL    HW112053   1.629   0.650   0.030
 3718SOL    HW212054   1.542   0.691   6.918
 3719SOL     OW12055   5.558   4.311   1.321
 3719SOL    HW112056   5.519   4.224   1.289
 3719SOL    HW212057   5.655   4.314   1.298
 3720SOL     OW12058   5.662   2.507   6.469
 3720SOL    HW112059   5.649   2.552   6.380
 3720SOL    HW212060   5.615   2.419   6.469
 3721SOL     OW12061   6.271   4.377   1.327
 3721SOL    HW112062   6.370   4.369   1.327
 3721SOL    HW212063   6.241   4.419   1.241
 3722SOL     OW12064   6.735   5.821   0.789
 3722SOL    HW112065   6.745   5.726   0.759
 3722SOL    HW212066   6.821   5.869   0.776
 3723SOL     OW12067   6.076   5.466   1.687
 3723SOL    HW112068   6.093   5.537   1.756
 3723SOL    HW212069   6.000   5.494   1.629
 3724SOL     OW12070   1.688   4.108   4.812
 3724SOL    HW112071   1.710   4.202   4.788
 3724SOL    HW212072   1.742   4.046   4.755
 3725SOL     OW12073   5.779   5.400   0.646
 3725SOL    HW112074   5.852   5.463   0.673
 3725SOL    HW212075   5.801   5.308   0.677
 3726SOL     OW12076   5.484   3.785   0.652
 3726SOL    HW112077   5.406   3.847   0.639
 3726SOL    HW212078   5.471   3.703   0.597
 3727SOL     OW12079   0.041   2.465   5.076
 3727SOL    HW112080   0.050   2.502   4.984
 3727SOL    HW212081   0.013   2.538   5.139
 3728SOL     OW12082   1.838   3.490   6.836
 3728SOL    HW112083   1.863   3.494   6.739
 3728SOL    HW212084   1.742   3.515   6.847
 3729SOL     OW12085   1.004   2.579   3.939
 3729SOL    HW112086   1.054   2.493   3.954
 3729SOL    HW212087   0.924   2.562   3.882
 3730SOL     OW12088   2.561   4.939   6.003
 3730SOL    HW112089   2.504   5.003   6.054
 3730SOL    HW212090   2.549   4.954   5.905
 3731SOL     OW12091   0.151   1.468   0.346
 3731SOL    HW112092   0.115   1.544   0.292
 3731SOL    HW212093   0.132   1.485   0.443
 3732SOL     OW12094   2.913   1.103   0.277
 3732SOL    HW112095   2.876   1.177   0.220
 3732SOL    HW212096   2.874   1.016   0.247
 3733SOL     OW12097   1.758   3.759   2.534
 3733SOL    HW112098   1.839   3.714   2.495
 3733SOL    HW212099   1.758   3.748   2.633
 3734SOL     OW12100   5.235   1.186   2.250
 3734SOL    HW112101   5.152   1.219   2.295
 3734SOL    HW212102   5.311   1.187   2.315
 3735SOL     OW12103   1.867   0.765   3.785
 3735SOL    HW112104   1.907   0.682   3.822
 3735SOL    HW212105   1.799   0.741   3.715
 3736SOL     OW12106   0.321   2.371   0.894
 3736SOL    HW112107   0.333   2.466   0.923
 3736SOL    HW212108   0.411   2.330   0.876
 3737SOL     OW12109   4.886   0.504   3.516
 3737SOL    HW112110   4.941   0.478   3.596
 3737SOL    HW212111   4.790   0.508   3.542
 3738SOL     OW12112   6.903   6.648   2.055
 3738SOL    HW112113   6.811   6.687   2.046
 3738SOL    HW212114   6.901   6.572   2.119
 3739SOL     OW12115   2.655   4.407   1.709
 3739SOL    HW112116   2.557   4.409   1.729
 3739SOL    HW212117   2.705   4.454   1.781
 3740SOL     OW12118   5.369   0.349   0.612
 3740SOL    HW112119   5.418   0.269   0.647
 3740SOL    HW212120   5.288   0.318   0.562
 3741SOL     OW12121   5.055   3.039   0.442
 3741SOL    HW112122   5.095   3.128   0.465
 3741SOL    HW212123   5.125   2.968   0.448
 3742SOL     OW12124   3.056   1.391   6.892
 3742SOL    HW112125   3.146   1.371   6.930
 3742SOL    HW212126   3.066   1.452   6.813
 3743SOL     OW12127   5.483   3.282   1.047
 3743SOL    HW112128   5.403   3.341   1.032
 3743SOL    HW212129   5.548   3.295   0.972
 3744SOL     OW12130   1.282   5.737   2.667
 3744SOL    HW112131   1.327   5.745   2.756
 3744SOL    HW212132   1.344   5.768   2.596
 3745SOL     OW12133   3.988   4.836   1.622
 3745SOL    HW112134   3.934   4.879   1.549
 3745SOL    HW212135   3.979   4.737   1.616
 3746SOL     OW12136   5.552   0.958   2.970
 3746SOL    HW112137   5.562   1.003   2.881
 3746SOL    HW212138   5.570   0.861   2.960
 3747SOL     OW12139   2.836   6.397   5.228
 3747SOL    HW112140   2.775   6.476   5.238
 3747SOL    HW212141   2.917   6.409   5.286
 3748SOL     OW12142   6.089   1.394   1.106
 3748SOL    HW112143   5.994   1.370   1.123
 3748SOL    HW212144   6.094   1.470   1.042
 3749SOL     OW12145   1.609   5.751   3.536
 3749SOL    HW112146   1.692   5.806   3.544
 3749SOL    HW212147   1.538   5.788   3.597
 3750SOL     OW12148   1.170   4.139   0.575
 3750SOL    HW112149   1.145   4.162   0.670
 3750SOL    HW212150   1.144   4.044   0.557
 3751SOL     OW12151   0.505   3.508   1.913
 3751SOL    HW112152   0.422   3.515   1.858
 3751SOL    HW212153   0.526   3.412   1.929
 3752SOL     OW12154   5.140   0.553   6.763
 3752SOL    HW112155   5.068   0.575   6.828
 3752SOL    HW212156   5.222   0.521   6.812
 3753SOL     OW12157   6.371   6.308   4.525
 3753SOL    HW112158   6.420   6.372   4.466
 3753SOL    HW212159   6.431   6.232   4.548
 3754SOL     OW12160   2.527   1.111   1.182
 3754SOL    HW112161   2.534   1.017   1.151
 3754SOL    HW212162   2.446   1.121   1.240
 3755SOL     OW12163   4.942   4.406   4.301
 3755SOL    HW112164   4.901   4.344   4.234
 3755SOL    HW212165   4.886   4.408   4.384
 3756SOL     OW12166   2.929   5.083   5.929
 3756SOL    HW112167   2.837   5.104   5.962
 3756SOL    HW212168   2.955   4.991   5.959
 3757SOL     OW12169   5.974   5.693   0.825
 3757SOL    HW112170   6.058   5.700   0.773
 3757SOL    HW212171   5.978   5.753   0.905
 3758SOL     OW12172   2.950   1.636   4.949
 3758SOL    HW112173   2.960   1.735   4.939
 3758SOL    HW212174   2.856   1.615   4.975
 3759SOL     OW12175   4.361   6.935   6.485
 3759SOL    HW112176   4.336   6.927   6.581
 3759SOL    HW212177   4.292   6.891   6.428
 3760SOL     OW12178   1.024   1.516   4.470
 3760SOL    HW112179   0.926   1.517   4.454
 3760SOL    HW212180   1.072   1.520   4.382
 3761SOL     OW12181   0.455   1.086   5.147
 3761SOL    HW112182   0.542   1.122   5.113
 3761SOL    HW212183   0.468   1.049   5.239
 3762SOL     OW12184   1.283   4.685   1.211
 3762SOL    HW112185   1.363   4.715   1.159
 3762SOL    HW212186   1.208   4.750   1.199
 3763SOL     OW12187   6.869   3.406   0.327
 3763SOL    HW112188   6.967   3.400   0.311
 3763SOL    HW212189   6.831   3.484   0.278
 3764SOL     OW12190   1.617   0.108   2.389
 3764SOL    HW112191   1.698   0.151   2.428
 3764SOL    HW212192   1.535   0.154   2.424
 3765SOL     OW12193   5.173   1.367   0.769
 3765SOL    HW112194   5.089   1.401   0.813
 3765SOL    HW212195   5.220   1.443   0.724
 3766SOL     OW12196   1.927   1.816   4.086
 3766SOL    HW112197   1.834   1.834   4.054
 3766SOL    HW212198   1.924   1.772   4.176
 3767SOL     OW12199   2.290   4.282   0.429
 3767SOL    HW112200   2.253   4.332   0.351
 3767SOL    HW212201   2.390   4.279   0.423
 3768SOL     OW12202   0.580   6.607   4.254
 3768SOL    HW112203   0.551   6.662   4.332
 3768SOL    HW212204   0.501   6.560   4.215
 3769SOL     OW12205   6.058   6.002   4.556
 3769SOL    HW112206   6.043   5.909   4.589
 3769SOL    HW212207   5.970   6.048   4.546
 3770SOL     OW12208   1.145   0.685   6.307
 3770SOL    HW112209   1.132   0.595   6.349
 3770SOL    HW212210   1.243   0.706   6.305
 3771SOL     OW12211   5.260   3.218   0.227
 3771SOL    HW112212   5.286   3.250   0.319
 3771SOL    HW212213   5.192   3.281   0.188
 3772SOL     OW12214   0.437   0.913   0.113
 3772SOL    HW112215   0.435   0.922   0.213
 3772SOL    HW212216   0.346   0.884   0.081
 3773SOL     OW12217   6.049   3.530   5.402
 3773SOL    HW112218   6.138   3.552   5.441
 3773SOL    HW212219   6.048   3.435   5.372
 3774SOL     OW12220   6.189   5.617   1.166
 3774SOL    HW112221   6.181   5.639   1.263
 3774SOL    HW212222   6.171   5.699   1.112
 3775SOL     OW12223   4.294   5.339   2.919
 3775SOL    HW112224   4.233   5.351   2.998
 3775SOL    HW212225   4.384   5.308   2.951
 3776SOL     OW12226   4.199   1.762   6.816
 3776SOL    HW112227   4.141   1.827   6.767
 3776SOL    HW212228   4.169   1.755   6.911
 3777SOL     OW12229   3.547   5.490   3.198
 3777SOL    HW112230   3.531   5.405   3.249
 3777SOL    HW212231   3.475   5.502   3.130
 3778SOL     OW12232   3.119   5.220   2.366
 3778SOL    HW112233   3.177   5.282   2.419
 3778SOL    HW212234   3.171   5.183   2.289
 3779SOL     OW12235   0.595   5.006   0.236
 3779SOL    HW112236   0.687   5.011   0.198
 3779SOL    HW212237   0.557   4.915   0.220
 3780SOL     OW12238   5.771   4.935   5.050
 3780SOL    HW112239   5.796   4.842   5.077
 3780SOL    HW212240   5.673   4.948   5.060
 3781SOL     OW12241   0.730   6.879   4.302
 3781SOL    HW112242   0.714   6.925   4.390
 3781SOL    HW212243   0.794   6.803   4.316
 3782SOL     OW12244   2.449   0.120   3.031
 3782SOL    HW112245   2.525   0.072   2.987
 3782SOL    HW212246   2.387   0.155   2.960
 3783SOL     OW12247   5.808   5.266   4.075
 3783SOL    HW112248   5.741   5.290   4.004
 3783SOL    HW212249   5.762   5.251   4.162
 3784SOL     OW12250   5.098   2.867   2.908
 3784SOL    HW112251   5.100   2.958   2.866
 3784SOL    HW212252   5.180   2.817   2.882
 3785SOL     OW12253   1.543   3.408   5.719
 3785SOL    HW112254   1.555   3.471   5.642
 3785SOL    HW212255   1.530   3.315   5.684
 3786SOL     OW12256   2.404   5.253   3.555
 3786SOL    HW112257   2.338   5.302   3.497
 3786SOL    HW212258   2.496   5.266   3.518
 3787SOL     OW12259   6.568   1.721   2.803
 3787SOL    HW112260   6.557   1.803   2.746
 3787SOL    HW212261   6.665   1.703   2.816
 3788SOL     OW12262   7.013   4.624   4.800
 3788SOL    HW112263   6.973   4.687   4.733
 3788SOL    HW212264   6.955   4.620   4.881
 3789SOL     OW12265   0.454   3.594   4.498
 3789SOL    HW112266   0.378   3.619   4.438
 3789SOL    HW212267   0.421   3.533   4.570
 3790SOL     OW12268   1.275   4.466   5.727
 3790SOL    HW112269   1.303   4.377   5.764
 3790SOL    HW212270   1.190   4.456   5.675
 3791SOL     OW12271   4.825   0.965   6.074
 3791SOL    HW112272   4.827   1.051   6.125
 3791SOL    HW212273   4.731   0.937   6.060
 3792SOL     OW12274   1.206   2.078   3.424
 3792SOL    HW112275   1.224   2.094   3.327
 3792SOL    HW212276   1.276   2.124   3.479
 3793SOL     OW12277   4.709   6.682   1.778
 3793SOL    HW112278   4.773   6.713   1.708
 3793SOL    HW212279   4.670   6.762   1.824
 3794SOL     OW12280   1.792   2.450   1.097
 3794SOL    HW112281   1.701   2.425   1.065
 3794SOL    HW212282   1.832   2.374   1.148
 3795SOL     OW12283   4.899   5.955   1.096
 3795SOL    HW112284   4.858   5.937   1.185
 3795SOL    HW212285   4.828   5.961   1.026
 3796SOL     OW12286   3.323   2.075   2.465
 3796SOL    HW112287   3.231   2.078   2.426
 3796SOL    HW212288   3.323   2.123   2.553
 3797SOL     OW12289   0.819   3.589   2.396
 3797SOL    HW112290   0.743   3.586   2.331
 3797SOL    HW212291   0.784   3.571   2.488
 3798SOL     OW12292   2.806   5.202   3.705
 3798SOL    HW112293   2.770   5.186   3.613
 3798SOL    HW212294   2.734   5.184   3.773
 3799SOL     OW12295   6.081   2.416   3.786
 3799SOL    HW112296   6.023   2.336   3.775
 3799SOL    HW212297   6.112   2.447   3.696
 3800SOL     OW12298   5.547   2.551   3.970
 3800SOL    HW112299   5.607   2.613   3.920
 3800SOL    HW212300   5.485   2.603   4.029
 3801SOL     OW12301   5.724   6.564   1.487
 3801SOL    HW112302   5.692   6.578   1.393
 3801SOL    HW212303   5.695   6.641   1.544
 3802SOL     OW12304   1.251   2.321   1.724
 3802SOL    HW112305   1.157   2.285   1.729
 3802SOL    HW212306   1.315   2.251   1.755
 3803SOL     OW12307   4.100   3.214   2.182
 3803SOL    HW112308   4.189   3.194   2.222
 3803SOL    HW212309   4.053   3.283   2.237
 3804SOL     OW12310   5.001   1.250   3.928
 3804SOL    HW112311   4.977   1.239   3.831
 3804SOL    HW212312   5.042   1.341   3.942
 3805SOL     OW12313   1.790   2.669   1.306
 3805SOL    HW112314   1.842   2.639   1.385
 3805SOL    HW212315   1.805   2.606   1.230
 3806SOL     OW12316   3.948   3.675   5.708
 3806SOL    HW112317   3.864   3.621   5.700
 3806SOL    HW212318   3.926   3.765   5.747
 3807SOL     OW12319   1.746   5.711   2.759
 3807SOL    HW112320   1.779   5.655   2.835
 3807SOL    HW212321   1.719   5.801   2.793
 3808SOL     OW12322   4.568   0.738   0.536
 3808SOL    HW112323   4.573   0.648   0.493
 3808SOL    HW212324   4.514   0.732   0.620
 3809SOL     OW12325   5.467   2.383   1.669
 3809SOL    HW112326   5.500   2.455   1.608
 3809SOL    HW212327   5.529   2.375   1.747
 3810SOL     OW12328   4.764   2.714   3.786
 3810SOL    HW112329   4.718   2.670   3.863
 3810SOL    HW212330   4.784   2.809   3.810
 3811SOL     OW12331   0.699   5.779   4.795
 3811SOL    HW112332   0.743   5.820   4.874
 3811SOL    HW212333   0.616   5.831   4.772
 3812SOL     OW12334   4.522   5.109   5.340
 3812SOL    HW112335   4.582   5.029   5.332
 3812SOL    HW212336   4.561   5.174   5.405
 3813SOL     OW12337   4.198   3.006   0.649
 3813SOL    HW112338   4.170   2.972   0.738
 3813SOL    HW212339   4.124   2.993   0.583
 3814SOL     OW12340   6.289   6.878   6.006
 3814SOL    HW112341   6.361   6.946   5.987
 3814SOL    HW212342   6.325   6.786   5.991
 3815SOL     OW12343   3.379   1.822   0.642
 3815SOL    HW112344   3.467   1.774   0.643
 3815SOL    HW212345   3.394   1.919   0.621
 3816SOL     OW12346   1.022   5.617   6.397
 3816SOL    HW112347   1.029   5.717   6.387
 3816SOL    HW212348   0.928   5.588   6.381
 3817SOL     OW12349   4.976   3.741   2.551
 3817SOL    HW112350   4.958   3.826   2.602
 3817SOL    HW212351   4.931   3.746   2.462
 3818SOL     OW12352   6.526   0.899   6.659
 3818SOL    HW112353   6.549   0.809   6.622
 3818SOL    HW212354   6.488   0.956   6.586
 3819SOL     OW12355   5.260   5.407   2.158
 3819SOL    HW112356   5.206   5.450   2.231
 3819SOL    HW212357   5.224   5.315   2.141
 3820SOL     OW12358   5.463   0.113   3.553
 3820SOL    HW112359   5.545   0.112   3.609
 3820SOL    HW212360   5.420   0.023   3.555
 3821SOL     OW12361   2.422   1.801   1.877
 3821SOL    HW112362   2.336   1.851   1.867
 3821SOL    HW212363   2.498   1.864   1.859
 3822SOL     OW12364   2.179   0.541   0.919
 3822SOL    HW112365   2.160   0.445   0.899
 3822SOL    HW212366   2.270   0.549   0.959
 3823SOL     OW12367   3.287   3.538   6.693
 3823SOL    HW112368   3.360   3.493   6.642
 3823SOL    HW212369   3.199   3.524   6.647
 3824SOL     OW12370   0.478   3.163   0.439
 3824SOL    HW112371   0.571   3.171   0.476
 3824SOL    HW212372   0.415   3.215   0.497
 3825SOL     OW12373   0.205   5.358   0.518
 3825SOL    HW112374   0.195   5.457   0.526
 3825SOL    HW212375   0.249   5.322   0.600
 3826SOL     OW12376   1.230   3.962   6.790
 3826SOL    HW112377   1.148   3.999   6.745
 3826SOL    HW212378   1.203   3.898   6.861
 3827SOL     OW12379   1.773   1.315   1.765
 3827SOL    HW112380   1.818   1.347   1.681
 3827SOL    HW212381   1.750   1.394   1.822
 3828SOL     OW12382   3.451   3.590   2.956
 3828SOL    HW112383   3.478   3.679   2.990
 3828SOL    HW212384   3.446   3.525   3.032
 3829SOL     OW12385   1.526   5.031   2.480
 3829SOL    HW112386   1.426   5.038   2.481
 3829SOL    HW212387   1.554   4.935   2.484
 3830SOL     OW12388   0.702   0.872   5.276
 3830SOL    HW112389   0.763   0.890   5.199
 3830SOL    HW212390   0.637   0.800   5.250
 3831SOL     OW12391   4.910   2.544   2.588
 3831SOL    HW112392   4.917   2.544   2.489
 3831SOL    HW212393   4.841   2.611   2.616
 3832SOL     OW12394   6.227   0.904   2.738
 3832SOL    HW112395   6.176   0.954   2.808
 3832SOL    HW212396   6.191   0.927   2.647
 3833SOL     OW12397   0.379   6.630   6.476
 3833SOL    HW112398   0.363   6.723   6.444
 3833SOL    HW212399   0.372   6.566   6.400
 3834SOL     OW12400   4.075   4.779   1.297
 3834SOL    HW112401   3.978   4.752   1.292
 3834SOL    HW212402   4.119   4.731   1.373
 3835SOL     OW12403   3.980   5.688   4.847
 3835SOL    HW112404   3.884   5.665   4.837
 3835SOL    HW212405   4.015   5.725   4.760
 3836SOL     OW12406   1.051   4.217   6.178
 3836SOL    HW112407   1.145   4.248   6.165
 3836SOL    HW212408   1.050   4.140   6.242
 3837SOL     OW12409   4.482   4.865   6.340
 3837SOL    HW112410   4.478   4.782   6.284
 3837SOL    HW212411   4.400   4.871   6.397
 3838SOL     OW12412   1.038   3.752   4.295
 3838SOL    HW112413   0.999   3.660   4.287
 3838SOL    HW212414   1.094   3.772   4.214
 3839SOL     OW12415   5.417   0.990   3.238
 3839SOL    HW112416   5.451   0.996   3.144
 3839SOL    HW212417   5.422   0.895   3.269
 3840SOL     OW12418   2.701   0.975   6.340
 3840SOL    HW112419   2.750   0.890   6.360
 3840SOL    HW212420   2.762   1.052   6.358
 3841SOL     OW12421   6.957   3.382   4.214
 3841SOL    HW112422   6.985   3.476   4.234
 3841SOL    HW212423   6.896   3.350   4.286
 3842SOL     OW12424   2.159   2.742   1.513
 3842SOL    HW112425   2.247   2.694   1.513
 3842SOL    HW212426   2.137   2.770   1.420
 3843SOL     OW12427   6.054   4.962   2.216
 3843SOL    HW112428   6.099   4.938   2.302
 3843SOL    HW212429   6.122   4.969   2.143
 3844SOL     OW12430   0.931   3.203   5.993
 3844SOL    HW112431   0.941   3.104   5.993
 3844SOL    HW212432   0.997   3.243   5.929
 3845SOL     OW12433   2.945   3.648   5.715
 3845SOL    HW112434   2.967   3.660   5.618
 3845SOL    HW212435   2.852   3.679   5.732
 3846SOL     OW12436   0.217   5.344   3.972
 3846SOL    HW112437   0.304   5.358   3.925
 3846SOL    HW212438   0.151   5.303   3.908
 3847SOL     OW12439   5.241   1.462   4.295
 3847SOL    HW112440   5.301   1.500   4.365
 3847SOL    HW212441   5.200   1.536   4.242
 3848SOL     OW12442   4.771   5.538   3.125
 3848SOL    HW112443   4.857   5.588   3.115
 3848SOL    HW212444   4.785   5.443   3.096
 3849SOL     OW12445   1.538   0.976   6.120
 3849SOL    HW112446   1.497   1.009   6.035
 3849SOL    HW212447   1.617   1.034   6.143
 3850SOL     OW12448   2.300   3.705   1.422
 3850SOL    HW112449   2.393   3.708   1.385
 3850SOL    HW212450   2.289   3.624   1.479
 3851SOL     OW12451   1.195   4.684   2.510
 3851SOL    HW112452   1.100   4.668   2.484
 3851SOL    HW212453   1.255   4.666   2.431
 3852SOL     OW12454   4.294   6.155   3.769
 3852SOL    HW112455   4.256   6.197   3.851
 3852SOL    HW212456   4.391   6.137   3.781
 3853SOL     OW12457   1.325   4.469   3.213
 3853SOL    HW112458   1.415   4.424   3.209
 3853SOL    HW212459   1.263   4.413   3.268
 3854SOL     OW12460   1.573   3.253   2.938
 3854SOL    HW112461   1.662   3.260   2.892
 3854SOL    HW212462   1.567   3.165   2.986
 3855SOL     OW12463   5.267   6.328   6.354
 3855SOL    HW112464   5.335   6.254   6.358
 3855SOL    HW212465   5.256   6.367   6.445
 3856SOL     OW12466   6.985   0.446   5.685
 3856SOL    HW112467   0.057   0.409   5.693
 3856SOL    HW212468   6.971   0.516   5.754
 3857SOL     OW12469   0.148   6.334   0.108
 3857SOL    HW112470   0.110   6.252   0.151
 3857SOL    HW212471   0.204   6.307   0.030
 3858SOL     OW12472   1.952   1.156   5.528
 3858SOL    HW112473   1.863   1.131   5.490
 3858SOL    HW212474   1.972   1.098   5.607
 3859SOL     OW12475   6.014   1.316   2.708
 3859SOL    HW112476   6.018   1.220   2.734
 3859SOL    HW212477   5.981   1.324   2.614
 3860SOL     OW12478   2.884   0.371   5.484
 3860SOL    HW112479   2.940   0.435   5.431
 3860SOL    HW212480   2.856   0.295   5.425
 3861SOL     OW12481   4.650   4.711   3.350
 3861SOL    HW112482   4.644   4.760   3.263
 3861SOL    HW212483   4.737   4.661   3.355
 3862SOL     OW12484   1.008   0.465   5.252
 3862SOL    HW112485   0.950   0.433   5.327
 3862SOL    HW212486   1.025   0.563   5.263
 3863SOL     OW12487   5.054   2.721   0.041
 3863SOL    HW112488   5.056   2.622   0.025
 3863SOL    HW212489   5.115   2.767   6.997
 3864SOL     OW12490   2.465   0.487   5.220
 3864SOL    HW112491   2.395   0.548   5.183
 3864SOL    HW212492   2.549   0.539   5.236
 3865SOL     OW12493   3.273   0.326   0.141
 3865SOL    HW112494   3.370   0.336   0.163
 3865SOL    HW212495   3.222   0.309   0.225
 3866SOL     OW12496   3.936   1.058   0.843
 3866SOL    HW112497   3.883   1.017   0.917
 3866SOL    HW212498   3.967   0.986   0.781
 3867SOL     OW12499   1.141   4.650   3.518
 3867SOL    HW112500   1.099   4.639   3.428
 3867SOL    HW212501   1.150   4.748   3.539
 3868SOL     OW12502   3.081   7.015   0.324
 3868SOL    HW112503   3.180   0.007   0.333
 3868SOL    HW212504   3.033   0.068   0.371
 3869SOL     OW12505   5.962   4.158   4.809
 3869SOL    HW112506   5.982   4.127   4.903
 3869SOL    HW212507   5.896   4.233   4.813
 3870SOL     OW12508   5.268   5.812   6.548
 3870SOL    HW112509   5.193   5.767   6.598
 3870SOL    HW212510   5.252   5.910   6.546
 3871SOL     OW12511   3.526   0.497   2.787
 3871SOL    HW112512   3.598   0.566   2.791
 3871SOL    HW212513   3.560   0.416   2.738
 3872SOL     OW12514   3.695   3.087   3.339
 3872SOL    HW112515   3.656   3.004   3.380
 3872SOL    HW212516   3.775   3.062   3.284
 3873SOL     OW12517   5.750   2.847   1.670
 3873SOL    HW112518   5.803   2.926   1.641
 3873SOL    HW212519   5.812   2.772   1.692
 3874SOL     OW12520   3.978   5.898   0.242
 3874SOL    HW112521   4.014   5.896   0.148
 3874SOL    HW212522   3.984   5.806   0.282
 3875SOL     OW12523   1.579   3.260   2.094
 3875SOL    HW112524   1.486   3.228   2.078
 3875SOL    HW212525   1.602   3.249   2.190
 3876SOL     OW12526   4.642   5.080   0.253
 3876SOL    HW112527   4.676   5.043   0.167
 3876SOL    HW212528   4.544   5.099   0.245
 3877SOL     OW12529   6.784   3.084   0.637
 3877SOL    HW112530   6.816   3.052   0.548
 3877SOL    HW212531   6.825   3.173   0.656
 3878SOL     OW12532   3.532   0.020   4.561
 3878SOL    HW112533   3.601   6.971   4.546
 3878SOL    HW212534   3.453   0.003   4.502
 3879SOL     OW12535   4.954   6.173   1.906
 3879SOL    HW112536   4.954   6.267   1.872
 3879SOL    HW212537   4.976   6.172   2.003
 3880SOL     OW12538   6.191   4.740   3.500
 3880SOL    HW112539   6.272   4.681   3.507
 3880SOL    HW212540   6.209   4.812   3.434
 3881SOL     OW12541   1.077   4.131   1.220
 3881SOL    HW112542   1.122   4.142   1.132
 3881SOL    HW212543   1.134   4.171   1.292
 3882SOL     OW12544   0.880   1.648   5.615
 3882SOL    HW112545   0.886   1.562   5.666
 3882SOL    HW212546   0.786   1.662   5.584
 3883SOL     OW12547   4.359   0.948   3.685
 3883SOL    HW112548   4.458   0.948   3.700
 3883SOL    HW212549   4.312   0.977   3.769
 3884SOL     OW12550   0.524   5.540   3.616
 3884SOL    HW112551   0.513   5.569   3.521
 3884SOL    HW212552   0.493   5.446   3.626
 3885SOL     OW12553   6.294   0.684   2.401
 3885SOL    HW112554   6.257   0.762   2.451
 3885SOL    HW212555   6.385   0.661   2.436
 3886SOL     OW12556   6.097   6.127   4.852
 3886SOL    HW112557   6.192   6.114   4.880
 3886SOL    HW212558   6.085   6.091   4.759
 3887SOL     OW12559   0.243   0.287   6.176
 3887SOL    HW112560   0.236   0.361   6.109
 3887SOL    HW212561   0.288   0.321   6.259
 3888SOL     OW12562   6.992   0.093   5.654
 3888SOL    HW112563   0.057   0.042   5.643
 3888SOL    HW212564   6.915   0.036   5.627
 3889SOL     OW12565   6.526   3.506   5.989
 3889SOL    HW112566   6.475   3.551   6.062
 3889SOL    HW212567   6.461   3.459   5.928
 3890SOL     OW12568   5.794   5.908   2.846
 3890SOL    HW112569   5.721   5.941   2.906
 3890SOL    HW212570   5.883   5.928   2.887
 3891SOL     OW12571   5.782   4.535   4.615
 3891SOL    HW112572   5.782   4.464   4.545
 3891SOL    HW212573   5.712   4.603   4.593
 3892SOL     OW12574   0.236   2.251   1.130
 3892SOL    HW112575   0.327   2.225   1.163
 3892SOL    HW212576   0.241   2.269   1.032
 3893SOL     OW12577   3.731   5.065   0.637
 3893SOL    HW112578   3.709   4.986   0.693
 3893SOL    HW212579   3.759   5.141   0.695
 3894SOL     OW12580   2.416   2.000   1.255
 3894SOL    HW112581   2.331   1.949   1.248
 3894SOL    HW212582   2.477   1.955   1.321
 3895SOL     OW12583   1.810   0.566   5.269
 3895SOL    HW112584   1.853   0.545   5.356
 3895SOL    HW212585   1.785   0.663   5.267
 3896SOL     OW12586   0.390   1.504   6.136
 3896SOL    HW112587   0.303   1.455   6.137
 3896SOL    HW212588   0.379   1.594   6.178
 3897SOL     OW12589   3.675   6.042   2.314
 3897SOL    HW112590   3.579   6.061   2.292
 3897SOL    HW212591   3.698   5.950   2.282
 3898SOL     OW12592   3.510   3.613   4.066
 3898SOL    HW112593   3.535   3.709   4.066
 3898SOL    HW212594   3.510   3.578   4.160
 3899SOL     OW12595   5.277   0.493   4.034
 3899SOL    HW112596   5.294   0.431   4.110
 3899SOL    HW212597   5.313   0.584   4.056
 3900SOL     OW12598   5.137   3.029   4.019
 3900SOL    HW112599   5.134   2.966   3.941
 3900SOL    HW212600   5.230   3.062   4.032
 3901SOL     OW12601   3.218   6.450   5.151
 3901SOL    HW112602   3.155   6.485   5.220
 3901SOL    HW212603   3.281   6.385   5.194
 3902SOL     OW12604   6.466   3.848   1.726
 3902SOL    HW112605   6.415   3.933   1.713
 3902SOL    HW212606   6.453   3.815   1.820
 3903SOL     OW12607   4.764   4.968   0.039
 3903SOL    HW112608   4.859   4.940   0.056
 3903SOL    HW212609   4.703   4.890   0.054
 3904SOL     OW12610   1.967   6.500   5.325
 3904SOL    HW112611   1.973   6.416   5.379
 3904SOL    HW212612   1.872   6.531   5.321
 3905SOL     OW12613   6.032   6.848   5.962
 3905SOL    HW112614   6.126   6.863   5.992
 3905SOL    HW212615   6.026   6.863   5.864
 3906SOL     OW12616   3.099   5.425   5.355
 3906SOL    HW112617   3.071   5.329   5.347
 3906SOL    HW212618   3.147   5.439   5.442
 3907SOL     OW12619   6.455   6.485   5.340
 3907SOL    HW112620   6.509   6.567   5.323
 3907SOL    HW212621   6.377   6.508   5.397
 3908SOL     OW12622   1.827   0.788   6.942
 3908SOL    HW112623   1.884   0.866   6.916
 3908SOL    HW212624   1.810   0.789   0.020
 3909SOL     OW12625   0.344   5.083   5.907
 3909SOL    HW112626   0.434   5.043   5.923
 3909SOL    HW212627   0.273   5.016   5.930
 3910SOL     OW12628   3.585   4.210   1.790
 3910SOL    HW112629   3.622   4.302   1.778
 3910SOL    HW212630   3.514   4.193   1.722
 3911SOL     OW12631   4.337   1.523   0.115
 3911SOL    HW112632   4.418   1.552   0.166
 3911SOL    HW212633   4.363   1.497   0.023
 3912SOL     OW12634   3.729   1.241   6.538
 3912SOL    HW112635   3.683   1.208   6.620
 3912SOL    HW212636   3.820   1.200   6.531
 3913SOL     OW12637   2.825   5.974   6.589
 3913SOL    HW112638   2.812   5.949   6.493
 3913SOL    HW212639   2.840   5.891   6.643
 3914SOL     OW12640   4.508   1.206   0.885
 3914SOL    HW112641   4.574   1.265   0.931
 3914SOL    HW212642   4.424   1.258   0.868
 3915SOL     OW12643   4.372   6.062   1.212
 3915SOL    HW112644   4.451   6.103   1.258
 3915SOL    HW212645   4.405   6.007   1.135
 3916SOL     OW12646   1.903   6.442   2.472
 3916SOL    HW112647   1.907   6.527   2.420
 3916SOL    HW212648   1.997   6.410   2.490
 3917SOL     OW12649   1.357   5.188   0.174
 3917SOL    HW112650   1.326   5.208   0.081
 3917SOL    HW212651   1.405   5.268   0.210
 3918SOL     OW12652   4.457   6.262   1.920
 3918SOL    HW112653   4.456   6.326   1.997
 3918SOL    HW212654   4.501   6.306   1.842
 3919SOL     OW12655   3.480   6.845   6.473
 3919SOL    HW112656   3.394   6.794   6.472
 3919SOL    HW212657   3.547   6.795   6.528
 3920SOL     OW12658   2.653   1.971   6.333
 3920SOL    HW112659   2.697   2.061   6.336
 3920SOL    HW212660   2.695   1.916   6.260
 3921SOL     OW12661   0.686   3.020   0.244
 3921SOL    HW112662   0.686   3.083   0.322
 3921SOL    HW212663   0.596   3.018   0.203
 3922SOL     OW12664   5.077   5.067   0.067
 3922SOL    HW112665   5.022   5.056   7.006
 3922SOL    HW212666   5.120   5.158   0.067
 3923SOL     OW12667   6.046   1.900   6.914
 3923SOL    HW112668   6.042   1.922   7.012
 3923SOL    HW212669   6.001   1.972   6.862
 3924SOL     OW12670   0.491   5.186   3.421
 3924SOL    HW112671   0.442   5.127   3.486
 3924SOL    HW212672   0.561   5.238   3.470
 3925SOL     OW12673   4.461   4.320   0.761
 3925SOL    HW112674   4.425   4.227   0.769
 3925SOL    HW212675   4.427   4.375   0.837
 3926SOL     OW12676   6.925   6.754   3.423
 3926SOL    HW112677   6.825   6.751   3.421
 3926SOL    HW212678   6.958   6.709   3.506
 3927SOL     OW12679   0.183   3.590   4.424
 3927SOL    HW112680   0.131   3.522   4.476
 3927SOL    HW212681   0.143   3.681   4.438
 3928SOL     OW12682   3.671   5.491   4.877
 3928SOL    HW112683   3.604   5.535   4.817
 3928SOL    HW212684   3.629   5.473   4.966
 3929SOL     OW12685   0.302   1.876   6.542
 3929SOL    HW112686   0.274   1.936   6.468
 3929SOL    HW212687   0.239   1.799   6.549
 3930SOL     OW12688   1.505   1.880   3.281
 3930SOL    HW112689   1.555   1.857   3.197
 3930SOL    HW212690   1.504   1.979   3.293
 3931SOL     OW12691   1.931   1.794   2.512
 3931SOL    HW112692   1.987   1.853   2.570
 3931SOL    HW212693   1.898   1.716   2.565
 3932SOL     OW12694   1.818   4.295   3.962
 3932SOL    HW112695   1.729   4.259   3.934
 3932SOL    HW212696   1.809   4.343   4.049
 3933SOL     OW12697   1.825   6.772   6.884
 3933SOL    HW112698   1.872   6.855   6.854
 3933SOL    HW212699   1.735   6.796   6.919
 3934SOL     OW12700   0.170   1.096   1.679
 3934SOL    HW112701   0.242   1.069   1.615
 3934SOL    HW212702   0.136   1.186   1.655
 3935SOL     OW12703   1.803   0.832   5.257
 3935SOL    HW112704   1.785   0.897   5.182
 3935SOL    HW212705   1.827   0.883   5.340
 3936SOL     OW12706   6.977   6.026   5.104
 3936SOL    HW112707   6.880   6.029   5.082
 3936SOL    HW212708   7.007   5.931   5.112
 3937SOL     OW12709   0.630   6.715   2.646
 3937SOL    HW112710   0.647   6.617   2.640
 3937SOL    HW212711   0.578   6.735   2.730
 3938SOL     OW12712   5.997   2.867   3.788
 3938SOL    HW112713   6.034   2.782   3.751
 3938SOL    HW212714   5.930   2.846   3.859
 3939SOL     OW12715   3.021   1.937   3.289
 3939SOL    HW112716   2.987   1.912   3.199
 3939SOL    HW212717   3.113   1.976   3.280
 3940SOL     OW12718   3.698   4.941   2.191
 3940SOL    HW112719   3.691   4.860   2.133
 3940SOL    HW212720   3.669   4.918   2.284
 3941SOL     OW12721   6.372   0.818   5.179
 3941SOL    HW112722   6.301   0.817   5.109
 3941SOL    HW212723   6.422   0.731   5.177
 3942SOL     OW12724   0.936   6.462   5.680
 3942SOL    HW112725   0.978   6.526   5.615
 3942SOL    HW212726   1.005   6.399   5.715
 3943SOL     OW12727   0.901   3.335   2.620
 3943SOL    HW112728   0.842   3.409   2.653
 3943SOL    HW212729   0.995   3.369   2.614
 3944SOL     OW12730   5.519   3.963   5.449
 3944SOL    HW112731   5.474   4.048   5.422
 3944SOL    HW212732   5.456   3.886   5.437
 3945SOL     OW12733   0.911   2.310   2.649
 3945SOL    HW112734   0.892   2.401   2.611
 3945SOL    HW212735   0.863   2.300   2.736
 3946SOL     OW12736   6.225   4.057   6.062
 3946SOL    HW112737   6.265   3.965   6.054
 3946SOL    HW212738   6.166   4.061   6.142
 3947SOL     OW12739   6.152   5.421   1.409
 3947SOL    HW112740   6.189   5.487   1.474
 3947SOL    HW212741   6.140   5.333   1.454
 3948SOL     OW12742   0.424   4.834   0.595
 3948SOL    HW112743   0.384   4.923   0.614
 3948SOL    HW212744   0.523   4.839   0.605
 3949SOL     OW12745   6.235   6.791   3.124
 3949SOL    HW112746   6.270   6.785   3.030
 3949SOL    HW212747   6.258   6.707   3.173
 3950SOL     OW12748   3.284   4.237   1.128
 3950SOL    HW112749   3.348   4.312   1.111
 3950SOL    HW212750   3.244   4.248   1.219
 3951SOL     OW12751   0.361   0.631   6.920
 3951SOL    HW112752   0.404   0.696   6.983
 3951SOL    HW212753   0.387   0.653   6.826
 3952SOL     OW12754   6.011   3.294   4.883
 3952SOL    HW112755   5.922   3.309   4.926
 3952SOL    HW212756   6.012   3.337   4.793
 3953SOL     OW12757   3.306   4.471   0.357
 3953SOL    HW112758   3.375   4.471   0.284
 3953SOL    HW212759   3.338   4.415   0.433
 3954SOL     OW12760   5.977   5.469   5.364
 3954SOL    HW112761   6.044   5.542   5.350
 3954SOL    HW212762   6.016   5.381   5.338
 3955SOL     OW12763   4.698   6.604   0.114
 3955SOL    HW112764   4.692   6.552   0.199
 3955SOL    HW212765   4.683   6.701   0.134
 3956SOL     OW12766   1.425   1.662   4.169
 3956SOL    HW112767   1.453   1.566   4.174
 3956SOL    HW212768   1.362   1.674   4.093
 3957SOL     OW12769   4.370   6.963   3.426
 3957SOL    HW112770   4.314   0.024   3.410
 3957SOL    HW212771   4.366   6.905   3.345
 3958SOL     OW12772   5.755   0.213   6.086
 3958SOL    HW112773   5.728   0.184   6.178
 3958SOL    HW212774   5.693   0.285   6.054
 3959SOL     OW12775   3.455   6.745   0.688
 3959SOL    HW112776   3.510   6.688   0.627
 3959SOL    HW212777   3.514   6.789   0.755
 3960SOL     OW12778   5.645   1.650   6.119
 3960SOL    HW112779   5.582   1.726   6.134
 3960SOL    HW212780   5.700   1.636   6.201
 3961SOL     OW12781   5.649   3.200   2.021
 3961SOL    HW112782   5.745   3.193   1.994
 3961SOL    HW212783   5.593   3.227   1.942
 3962SOL     OW12784   1.730   5.771   6.590
 3962SOL    HW112785   1.692   5.784   6.498
 3962SOL    HW212786   1.718   5.676   6.618
 3963SOL     OW12787   4.774   4.779   3.696
 3963SOL    HW112788   4.850   4.830   3.655
 3963SOL    HW212789   4.808   4.693   3.734
 3964SOL     OW12790   4.160   4.785   5.055
 3964SOL    HW112791   4.095   4.861   5.045
 3964SOL    HW212792   4.149   4.721   4.980
 3965SOL     OW12793   4.138   3.716   6.658
 3965SOL    HW112794   4.176   3.801   6.623
 3965SOL    HW212795   4.110   3.658   6.581
 3966SOL     OW12796   6.982   4.751   6.829
 3966SOL    HW112797   0.024   4.711   6.762
 3966SOL    HW212798   7.021   4.835   6.865
 3967SOL     OW12799   1.545   4.931   2.822
 3967SOL    HW112800   1.510   4.843   2.789
 3967SOL    HW212801   1.566   4.924   2.920
 3968SOL     OW12802   6.524   0.550   1.048
 3968SOL    HW112803   6.573   0.544   0.961
 3968SOL    HW212804   6.555   0.476   1.108
 3969SOL     OW12805   0.621   3.961   3.237
 3969SOL    HW112806   0.544   4.017   3.207
 3969SOL    HW212807   0.607   3.867   3.208
 3970SOL     OW12808   4.692   4.855   3.969
 3970SOL    HW112809   4.701   4.787   4.041
 3970SOL    HW212810   4.701   4.811   3.880
 3971SOL     OW12811   2.508   4.860   2.475
 3971SOL    HW112812   2.570   4.791   2.438
 3971SOL    HW212813   2.559   4.924   2.533
 3972SOL     OW12814   1.537   5.097   1.732
 3972SOL    HW112815   1.565   5.026   1.667
 3972SOL    HW212816   1.437   5.102   1.735
 3973SOL     OW12817   2.342   3.890   5.633
 3973SOL    HW112818   2.290   3.967   5.669
 3973SOL    HW212819   2.393   3.919   5.552
 3974SOL     OW12820   1.940   0.987   5.745
 3974SOL    HW112821   2.035   1.018   5.751
 3974SOL    HW212822   1.919   0.927   5.822
 3975SOL     OW12823   5.667   0.121   6.328
 3975SOL    HW112824   5.731   0.106   6.403
 3975SOL    HW212825   5.583   0.161   6.364
 3976SOL     OW12826   2.090   4.708   1.272
 3976SOL    HW112827   2.069   4.639   1.203
 3976SOL    HW212828   2.112   4.795   1.227
 3977SOL     OW12829   2.938   4.270   5.628
 3977SOL    HW112830   2.868   4.267   5.557
 3977SOL    HW212831   3.013   4.330   5.599
 3978SOL     OW12832   5.784   0.740   4.302
 3978SOL    HW112833   5.697   0.742   4.253
 3978SOL    HW212834   5.767   0.733   4.401
 3979SOL     OW12835   2.424   6.135   1.504
 3979SOL    HW112836   2.475   6.071   1.562
 3979SOL    HW212837   2.474   6.149   1.419
 3980SOL     OW12838   0.055   4.154   6.318
 3980SOL    HW112839   0.052   4.253   6.334
 3980SOL    HW212840   0.113   4.111   6.387
 3981SOL     OW12841   1.940   1.747   6.681
 3981SOL    HW112842   1.905   1.808   6.610
 3981SOL    HW212843   1.930   1.652   6.650
 3982SOL     OW12844   2.214   0.730   4.235
 3982SOL    HW112845   2.181   0.780   4.155
 3982SOL    HW212846   2.300   0.770   4.266
 3983SOL     OW12847   4.016   5.865   4.225
 3983SOL    HW112848   4.043   5.786   4.169
 3983SOL    HW212849   3.925   5.896   4.197
 3984SOL     OW12850   1.791   0.547   2.639
 3984SOL    HW112851   1.857   0.473   2.644
 3984SOL    HW212852   1.794   0.590   2.548
 3985SOL     OW12853   2.649   4.543   6.911
 3985SOL    HW112854   2.571   4.484   6.893
 3985SOL    HW212855   2.714   4.496   6.971
 3986SOL     OW12856   6.872   2.145   3.031
 3986SOL    HW112857   6.896   2.206   2.955
 3986SOL    HW212858   6.952   2.135   3.091
 3987SOL     OW12859   2.468   6.095   4.659
 3987SOL    HW112860   2.396   6.034   4.626
 3987SOL    HW212861   2.429   6.162   4.721
 3988SOL     OW12862   3.617   2.869   5.925
 3988SOL    HW112863   3.576   2.828   6.006
 3988SOL    HW212864   3.677   2.801   5.881
 3989SOL     OW12865   6.321   1.603   6.944
 3989SOL    HW112866   6.225   1.616   6.921
 3989SOL    HW212867   6.378   1.631   6.867
 3990SOL     OW12868   5.808   1.535   4.005
 3990SOL    HW112869   5.857   1.514   4.090
 3990SOL    HW212870   5.794   1.452   3.952
 3991SOL     OW12871   5.792   1.311   1.779
 3991SOL    HW112872   5.821   1.343   1.869
 3991SOL    HW212873   5.860   1.335   1.710
 3992SOL     OW12874   3.919   2.288   6.532
 3992SOL    HW112875   3.862   2.303   6.612
 3992SOL    HW212876   4.003   2.343   6.539
 3993SOL     OW12877   0.951   2.185   3.409
 3993SOL    HW112878   1.042   2.148   3.426
 3993SOL    HW212879   0.932   2.184   3.311
 3994SOL     OW12880   1.055   2.924   5.976
 3994SOL    HW112881   1.039   2.898   6.071
 3994SOL    HW212882   1.058   2.842   5.919
 3995SOL     OW12883   2.087   3.769   4.179
 3995SOL    HW112884   2.164   3.832   4.171
 3995SOL    HW212885   2.078   3.740   4.274
 3996SOL     OW12886   1.223   0.674   4.415
 3996SOL    HW112887   1.316   0.708   4.397
 3996SOL    HW212888   1.157   0.746   4.393
 3997SOL     OW12889   4.851   3.002   2.626
 3997SOL    HW112890   4.829   2.993   2.723
 3997SOL    HW212891   4.855   3.099   2.602
 3998SOL     OW12892   4.634   1.412   2.834
 3998SOL    HW112893   4.685   1.453   2.759
 3998SOL    HW212894   4.564   1.476   2.866
 3999SOL     OW12895   5.432   3.399   3.268
 3999SOL    HW112896   5.339   3.387   3.232
 3999SOL    HW212897   5.485   3.316   3.251
 4000SOL     OW12898   3.410   5.498   2.894
 4000SOL    HW112899   3.376   5.571   2.834
 4000SOL    HW212900   3.367   5.411   2.868
 4001SOL     OW12901   1.692   2.239   4.016
 4001SOL    HW112902   1.741   2.155   3.995
 4001SOL    HW212903   1.755   2.317   4.009
 4002SOL     OW12904   2.799   2.868   0.280
 4002SOL    HW112905   2.857   2.801   0.328
 4002SOL    HW212906   2.719   2.888   0.337
 4003SOL     OW12907   2.689   0.081   5.114
 4003SOL    HW112908   2.773   0.129   5.141
 4003SOL    HW212909   2.610   0.132   5.147
 4004SOL     OW12910   6.384   2.482   4.034
 4004SOL    HW112911   6.332   2.398   4.045
 4004SOL    HW212912   6.350   2.532   3.955
 4005SOL     OW12913   5.013   5.180   1.050
 4005SOL    HW112914   5.093   5.121   1.059
 4005SOL    HW212915   5.038   5.274   1.073
 4006SOL     OW12916   4.228   4.615   1.723
 4006SOL    HW112917   4.139   4.571   1.713
 4006SOL    HW212918   4.259   4.610   1.818
 4007SOL     OW12919   0.732   3.339   1.784
 4007SOL    HW112920   0.651   3.313   1.838
 4007SOL    HW212921   0.743   3.276   1.707
 4008SOL     OW12922   3.682   1.682   4.640
 4008SOL    HW112923   3.667   1.742   4.562
 4008SOL    HW212924   3.649   1.726   4.724
 4009SOL     OW12925   4.826   3.101   0.573
 4009SOL    HW112926   4.767   3.034   0.620
 4009SOL    HW212927   4.913   3.058   0.549
 4010SOL     OW12928   2.197   3.968   0.969
 4010SOL    HW112929   2.296   3.958   0.975
 4010SOL    HW212930   2.171   4.059   1.000
 4011SOL     OW12931   1.141   0.437   1.668
 4011SOL    HW112932   1.151   0.478   1.759
 4011SOL    HW212933   1.111   0.507   1.604
 4012SOL     OW12934   4.453   4.500   1.372
 4012SOL    HW112935   4.460   4.432   1.444
 4012SOL    HW212936   4.534   4.494   1.313
 4013SOL     OW12937   2.723   0.191   0.900
 4013SOL    HW112938   2.806   0.139   0.876
 4013SOL    HW212939   2.724   0.213   0.997
 4014SOL     OW12940   4.218   5.610   3.653
 4014SOL    HW112941   4.154   5.584   3.725
 4014SOL    HW212942   4.255   5.700   3.673
 4015SOL     OW12943   4.112   5.575   5.995
 4015SOL    HW112944   4.018   5.608   6.007
 4015SOL    HW212945   4.122   5.539   5.902
 4016SOL     OW12946   1.105   5.564   6.685
 4016SOL    HW112947   1.073   5.637   6.626
 4016SOL    HW212948   1.198   5.584   6.715
 4017SOL     OW12949   6.839   6.969   0.312
 4017SOL    HW112950   6.822   6.931   0.222
 4017SOL    HW212951   6.828   6.898   0.382
 4018SOL     OW12952   5.797   6.406   1.729
 4018SOL    HW112953   5.706   6.401   1.770
 4018SOL    HW212954   5.794   6.469   1.651
 4019SOL     OW12955   5.923   3.755   2.316
 4019SOL    HW112956   5.941   3.716   2.406
 4019SOL    HW212957   5.968   3.844   2.308
 4020SOL     OW12958   6.220   2.269   5.606
 4020SOL    HW112959   6.196   2.174   5.628
 4020SOL    HW212960   6.148   2.330   5.639
 4021SOL     OW12961   3.085   3.840   5.881
 4021SOL    HW112962   3.180   3.809   5.885
 4021SOL    HW212963   3.030   3.773   5.831
 4022SOL     OW12964   4.081   0.264   0.083
 4022SOL    HW112965   4.111   0.170   0.093
 4022SOL    HW212966   4.138   0.324   0.139
 4023SOL     OW12967   6.684   0.827   3.906
 4023SOL    HW112968   6.723   0.759   3.844
 4023SOL    HW212969   6.586   0.835   3.888
 4024SOL     OW12970   2.648   5.096   4.578
 4024SOL    HW112971   2.724   5.064   4.635
 4024SOL    HW212972   2.615   5.020   4.523
 4025SOL     OW12973   0.571   6.153   5.354
 4025SOL    HW112974   0.649   6.147   5.292
 4025SOL    HW212975   0.528   6.243   5.344
 4026SOL     OW12976   6.600   0.048   3.651
 4026SOL    HW112977   6.582   0.003   3.564
 4026SOL    HW212978   6.567   7.011   3.726
 4027SOL     OW12979   3.203   3.308   1.311
 4027SOL    HW112980   3.144   3.229   1.294
 4027SOL    HW212981   3.296   3.288   1.280
 4028SOL     OW12982   2.444   2.638   3.230
 4028SOL    HW112983   2.482   2.574   3.163
 4028SOL    HW212984   2.395   2.711   3.182
 4029SOL     OW12985   3.047   4.389   6.462
 4029SOL    HW112986   3.140   4.351   6.463
 4029SOL    HW212987   3.037   4.455   6.536
 4030SOL     OW12988   1.029   1.745   0.324
 4030SOL    HW112989   1.058   1.704   0.237
 4030SOL    HW212990   1.036   1.677   0.397
 4031SOL     OW12991   4.891   6.550   3.309
 4031SOL    HW112992   4.884   6.587   3.217
 4031SOL    HW212993   4.899   6.626   3.374
 4032SOL     OW12994   6.608   0.236   2.386
 4032SOL    HW112995   6.543   0.289   2.332
 4032SOL    HW212996   6.591   0.251   2.483
 4033SOL     OW12997   2.955   3.369   2.290
 4033SOL    HW112998   2.930   3.351   2.195
 4033SOL    HW212999   3.052   3.394   2.294
 4034SOL     OW13000   6.965   1.955   5.020
 4034SOL    HW113001   6.877   1.910   5.003
 4034SOL    HW213002   0.018   1.890   5.006
 4035SOL     OW13003   6.949   2.801   0.511
 4035SOL    HW113004   6.911   2.795   0.419
 4035SOL    HW213005   0.014   2.750   0.516
 4036SOL     OW13006   4.953   6.885   2.674
 4036SOL    HW113007   4.891   6.820   2.717
 4036SOL    HW213008   4.968   6.963   2.735
 4037SOL     OW13009   2.397   1.453   0.751
 4037SOL    HW113010   2.333   1.529   0.765
 4037SOL    HW213011   2.354   1.384   0.693
 4038SOL     OW13012   4.558   4.404   1.628
 4038SOL    HW113013   4.630   4.345   1.591
 4038SOL    HW213014   4.471   4.354   1.629
 4039SOL     OW13015   4.691   4.367   1.232
 4039SOL    HW113016   4.695   4.296   1.302
 4039SOL    HW213017   4.758   4.347   1.161
 4040SOL     OW13018   3.100   0.077   5.874
 4040SOL    HW113019   3.172   0.113   5.933
 4040SOL    HW213020   3.086   0.137   5.796
 4041SOL     OW13021   2.347   5.487   1.197
 4041SOL    HW113022   2.428   5.540   1.222
 4041SOL    HW213023   2.304   5.528   1.116
 4042SOL     OW13024   6.211   5.448   2.467
 4042SOL    HW113025   6.169   5.473   2.554
 4042SOL    HW213026   6.250   5.356   2.473
 4043SOL     OW13027   4.856   2.552   4.470
 4043SOL    HW113028   4.946   2.570   4.510
 4043SOL    HW213029   4.812   2.477   4.520
 4044SOL     OW13030   4.696   0.470   3.767
 4044SOL    HW113031   4.635   0.472   3.846
 4044SOL    HW213032   4.699   0.377   3.730
 4045SOL     OW13033   2.609   4.780   6.247
 4045SOL    HW113034   2.592   4.844   6.172
 4045SOL    HW213035   2.625   4.832   6.331
 4046SOL     OW13036   0.484   1.504   4.122
 4046SOL    HW113037   0.423   1.434   4.084
 4046SOL    HW213038   0.465   1.515   4.220
 4047SOL     OW13039   2.130   2.172   1.067
 4047SOL    HW113040   2.133   2.238   1.142
 4047SOL    HW213041   2.211   2.113   1.070
 4048SOL     OW13042   5.228   2.026   2.448
 4048SOL    HW113043   5.236   2.124   2.463
 4048SOL    HW213044   5.259   2.003   2.356
 4049SOL     OW13045   6.408   6.030   6.997
 4049SOL    HW113046   6.448   6.005   6.909
 4049SOL    HW213047   6.382   5.947   0.026
 4050SOL     OW13048   1.674   6.578   0.903
 4050SOL    HW113049   1.679   6.543   0.810
 4050SOL    HW213050   1.635   6.670   0.902
 4051SOL     OW13051   3.912   2.709   0.348
 4051SOL    HW113052   3.896   2.805   0.368
 4051SOL    HW213053   4.011   2.690   0.348
 4052SOL     OW13054   0.222   0.396   2.363
 4052SOL    HW113055   0.292   0.362   2.300
 4052SOL    HW213056   0.265   0.419   2.451
 4053SOL     OW13057   3.071   5.146   4.010
 4053SOL    HW113058   3.074   5.190   4.100
 4053SOL    HW213059   3.123   5.060   4.014
 4054SOL     OW13060   0.481   2.980   1.816
 4054SOL    HW113061   0.539   2.909   1.856
 4054SOL    HW213062   0.423   2.939   1.745
 4055SOL     OW13063   3.959   3.518   6.119
 4055SOL    HW113064   3.975   3.587   6.048
 4055SOL    HW213065   3.893   3.451   6.086
 4056SOL     OW13066   3.743   3.266   0.432
 4056SOL    HW113067   3.789   3.282   0.345
 4056SOL    HW213068   3.644   3.272   0.418
 4057SOL     OW13069   5.557   1.811   1.227
 4057SOL    HW113070   5.492   1.848   1.293
 4057SOL    HW213071   5.545   1.858   1.139
 4058SOL     OW13072   1.593   0.580   4.100
 4058SOL    HW113073   1.625   0.487   4.081
 4058SOL    HW213074   1.668   0.645   4.084
 4059SOL     OW13075   1.268   2.825   3.626
 4059SOL    HW113076   1.173   2.852   3.612
 4059SOL    HW213077   1.317   2.829   3.538
 4060SOL     OW13078   4.807   5.914   4.487
 4060SOL    HW113079   4.868   5.843   4.451
 4060SOL    HW213080   4.830   5.934   4.582
 4061SOL     OW13081   3.340   5.039   1.790
 4061SOL    HW113082   3.320   5.135   1.768
 4061SOL    HW213083   3.348   5.029   1.889
 4062SOL     OW13084   3.174   1.677   2.934
 4062SOL    HW113085   3.166   1.771   2.967
 4062SOL    HW213086   3.105   1.661   2.863
 4063SOL     OW13087   5.799   6.680   5.163
 4063SOL    HW113088   5.745   6.633   5.093
 4063SOL    HW213089   5.795   6.779   5.147
 4064SOL     OW13090   1.762   6.309   3.568
 4064SOL    HW113091   1.802   6.393   3.532
 4064SOL    HW213092   1.736   6.249   3.492
 4065SOL     OW13093   0.547   6.515   0.646
 4065SOL    HW113094   0.561   6.579   0.571
 4065SOL    HW213095   0.583   6.555   0.731
 4066SOL     OW13096   5.077   5.510   2.854
 4066SOL    HW113097   5.001   5.485   2.793
 4066SOL    HW213098   5.148   5.556   2.801
 4067SOL     OW13099   5.954   2.814   2.297
 4067SOL    HW113100   5.971   2.737   2.358
 4067SOL    HW213101   5.889   2.787   2.226
 4068SOL     OW13102   3.250   0.882   4.256
 4068SOL    HW113103   3.314   0.887   4.179
 4068SOL    HW213104   3.276   0.806   4.315
 4069SOL     OW13105   3.801   4.520   6.043
 4069SOL    HW113106   3.887   4.469   6.039
 4069SOL    HW213107   3.729   4.463   6.082
 4070SOL     OW13108   0.618   3.574   2.216
 4070SOL    HW113109   0.533   3.525   2.196
 4070SOL    HW213110   0.645   3.629   2.137
 4071SOL     OW13111   1.326   0.808   5.256
 4071SOL    HW113112   1.423   0.797   5.235
 4071SOL    HW213113   1.312   0.804   5.355
 4072SOL     OW13114   1.111   5.991   4.379
 4072SOL    HW113115   1.042   5.990   4.451
 4072SOL    HW213116   1.079   6.048   4.303
 4073SOL     OW13117   2.049   5.477   5.979
 4073SOL    HW113118   2.144   5.467   5.950
 4073SOL    HW213119   2.024   5.399   6.037
 4074SOL     OW13120   1.070   2.942   2.203
 4074SOL    HW113121   0.971   2.949   2.209
 4074SOL    HW213122   1.095   2.901   2.115
 4075SOL     OW13123   3.612   2.019   2.548
 4075SOL    HW113124   3.517   2.028   2.516
 4075SOL    HW213125   3.674   2.031   2.471
 4076SOL     OW13126   2.317   3.373   5.701
 4076SOL    HW113127   2.236   3.346   5.650
 4076SOL    HW213128   2.371   3.437   5.645
 4077SOL     OW13129   3.406   6.807   0.301
 4077SOL    HW113130   3.366   6.812   0.210
 4077SOL    HW213131   3.417   6.900   0.338
 4078SOL     OW13132   6.651   5.014   1.455
 4078SOL    HW113133   6.648   5.081   1.529
 4078SOL    HW213134   6.575   4.949   1.466
 4079SOL     OW13135   0.467   2.076   3.361
 4079SOL    HW113136   0.562   2.052   3.382
 4079SOL    HW213137   0.409   2.053   3.438
 4080SOL     OW13138   2.803   3.318   0.769
 4080SOL    HW113139   2.841   3.273   0.849
 4080SOL    HW213140   2.719   3.270   0.741
 4081SOL     OW13141   1.553   1.854   3.547
 4081SOL    HW113142   1.541   1.840   3.449
 4081SOL    HW213143   1.638   1.811   3.576
 4082SOL     OW13144   1.302   2.113   1.055
 4082SOL    HW113145   1.383   2.156   1.014
 4082SOL    HW213146   1.302   2.129   1.153
 4083SOL     OW13147   5.803   4.379   2.856
 4083SOL    HW113148   5.837   4.285   2.858
 4083SOL    HW213149   5.879   4.442   2.838
 4084SOL     OW13150   4.654   2.141   3.166
 4084SOL    HW113151   4.642   2.061   3.107
 4084SOL    HW213152   4.711   2.116   3.244
 4085SOL     OW13153   2.699   5.555   0.995
 4085SOL    HW113154   2.612   5.605   0.993
 4085SOL    HW213155   2.775   5.619   0.988
 4086SOL     OW13156   7.013   4.832   0.996
 4086SOL    HW113157   0.057   4.848   0.922
 4086SOL    HW213158   0.030   4.869   1.081
 4087SOL     OW13159   2.018   1.530   2.735
 4087SOL    HW113160   1.998   1.436   2.761
 4087SOL    HW213161   1.971   1.593   2.797
 4088SOL     OW13162   6.460   1.025   6.435
 4088SOL    HW113163   6.496   0.963   6.365
 4088SOL    HW213164   6.524   1.100   6.449
 4089SOL     OW13165   6.367   4.638   4.390
 4089SOL    HW113166   6.360   4.589   4.303
 4089SOL    HW213167   6.452   4.691   4.391
 4090SOL     OW13168   2.125   5.708   5.356
 4090SOL    HW113169   2.097   5.787   5.302
 4090SOL    HW213170   2.043   5.660   5.389
 4091SOL     OW13171   0.394   5.929   0.229
 4091SOL    HW113172   0.312   5.933   0.171
 4091SOL    HW213173   0.370   5.958   0.321
 4092SOL     OW13174   5.663   2.465   3.499
 4092SOL    HW113175   5.687   2.373   3.469
 4092SOL    HW213176   5.585   2.461   3.561
 4093SOL     OW13177   5.369   6.726   1.284
 4093SOL    HW113178   5.292   6.683   1.332
 4093SOL    HW213179   5.420   6.657   1.233
 4094SOL     OW13180   1.173   4.744   6.400
 4094SOL    HW113181   1.158   4.835   6.364
 4094SOL    HW213182   1.259   4.742   6.451
 4095SOL     OW13183   0.387   3.678   0.221
 4095SOL    HW113184   0.301   3.693   0.271
 4095SOL    HW213185   0.430   3.594   0.253
 4096SOL     OW13186   3.729   0.455   6.500
 4096SOL    HW113187   3.760   0.455   6.595
 4096SOL    HW213188   3.781   0.387   6.448
 4097SOL     OW13189   5.110   4.698   4.686
 4097SOL    HW113190   5.027   4.696   4.741
 4097SOL    HW213191   5.101   4.634   4.610
 4098SOL     OW13192   1.005   2.653   1.343
 4098SOL    HW113193   1.029   2.667   1.439
 4098SOL    HW213194   0.931   2.586   1.336
 4099SOL     OW13195   3.767   5.337   1.030
 4099SOL    HW113196   3.710   5.255   1.027
 4099SOL    HW213197   3.812   5.348   0.941
 4100SOL     OW13198   0.989   6.982   4.423
 4100SOL    HW113199   0.954   7.020   4.337
 4100SOL    HW213200   1.050   0.027   4.466
 4101SOL     OW13201   0.879   0.828   0.122
 4101SOL    HW113202   0.855   0.851   0.217
 4101SOL    HW213203   0.967   0.870   0.100
 4102SOL     OW13204   1.872   0.405   0.958
 4102SOL    HW113205   1.968   0.386   0.942
 4102SOL    HW213206   1.818   0.322   0.945
 4103SOL     OW13207   0.959   6.914   2.010
 4103SOL    HW113208   0.991   6.976   1.938
 4103SOL    HW213209   1.034   6.856   2.041
 4104SOL     OW13210   0.121   4.859   3.441
 4104SOL    HW113211   0.185   4.794   3.401
 4104SOL    HW213212   0.114   4.844   3.539
 4105SOL     OW13213   6.278   0.386   2.711
 4105SOL    HW113214   6.283   0.485   2.719
 4105SOL    HW213215   6.279   0.345   2.803
 4106SOL     OW13216   0.183   3.034   3.511
 4106SOL    HW113217   0.152   3.123   3.475
 4106SOL    HW213218   0.146   3.021   3.603
 4107SOL     OW13219   1.150   5.874   0.424
 4107SOL    HW113220   1.229   5.819   0.398
 4107SOL    HW213221   1.080   5.868   0.353
 4108SOL     OW13222   6.214   4.838   4.486
 4108SOL    HW113223   6.253   4.755   4.447
 4108SOL    HW213224   6.237   4.843   4.583
 4109SOL     OW13225   6.337   6.719   4.768
 4109SOL    HW113226   6.286   6.803   4.786
 4109SOL    HW213227   6.285   6.661   4.705
 4110SOL     OW13228   4.242   3.937   6.023
 4110SOL    HW113229   4.240   4.002   5.947
 4110SOL    HW213230   4.315   3.962   6.087
 4111SOL     OW13231   5.458   4.930   6.271
 4111SOL    HW113232   5.415   5.008   6.225
 4111SOL    HW213233   5.392   4.854   6.276
 4112SOL     OW13234   4.863   6.206   4.327
 4112SOL    HW113235   4.931   6.251   4.385
 4112SOL    HW213236   4.848   6.113   4.360
 4113SOL     OW13237   5.385   5.542   4.643
 4113SOL    HW113238   5.466   5.554   4.701
 4113SOL    HW213239   5.390   5.606   4.566
 4114SOL     OW13240   4.606   2.035   3.860
 4114SOL    HW113241   4.548   2.112   3.831
 4114SOL    HW213242   4.550   1.966   3.905
 4115SOL     OW13243   2.970   4.824   2.970
 4115SOL    HW113244   3.025   4.747   3.004
 4115SOL    HW213245   2.911   4.858   3.043
 4116SOL     OW13246   4.249   1.623   3.100
 4116SOL    HW113247   4.269   1.544   3.158
 4116SOL    HW213248   4.321   1.635   3.032
 4117SOL     OW13249   1.163   3.413   2.648
 4117SOL    HW113250   1.255   3.409   2.687
 4117SOL    HW213251   1.167   3.463   2.561
 4118SOL     OW13252   5.444   6.697   0.334
 4118SOL    HW113253   5.354   6.655   0.322
 4118SOL    HW213254   5.500   6.679   0.254
 4119SOL     OW13255   2.975   1.535   3.956
 4119SOL    HW113256   2.992   1.610   4.020
 4119SOL    HW213257   3.058   1.478   3.950
 4120SOL     OW13258   2.863   1.287   6.076
 4120SOL    HW113259   2.844   1.256   5.983
 4120SOL    HW213260   2.911   1.215   6.126
 4121SOL     OW13261   6.495   6.988   3.933
 4121SOL    HW113262   6.500   0.059   3.974
 4121SOL    HW213263   6.455   6.925   3.999
 4122SOL     OW13264   1.658   6.292   4.506
 4122SOL    HW113265   1.696   6.213   4.458
 4122SOL    HW213266   1.690   6.376   4.462
 4123SOL     OW13267   4.097   4.694   5.351
 4123SOL    HW113268   4.048   4.622   5.400
 4123SOL    HW213269   4.032   4.750   5.299
 4124SOL     OW13270   6.522   6.469   0.588
 4124SOL    HW113271   6.474   6.458   0.501
 4124SOL    HW213272   6.483   6.545   0.638
 4125SOL     OW13273   4.285   2.258   2.953
 4125SOL    HW113274   4.335   2.297   2.876
 4125SOL    HW213275   4.324   2.291   3.039
 4126SOL     OW13276   1.695   3.454   3.399
 4126SOL    HW113277   1.600   3.485   3.396
 4126SOL    HW213278   1.735   3.478   3.487
 4127SOL     OW13279   5.851   3.571   4.777
 4127SOL    HW113280   5.922   3.635   4.808
 4127SOL    HW213281   5.882   3.528   4.692
 4128SOL     OW13282   0.891   3.512   1.177
 4128SOL    HW113283   0.879   3.479   1.270
 4128SOL    HW213284   0.943   3.445   1.123
 4129SOL     OW13285   3.070   0.849   0.080
 4129SOL    HW113286   3.074   0.769   0.020
 4129SOL    HW213287   3.154   0.902   0.068
 4130SOL     OW13288   6.605   2.882   0.518
 4130SOL    HW113289   6.637   2.964   0.566
 4130SOL    HW213290   6.508   2.868   0.537
 4131SOL     OW13291   0.206   1.541   3.075
 4131SOL    HW113292   0.295   1.532   3.030
 4131SOL    HW213293   0.215   1.521   3.172
 4132SOL     OW13294   4.933   4.092   3.491
 4132SOL    HW113295   4.909   3.999   3.465
 4132SOL    HW213296   4.863   4.155   3.457
 4133SOL     OW13297   3.238   6.034   1.939
 4133SOL    HW113298   3.313   6.091   1.906
 4133SOL    HW213299   3.152   6.085   1.935
 4134SOL     OW13300   1.714   3.809   1.021
 4134SOL    HW113301   1.812   3.787   1.019
 4134SOL    HW213302   1.685   3.839   0.930
 4135SOL     OW13303   0.332   2.309   2.238
 4135SOL    HW113304   0.254   2.357   2.196
 4135SOL    HW213305   0.321   2.210   2.224
 4136SOL     OW13306   1.531   3.617   3.050
 4136SOL    HW113307   1.630   3.628   3.051
 4136SOL    HW213308   1.507   3.526   3.086
 4137SOL     OW13309   1.757   3.152   1.199
 4137SOL    HW113310   1.785   3.070   1.149
 4137SOL    HW213311   1.770   3.137   1.297
 4138SOL     OW13312   3.970   5.521   2.631
 4138SOL    HW113313   4.040   5.460   2.667
 4138SOL    HW213314   3.934   5.485   2.546
 4139SOL     OW13315   1.299   1.167   5.278
 4139SOL    HW113316   1.243   1.210   5.207
 4139SOL    HW213317   1.297   1.068   5.267
 4140SOL     OW13318   3.231   1.122   5.146
 4140SOL    HW113319   3.282   1.097   5.063
 4140SOL    HW213320   3.156   1.183   5.121
 4141SOL     OW13321   5.303   6.504   1.452
 4141SOL    HW113322   5.378   6.485   1.389
 4141SOL    HW213323   5.224   6.447   1.428
 4142SOL     OW13324   6.677   4.958   0.669
 4142SOL    HW113325   6.769   4.989   0.645
 4142SOL    HW213326   6.677   4.921   0.762
 4143SOL     OW13327   5.675   3.096   1.208
 4143SOL    HW113328   5.651   3.091   1.304
 4143SOL    HW213329   5.646   3.184   1.170
 4144SOL     OW13330   4.971   1.283   0.323
 4144SOL    HW113331   4.966   1.242   0.414
 4144SOL    HW213332   4.969   1.382   0.330
 4145SOL     OW13333   0.285   6.567   1.600
 4145SOL    HW113334   0.256   6.481   1.558
 4145SOL    HW213335   0.303   6.635   1.529
 4146SOL     OW13336   6.430   0.294   3.624
 4146SOL    HW113337   6.478   0.206   3.625
 4146SOL    HW213338   6.459   0.346   3.543
 4147SOL     OW13339   3.826   4.793   6.087
 4147SOL    HW113340   3.820   4.696   6.063
 4147SOL    HW213341   3.768   4.847   6.026
 4148SOL     OW13342   2.585   0.561   4.433
 4148SOL    HW113343   2.551   0.471   4.457
 4148SOL    HW213344   2.685   0.558   4.422
 4149SOL     OW13345   0.276   4.324   1.248
 4149SOL    HW113346   0.365   4.330   1.292
 4149SOL    HW213347   0.276   4.379   1.164
 4150SOL     OW13348   0.950   0.969   5.699
 4150SOL    HW113349   0.937   1.058   5.656
 4150SOL    HW213350   0.893   0.901   5.653
 4151SOL     OW13351   2.671   6.329   5.737
 4151SOL    HW113352   2.654   6.363   5.830
 4151SOL    HW213353   2.741   6.385   5.694
 4152SOL     OW13354   4.175   5.740   1.824
 4152SOL    HW113355   4.164   5.671   1.753
 4152SOL    HW213356   4.089   5.749   1.875
 4153SOL     OW13357   5.748   5.272   0.978
 4153SOL    HW113358   5.764   5.370   0.961
 4153SOL    HW213359   5.757   5.222   0.892
 4154SOL     OW13360   6.582   5.070   4.112
 4154SOL    HW113361   6.627   5.145   4.064
 4154SOL    HW213362   6.592   4.986   4.059
 4155SOL     OW13363   0.208   0.765   1.120
 4155SOL    HW113364   0.177   0.778   1.215
 4155SOL    HW213365   0.207   0.853   1.073
 4156SOL     OW13366   6.189   5.723   5.288
 4156SOL    HW113367   6.244   5.804   5.269
 4156SOL    HW213368   6.127   5.705   5.212
 4157SOL     OW13369   5.427   5.709   4.437
 4157SOL    HW113370   5.510   5.714   4.382
 4157SOL    HW213371   5.364   5.781   4.409
 4158SOL     OW13372   0.739   3.064   2.172
 4158SOL    HW113373   0.759   3.154   2.212
 4158SOL    HW213374   0.704   3.003   2.243
 4159SOL     OW13375   1.775   3.186   3.298
 4159SOL    HW113376   1.751   3.283   3.297
 4159SOL    HW213377   1.800   3.159   3.391
 4160SOL     OW13378   5.359   0.533   6.936
 4160SOL    HW113379   5.412   0.449   6.949
 4160SOL    HW213380   5.368   0.591   7.017
 4161SOL     OW13381   1.123   1.960   0.933
 4161SOL    HW113382   1.186   2.024   0.978
 4161SOL    HW213383   1.154   1.942   0.840
 4162SOL     OW13384   6.437   6.036   0.367
 4162SOL    HW113385   6.477   5.971   0.301
 4162SOL    HW213386   6.338   6.031   0.362
 4163SOL     OW13387   5.347   0.511   3.763
 4163SOL    HW113388   5.318   0.484   3.855
 4163SOL    HW213389   5.275   0.486   3.698
 4164SOL     OW13390   1.784   6.853   5.270
 4164SOL    HW113391   1.875   6.872   5.307
 4164SOL    HW213392   1.726   6.934   5.283
 4165SOL     OW13393   4.286   0.366   5.936
 4165SOL    HW113394   4.307   0.451   5.983
 4165SOL    HW213395   4.368   0.332   5.890
 4166SOL     OW13396   5.645   1.597   0.518
 4166SOL    HW113397   5.588   1.667   0.560
 4166SOL    HW213398   5.587   1.524   0.481
 4167SOL     OW13399   3.049   4.279   0.062
 4167SOL    HW113400   3.006   4.315   0.145
 4167SOL    HW213401   3.142   4.249   0.083
 4168SOL     OW13402   0.326   4.024   1.204
 4168SOL    HW113403   0.312   4.110   1.254
 4168SOL    HW213404   0.398   3.971   1.250
 4169SOL     OW13405   6.032   4.996   4.374
 4169SOL    HW113406   5.940   4.997   4.413
 4169SOL    HW213407   6.098   4.978   4.447
 4170SOL     OW13408   4.452   3.319   6.270
 4170SOL    HW113409   4.368   3.372   6.281
 4170SOL    HW213410   4.429   3.221   6.265
 4171SOL     OW13411   6.403   5.593   0.924
 4171SOL    HW113412   6.325   5.578   0.985
 4171SOL    HW213413   6.417   5.512   0.868
 4172SOL     OW13414   2.163   1.756   6.454
 4172SOL    HW113415   2.173   1.673   6.509
 4172SOL    HW213416   2.078   1.802   6.479
 4173SOL     OW13417   5.453   3.843   4.797
 4173SOL    HW113418   5.424   3.816   4.888
 4173SOL    HW213419   5.506   3.770   4.755
 4174SOL     OW13420   4.535   1.132   2.704
 4174SOL    HW113421   4.582   1.220   2.695
 4174SOL    HW213422   4.436   1.146   2.702
 4175SOL     OW13423   2.094   5.219   4.233
 4175SOL    HW113424   1.995   5.233   4.239
 4175SOL    HW213425   2.130   5.274   4.158
 4176SOL     OW13426   4.167   6.305   1.548
 4176SOL    HW113427   4.067   6.303   1.545
 4176SOL    HW213428   4.203   6.229   1.494
 4177SOL     OW13429   5.995   4.984   5.693
 4177SOL    HW113430   6.000   5.082   5.674
 4177SOL    HW213431   6.008   4.969   5.791
 4178SOL     OW13432   4.216   6.677   4.122
 4178SOL    HW113433   4.182   6.597   4.073
 4178SOL    HW213434   4.160   6.756   4.099
 4179SOL     OW13435   5.434   3.657   2.863
 4179SOL    HW113436   5.479   3.571   2.888
 4179SOL    HW213437   5.365   3.640   2.793
 4180SOL     OW13438   3.857   3.647   0.420
 4180SOL    HW113439   3.895   3.665   0.329
 4180SOL    HW213440   3.760   3.623   0.411
 4181SOL     OW13441   4.091   0.675   7.018
 4181SOL    HW113442   4.162   0.740   6.988
 4181SOL    HW213443   4.004   0.724   0.007
 4182SOL     OW13444   0.729   6.415   3.525
 4182SOL    HW113445   0.803   6.348   3.537
 4182SOL    HW213446   0.761   6.490   3.467
 4183SOL     OW13447   2.875   1.329   0.093
 4183SOL    HW113448   2.930   1.344   0.010
 4183SOL    HW213449   2.918   1.376   0.170
 4184SOL     OW13450   3.400   6.616   2.654
 4184SOL    HW113451   3.450   6.703   2.653
 4184SOL    HW213452   3.456   6.545   2.610
 4185SOL     OW13453   0.868   5.207   3.026
 4185SOL    HW113454   0.806   5.242   2.955
 4185SOL    HW213455   0.881   5.109   3.013
 4186SOL     OW13456   2.789   4.905   6.966
 4186SOL    HW113457   2.740   4.955   0.016
 4186SOL    HW213458   2.760   4.809   6.966
 4187SOL     OW13459   3.531   3.497   5.454
 4187SOL    HW113460   3.605   3.514   5.389
 4187SOL    HW213461   3.566   3.442   5.530
 4188SOL     OW13462   5.767   1.057   5.298
 4188SOL    HW113463   5.844   1.055   5.361
 4188SOL    HW213464   5.741   0.963   5.274
 4189SOL     OW13465   3.173   5.120   5.041
 4189SOL    HW113466   3.197   5.217   5.038
 4189SOL    HW213467   3.170   5.083   4.948
 4190SOL     OW13468   0.948   0.669   0.634
 4190SOL    HW113469   1.001   0.753   0.642
 4190SOL    HW213470   0.851   0.690   0.644
 4191SOL     OW13471   4.959   4.405   3.694
 4191SOL    HW113472   4.976   4.502   3.676
 4191SOL    HW213473   4.870   4.379   3.655
 4192SOL     OW13474   0.456   0.951   4.095
 4192SOL    HW113475   0.402   0.892   4.035
 4192SOL    HW213476   0.544   0.972   4.051
 4193SOL     OW13477   6.468   0.933   1.412
 4193SOL    HW113478   6.566   0.920   1.427
 4193SOL    HW213479   6.440   0.883   1.331
 4194SOL     OW13480   5.752   0.250   4.856
 4194SOL    HW113481   5.742   0.346   4.829
 4194SOL    HW213482   5.799   0.245   4.944
 4195SOL     OW13483   4.062   6.347   1.144
 4195SOL    HW113484   4.008   6.314   1.221
 4195SOL    HW213485   4.011   6.417   1.094
 4196SOL     OW13486   6.226   2.353   2.144
 4196SOL    HW113487   6.224   2.356   2.244
 4196SOL    HW213488   6.144   2.307   2.110
 4197SOL     OW13489   4.646   5.243   5.552
 4197SOL    HW113490   4.605   5.274   5.637
 4197SOL    HW213491   4.745   5.235   5.563
 4198SOL     OW13492   6.218   2.115   0.167
 4198SOL    HW113493   6.210   2.131   0.265
 4198SOL    HW213494   6.306   2.150   0.134
 4199SOL     OW13495   1.682   2.282   6.049
 4199SOL    HW113496   1.760   2.238   6.094
 4199SOL    HW213497   1.709   2.371   6.014
 4200SOL     OW13498   3.693   0.633   6.109
 4200SOL    HW113499   3.704   0.646   6.208
 4200SOL    HW213500   3.612   0.681   6.078
 4201SOL     OW13501   6.285   6.590   3.622
 4201SOL    HW113502   6.235   6.608   3.537
 4201SOL    HW213503   6.302   6.676   3.670
 4202SOL     OW13504   3.484   5.719   5.714
 4202SOL    HW113505   3.487   5.655   5.791
 4202SOL    HW213506   3.479   5.667   5.628
 4203SOL     OW13507   3.771   5.007   6.966
 4203SOL    HW113508   3.691   4.997   6.907
 4203SOL    HW213509   3.783   5.103   6.990
 4204SOL     OW13510   4.053   3.686   3.245
 4204SOL    HW113511   4.065   3.598   3.198
 4204SOL    HW213512   4.035   3.758   3.177
 4205SOL     OW13513   4.420   5.753   3.370
 4205SOL    HW113514   4.365   5.671   3.385
 4205SOL    HW213515   4.479   5.739   3.290
 4206SOL     OW13516   6.574   0.304   5.716
 4206SOL    HW113517   6.584   0.314   5.815
 4206SOL    HW213518   6.625   0.377   5.670
 4207SOL     OW13519   1.793   1.802   1.609
 4207SOL    HW113520   1.799   1.738   1.686
 4207SOL    HW213521   1.820   1.893   1.639
 4208SOL     OW13522   0.165   2.967   5.676
 4208SOL    HW113523   0.141   3.031   5.603
 4208SOL    HW213524   0.098   2.974   5.750
 4209SOL     OW13525   6.888   0.387   3.712
 4209SOL    HW113526   6.956   0.354   3.646
 4209SOL    HW213527   6.806   0.330   3.707
 4210SOL     OW13528   3.920   3.040   2.103
 4210SOL    HW113529   3.986   3.113   2.118
 4210SOL    HW213530   3.904   2.991   2.188
 4211SOL     OW13531   4.703   6.481   6.350
 4211SOL    HW113532   4.710   6.541   6.271
 4211SOL    HW213533   4.615   6.433   6.349
 4212SOL     OW13534   6.258   1.752   2.604
 4212SOL    HW113535   6.313   1.676   2.638
 4212SOL    HW213536   6.247   1.820   2.677
 4213SOL     OW13537   1.858   0.534   1.381
 4213SOL    HW113538   1.886   0.618   1.333
 4213SOL    HW213539   1.940   0.481   1.403
 4214SOL     OW13540   0.652   5.222   5.578
 4214SOL    HW113541   0.598   5.172   5.511
 4214SOL    HW213542   0.697   5.158   5.641
 4215SOL     OW13543   5.259   6.910   5.711
 4215SOL    HW113544   5.247   6.970   5.791
 4215SOL    HW213545   5.357   6.894   5.696
 4216SOL     OW13546   1.657   1.605   2.177
 4216SOL    HW113547   1.569   1.653   2.173
 4216SOL    HW213548   1.726   1.665   2.217
 4217SOL     OW13549   0.926   0.432   2.434
 4217SOL    HW113550   0.962   0.507   2.490
 4217SOL    HW213551   0.850   0.466   2.379
 4218SOL     OW13552   4.079   1.209   1.595
 4218SOL    HW113553   4.024   1.247   1.669
 4218SOL    HW213554   4.118   1.122   1.624
 4219SOL     OW13555   4.110   5.706   3.983
 4219SOL    HW113556   4.141   5.775   3.918
 4219SOL    HW213557   4.035   5.653   3.943
 4220SOL     OW13558   6.129   2.730   3.586
 4220SOL    HW113559   6.198   2.686   3.529
 4220SOL    HW213560   6.138   2.829   3.579
 4221SOL     OW13561   5.618   5.617   5.971
 4221SOL    HW113562   5.600   5.520   5.988
 4221SOL    HW213563   5.623   5.633   5.872
 4222SOL     OW13564   6.970   2.381   2.915
 4222SOL    HW113565   6.904   2.438   2.866
 4222SOL    HW213566   0.000   2.326   2.848
 4223SOL     OW13567   3.604   3.091   6.721
 4223SOL    HW113568   3.634   2.996   6.713
 4223SOL    HW213569   3.671   3.151   6.677
 4224SOL     OW13570   5.200   4.090   4.164
 4224SOL    HW113571   5.176   4.061   4.257
 4224SOL    HW213572   5.296   4.116   4.160
 4225SOL     OW13573   3.843   1.412   5.717
 4225SOL    HW113574   3.884   1.444   5.632
 4225SOL    HW213575   3.892   1.332   5.751
 4226SOL     OW13576   1.004   0.574   2.060
 4226SOL    HW113577   0.981   0.489   2.107
 4226SOL    HW213578   1.094   0.565   2.016
 4227SOL     OW13579   4.046   4.612   0.792
 4227SOL    HW113580   4.069   4.629   0.888
 4227SOL    HW213581   4.116   4.652   0.733
 4228SOL     OW13582   0.957   4.454   4.736
 4228SOL    HW113583   0.863   4.433   4.759
 4228SOL    HW213584   1.019   4.392   4.785
 4229SOL     OW13585   5.123   5.451   5.524
 4229SOL    HW113586   5.189   5.410   5.587
 4229SOL    HW213587   5.040   5.476   5.574
 4230SOL     OW13588   1.645   5.943   2.844
 4230SOL    HW113589   1.670   6.039   2.860
 4230SOL    HW213590   1.546   5.933   2.844
 4231SOL     OW13591   5.804   0.103   5.787
 4231SOL    HW113592   5.808   0.150   5.875
 4231SOL    HW213593   5.723   0.133   5.737
 4232SOL     OW13594   0.242   5.281   3.332
 4232SOL    HW113595   0.337   5.267   3.360
 4232SOL    HW213596   0.212   5.373   3.359
 4233SOL     OW13597   6.894   0.592   6.321
 4233SOL    HW113598   6.900   0.496   6.291
 4233SOL    HW213599   6.838   0.643   6.257
 4234SOL     OW13600   2.294   6.478   5.062
 4234SOL    HW113601   2.256   6.515   4.977
 4234SOL    HW213602   2.240   6.398   5.090
 4235SOL     OW13603   5.557   3.340   6.141
 4235SOL    HW113604   5.618   3.332   6.063
 4235SOL    HW213605   5.597   3.401   6.209
 4236SOL     OW13606   6.209   3.862   2.705
 4236SOL    HW113607   6.181   3.790   2.768
 4236SOL    HW213608   6.269   3.824   2.635
 4237SOL     OW13609   5.785   6.177   2.463
 4237SOL    HW113610   5.839   6.212   2.540
 4237SOL    HW213611   5.792   6.077   2.460
 4238SOL     OW13612   2.623   5.802   3.336
 4238SOL    HW113613   2.545   5.864   3.336
 4238SOL    HW213614   2.642   5.773   3.243
 4239SOL     OW13615   6.153   1.876   2.834
 4239SOL    HW113616   6.133   1.974   2.824
 4239SOL    HW213617   6.155   1.853   2.932
 4240SOL     OW13618   2.071   6.337   6.994
 4240SOL    HW113619   2.131   6.260   7.016
 4240SOL    HW213620   2.127   6.419   6.981
 4241SOL     OW13621   6.353   0.897   0.338
 4241SOL    HW113622   6.294   0.818   0.355
 4241SOL    HW213623   6.425   0.871   0.274
 4242SOL     OW13624   3.191   1.364   3.933
 4242SOL    HW113625   3.275   1.383   3.984
 4242SOL    HW213626   3.214   1.353   3.836
 4243SOL     OW13627   6.487   2.926   3.435
 4243SOL    HW113628   6.506   2.968   3.346
 4243SOL    HW213629   6.403   2.964   3.473
 4244SOL     OW13630   4.518   4.012   1.318
 4244SOL    HW113631   4.487   3.920   1.295
 4244SOL    HW213632   4.440   4.067   1.349
 4245SOL     OW13633   0.584   1.327   6.183
 4245SOL    HW113634   0.503   1.374   6.147
 4245SOL    HW213635   0.607   1.250   6.123
 4246SOL     OW13636   6.805   3.967   3.487
 4246SOL    HW113637   6.795   4.051   3.540
 4246SOL    HW213638   6.883   3.915   3.521
 4247SOL     OW13639   2.868   5.514   3.682
 4247SOL    HW113640   2.798   5.585   3.673
 4247SOL    HW213641   2.952   5.554   3.719
 4248SOL     OW13642   2.830   2.059   3.490
 4248SOL    HW113643   2.733   2.044   3.468
 4248SOL    HW213644   2.886   2.027   3.414
 4249SOL     OW13645   5.419   2.595   3.706
 4249SOL    HW113646   5.427   2.565   3.801
 4249SOL    HW213647   5.396   2.517   3.649
 4250SOL     OW13648   6.070   4.997   2.957
 4250SOL    HW113649   6.123   5.039   2.883
 4250SOL    HW213650   6.122   5.004   3.042
 4251SOL     OW13651   5.446   4.482   1.887
 4251SOL    HW113652   5.538   4.519   1.902
 4251SOL    HW213653   5.454   4.386   1.860
 4252SOL     OW13654   5.469   6.953   6.486
 4252SOL    HW113655   5.548   6.895   6.508
 4252SOL    HW213656   5.442   6.938   6.391
 4253SOL     OW13657   3.240   0.228   0.951
 4253SOL    HW113658   3.235   0.311   1.007
 4253SOL    HW213659   3.256   0.254   0.856
 4254SOL     OW13660   1.272   3.776   1.888
 4254SOL    HW113661   1.332   3.839   1.936
 4254SOL    HW213662   1.183   3.772   1.933
 4255SOL     OW13663   6.796   3.974   3.841
 4255SOL    HW113664   6.842   3.958   3.928
 4255SOL    HW213665   6.704   3.934   3.845
 4256SOL     OW13666   1.738   6.407   0.664
 4256SOL    HW113667   1.676   6.404   0.585
 4256SOL    HW213668   1.803   6.331   0.659
 4257SOL     OW13669   2.553   0.891   4.021
 4257SOL    HW113670   2.648   0.915   4.001
 4257SOL    HW213671   2.494   0.969   4.001
 4258SOL     OW13672   4.513   5.766   0.736
 4258SOL    HW113673   4.480   5.678   0.701
 4258SOL    HW213674   4.442   5.835   0.724
 4259SOL     OW13675   2.700   0.650   1.039
 4259SOL    HW113676   2.704   0.562   0.991
 4259SOL    HW213677   2.780   0.659   1.098
 4260SOL     OW13678   5.612   0.330   1.463
 4260SOL    HW113679   5.597   0.290   1.553
 4260SOL    HW213680   5.680   0.403   1.470
 4261SOL     OW13681   2.347   6.972   2.778
 4261SOL    HW113682   2.375   6.878   2.761
 4261SOL    HW213683   2.331   7.019   2.691
 4262SOL     OW13684   0.882   4.805   6.481
 4262SOL    HW113685   0.925   4.843   6.563
 4262SOL    HW213686   0.951   4.757   6.427
 4263SOL     OW13687   3.122   0.272   3.390
 4263SOL    HW113688   3.030   0.254   3.354
 4263SOL    HW213689   3.115   0.336   3.467
 4264SOL     OW13690   6.536   2.160   2.426
 4264SOL    HW113691   6.619   2.171   2.480
 4264SOL    HW213692   6.457   2.152   2.487
 4265SOL     OW13693   4.525   1.576   1.306
 4265SOL    HW113694   4.545   1.673   1.318
 4265SOL    HW213695   4.595   1.521   1.351
 4266SOL     OW13696   1.963   5.392   0.128
 4266SOL    HW113697   1.945   5.312   0.071
 4266SOL    HW213698   1.942   5.475   0.077
 4267SOL     OW13699   1.891   3.059   3.534
 4267SOL    HW113700   1.846   3.001   3.602
 4267SOL    HW213701   1.913   3.147   3.576
 4268SOL     OW13702   1.212   6.371   6.755
 4268SOL    HW113703   1.138   6.303   6.749
 4268SOL    HW213704   1.260   6.360   6.842
 4269SOL     OW13705   3.006   0.593   2.560
 4269SOL    HW113706   3.035   0.609   2.654
 4269SOL    HW213707   3.070   0.636   2.497
 4270SOL     OW13708   4.136   3.253   3.005
 4270SOL    HW113709   4.220   3.212   3.041
 4270SOL    HW213710   4.086   3.297   3.080
 4271SOL     OW13711   6.770   0.917   6.785
 4271SOL    HW113712   6.674   0.894   6.773
 4271SOL    HW213713   6.821   0.836   6.813
 4272SOL     OW13714   6.697   2.386   4.448
 4272SOL    HW113715   6.668   2.291   4.443
 4272SOL    HW213716   6.668   2.426   4.535
 4273SOL     OW13717   4.766   6.936   4.492
 4273SOL    HW113718   4.751   0.013   4.505
 4273SOL    HW213719   4.678   6.889   4.490
 4274SOL     OW13720   1.113   6.261   1.983
 4274SOL    HW113721   1.086   6.179   1.935
 4274SOL    HW213722   1.189   6.305   1.935
 4275SOL     OW13723   6.602   2.125   4.417
 4275SOL    HW113724   6.643   2.041   4.382
 4275SOL    HW213725   6.538   2.103   4.490
 4276SOL     OW13726   1.624   5.101   3.649
 4276SOL    HW113727   1.625   5.053   3.737
 4276SOL    HW213728   1.644   5.198   3.663
 4277SOL     OW13729   6.082   4.651   3.193
 4277SOL    HW113730   6.179   4.674   3.192
 4277SOL    HW213731   6.067   4.568   3.139
 4278SOL     OW13732   6.641   0.259   5.280
 4278SOL    HW113733   6.554   0.303   5.259
 4278SOL    HW213734   6.631   0.160   5.273
 4279SOL     OW13735   3.233   0.381   4.180
 4279SOL    HW113736   3.226   0.456   4.245
 4279SOL    HW213737   3.241   0.417   4.087
 4280SOL     OW13738   4.427   0.642   5.690
 4280SOL    HW113739   4.420   0.608   5.784
 4280SOL    HW213740   4.343   0.621   5.641
 4281SOL     OW13741   6.888   4.783   3.429
 4281SOL    HW113742   6.819   4.848   3.460
 4281SOL    HW213743   6.979   4.825   3.434
 4282SOL     OW13744   3.513   3.840   6.239
 4282SOL    HW113745   3.527   3.901   6.317
 4282SOL    HW213746   3.475   3.753   6.271
 4283SOL     OW13747   0.937   0.590   3.419
 4283SOL    HW113748   0.878   0.668   3.396
 4283SOL    HW213749   0.953   0.588   3.518
 4284SOL     OW13750   3.805   5.005   1.448
 4284SOL    HW113751   3.757   5.084   1.486
 4284SOL    HW213752   3.851   5.032   1.363
 4285SOL     OW13753   1.595   0.689   5.484
 4285SOL    HW113754   1.571   0.774   5.531
 4285SOL    HW213755   1.694   0.677   5.485
 4286SOL     OW13756   4.594   6.600   6.056
 4286SOL    HW113757   4.538   6.664   6.004
 4286SOL    HW213758   4.657   6.553   5.994
 4287SOL     OW13759   5.735   1.611   6.398
 4287SOL    HW113760   5.692   1.576   6.481
 4287SOL    HW213761   5.825   1.569   6.387
 4288SOL     OW13762   0.162   5.646   3.872
 4288SOL    HW113763   0.121   5.735   3.893
 4288SOL    HW213764   0.090   5.579   3.855
 4289SOL     OW13765   6.597   3.129   6.304
 4289SOL    HW113766   6.560   3.111   6.395
 4289SOL    HW213767   6.558   3.065   6.239
 4290SOL     OW13768   1.546   6.524   3.423
 4290SOL    HW113769   1.569   6.548   3.517
 4290SOL    HW213770   1.479   6.589   3.387
 4291SOL     OW13771   4.384   3.777   0.548
 4291SOL    HW113772   4.428   3.735   0.627
 4291SOL    HW213773   4.428   3.745   0.464
 4292SOL     OW13774   5.635   2.912   0.573
 4292SOL    HW113775   5.707   2.976   0.547
 4292SOL    HW213776   5.567   2.906   0.499
 4293SOL     OW13777   2.782   2.974   0.559
 4293SOL    HW113778   2.690   2.983   0.520
 4293SOL    HW213779   2.775   2.968   0.658
 4294SOL     OW13780   1.956   2.101   6.978
 4294SOL    HW113781   1.960   2.151   6.891
 4294SOL    HW213782   1.929   2.164   0.030
 4295SOL     OW13783   3.779   5.777   4.631
 4295SOL    HW113784   3.742   5.714   4.563
 4295SOL    HW213785   3.788   5.868   4.591
 4296SOL     OW13786   2.634   6.871   0.839
 4296SOL    HW113787   2.719   6.841   0.881
 4296SOL    HW213788   2.654   6.940   0.770
 4297SOL     OW13789   4.689   0.316   6.427
 4297SOL    HW113790   4.754   0.241   6.442
 4297SOL    HW213791   4.597   0.287   6.451
 4298SOL     OW13792   3.955   5.128   0.174
 4298SOL    HW113793   3.909   5.066   0.238
 4298SOL    HW213794   3.965   5.218   0.217
 4299SOL     OW13795   1.283   3.241   6.348
 4299SOL    HW113796   1.187   3.215   6.335
 4299SOL    HW213797   1.342   3.181   6.295
 4300SOL     OW13798   3.146   6.751   0.675
 4300SOL    HW113799   3.217   6.683   0.662
 4300SOL    HW213800   3.097   6.765   0.589
 4301SOL     OW13801   3.883   1.577   1.529
 4301SOL    HW113802   3.880   1.675   1.550
 4301SOL    HW213803   3.956   1.560   1.464
 4302SOL     OW13804   1.159   0.201   6.289
 4302SOL    HW113805   1.193   0.194   6.195
 4302SOL    HW213806   1.117   0.114   6.317
 4303SOL     OW13807   0.208   4.004   3.608
 4303SOL    HW113808   0.269   3.951   3.549
 4303SOL    HW213809   0.250   4.013   3.699
 4304SOL     OW13810   3.148   3.915   2.815
 4304SOL    HW113811   3.069   3.864   2.848
 4304SOL    HW213812   3.181   3.977   2.887
 4305SOL     OW13813   6.880   0.409   5.341
 4305SOL    HW113814   6.809   0.342   5.320
 4305SOL    HW213815   6.924   0.385   5.427
 4306SOL     OW13816   5.406   4.327   5.741
 4306SOL    HW113817   5.364   4.308   5.830
 4306SOL    HW213818   5.461   4.249   5.712
 4307SOL     OW13819   5.357   3.792   5.803
 4307SOL    HW113820   5.298   3.720   5.841
 4307SOL    HW213821   5.448   3.754   5.785
 4308SOL     OW13822   6.526   4.993   0.442
 4308SOL    HW113823   6.581   4.972   0.522
 4308SOL    HW213824   6.471   4.913   0.417
 4309SOL     OW13825   1.362   1.031   0.162
 4309SOL    HW113826   1.410   1.068   0.082
 4309SOL    HW213827   1.297   1.098   0.196
 4310SOL     OW13828   1.366   2.436   2.011
 4310SOL    HW113829   1.322   2.425   1.922
 4310SOL    HW213830   1.405   2.528   2.018
 4311SOL     OW13831   2.182   5.958   2.649
 4311SOL    HW113832   2.233   5.910   2.720
 4311SOL    HW213833   2.153   6.047   2.684
 4312SOL     OW13834   2.056   5.424   1.281
 4312SOL    HW113835   2.140   5.446   1.232
 4312SOL    HW213836   2.071   5.431   1.379
 4313SOL     OW13837   4.582   1.329   1.788
 4313SOL    HW113838   4.598   1.267   1.712
 4313SOL    HW213839   4.613   1.421   1.764
 4314SOL     OW13840   6.164   1.393   4.157
 4314SOL    HW113841   6.078   1.376   4.205
 4314SOL    HW213842   6.148   1.390   4.059
 4315SOL     OW13843   2.551   6.318   2.128
 4315SOL    HW113844   2.459   6.309   2.088
 4315SOL    HW213845   2.596   6.397   2.088
 4316SOL     OW13846   5.492   0.783   2.154
 4316SOL    HW113847   5.522   0.722   2.227
 4316SOL    HW213848   5.516   0.744   2.065
 4317SOL     OW13849   5.005   2.456   4.733
 4317SOL    HW113850   4.950   2.403   4.798
 4317SOL    HW213851   4.987   2.554   4.747
 4318SOL     OW13852   0.446   3.261   4.959
 4318SOL    HW113853   0.410   3.212   5.038
 4318SOL    HW213854   0.514   3.205   4.913
 4319SOL     OW13855   2.304   1.767   1.512
 4319SOL    HW113856   2.267   1.858   1.530
 4319SOL    HW213857   2.383   1.775   1.451
 4320SOL     OW13858   5.610   5.344   0.293
 4320SOL    HW113859   5.550   5.290   0.233
 4320SOL    HW213860   5.598   5.314   0.388
 4321SOL     OW13861   6.840   6.707   4.908
 4321SOL    HW113862   6.873   6.723   4.816
 4321SOL    HW213863   6.914   6.672   4.965
 4322SOL     OW13864   5.976   2.580   6.793
 4322SOL    HW113865   5.986   2.549   6.887
 4322SOL    HW213866   5.998   2.505   6.730
 4323SOL     OW13867   4.686   3.673   1.355
 4323SOL    HW113868   4.707   3.589   1.305
 4323SOL    HW213869   4.609   3.720   1.312
 4324SOL     OW13870   5.451   4.102   6.386
 4324SOL    HW113871   5.406   4.016   6.413
 4324SOL    HW213872   5.400   4.145   6.312
 4325SOL     OW13873   2.410   1.125   1.595
 4325SOL    HW113874   2.372   1.148   1.505
 4325SOL    HW213875   2.416   1.208   1.651
 4326SOL     OW13876   4.368   4.958   3.928
 4326SOL    HW113877   4.384   5.057   3.921
 4326SOL    HW213878   4.412   4.923   4.011
 4327SOL     OW13879   5.940   5.934   1.548
 4327SOL    HW113880   5.938   6.019   1.601
 4327SOL    HW213881   6.019   5.879   1.576
 4328SOL     OW13882   4.461   3.757   5.551
 4328SOL    HW113883   4.463   3.776   5.453
 4328SOL    HW213884   4.382   3.803   5.592
 4329SOL     OW13885   4.309   1.693   5.448
 4329SOL    HW113886   4.221   1.702   5.495
 4329SOL    HW213887   4.379   1.663   5.513
 4330SOL     OW13888   2.131   6.387   4.395
 4330SOL    HW113889   2.204   6.418   4.456
 4330SOL    HW213890   2.065   6.461   4.382
 4331SOL     OW13891   5.596   1.417   1.579
 4331SOL    HW113892   5.662   1.353   1.619
 4331SOL    HW213893   5.557   1.473   1.651
 4332SOL     OW13894   5.390   3.683   1.900
 4332SOL    HW113895   5.354   3.688   1.807
 4332SOL    HW213896   5.476   3.632   1.899
 4333SOL     OW13897   3.465   0.975   5.920
 4333SOL    HW113898   3.405   1.046   5.958
 4333SOL    HW213899   3.435   0.885   5.952
 4334SOL     OW13900   1.406   2.577   2.635
 4334SOL    HW113901   1.418   2.500   2.573
 4334SOL    HW213902   1.439   2.661   2.591
 4335SOL     OW13903   3.268   3.805   2.599
 4335SOL    HW113904   3.234   3.832   2.690
 4335SOL    HW213905   3.222   3.860   2.529
 4336SOL     OW13906   3.121   6.598   6.673
 4336SOL    HW113907   3.159   6.640   6.591
 4336SOL    HW213908   3.073   6.514   6.649
 4337SOL     OW13909   0.729   4.519   0.852
 4337SOL    HW113910   0.764   4.430   0.881
 4337SOL    HW213911   0.755   4.589   0.918
 4338SOL     OW13912   6.043   0.436   5.579
 4338SOL    HW113913   5.955   0.443   5.625
 4338SOL    HW213914   6.029   0.433   5.480
 4339SOL     OW13915   5.743   3.291   5.476
 4339SOL    HW113916   5.768   3.261   5.384
 4339SOL    HW213917   5.773   3.223   5.543
 4340SOL     OW13918   6.531   2.827   1.962
 4340SOL    HW113919   6.476   2.780   2.032
 4340SOL    HW213920   6.567   2.912   2.000
 4341SOL     OW13921   0.707   5.871   2.196
 4341SOL    HW113922   0.697   5.969   2.213
 4341SOL    HW213923   0.620   5.833   2.165
 4342SOL     OW13924   5.444   3.810   3.686
 4342SOL    HW113925   5.429   3.886   3.622
 4342SOL    HW213926   5.405   3.833   3.775
 4343SOL     OW13927   2.643   6.589   5.250
 4343SOL    HW113928   2.589   6.523   5.198
 4343SOL    HW213929   2.593   6.615   5.332
 4344SOL     OW13930   0.727   4.324   1.965
 4344SOL    HW113931   0.693   4.231   1.977
 4344SOL    HW213932   0.729   4.371   2.053
 4345SOL     OW13933   3.243   3.705   4.879
 4345SOL    HW113934   3.289   3.760   4.949
 4345SOL    HW213935   3.260   3.745   4.789
 4346SOL     OW13936   2.119   3.176   2.361
 4346SOL    HW113937   2.122   3.261   2.412
 4346SOL    HW213938   2.103   3.196   2.264
 4347SOL     OW13939   6.613   6.527   2.300
 4347SOL    HW113940   6.679   6.465   2.343
 4347SOL    HW213941   6.653   6.619   2.295
 4348SOL     OW13942   6.607   4.866   3.931
 4348SOL    HW113943   6.512   4.836   3.932
 4348SOL    HW213944   6.644   4.857   3.838
 4349SOL     OW13945   6.117   2.107   2.373
 4349SOL    HW113946   6.193   2.047   2.348
 4349SOL    HW213947   6.031   2.055   2.370
 4350SOL     OW13948   3.436   1.439   4.022
 4350SOL    HW113949   3.535   1.429   4.022
 4350SOL    HW213950   3.411   1.529   4.057
 4351SOL     OW13951   1.723   5.188   0.891
 4351SOL    HW113952   1.818   5.178   0.920
 4351SOL    HW213953   1.676   5.100   0.900
 4352SOL     OW13954   6.355   3.715   2.508
 4352SOL    HW113955   6.453   3.716   2.486
 4352SOL    HW213956   6.316   3.627   2.481
 4353SOL     OW13957   4.328   2.805   6.458
 4353SOL    HW113958   4.299   2.748   6.381
 4353SOL    HW213959   4.248   2.833   6.511
 4354SOL     OW13960   2.245   0.104   5.618
 4354SOL    HW113961   2.266   0.087   5.522
 4354SOL    HW213962   2.149   0.132   5.627
 4355SOL     OW13963   2.167   6.889   2.243
 4355SOL    HW113964   2.189   6.792   2.254
 4355SOL    HW213965   2.091   6.898   2.178
 4356SOL     OW13966   5.007   3.902   0.582
 4356SOL    HW113967   5.040   3.918   0.675
 4356SOL    HW213968   4.982   3.989   0.540
 4357SOL     OW13969   6.550   1.402   0.943
 4357SOL    HW113970   6.510   1.444   1.024
 4357SOL    HW213971   6.501   1.434   0.861
 4358SOL     OW13972   0.505   0.001   0.721
 4358SOL    HW113973   0.568   0.012   0.798
 4358SOL    HW213974   0.460   0.088   0.702
 4359SOL     OW13975   2.168   1.601   6.126
 4359SOL    HW113976   2.201   1.679   6.179
 4359SOL    HW213977   2.188   1.516   6.175
 4360SOL     OW13978   1.432   3.244   3.444
 4360SOL    HW113979   1.367   3.171   3.466
 4360SOL    HW213980   1.512   3.235   3.504
 4361SOL     OW13981   2.402   3.334   1.323
 4361SOL    HW113982   2.494   3.315   1.357
 4361SOL    HW213983   2.354   3.392   1.388
 4362SOL     OW13984   6.119   5.649   3.308
 4362SOL    HW113985   6.023   5.663   3.283
 4362SOL    HW213986   6.130   5.561   3.354
 4363SOL     OW13987   5.871   2.091   1.276
 4363SOL    HW113988   5.808   2.044   1.214
 4363SOL    HW213989   5.837   2.183   1.296
 4364SOL     OW13990   2.911   3.442   4.444
 4364SOL    HW113991   2.920   3.351   4.404
 4364SOL    HW213992   2.911   3.511   4.371
 4365SOL     OW13993   2.105   0.836   2.083
 4365SOL    HW113994   2.142   0.924   2.055
 4365SOL    HW213995   2.079   0.841   2.180
 4366SOL     OW13996   5.741   0.383   0.544
 4366SOL    HW113997   5.821   0.333   0.512
 4366SOL    HW213998   5.770   0.461   0.600
 4367SOL     OW13999   2.193   4.233   4.492
 4367SOL    HW114000   2.173   4.255   4.396
 4367SOL    HW214001   2.169   4.138   4.509
 4368SOL     OW14002   3.946   4.917   0.527
 4368SOL    HW114003   3.855   4.955   0.546
 4368SOL    HW214004   3.951   4.892   0.430
 4369SOL     OW14005   4.225   5.342   2.649
 4369SOL    HW114006   4.276   5.382   2.573
 4369SOL    HW214007   4.259   5.379   2.735
 4370SOL     OW14008   4.030   5.466   1.595
 4370SOL    HW114009   3.977   5.440   1.515
 4370SOL    HW214010   4.099   5.534   1.570
 4371SOL     OW14011   0.944   2.205   2.137
 4371SOL    HW114012   0.968   2.118   2.179
 4371SOL    HW214013   0.974   2.206   2.042
 4372SOL     OW14014   2.698   1.805   2.817
 4372SOL    HW114015   2.699   1.712   2.782
 4372SOL    HW214016   2.780   1.853   2.786
 4373SOL     OW14017   5.790   2.080   0.383
 4373SOL    HW114018   5.712   2.118   0.432
 4373SOL    HW214019   5.776   2.088   0.285
 4374SOL     OW14020   0.736   1.545   0.546
 4374SOL    HW114021   0.701   1.579   0.459
 4374SOL    HW214022   0.766   1.450   0.535
 4375SOL     OW14023   4.330   6.836   3.130
 4375SOL    HW114024   4.337   6.913   3.068
 4375SOL    HW214025   4.310   6.753   3.078
 4376SOL     OW14026   0.140   6.939   2.161
 4376SOL    HW114027   0.229   6.933   2.205
 4376SOL    HW214028   0.120   0.014   2.139
 4377SOL     OW14029   5.675   4.630   6.750
 4377SOL    HW114030   5.753   4.581   6.789
 4377SOL    HW214031   5.668   4.609   6.653
 4378SOL     OW14032   2.307   2.803   2.897
 4378SOL    HW114033   2.284   2.821   2.992
 4378SOL    HW214034   2.245   2.854   2.837
 4379SOL     OW14035   1.701   2.537   2.603
 4379SOL    HW114036   1.714   2.589   2.519
 4379SOL    HW214037   1.603   2.529   2.623
 4380SOL     OW14038   1.320   6.903   3.141
 4380SOL    HW114039   1.384   6.974   3.167
 4380SOL    HW214040   1.310   6.902   3.042
 4381SOL     OW14041   1.612   4.391   4.995
 4381SOL    HW114042   1.566   4.471   5.035
 4381SOL    HW214043   1.557   4.309   5.011
 4382SOL     OW14044   6.739   3.040   4.785
 4382SOL    HW114045   6.655   2.989   4.806
 4382SOL    HW214046   6.731   3.133   4.820
 4383SOL     OW14047   0.739   2.846   5.914
 4383SOL    HW114048   0.835   2.854   5.938
 4383SOL    HW214049   0.683   2.891   5.983
 4384SOL     OW14050   6.475   1.788   5.554
 4384SOL    HW114051   6.565   1.766   5.519
 4384SOL    HW214052   6.416   1.707   5.551
 4385SOL     OW14053   6.181   2.420   5.307
 4385SOL    HW114054   6.235   2.338   5.325
 4385SOL    HW214055   6.188   2.444   5.210
 4386SOL     OW14056   2.373   3.080   6.618
 4386SOL    HW114057   2.433   3.114   6.690
 4386SOL    HW214058   2.278   3.104   6.639
 4387SOL     OW14059   6.837   1.421   1.063
 4387SOL    HW114060   6.813   1.324   1.062
 4387SOL    HW214061   6.775   1.472   1.005
 4388SOL     OW14062   5.328   2.408   6.531
 4388SOL    HW114063   5.399   2.339   6.547
 4388SOL    HW214064   5.310   2.415   6.433
 4389SOL     OW14065   6.885   3.258   0.893
 4389SOL    HW114066   6.823   3.320   0.846
 4389SOL    HW214067   6.838   3.173   0.914
 4390SOL     OW14068   3.602   1.164   1.511
 4390SOL    HW114069   3.567   1.095   1.575
 4390SOL    HW214070   3.656   1.231   1.561
 4391SOL     OW14071   2.023   5.750   6.684
 4391SOL    HW114072   2.096   5.741   6.752
 4391SOL    HW214073   2.013   5.846   6.658
 4392SOL     OW14074   0.078   2.997   4.457
 4392SOL    HW114075   0.098   2.967   4.364
 4392SOL    HW214076   7.002   3.019   4.466
 4393SOL     OW14077   6.075   0.550   2.507
 4393SOL    HW114078   6.048   0.467   2.459
 4393SOL    HW214079   6.159   0.586   2.467
 4394SOL     OW14080   6.452   5.882   2.315
 4394SOL    HW114081   6.539   5.860   2.360
 4394SOL    HW214082   6.376   5.843   2.367
 4395SOL     OW14083   2.929   6.410   1.892
 4395SOL    HW114084   2.955   6.314   1.884
 4395SOL    HW214085   2.972   6.462   1.819
 4396SOL     OW14086   2.085   2.061   3.650
 4396SOL    HW114087   2.002   2.070   3.594
 4396SOL    HW214088   2.139   1.984   3.617
 4397SOL     OW14089   6.924   1.146   4.712
 4397SOL    HW114090   6.876   1.062   4.739
 4397SOL    HW214091   7.013   1.149   4.756
 4398SOL     OW14092   0.336   3.879   5.633
 4398SOL    HW114093   0.380   3.938   5.701
 4398SOL    HW214094   0.404   3.853   5.564
 4399SOL     OW14095   2.524   0.228   1.939
 4399SOL    HW114096   2.582   0.158   1.897
 4399SOL    HW214097   2.461   0.184   2.003
 4400SOL     OW14098   3.165   6.434   5.711
 4400SOL    HW114099   3.069   6.463   5.712
 4400SOL    HW214100   3.200   6.435   5.805
 4401SOL     OW14101   4.065   6.702   6.288
 4401SOL    HW114102   4.048   6.789   6.243
 4401SOL    HW214103   4.162   6.680   6.283
 4402SOL     OW14104   2.719   0.436   1.957
 4402SOL    HW114105   2.692   0.484   2.041
 4402SOL    HW214106   2.662   0.355   1.945
 4403SOL     OW14107   1.264   6.871   1.936
 4403SOL    HW114108   1.319   6.931   1.878
 4403SOL    HW214109   1.312   6.858   2.023
 4404SOL     OW14110   1.087   4.966   5.579
 4404SOL    HW114111   1.157   4.955   5.649
 4404SOL    HW214112   1.117   5.033   5.512
 4405SOL     OW14113   1.768   4.043   0.571
 4405SOL    HW114114   1.820   4.077   0.648
 4405SOL    HW214115   1.758   4.115   0.502
 4406SOL     OW14116   0.172   3.635   0.737
 4406SOL    HW114117   0.138   3.607   0.647
 4406SOL    HW214118   0.257   3.687   0.725
 4407SOL     OW14119   6.246   5.170   0.382
 4407SOL    HW114120   6.249   5.226   0.299
 4407SOL    HW214121   6.337   5.163   0.422
 4408SOL     OW14122   3.471   0.675   1.162
 4408SOL    HW114123   3.554   0.647   1.113
 4408SOL    HW214124   3.493   0.689   1.259
 4409SOL     OW14125   5.081   1.204   2.912
 4409SOL    HW114126   5.119   1.114   2.934
 4409SOL    HW214127   5.102   1.268   2.985
 4410SOL     OW14128   1.228   5.251   6.867
 4410SOL    HW114129   1.324   5.276   6.867
 4410SOL    HW214130   1.194   5.247   6.773
 4411SOL     OW14131   3.820   4.099   4.407
 4411SOL    HW114132   3.871   4.019   4.376
 4411SOL    HW214133   3.882   4.176   4.418
 4412SOL     OW14134   4.306   6.334   4.849
 4412SOL    HW114135   4.355   6.301   4.769
 4412SOL    HW214136   4.347   6.296   4.932
 4413SOL     OW14137   6.163   4.759   4.203
 4413SOL    HW114138   6.194   4.797   4.290
 4413SOL    HW214139   6.109   4.677   4.220
 4414SOL     OW14140   3.386   5.025   1.021
 4414SOL    HW114141   3.332   5.108   1.033
 4414SOL    HW214142   3.330   4.945   1.045
 4415SOL     OW14143   4.190   2.558   0.615
 4415SOL    HW114144   4.235   2.544   0.703
 4415SOL    HW214145   4.095   2.587   0.631
 4416SOL     OW14146   3.473   1.194   4.196
 4416SOL    HW114147   3.445   1.266   4.132
 4416SOL    HW214148   3.477   1.107   4.149
 4417SOL     OW14149   5.514   3.938   3.447
 4417SOL    HW114150   5.533   4.035   3.433
 4417SOL    HW214151   5.580   3.883   3.395
 4418SOL     OW14152   6.095   2.017   2.079
 4418SOL    HW114153   6.047   2.103   2.061
 4418SOL    HW214154   6.181   2.036   2.125
 4419SOL     OW14155   5.891   6.124   6.567
 4419SOL    HW114156   5.825   6.156   6.499
 4419SOL    HW214157   5.868   6.164   6.656
 4420SOL     OW14158   5.153   0.798   1.871
 4420SOL    HW114159   5.208   0.719   1.899
 4420SOL    HW214160   5.183   0.879   1.919
 4421SOL     OW14161   2.370   1.393   5.117
 4421SOL    HW114162   2.366   1.484   5.159
 4421SOL    HW214163   2.284   1.345   5.134
 4422SOL     OW14164   2.408   3.892   6.930
 4422SOL    HW114165   2.353   3.949   6.869
 4422SOL    HW214166   2.350   3.821   6.971
 4423SOL     OW14167   0.049   2.993   5.928
 4423SOL    HW114168   7.012   2.984   6.009
 4423SOL    HW214169   0.060   3.089   5.905
 4424SOL     OW14170   5.605   0.998   4.425
 4424SOL    HW114171   5.704   0.986   4.436
 4424SOL    HW214172   5.584   1.012   4.328
 4425SOL     OW14173   2.839   3.878   0.713
 4425SOL    HW114174   2.743   3.895   0.692
 4425SOL    HW214175   2.879   3.960   0.756
 4426SOL     OW14176   6.937   1.591   3.494
 4426SOL    HW114177   6.913   1.650   3.417
 4426SOL    HW214178   6.864   1.526   3.511
 4427SOL     OW14179   0.719   6.454   2.612
 4427SOL    HW114180   0.802   6.411   2.577
 4427SOL    HW214181   0.687   6.405   2.693
 4428SOL     OW14182   3.239   0.430   3.161
 4428SOL    HW114183   3.182   0.399   3.085
 4428SOL    HW214184   3.248   0.356   3.228
 4429SOL     OW14185   2.487   6.376   2.621
 4429SOL    HW114186   2.584   6.371   2.643
 4429SOL    HW214187   2.435   6.399   2.704
 4430SOL     OW14188   4.959   4.081   4.972
 4430SOL    HW114189   4.940   3.997   5.023
 4430SOL    HW214190   4.965   4.060   4.875
 4431SOL     OW14191   2.355   1.237   2.009
 4431SOL    HW114192   2.321   1.211   2.099
 4431SOL    HW214193   2.435   1.297   2.019
 4432SOL     OW14194   2.660   3.354   5.925
 4432SOL    HW114195   2.628   3.443   5.893
 4432SOL    HW214196   2.582   3.291   5.930
 4433SOL     OW14197   4.916   1.953   4.334
 4433SOL    HW114198   4.862   1.993   4.259
 4433SOL    HW214199   4.946   2.026   4.395
 4434SOL     OW14200   5.403   1.308   3.448
 4434SOL    HW114201   5.305   1.287   3.446
 4434SOL    HW214202   5.428   1.361   3.368
 4435SOL     OW14203   4.971   3.181   1.494
 4435SOL    HW114204   5.012   3.272   1.498
 4435SOL    HW214205   4.936   3.156   1.585
 4436SOL     OW14206   4.315   1.362   1.518
 4436SOL    HW114207   4.239   1.297   1.510
 4436SOL    HW214208   4.401   1.312   1.514
 4437SOL     OW14209   6.443   2.045   2.902
 4437SOL    HW114210   6.445   2.025   3.000
 4437SOL    HW214211   6.504   1.982   2.854
 4438SOL     OW14212   5.127   0.061   6.828
 4438SOL    HW114213   5.072   7.010   6.873
 4438SOL    HW214214   5.221   0.057   6.861
 4439SOL     OW14215   0.206   4.239   1.771
 4439SOL    HW114216   0.131   4.181   1.736
 4439SOL    HW214217   0.285   4.181   1.792
 4440SOL     OW14218   2.609   4.732   0.741
 4440SOL    HW114219   2.650   4.663   0.802
 4440SOL    HW214220   2.670   4.811   0.737
 4441SOL     OW14221   6.960   1.967   2.619
 4441SOL    HW114222   6.883   1.907   2.595
 4441SOL    HW214223   0.014   1.912   2.655
 4442SOL     OW14224   2.325   5.255   4.364
 4442SOL    HW114225   2.270   5.223   4.287
 4442SOL    HW214226   2.265   5.284   4.438
 4443SOL     OW14227   0.762   3.186   6.724
 4443SOL    HW114228   0.860   3.169   6.734
 4443SOL    HW214229   0.746   3.243   6.644
 4444SOL     OW14230   3.068   4.315   5.278
 4444SOL    HW114231   3.015   4.380   5.222
 4444SOL    HW214232   3.140   4.364   5.326
 4445SOL     OW14233   1.048   6.489   0.443
 4445SOL    HW114234   1.062   6.394   0.473
 4445SOL    HW214235   1.101   6.550   0.502
 4446SOL     OW14236   5.177   0.718   1.569
 4446SOL    HW114237   5.207   0.757   1.656
 4446SOL    HW214238   5.226   0.632   1.553
 4447SOL     OW14239   5.713   4.010   5.968
 4447SOL    HW114240   5.772   3.929   5.970
 4447SOL    HW214241   5.734   4.068   6.047
 4448SOL     OW14242   2.786   3.922   1.560
 4448SOL    HW114243   2.688   3.909   1.573
 4448SOL    HW214244   2.833   3.835   1.568
 4449SOL     OW14245   5.320   0.767   6.021
 4449SOL    HW114246   5.323   0.815   6.109
 4449SOL    HW214247   5.412   0.737   5.996
 4450SOL     OW14248   3.263   3.275   5.311
 4450SOL    HW114249   3.283   3.253   5.215
 4450SOL    HW214250   3.346   3.267   5.365
 4451SOL     OW14251   6.626   4.712   3.127
 4451SOL    HW114252   6.654   4.617   3.139
 4451SOL    HW214253   6.706   4.768   3.106
 4452SOL     OW14254   5.023   6.369   4.511
 4452SOL    HW114255   5.081   6.338   4.586
 4452SOL    HW214256   5.019   6.469   4.511
 4453SOL     OW14257   1.118   2.972   1.455
 4453SOL    HW114258   1.156   3.063   1.472
 4453SOL    HW214259   1.019   2.980   1.440
 4454SOL     OW14260   1.856   1.953   0.241
 4454SOL    HW114261   1.831   1.932   0.335
 4454SOL    HW214262   1.819   2.042   0.216
 4455SOL     OW14263   4.192   6.460   5.832
 4455SOL    HW114264   4.233   6.505   5.912
 4455SOL    HW214265   4.206   6.361   5.839
 4456SOL     OW14266   2.993   6.135   1.948
 4456SOL    HW114267   2.957   6.046   1.922
 4456SOL    HW214268   2.994   6.144   2.048
 4457SOL     OW14269   4.272   1.301   2.677
 4457SOL    HW114270   4.196   1.238   2.688
 4457SOL    HW214271   4.286   1.353   2.762
 4458SOL     OW14272   1.576   2.614   0.586
 4458SOL    HW114273   1.567   2.654   0.677
 4458SOL    HW214274   1.644   2.665   0.534
 4459SOL     OW14275   3.769   1.042   4.272
 4459SOL    HW114276   3.847   1.089   4.314
 4459SOL    HW214277   3.706   1.110   4.233
 4460SOL     OW14278   2.624   2.785   6.002
 4460SOL    HW114279   2.645   2.844   6.080
 4460SOL    HW214280   2.544   2.820   5.953
 4461SOL     OW14281   1.298   0.103   1.158
 4461SOL    HW114282   1.362   0.165   1.111
 4461SOL    HW214283   1.213   0.152   1.178
 4462SOL     OW14284   6.126   5.175   1.519
 4462SOL    HW114285   6.145   5.167   1.617
 4462SOL    HW214286   6.185   5.112   1.468
 4463SOL     OW14287   5.236   1.546   0.549
 4463SOL    HW114288   5.141   1.554   0.518
 4463SOL    HW214289   5.284   1.479   0.493
 4464SOL     OW14290   6.995   5.394   0.680
 4464SOL    HW114291   7.007   5.493   0.688
 4464SOL    HW214292   0.045   5.357   0.620
 4465SOL     OW14293   2.932   5.892   1.833
 4465SOL    HW114294   2.999   5.896   1.759
 4465SOL    HW214295   2.935   5.802   1.876
 4466SOL     OW14296   1.609   1.829   3.027
 4466SOL    HW114297   1.667   1.910   3.021
 4466SOL    HW214298   1.623   1.772   2.946
 4467SOL     OW14299   1.901   5.956   2.514
 4467SOL    HW114300   1.965   5.993   2.582
 4467SOL    HW214301   1.859   5.873   2.550
 4468SOL     OW14302   2.040   3.879   0.229
 4468SOL    HW114303   2.099   3.909   0.304
 4468SOL    HW214304   1.948   3.862   0.264
 4469SOL     OW14305   3.209   0.552   1.794
 4469SOL    HW114306   3.151   0.577   1.716
 4469SOL    HW214307   3.151   0.536   1.874
 4470SOL     OW14308   6.705   2.231   2.015
 4470SOL    HW114309   6.619   2.279   2.033
 4470SOL    HW214310   6.726   2.171   2.093
 4471SOL     OW14311   0.680   2.221   6.411
 4471SOL    HW114312   0.702   2.124   6.399
 4471SOL    HW214313   0.667   2.241   6.508
 4472SOL     OW14314   1.370   3.464   1.866
 4472SOL    HW114315   1.369   3.531   1.792
 4472SOL    HW214316   1.445   3.486   1.930
 4473SOL     OW14317   5.923   2.767   4.447
 4473SOL    HW114318   5.936   2.722   4.535
 4473SOL    HW214319   5.931   2.699   4.374
 4474SOL     OW14320   2.396   0.628   2.143
 4474SOL    HW114321   2.301   0.659   2.147
 4474SOL    HW214322   2.450   0.693   2.090
 4475SOL     OW14323   1.517   4.028   2.770
 4475SOL    HW114324   1.422   4.010   2.747
 4475SOL    HW214325   1.542   3.977   2.853
 4476SOL     OW14326   4.812   6.914   3.275
 4476SOL    HW114327   4.876   6.853   3.322
 4476SOL    HW214328   4.735   6.861   3.240
 4477SOL     OW14329   2.062   7.016   4.917
 4477SOL    HW114330   2.043   0.041   5.003
 4477SOL    HW214331   2.161   7.000   4.909
 4478SOL     OW14332   3.556   6.800   3.016
 4478SOL    HW114333   3.647   6.791   3.057
 4478SOL    HW214334   3.524   6.710   2.985
 4479SOL     OW14335   0.814   1.782   1.394
 4479SOL    HW114336   0.826   1.762   1.491
 4479SOL    HW214337   0.827   1.879   1.378
 4480SOL     OW14338   1.025   4.413   5.020
 4480SOL    HW114339   1.015   4.487   5.087
 4480SOL    HW214340   1.111   4.364   5.037
 4481SOL     OW14341   3.491   6.041   4.944
 4481SOL    HW114342   3.463   6.093   5.024
 4481SOL    HW214343   3.588   6.020   4.949
 4482SOL     OW14344   1.240   2.905   4.815
 4482SOL    HW114345   1.235   2.831   4.748
 4482SOL    HW214346   1.322   2.959   4.799
 4483SOL     OW14347   5.910   2.571   2.471
 4483SOL    HW114348   5.901   2.542   2.376
 4483SOL    HW214349   5.826   2.619   2.498
 4484SOL     OW14350   2.750   2.248   6.331
 4484SOL    HW114351   2.781   2.273   6.423
 4484SOL    HW214352   2.683   2.315   6.300
 4485SOL     OW14353   5.345   1.652   4.730
 4485SOL    HW114354   5.317   1.613   4.642
 4485SOL    HW214355   5.419   1.718   4.714
 4486SOL     OW14356   5.560   4.770   5.284
 4486SOL    HW114357   5.594   4.791   5.375
 4486SOL    HW214358   5.556   4.854   5.229
 4487SOL     OW14359   2.657   2.598   6.559
 4487SOL    HW114360   2.584   2.646   6.510
 4487SOL    HW214361   2.616   2.534   6.624
 4488SOL     OW14362   0.818   3.632   6.164
 4488SOL    HW114363   0.765   3.584   6.233
 4488SOL    HW214364   0.911   3.597   6.163
 4489SOL     OW14365   5.307   5.421   4.960
 4489SOL    HW114366   5.286   5.410   4.863
 4489SOL    HW214367   5.228   5.393   5.014
 4490SOL     OW14368   6.305   2.436   1.848
 4490SOL    HW114369   6.289   2.349   1.802
 4490SOL    HW214370   6.290   2.426   1.946
 4491SOL     OW14371   6.662   3.086   4.038
 4491SOL    HW114372   6.660   3.096   4.137
 4491SOL    HW214373   6.650   3.175   3.995
 4492SOL     OW14374   6.013   4.869   1.536
 4492SOL    HW114375   6.020   4.862   1.636
 4492SOL    HW214376   5.932   4.819   1.505
 4493SOL     OW14377   4.716   5.373   4.561
 4493SOL    HW114378   4.680   5.295   4.612
 4493SOL    HW214379   4.805   5.398   4.598
 4494SOL     OW14380   0.403   1.090   6.611
 4494SOL    HW114381   0.418   1.158   6.540
 4494SOL    HW214382   0.488   1.039   6.628
 4495SOL     OW14383   3.807   6.445   4.550
 4495SOL    HW114384   3.752   6.363   4.534
 4495SOL    HW214385   3.889   6.443   4.493
 4496SOL     OW14386   5.429   6.295   1.093
 4496SOL    HW114387   5.336   6.276   1.062
 4496SOL    HW214388   5.489   6.302   1.013
 4497SOL     OW14389   5.715   1.930   0.040
 4497SOL    HW114390   5.706   1.833   0.062
 4497SOL    HW214391   5.644   1.957   6.995
 4498SOL     OW14392   0.125   3.325   0.325
 4498SOL    HW114393   0.127   3.231   0.293
 4498SOL    HW214394   0.215   3.367   0.312
 4499SOL     OW14395   5.577   3.792   4.118
 4499SOL    HW114396   5.654   3.849   4.148
 4499SOL    HW214397   5.588   3.771   4.021
 4500SOL     OW14398   3.308   3.120   4.802
 4500SOL    HW114399   3.371   3.044   4.786
 4500SOL    HW214400   3.250   3.133   4.722
 4501SOL     OW14401   6.792   3.383   2.986
 4501SOL    HW114402   6.772   3.426   3.074
 4501SOL    HW214403   6.707   3.376   2.933
 4502SOL     OW14404   0.461   2.670   6.554
 4502SOL    HW114405   0.532   2.658   6.623
 4502SOL    HW214406   0.464   2.764   6.519
 4503SOL     OW14407   3.563   6.973   1.617
 4503SOL    HW114408   3.557   0.034   1.558
 4503SOL    HW214409   3.497   6.905   1.587
 4504SOL     OW14410   6.471   0.746   4.481
 4504SOL    HW114411   6.388   0.799   4.463
 4504SOL    HW214412   6.550   0.808   4.480
 4505SOL     OW14413   6.113   5.227   1.807
 4505SOL    HW114414   6.119   5.315   1.759
 4505SOL    HW214415   6.022   5.216   1.847
 4506SOL     OW14416   4.765   2.835   3.490
 4506SOL    HW114417   4.772   2.934   3.481
 4506SOL    HW214418   4.794   2.807   3.581
 4507SOL     OW14419   5.761   4.740   2.835
 4507SOL    HW114420   5.825   4.666   2.852
 4507SOL    HW214421   5.672   4.718   2.876
 4508SOL     OW14422   1.872   5.594   6.981
 4508SOL    HW114423   1.954   5.626   6.932
 4508SOL    HW214424   1.800   5.663   6.972
 4509SOL     OW14425   4.349   2.422   2.037
 4509SOL    HW114426   4.315   2.468   2.118
 4509SOL    HW214427   4.443   2.392   2.052
 4510SOL     OW14428   3.903   1.465   4.280
 4510SOL    HW114429   3.808   1.444   4.257
 4510SOL    HW214430   3.920   1.562   4.266
 4511SOL     OW14431   5.973   3.535   6.989
 4511SOL    HW114432   5.906   3.461   6.988
 4511SOL    HW214433   5.928   3.620   6.963
 4512SOL     OW14434   2.890   1.884   5.472
 4512SOL    HW114435   2.964   1.924   5.418
 4512SOL    HW214436   2.819   1.849   5.412
 4513SOL     OW14437   0.448   4.759   6.808
 4513SOL    HW114438   0.536   4.748   6.853
 4513SOL    HW214439   0.461   4.769   6.710
 4514SOL     OW14440   3.926   2.102   6.310
 4514SOL    HW114441   3.866   2.137   6.238
 4514SOL    HW214442   3.964   2.178   6.362
 4515SOL     OW14443   0.192   1.779   5.744
 4515SOL    HW114444   0.206   1.691   5.698
 4515SOL    HW214445   0.276   1.833   5.738
 4516SOL     OW14446   1.711   0.220   0.292
 4516SOL    HW114447   1.743   0.154   0.225
 4516SOL    HW214448   1.620   0.254   0.266
 4517SOL     OW14449   4.128   0.932   6.735
 4517SOL    HW114450   4.221   0.960   6.714
 4517SOL    HW214451   4.103   0.964   6.826
 4518SOL     OW14452   0.019   0.165   2.536
 4518SOL    HW114453   0.116   0.141   2.532
 4518SOL    HW214454   7.002   0.166   2.444
 4519SOL     OW14455   7.007   6.836   1.424
 4519SOL    HW114456   6.976   6.921   1.382
 4519SOL    HW214457   6.928   6.783   1.454
 4520SOL     OW14458   4.488   6.611   4.631
 4520SOL    HW114459   4.574   6.568   4.658
 4520SOL    HW214460   4.505   6.704   4.599
 4521SOL     OW14461   6.726   2.171   4.745
 4521SOL    HW114462   6.785   2.211   4.815
 4521SOL    HW214463   6.633   2.207   4.755
 4522SOL     OW14464   5.388   5.492   3.550
 4522SOL    HW114465   5.309   5.550   3.533
 4522SOL    HW214466   5.445   5.487   3.468
 4523SOL     OW14467   0.877   4.740   0.138
 4523SOL    HW114468   0.904   4.659   0.189
 4523SOL    HW214469   0.958   4.796   0.119
 4524SOL     OW14470   6.282   2.607   2.339
 4524SOL    HW114471   6.241   2.580   2.252
 4524SOL    HW214472   6.297   2.526   2.396
 4525SOL     OW14473   4.524   1.979   5.779
 4525SOL    HW114474   4.588   1.935   5.716
 4525SOL    HW214475   4.468   1.908   5.823
 4526SOL     OW14476   6.748   0.158   0.485
 4526SOL    HW114477   6.769   0.077   0.430
 4526SOL    HW214478   6.687   0.133   0.560
 4527SOL     OW14479   5.815   1.365   3.569
 4527SOL    HW114480   5.812   1.308   3.651
 4527SOL    HW214481   5.903   1.353   3.523
 4528SOL     OW14482   4.836   0.527   0.478
 4528SOL    HW114483   4.826   0.625   0.498
 4528SOL    HW214484   4.903   0.486   0.540
 4529SOL     OW14485   2.000   0.586   5.090
 4529SOL    HW114486   1.949   0.606   5.006
 4529SOL    HW214487   1.939   0.592   5.168
 4530SOL     OW14488   1.902   5.119   4.468
 4530SOL    HW114489   1.979   5.057   4.451
 4530SOL    HW214490   1.848   5.084   4.545
 4531SOL     OW14491   0.609   2.934   5.250
 4531SOL    HW114492   0.669   2.859   5.277
 4531SOL    HW214493   0.579   2.984   5.331
 4532SOL     OW14494   6.388   1.359   2.329
 4532SOL    HW114495   6.338   1.355   2.243
 4532SOL    HW214496   6.324   1.359   2.406
 4533SOL     OW14497   1.087   1.843   1.662
 4533SOL    HW114498   1.163   1.801   1.711
 4533SOL    HW214499   1.107   1.940   1.648
 4534SOL     OW14500   4.807   4.384   4.514
 4534SOL    HW114501   4.707   4.386   4.511
 4534SOL    HW214502   4.838   4.408   4.606
 4535SOL     OW14503   3.381   1.168   2.356
 4535SOL    HW114504   3.416   1.174   2.262
 4535SOL    HW214505   3.366   1.260   2.392
 4536SOL     OW14506   4.111   1.724   4.446
 4536SOL    HW114507   4.066   1.728   4.535
 4536SOL    HW214508   4.182   1.795   4.441
 4537SOL     OW14509   4.033   3.455   0.327
 4537SOL    HW114510   4.065   3.399   0.404
 4537SOL    HW214511   3.971   3.525   0.360
 4538SOL     OW14512   1.683   0.136   2.775
 4538SOL    HW114513   1.778   0.126   2.744
 4538SOL    HW214514   1.679   0.206   2.846
 4539SOL     OW14515   3.188   6.444   4.871
 4539SOL    HW114516   3.189   6.449   4.971
 4539SOL    HW214517   3.115   6.502   4.835
 4540SOL     OW14518   2.572   2.486   6.248
 4540SOL    HW114519   2.574   2.509   6.150
 4540SOL    HW214520   2.503   2.542   6.294
 4541SOL     OW14521   5.964   1.970   0.146
 4541SOL    HW114522   5.996   2.061   0.173
 4541SOL    HW214523   5.869   1.977   0.114
 4542SOL     OW14524   6.740   1.362   1.696
 4542SOL    HW114525   6.727   1.449   1.743
 4542SOL    HW214526   6.663   1.345   1.635
 4543SOL     OW14527   4.927   1.955   1.897
 4543SOL    HW114528   4.914   1.884   1.966
 4543SOL    HW214529   4.882   1.927   1.812
 4544SOL     OW14530   3.347   5.842   6.529
 4544SOL    HW114531   3.423   5.899   6.562
 4544SOL    HW214532   3.368   5.746   6.547
 4545SOL     OW14533   5.624   3.202   4.532
 4545SOL    HW114534   5.598   3.178   4.625
 4545SOL    HW214535   5.698   3.142   4.502
 4546SOL     OW14536   1.451   0.991   4.657
 4546SOL    HW114537   1.518   1.065   4.653
 4546SOL    HW214538   1.360   1.027   4.635
 4547SOL     OW14539   6.520   2.085   1.351
 4547SOL    HW114540   6.503   2.000   1.301
 4547SOL    HW214541   6.546   2.064   1.445
 4548SOL     OW14542   1.212   3.387   4.015
 4548SOL    HW114543   1.307   3.418   4.017
 4548SOL    HW214544   1.209   3.287   4.018
 4549SOL     OW14545   6.921   4.360   1.964
 4549SOL    HW114546   6.950   4.455   1.980
 4549SOL    HW214547   6.869   4.355   1.880
 4550SOL     OW14548   0.891   5.325   3.280
 4550SOL    HW114549   0.855   5.255   3.342
 4550SOL    HW214550   0.884   5.293   3.186
 4551SOL     OW14551   6.844   3.040   4.529
 4551SOL    HW114552   6.789   3.025   4.611
 4551SOL    HW214553   6.805   3.116   4.477
 4552SOL     OW14554   6.427   2.801   1.701
 4552SOL    HW114555   6.455   2.806   1.797
 4552SOL    HW214556   6.463   2.879   1.651
 4553SOL     OW14557   3.530   4.435   6.767
 4553SOL    HW114558   3.492   4.502   6.830
 4553SOL    HW214559   3.509   4.463   6.673
 4554SOL     OW14560   6.337   6.338   1.139
 4554SOL    HW114561   6.356   6.323   1.042
 4554SOL    HW214562   6.410   6.298   1.194
 4555SOL     OW14563   2.384   2.309   5.284
 4555SOL    HW114564   2.362   2.341   5.376
 4555SOL    HW214565   2.477   2.271   5.284
 4556SOL     OW14566   5.497   3.012   3.918
 4556SOL    HW114567   5.444   3.089   3.954
 4556SOL    HW214568   5.580   3.000   3.973
 4557SOL     OW14569   5.038   6.258   5.429
 4557SOL    HW114570   5.127   6.297   5.452
 4557SOL    HW214571   5.039   6.160   5.446
 4558SOL     OW14572   0.165   4.322   5.391
 4558SOL    HW114573   0.080   4.357   5.352
 4558SOL    HW214574   0.240   4.384   5.367
 4559SOL     OW14575   0.655   3.799   2.017
 4559SOL    HW114576   0.567   3.752   2.017
 4559SOL    HW214577   0.721   3.748   1.961
 4560SOL     OW14578   5.451   4.196   1.812
 4560SOL    HW114579   5.518   4.143   1.761
 4560SOL    HW214580   5.378   4.136   1.844
 4561SOL     OW14581   2.399   1.837   3.247
 4561SOL    HW114582   2.467   1.841   3.173
 4561SOL    HW214583   2.337   1.915   3.240
 4562SOL     OW14584   2.393   6.279   5.983
 4562SOL    HW114585   2.442   6.358   5.947
 4562SOL    HW214586   2.459   6.212   6.018
 4563SOL     OW14587   0.109   2.636   1.099
 4563SOL    HW114588   0.099   2.554   1.155
 4563SOL    HW214589   0.063   2.623   1.011
 4564SOL     OW14590   0.012   5.629   1.731
 4564SOL    HW114591   0.097   5.593   1.769
 4564SOL    HW214592   0.021   5.638   1.632
 4565SOL     OW14593   0.681   0.862   4.899
 4565SOL    HW114594   0.776   0.853   4.929
 4565SOL    HW214595   0.623   0.801   4.954
 4566SOL     OW14596   6.771   2.702   0.283
 4566SOL    HW114597   6.730   2.790   0.306
 4566SOL    HW214598   6.710   2.628   0.312
 4567SOL     OW14599   6.316   1.190   5.929
 4567SOL    HW114600   6.219   1.190   5.904
 4567SOL    HW214601   6.368   1.144   5.858
 4568SOL     OW14602   2.210   3.150   6.254
 4568SOL    HW114603   2.287   3.095   6.223
 4568SOL    HW214604   2.125   3.098   6.243
 4569SOL     OW14605   1.910   1.722   2.925
 4569SOL    HW114606   1.841   1.650   2.932
 4569SOL    HW214607   1.879   1.793   2.862
 4570SOL     OW14608   6.851   6.591   2.650
 4570SOL    HW114609   6.923   6.563   2.713
 4570SOL    HW214610   6.870   6.682   2.615
 4571SOL     OW14611   4.270   4.512   6.322
 4571SOL    HW114612   4.201   4.577   6.291
 4571SOL    HW214613   4.285   4.443   6.251
 4572SOL     OW14614   1.956   0.423   6.569
 4572SOL    HW114615   1.964   0.492   6.496
 4572SOL    HW214616   1.944   0.469   6.657
 4573SOL     OW14617   6.323   0.250   0.784
 4573SOL    HW114618   6.277   0.336   0.765
 4573SOL    HW214619   6.256   0.182   0.814
 4574SOL     OW14620   5.752   3.819   0.596
 4574SOL    HW114621   5.652   3.823   0.605
 4574SOL    HW214622   5.793   3.816   0.687
 4575SOL     OW14623   5.534   1.279   6.187
 4575SOL    HW114624   5.600   1.211   6.155
 4575SOL    HW214625   5.526   1.352   6.119
 4576SOL     OW14626   2.771   6.066   5.698
 4576SOL    HW114627   2.808   6.006   5.770
 4576SOL    HW214628   2.754   6.157   5.736
 4577SOL     OW14629   1.071   1.964   4.494
 4577SOL    HW114630   1.157   2.010   4.477
 4577SOL    HW214631   1.068   1.877   4.444
 4578SOL     OW14632   0.481   3.052   5.447
 4578SOL    HW114633   0.569   3.057   5.495
 4578SOL    HW214634   0.414   3.109   5.495
 4579SOL     OW14635   4.004   0.694   3.444
 4579SOL    HW114636   3.907   0.671   3.456
 4579SOL    HW214637   4.052   0.615   3.406
 4580SOL     OW14638   5.723   4.464   0.676
 4580SOL    HW114639   5.676   4.412   0.747
 4580SOL    HW214640   5.657   4.499   0.610
 4581SOL     OW14641   2.440   5.369   2.750
 4581SOL    HW114642   2.456   5.435   2.823
 4581SOL    HW214643   2.352   5.324   2.764
 4582SOL     OW14644   5.236   0.106   5.041
 4582SOL    HW114645   5.204   0.086   4.948
 4582SOL    HW214646   5.328   0.146   5.037
 4583SOL     OW14647   2.753   2.298   6.662
 4583SOL    HW114648   2.675   2.238   6.648
 4583SOL    HW214649   2.752   2.333   6.756
 4584SOL     OW14650   0.185   4.141   5.599
 4584SOL    HW114651   0.261   4.078   5.581
 4584SOL    HW214652   0.160   4.188   5.515
 4585SOL     OW14653   2.889   6.073   3.761
 4585SOL    HW114654   2.943   5.990   3.750
 4585SOL    HW214655   2.823   6.060   3.836
 4586SOL     OW14656   4.208   4.857   0.463
 4586SOL    HW114657   4.214   4.828   0.368
 4586SOL    HW214658   4.114   4.884   0.484
 4587SOL     OW14659   3.613   3.958   3.327
 4587SOL    HW114660   3.687   4.003   3.277
 4587SOL    HW214661   3.646   3.927   3.416
 4588SOL     OW14662   2.425   3.486   5.401
 4588SOL    HW114663   2.467   3.398   5.377
 4588SOL    HW214664   2.494   3.545   5.444
 4589SOL     OW14665   6.351   1.037   2.400
 4589SOL    HW114666   6.369   1.090   2.317
 4589SOL    HW214667   6.436   0.993   2.430
 4590SOL     OW14668   4.977   5.701   0.943
 4590SOL    HW114669   4.961   5.775   1.008
 4590SOL    HW214670   5.027   5.737   0.864
 4591SOL     OW14671   1.306   6.943   4.415
 4591SOL    HW114672   1.257   6.857   4.405
 4591SOL    HW214673   1.300   6.975   4.509
 4592SOL     OW14674   2.442   1.702   2.650
 4592SOL    HW114675   2.380   1.629   2.620
 4592SOL    HW214676   2.525   1.662   2.688
 4593SOL     OW14677   5.362   5.806   2.862
 4593SOL    HW114678   5.345   5.787   2.765
 4593SOL    HW214679   5.459   5.797   2.882
 4594SOL     OW14680   2.906   1.292   3.080
 4594SOL    HW114681   2.865   1.295   3.171
 4594SOL    HW214682   2.848   1.342   3.016
 4595SOL     OW14683   4.255   3.290   5.546
 4595SOL    HW114684   4.341   3.331   5.579
 4595SOL    HW214685   4.249   3.196   5.580
 4596SOL     OW14686   5.808   0.441   1.944
 4596SOL    HW114687   5.877   0.505   1.977
 4596SOL    HW214688   5.821   0.352   1.987
 4597SOL     OW14689   3.726   5.677   6.345
 4597SOL    HW114690   3.665   5.691   6.423
 4597SOL    HW214691   3.765   5.584   6.349
 4598SOL     OW14692   1.566   6.231   0.057
 4598SOL    HW114693   1.645   6.291   0.049
 4598SOL    HW214694   1.563   6.168   7.001
 4599SOL     OW14695   1.692   4.809   0.283
 4599SOL    HW114696   1.753   4.864   0.226
 4599SOL    HW214697   1.602   4.851   0.285
 4600SOL     OW14698   1.277   5.400   5.543
 4600SOL    HW114699   1.194   5.349   5.566
 4600SOL    HW214700   1.331   5.348   5.477
 4601SOL     OW14701   1.850   1.465   5.212
 4601SOL    HW114702   1.852   1.367   5.189
 4601SOL    HW214703   1.918   1.484   5.283
 4602SOL     OW14704   2.897   6.603   1.145
 4602SOL    HW114705   2.906   6.504   1.154
 4602SOL    HW214706   2.948   6.634   1.065
 4603SOL     OW14707   3.320   6.212   0.607
 4603SOL    HW114708   3.339   6.141   0.538
 4603SOL    HW214709   3.400   6.271   0.616
 4604SOL     OW14710   4.742   0.151   0.096
 4604SOL    HW114711   4.645   0.173   0.092
 4604SOL    HW214712   4.791   0.223   0.145
 4605SOL     OW14713   2.218   6.607   2.328
 4605SOL    HW114714   2.262   6.517   2.330
 4605SOL    HW214715   2.127   6.600   2.368
 4606SOL     OW14716   0.822   6.310   2.255
 4606SOL    HW114717   0.800   6.315   2.158
 4606SOL    HW214718   0.921   6.297   2.266
 4607SOL     OW14719   1.757   3.705   1.495
 4607SOL    HW114720   1.697   3.758   1.555
 4607SOL    HW214721   1.785   3.762   1.418
 4608SOL     OW14722   0.925   6.052   3.742
 4608SOL    HW114723   0.855   6.011   3.683
 4608SOL    HW214724   0.936   6.148   3.717
 4609SOL     OW14725   4.415   5.241   6.460
 4609SOL    HW114726   4.339   5.282   6.510
 4609SOL    HW214727   4.455   5.168   6.515
 4610SOL     OW14728   4.750   1.809   0.918
 4610SOL    HW114729   4.669   1.802   0.976
 4610SOL    HW214730   4.723   1.828   0.824
 4611SOL     OW14731   0.740   6.238   6.206
 4611SOL    HW114732   0.732   6.221   6.304
 4611SOL    HW214733   0.687   6.320   6.182
 4612SOL     OW14734   1.082   6.181   0.067
 4612SOL    HW114735   1.012   6.228   0.120
 4612SOL    HW214736   1.151   6.246   0.036
 4613SOL     OW14737   1.778   5.562   1.805
 4613SOL    HW114738   1.802   5.483   1.860
 4613SOL    HW214739   1.796   5.646   1.857
 4614SOL     OW14740   6.163   3.396   3.333
 4614SOL    HW114741   6.255   3.392   3.371
 4614SOL    HW214742   6.166   3.444   3.245
 4615SOL     OW14743   1.987   0.609   6.763
 4615SOL    HW114744   1.955   0.670   6.836
 4615SOL    HW214745   2.054   0.657   6.706
 4616SOL     OW14746   6.191   1.308   4.530
 4616SOL    HW114747   6.108   1.252   4.538
 4616SOL    HW214748   6.271   1.249   4.530
 4617SOL     OW14749   0.716   2.088   2.252
 4617SOL    HW114750   0.739   2.148   2.175
 4617SOL    HW214751   0.709   2.142   2.336
 4618SOL     OW14752   2.346   2.821   4.832
 4618SOL    HW114753   2.359   2.900   4.891
 4618SOL    HW214754   2.281   2.843   4.759
 4619SOL     OW14755   3.130   6.218   3.534
 4619SOL    HW114756   3.141   6.289   3.464
 4619SOL    HW214757   3.170   6.133   3.502
 4620SOL     OW14758   2.552   5.245   0.790
 4620SOL    HW114759   2.520   5.291   0.707
 4620SOL    HW214760   2.488   5.264   0.865
 4621SOL     OW14761   4.967   0.496   2.610
 4621SOL    HW114762   4.966   0.418   2.673
 4621SOL    HW214763   4.877   0.506   2.568
 4622SOL     OW14764   3.025   4.682   0.427
 4622SOL    HW114765   3.006   4.601   0.483
 4622SOL    HW214766   3.063   4.754   0.485
 4623SOL     OW14767   5.644   6.122   1.278
 4623SOL    HW114768   5.682   6.042   1.325
 4623SOL    HW214769   5.703   6.201   1.294
 4624SOL     OW14770   3.805   6.732   3.139
 4624SOL    HW114771   3.781   6.698   3.230
 4624SOL    HW214772   3.897   6.770   3.141
 4625SOL     OW14773   1.954   4.448   1.483
 4625SOL    HW114774   1.910   4.454   1.572
 4625SOL    HW214775   1.937   4.357   1.443
 4626SOL     OW14776   5.773   4.475   1.931
 4626SOL    HW114777   5.821   4.391   1.958
 4626SOL    HW214778   5.773   4.482   1.831
 4627SOL     OW14779   1.868   4.464   5.008
 4627SOL    HW114780   1.919   4.396   5.061
 4627SOL    HW214781   1.786   4.421   4.970
 4628SOL     OW14782   5.676   3.997   3.904
 4628SOL    HW114783   5.700   3.961   3.814
 4628SOL    HW214784   5.716   4.088   3.916
 4629SOL     OW14785   2.500   4.945   5.733
 4629SOL    HW114786   2.538   5.032   5.702
 4629SOL    HW214787   2.544   4.870   5.684
 4630SOL     OW14788   2.774   6.415   2.345
 4630SOL    HW114789   2.777   6.497   2.402
 4630SOL    HW214790   2.699   6.422   2.280
 4631SOL     OW14791   1.900   5.812   3.612
 4631SOL    HW114792   1.872   5.753   3.688
 4631SOL    HW214793   1.984   5.861   3.636
 4632SOL     OW14794   2.949   4.876   2.540
 4632SOL    HW114795   2.938   4.826   2.454
 4632SOL    HW214796   2.896   4.831   2.611
 4633SOL     OW14797   5.911   0.820   5.018
 4633SOL    HW114798   5.895   0.790   5.112
 4633SOL    HW214799   5.857   0.764   4.955
 4634SOL     OW14800   3.111   4.078   5.707
 4634SOL    HW114801   3.040   4.148   5.699
 4634SOL    HW214802   3.081   4.006   5.769
 4635SOL     OW14803   5.034   3.607   1.674
 4635SOL    HW114804   5.128   3.640   1.672
 4635SOL    HW214805   5.002   3.601   1.769
 4636SOL     OW14806   1.956   4.610   0.026
 4636SOL    HW114807   1.992   4.520   0.004
 4636SOL    HW214808   1.876   4.600   0.085
 4637SOL     OW14809   0.883   6.119   1.460
 4637SOL    HW114810   0.820   6.051   1.498
 4637SOL    HW214811   0.957   6.073   1.412
 4638SOL     OW14812   4.171   4.750   6.898
 4638SOL    HW114813   4.159   4.651   6.885
 4638SOL    HW214814   4.197   4.792   6.811
 4639SOL     OW14815   3.587   3.483   5.782
 4639SOL    HW114816   3.612   3.552   5.850
 4639SOL    HW214817   3.489   3.490   5.761
 4640SOL     OW14818   4.862   4.002   3.812
 4640SOL    HW114819   4.840   3.929   3.748
 4640SOL    HW214820   4.918   3.967   3.887
 4641SOL     OW14821   2.454   0.348   4.655
 4641SOL    HW114822   2.391   0.281   4.695
 4641SOL    HW214823   2.408   0.397   4.581
 4642SOL     OW14824   1.325   5.991   3.872
 4642SOL    HW114825   1.259   6.050   3.919
 4642SOL    HW214826   1.402   5.972   3.934
 4643SOL     OW14827   6.560   2.237   0.582
 4643SOL    HW114828   6.517   2.147   0.592
 4643SOL    HW214829   6.656   2.232   0.611
 4644SOL     OW14830   0.406   5.424   5.556
 4644SOL    HW114831   0.369   5.355   5.618
 4644SOL    HW214832   0.497   5.395   5.526
 4645SOL     OW14833   0.252   7.002   4.144
 4645SOL    HW114834   0.201   0.056   4.101
 4645SOL    HW214835   0.288   6.941   4.073
 4646SOL     OW14836   2.419   5.623   3.742
 4646SOL    HW114837   2.504   5.572   3.733
 4646SOL    HW214838   2.409   5.656   3.835
 4647SOL     OW14839   1.949   6.970   3.089
 4647SOL    HW114840   1.997   6.894   3.131
 4647SOL    HW214841   2.009   7.017   3.025
 4648SOL     OW14842   3.614   0.974   2.739
 4648SOL    HW114843   3.582   0.932   2.655
 4648SOL    HW214844   3.685   1.041   2.718
 4649SOL     OW14845   4.817   0.865   6.816
 4649SOL    HW114846   4.843   0.769   6.825
 4649SOL    HW214847   4.850   0.916   6.895
 4650SOL     OW14848   4.820   5.490   2.743
 4650SOL    HW114849   4.790   5.401   2.776
 4650SOL    HW214850   4.773   5.511   2.657
 4651SOL     OW14851   6.252   3.260   0.390
 4651SOL    HW114852   6.348   3.260   0.361
 4651SOL    HW214853   6.245   3.225   0.483
 4652SOL     OW14854   6.358   6.333   4.171
 4652SOL    HW114855   6.392   6.239   4.175
 4652SOL    HW214856   6.417   6.392   4.226
 4653SOL     OW14857   5.113   5.451   1.068
 4653SOL    HW114858   5.176   5.496   1.132
 4653SOL    HW214859   5.044   5.516   1.037
 4654SOL     OW14860   0.328   6.717   0.442
 4654SOL    HW114861   0.276   6.631   0.442
 4654SOL    HW214862   0.331   6.755   0.350
 4655SOL     OW14863   5.887   3.955   1.141
 4655SOL    HW114864   5.858   4.024   1.074
 4655SOL    HW214865   5.960   3.994   1.198
 4656SOL     OW14866   1.018   0.180   2.516
 4656SOL    HW114867   1.077   0.185   2.597
 4656SOL    HW214868   1.008   0.271   2.476
 4657SOL     OW14869   4.319   6.063   1.794
 4657SOL    HW114870   4.343   5.976   1.836
 4657SOL    HW214871   4.370   6.137   1.838
 4658SOL     OW14872   3.977   0.869   3.167
 4658SOL    HW114873   4.024   0.816   3.095
 4658SOL    HW214874   4.026   0.856   3.254
 4659SOL     OW14875   3.287   4.432   5.428
 4659SOL    HW114876   3.380   4.396   5.430
 4659SOL    HW214877   3.243   4.419   5.517
 4660SOL     OW14878   0.794   4.581   5.594
 4660SOL    HW114879   0.700   4.576   5.560
 4660SOL    HW214880   0.830   4.488   5.605
 4661SOL     OW14881   2.736   4.341   6.124
 4661SOL    HW114882   2.756   4.279   6.200
 4661SOL    HW214883   2.807   4.331   6.054
 4662SOL     OW14884   3.270   0.200   5.510
 4662SOL    HW114885   3.289   0.284   5.459
 4662SOL    HW214886   3.326   0.126   5.473
 4663SOL     OW14887   0.236   1.680   1.084
 4663SOL    HW114888   0.164   1.610   1.075
 4663SOL    HW214889   0.215   1.740   1.161
 4664SOL     OW14890   1.738   1.005   1.068
 4664SOL    HW114891   1.683   0.922   1.061
 4664SOL    HW214892   1.724   1.061   0.986
 4665SOL     OW14893   3.366   6.661   6.809
 4665SOL    HW114894   3.403   6.578   6.850
 4665SOL    HW214895   3.299   6.637   6.738
 4666SOL     OW14896   1.881   2.741   0.319
 4666SOL    HW114897   1.885   2.656   0.266
 4666SOL    HW214898   1.867   2.818   0.257
 4667SOL     OW14899   6.765   3.530   2.101
 4667SOL    HW114900   6.709   3.499   2.178
 4667SOL    HW214901   6.782   3.629   2.109
 4668SOL     OW14902   4.176   2.132   3.225
 4668SOL    HW114903   4.236   2.053   3.213
 4668SOL    HW214904   4.194   2.200   3.153
 4669SOL     OW14905   4.575   6.477   6.928
 4669SOL    HW114906   4.627   6.520   7.002
 4669SOL    HW214907   4.624   6.490   6.841
 4670SOL     OW14908   2.009   2.405   5.558
 4670SOL    HW114909   1.983   2.318   5.600
 4670SOL    HW214910   2.026   2.472   5.630
 4671SOL     OW14911   0.011   2.916   0.184
 4671SOL    HW114912   0.000   2.818   0.173
 4671SOL    HW214913   6.960   2.964   0.132
 4672SOL     OW14914   2.625   4.862   5.451
 4672SOL    HW114915   2.677   4.808   5.384
 4672SOL    HW214916   2.530   4.832   5.451
 4673SOL     OW14917   5.040   6.900   2.417
 4673SOL    HW114918   5.020   6.881   2.513
 4673SOL    HW214919   5.113   6.840   2.385
 4674SOL     OW14920   5.341   0.936   6.251
 4674SOL    HW114921   5.276   1.006   6.280
 4674SOL    HW214922   5.384   0.896   6.332
 4675SOL     OW14923   2.444   1.032   6.448
 4675SOL    HW114924   2.444   1.130   6.467
 4675SOL    HW214925   2.521   1.009   6.388
 4676SOL     OW14926   6.932   6.339   4.337
 4676SOL    HW114927   6.850   6.284   4.324
 4676SOL    HW214928   6.996   6.290   4.396
 4677SOL     OW14929   2.214   1.276   6.437
 4677SOL    HW114930   2.240   1.181   6.455
 4677SOL    HW214931   2.296   1.330   6.417
 4678SOL     OW14932   1.676   4.339   3.417
 4678SOL    HW114933   1.674   4.425   3.468
 4678SOL    HW214934   1.627   4.350   3.331
 4679SOL     OW14935   3.477   1.188   0.016
 4679SOL    HW114936   3.443   1.099   7.006
 4679SOL    HW214937   3.400   1.253   0.020
 4680SOL     OW14938   2.699   1.354   0.487
 4680SOL    HW114939   2.724   1.269   0.534
 4680SOL    HW214940   2.680   1.425   0.555
 4681SOL     OW14941   5.038   6.018   6.097
 4681SOL    HW114942   5.116   6.022   6.033
 4681SOL    HW214943   5.029   6.106   6.144
 4682SOL     OW14944   4.376   4.353   5.721
 4682SOL    HW114945   4.463   4.331   5.677
 4682SOL    HW214946   4.308   4.376   5.652
 4683SOL     OW14947   3.996   4.795   2.749
 4683SOL    HW114948   4.046   4.748   2.822
 4683SOL    HW214949   3.910   4.831   2.786
 4684SOL     OW14950   6.726   1.720   5.462
 4684SOL    HW114951   6.809   1.669   5.439
 4684SOL    HW214952   6.747   1.788   5.532
 4685SOL     OW14953   0.768   6.445   5.383
 4685SOL    HW114954   0.844   6.463   5.446
 4685SOL    HW214955   0.785   6.360   5.333
 4686SOL     OW14956   4.792   5.190   6.939
 4686SOL    HW114957   4.816   5.173   6.843
 4686SOL    HW214958   4.779   5.103   6.986
 4687SOL     OW14959   6.573   3.814   4.833
 4687SOL    HW114960   6.506   3.855   4.895
 4687SOL    HW214961   6.663   3.853   4.850
 4688SOL     OW14962   6.367   3.850   5.007
 4688SOL    HW114963   6.318   3.868   5.092
 4688SOL    HW214964   6.301   3.830   4.934
 4689SOL     OW14965   6.138   0.441   0.745
 4689SOL    HW114966   6.076   0.421   0.822
 4689SOL    HW214967   6.092   0.500   0.680
 4690SOL     OW14968   1.150   0.478   6.985
 4690SOL    HW114969   1.171   0.384   6.958
 4690SOL    HW214970   1.227   0.515   0.016
 4691SOL     OW14971   2.884   5.025   1.864
 4691SOL    HW114972   2.815   5.081   1.818
 4691SOL    HW214973   2.969   5.027   1.811
 4692SOL     OW14974   5.825   5.512   2.045
 4692SOL    HW114975   5.868   5.435   2.092
 4692SOL    HW214976   5.730   5.520   2.074
 4693SOL     OW14977   1.056   1.005   3.084
 4693SOL    HW114978   0.961   0.988   3.110
 4693SOL    HW214979   1.118   0.959   3.148
 4694SOL     OW14980   2.235   0.271   0.359
 4694SOL    HW114981   2.259   0.306   0.449
 4694SOL    HW214982   2.306   0.207   0.328
 4695SOL     OW14983   2.062   3.729   1.684
 4695SOL    HW114984   2.011   3.663   1.629
 4695SOL    HW214985   2.030   3.726   1.779
 4696SOL     OW14986   0.204   4.017   6.506
 4696SOL    HW114987   0.288   3.971   6.536
 4696SOL    HW214988   0.151   4.044   6.586
 4697SOL     OW14989   2.188   3.253   0.875
 4697SOL    HW114990   2.228   3.276   0.964
 4697SOL    HW214991   2.261   3.243   0.808
 4698SOL     OW14992   4.556   5.715   3.151
 4698SOL    HW114993   4.637   5.657   3.146
 4698SOL    HW214994   4.571   5.798   3.099
 4699SOL     OW14995   1.640   6.852   2.022
 4699SOL    HW114996   1.572   6.913   2.063
 4699SOL    HW214997   1.649   6.873   1.924
 4700SOL     OW14998   6.611   1.965   2.682
 4700SOL    HW114999   6.564   1.943   2.597
 4700SOL    HW215000   6.671   2.044   2.667
 4701SOL     OW15001   2.225   2.278   6.909
 4701SOL    HW115002   2.243   2.275   7.007
 4701SOL    HW215003   2.252   2.191   6.867
 4702SOL     OW15004   4.820   4.739   6.420
 4702SOL    HW115005   4.769   4.752   6.335
 4702SOL    HW215006   4.847   4.643   6.428
 4703SOL     OW15007   0.790   1.451   1.389
 4703SOL    HW115008   0.857   1.480   1.458
 4703SOL    HW215009   0.706   1.503   1.401
 4704SOL     OW15010   1.177   7.011   0.489
 4704SOL    HW115011   1.179   0.062   0.419
 4704SOL    HW215012   1.087   7.011   0.533
 4705SOL     OW15013   3.311   3.200   1.851
 4705SOL    HW115014   3.330   3.102   1.844
 4705SOL    HW215015   3.238   3.225   1.787
 4706SOL     OW15016   3.675   0.097   0.038
 4706SOL    HW115017   3.731   0.022   0.003
 4706SOL    HW215018   3.583   0.091   7.019
 4707SOL     OW15019   1.994   6.206   1.367
 4707SOL    HW115020   1.909   6.255   1.388
 4707SOL    HW215021   2.007   6.133   1.434
 4708SOL     OW15022   1.053   1.712   6.630
 4708SOL    HW115023   1.050   1.732   6.532
 4708SOL    HW215024   0.981   1.646   6.652
 4709SOL     OW15025   4.554   5.968   5.696
 4709SOL    HW115026   4.607   6.049   5.719
 4709SOL    HW215027   4.525   5.973   5.601
 4710SOL     OW15028   3.570   0.981   5.128
 4710SOL    HW115029   3.587   0.924   5.209
 4710SOL    HW215030   3.550   1.075   5.157
 4711SOL     OW15031   5.345   0.878   1.202
 4711SOL    HW115032   5.405   0.923   1.269
 4711SOL    HW215033   5.298   0.802   1.245
 4712SOL     OW15034   2.884   4.409   0.259
 4712SOL    HW115035   2.827   4.471   0.314
 4712SOL    HW215036   2.947   4.361   0.320
 4713SOL     OW15037   3.165   3.046   0.671
 4713SOL    HW115038   3.164   3.065   0.769
 4713SOL    HW215039   3.098   3.104   0.624
 4714SOL     OW15040   1.332   2.579   6.785
 4714SOL    HW115041   1.372   2.523   6.713
 4714SOL    HW215042   1.367   2.551   6.874
 4715SOL     OW15043   6.653   2.872   2.289
 4715SOL    HW115044   6.703   2.851   2.374
 4715SOL    HW215045   6.562   2.907   2.312
 4716SOL     OW15046   5.162   6.062   6.506
 4716SOL    HW115047   5.089   6.084   6.441
 4716SOL    HW215048   5.174   6.137   6.570
 4717SOL     OW15049   0.390   6.671   3.358
 4717SOL    HW115050   0.404   6.574   3.340
 4717SOL    HW215051   0.334   6.682   3.440
 4718SOL     OW15052   5.773   2.315   1.333
 4718SOL    HW115053   5.770   2.387   1.402
 4718SOL    HW215054   5.722   2.345   1.252
 4719SOL     OW15055   5.318   3.377   2.226
 4719SOL    HW115056   5.274   3.426   2.152
 4719SOL    HW215057   5.417   3.381   2.215
 4720SOL     OW15058   2.303   5.326   5.996
 4720SOL    HW115059   2.309   5.324   5.896
 4720SOL    HW215060   2.331   5.237   6.033
 4721SOL     OW15061   6.940   2.184   1.547
 4721SOL    HW115062   6.945   2.271   1.500
 4721SOL    HW215063   6.888   2.194   1.632
 4722SOL     OW15064   0.760   6.163   6.473
 4722SOL    HW115065   0.734   6.117   6.559
 4722SOL    HW215066   0.810   6.247   6.494
 4723SOL     OW15067   1.739   3.784   5.666
 4723SOL    HW115068   1.826   3.735   5.672
 4723SOL    HW215069   1.755   3.881   5.688
 4724SOL     OW15070   5.655   6.345   2.910
 4724SOL    HW115071   5.707   6.265   2.941
 4724SOL    HW215072   5.707   6.395   2.842
 4725SOL     OW15073   6.247   5.555   3.020
 4725SOL    HW115074   6.193   5.481   3.060
 4725SOL    HW215075   6.189   5.636   3.010
 4726SOL     OW15076   1.608   2.550   5.895
 4726SOL    HW115077   1.667   2.576   5.819
 4726SOL    HW215078   1.548   2.475   5.867
 4727SOL     OW15079   0.868   5.927   0.698
 4727SOL    HW115080   0.786   5.920   0.641
 4727SOL    HW215081   0.886   5.839   0.741
 4728SOL     OW15082   5.335   0.583   1.964
 4728SOL    HW115083   5.432   0.596   1.943
 4728SOL    HW215084   5.326   0.529   2.048
 4729SOL     OW15085   2.673   1.672   1.064
 4729SOL    HW115086   2.659   1.573   1.061
 4729SOL    HW215087   2.685   1.707   0.971
 4730SOL     OW15088   3.313   5.862   5.101
 4730SOL    HW115089   3.249   5.822   5.035
 4730SOL    HW215090   3.372   5.928   5.054
 4731SOL     OW15091   4.466   0.177   6.898
 4731SOL    HW115092   4.409   0.249   6.858
 4731SOL    HW215093   4.531   0.144   6.829
 4732SOL     OW15094   1.036   3.144   6.354
 4732SOL    HW115095   0.940   3.135   6.326
 4732SOL    HW215096   1.068   3.057   6.391
 4733SOL     OW15097   1.291   4.400   3.862
 4733SOL    HW115098   1.355   4.464   3.906
 4733SOL    HW215099   1.324   4.378   3.771
 4734SOL     OW15100   4.571   2.445   0.674
 4734SOL    HW115101   4.516   2.447   0.757
 4734SOL    HW215102   4.537   2.375   0.612
 4735SOL     OW15103   0.282   5.856   5.098
 4735SOL    HW115104   0.340   5.792   5.048
 4735SOL    HW215105   0.286   5.835   5.196
 4736SOL     OW15106   0.161   2.203   6.586
 4736SOL    HW115107   0.151   2.253   6.672
 4736SOL    HW215108   0.250   2.225   6.546
 4737SOL     OW15109   2.406   4.354   2.487
 4737SOL    HW115110   2.385   4.304   2.571
 4737SOL    HW215111   2.494   4.400   2.496
 4738SOL     OW15112   0.459   6.335   3.223
 4738SOL    HW115113   0.390   6.370   3.286
 4738SOL    HW215114   0.430   6.246   3.188
 4739SOL     OW15115   4.667   6.163   3.255
 4739SOL    HW115116   4.733   6.231   3.287
 4739SOL    HW215117   4.620   6.198   3.175
 4740SOL     OW15118   1.607   1.125   1.323
 4740SOL    HW115119   1.630   1.095   1.230
 4740SOL    HW215120   1.657   1.209   1.344
 4741SOL     OW15121   3.698   3.351   1.108
 4741SOL    HW115122   3.703   3.402   1.022
 4741SOL    HW215123   3.775   3.287   1.114
 4742SOL     OW15124   3.433   0.002   5.444
 4742SOL    HW115125   3.528   7.007   5.419
 4742SOL    HW215126   3.377   6.945   5.413
 4743SOL     OW15127   1.814   3.568   3.192
 4743SOL    HW115128   1.784   3.503   3.261
 4743SOL    HW215129   1.802   3.661   3.227
 4744SOL     OW15130   1.489   4.796   0.740
 4744SOL    HW115131   1.467   4.892   0.720
 4744SOL    HW215132   1.575   4.792   0.792
 4745SOL     OW15133   3.076   3.385   5.701
 4745SOL    HW115134   3.071   3.374   5.602
 4745SOL    HW215135   3.009   3.453   5.731
 4746SOL     OW15136   5.215   6.428   2.827
 4746SOL    HW115137   5.206   6.526   2.843
 4746SOL    HW215138   5.191   6.406   2.733
 4747SOL     OW15139   1.448   3.805   0.055
 4747SOL    HW115140   1.479   3.865   7.002
 4747SOL    HW215141   1.523   3.746   0.084
 4748SOL     OW15142   2.566   5.581   1.316
 4748SOL    HW115143   2.643   5.543   1.264
 4748SOL    HW215144   2.583   5.678   1.334
 4749SOL     OW15145   2.224   5.976   6.059
 4749SOL    HW115146   2.226   6.036   5.979
 4749SOL    HW215147   2.290   5.901   6.046
 4750SOL     OW15148   0.357   3.961   4.552
 4750SOL    HW115149   0.348   3.916   4.641
 4750SOL    HW215150   0.328   4.056   4.560
 4751SOL     OW15151   3.893   2.066   2.652
 4751SOL    HW115152   3.820   2.128   2.624
 4751SOL    HW215153   3.951   2.111   2.720
 4752SOL     OW15154   4.264   1.256   6.598
 4752SOL    HW115155   4.247   1.309   6.680
 4752SOL    HW215156   4.362   1.244   6.584
 4753SOL     OW15157   6.272   0.177   4.057
 4753SOL    HW115158   6.371   0.165   4.067
 4753SOL    HW215159   6.241   0.254   4.113
 4754SOL     OW15160   5.719   4.322   4.786
 4754SOL    HW115161   5.670   4.341   4.871
 4754SOL    HW215162   5.723   4.406   4.731
 4755SOL     OW15163   3.039   0.574   0.308
 4755SOL    HW115164   3.029   0.582   0.209
 4755SOL    HW215165   3.131   0.602   0.335
 4756SOL     OW15166   5.766   2.729   6.233
 4756SOL    HW115167   5.669   2.720   6.210
 4756SOL    HW215168   5.806   2.639   6.248
 4757SOL     OW15169   2.680   1.761   1.617
 4757SOL    HW115170   2.689   1.668   1.581
 4757SOL    HW215171   2.769   1.793   1.649
 4758SOL     OW15172   1.859   6.599   3.263
 4758SOL    HW115173   1.864   6.666   3.338
 4758SOL    HW215174   1.775   6.547   3.271
 4759SOL     OW15175   6.693   4.565   5.253
 4759SOL    HW115176   6.671   4.618   5.335
 4759SOL    HW215177   6.623   4.582   5.183
 4760SOL     OW15178   2.386   1.879   0.192
 4760SOL    HW115179   2.421   1.788   0.215
 4760SOL    HW215180   2.298   1.870   0.145
 4761SOL     OW15181   1.069   6.150   0.772
 4761SOL    HW115182   0.995   6.111   0.826
 4761SOL    HW215183   1.128   6.076   0.738
 4762SOL     OW15184   1.589   5.252   1.960
 4762SOL    HW115185   1.547   5.208   1.881
 4762SOL    HW215186   1.534   5.333   1.985
 4763SOL     OW15187   5.977   0.180   2.299
 4763SOL    HW115188   5.996   0.272   2.265
 4763SOL    HW215189   6.022   0.167   2.387
 4764SOL     OW15190   4.896   3.835   5.065
 4764SOL    HW115191   4.976   3.777   5.075
 4764SOL    HW215192   4.838   3.800   4.992
 4765SOL     OW15193   4.524   0.561   5.220
 4765SOL    HW115194   4.434   0.526   5.247
 4765SOL    HW215195   4.513   0.623   5.142
 4766SOL     OW15196   5.775   5.664   3.693
 4766SOL    HW115197   5.784   5.609   3.610
 4766SOL    HW215198   5.685   5.650   3.733
 4767SOL     OW15199   2.920   5.583   5.152
 4767SOL    HW115200   2.846   5.519   5.175
 4767SOL    HW215201   2.993   5.575   5.220
 4768SOL     OW15202   4.480   2.078   6.439
 4768SOL    HW115203   4.574   2.057   6.467
 4768SOL    HW215204   4.427   1.993   6.436
 4769SOL     OW15205   5.034   5.860   6.914
 4769SOL    HW115206   5.134   5.853   6.914
 4769SOL    HW215207   4.995   5.770   6.896
 4770SOL     OW15208   6.476   1.654   4.299
 4770SOL    HW115209   6.483   1.558   4.326
 4770SOL    HW215210   6.499   1.712   4.377
 4771SOL     OW15211   2.735   5.880   5.506
 4771SOL    HW115212   2.730   5.948   5.579
 4771SOL    HW215213   2.797   5.806   5.533
 4772SOL     OW15214   4.102   5.400   0.520
 4772SOL    HW115215   4.075   5.304   0.528
 4772SOL    HW215216   4.201   5.407   0.530
 4773SOL     OW15217   6.856   5.077   4.808
 4773SOL    HW115218   6.776   5.042   4.858
 4773SOL    HW215219   6.936   5.021   4.829
 4774SOL     OW15220   1.868   3.428   1.208
 4774SOL    HW115221   1.915   3.507   1.168
 4774SOL    HW215222   1.935   3.363   1.243
 4775SOL     OW15223   5.920   6.713   2.817
 4775SOL    HW115224   5.882   6.622   2.802
 4775SOL    HW215225   5.963   6.746   2.733
 4776SOL     OW15226   1.514   6.863   5.709
 4776SOL    HW115227   1.505   6.793   5.638
 4776SOL    HW215228   1.602   6.853   5.755
 4777SOL     OW15229   1.407   4.869   1.450
 4777SOL    HW115230   1.408   4.961   1.411
 4777SOL    HW215231   1.484   4.859   1.514
 4778SOL     OW15232   6.732   3.311   3.830
 4778SOL    HW115233   6.696   3.247   3.762
 4778SOL    HW215234   6.692   3.401   3.816
 4779SOL     OW15235   5.873   6.584   2.374
 4779SOL    HW115236   5.835   6.631   2.294
 4779SOL    HW215237   5.799   6.537   2.423
 4780SOL     OW15238   5.964   2.148   6.865
 4780SOL    HW115239   6.006   2.220   6.808
 4780SOL    HW215240   5.936   2.186   6.952
 4781SOL     OW15241   2.659   5.767   3.049
 4781SOL    HW115242   2.734   5.800   2.991
 4781SOL    HW215243   2.604   5.701   2.998
 4782SOL     OW15244   6.300   5.445   6.703
 4782SOL    HW115245   6.249   5.456   6.618
 4782SOL    HW215246   6.392   5.480   6.692
 4783SOL     OW15247   5.191   3.976   7.020
 4783SOL    HW115248   5.099   3.990   6.984
 4783SOL    HW215249   5.222   4.059   0.046
 4784SOL     OW15250   6.587   2.809   6.379
 4784SOL    HW115251   6.539   2.890   6.346
 4784SOL    HW215252   6.552   2.728   6.331
 4785SOL     OW15253   1.142   6.273   3.181
 4785SOL    HW115254   1.049   6.301   3.158
 4785SOL    HW215255   1.191   6.249   3.097
 4786SOL     OW15256   2.321   0.064   0.870
 4786SOL    HW115257   2.296   6.988   0.858
 4786SOL    HW215258   2.363   0.098   0.786
 4787SOL     OW15259   4.045   1.130   2.762
 4787SOL    HW115260   4.100   1.060   2.806
 4787SOL    HW215261   4.017   1.198   2.831
 4788SOL     OW15262   6.556   6.221   0.188
 4788SOL    HW115263   6.558   6.138   0.243
 4788SOL    HW215264   6.465   6.234   0.149
 4789SOL     OW15265   5.262   1.507   1.840
 4789SOL    HW115266   5.199   1.558   1.898
 4789SOL    HW215267   5.286   1.563   1.760
 4790SOL     OW15268   5.658   1.635   5.630
 4790SOL    HW115269   5.686   1.657   5.724
 4790SOL    HW215270   5.601   1.708   5.594
 4791SOL     OW15271   0.324   3.106   1.204
 4791SOL    HW115272   0.321   3.131   1.108
 4791SOL    HW215273   0.231   3.113   1.243
 4792SOL     OW15274   2.696   4.731   3.741
 4792SOL    HW115275   2.672   4.828   3.749
 4792SOL    HW215276   2.788   4.716   3.778
 4793SOL     OW15277   2.163   2.869   5.168
 4793SOL    HW115278   2.197   2.814   5.243
 4793SOL    HW215279   2.239   2.899   5.111
 4794SOL     OW15280   5.457   6.964   4.777
 4794SOL    HW115281   5.372   7.003   4.744
 4794SOL    HW215282   5.451   6.864   4.774
 4795SOL     OW15283   6.248   2.039   3.802
 4795SOL    HW115284   6.241   2.126   3.850
 4795SOL    HW215285   6.342   2.004   3.809
 4796SOL     OW15286   4.643   1.116   5.124
 4796SOL    HW115287   4.591   1.197   5.096
 4796SOL    HW215288   4.597   1.072   5.201
 4797SOL     OW15289   0.645   6.685   5.294
 4797SOL    HW115290   0.686   6.598   5.320
 4797SOL    HW215291   0.556   6.694   5.338
 4798SOL     OW15292   0.262   4.224   5.856
 4798SOL    HW115293   0.193   4.233   5.784
 4798SOL    HW215294   0.317   4.142   5.839
 4799SOL     OW15295   3.646   1.722   0.650
 4799SOL    HW115296   3.650   1.632   0.694
 4799SOL    HW215297   3.692   1.789   0.709
 4800SOL     OW15298   2.080   3.148   6.950
 4800SOL    HW115299   2.101   3.167   6.855
 4800SOL    HW215300   2.149   3.190   7.009
 4801SOL     OW15301   3.102   2.785   0.134
 4801SOL    HW115302   3.085   2.720   0.060
 4801SOL    HW215303   3.058   2.872   0.113
 4802SOL     OW15304   0.388   6.552   2.260
 4802SOL    HW115305   0.485   6.547   2.237
 4802SOL    HW215306   0.335   6.572   2.177
 4803SOL     OW15307   0.147   4.647   6.614
 4803SOL    HW115308   0.224   4.697   6.575
 4803SOL    HW215309   0.063   4.672   6.566
 4804SOL     OW15310   6.923   6.187   1.777
 4804SOL    HW115311   6.896   6.152   1.867
 4804SOL    HW215312   7.009   6.145   1.750
 4805SOL     OW15313   5.668   1.219   2.060
 4805SOL    HW115314   5.597   1.283   2.031
 4805SOL    HW215315   5.632   1.159   2.132
 4806SOL     OW15316   0.960   4.514   2.614
 4806SOL    HW115317   1.027   4.576   2.654
 4806SOL    HW215318   0.948   4.435   2.675
 4807SOL     OW15319   0.279   4.710   0.390
 4807SOL    HW115320   0.337   4.731   0.469
 4807SOL    HW215321   0.221   4.632   0.411
 4808SOL     OW15322   4.824   5.498   0.256
 4808SOL    HW115323   4.806   5.400   0.251
 4808SOL    HW215324   4.794   5.542   0.171
 4809SOL     OW15325   3.695   5.357   0.402
 4809SOL    HW115326   3.677   5.386   0.496
 4809SOL    HW215327   3.687   5.436   0.341
 4810SOL     OW15328   1.496   4.488   2.552
 4810SOL    HW115329   1.447   4.467   2.636
 4810SOL    HW215330   1.431   4.496   2.476
 4811SOL     OW15331   2.942   4.088   1.764
 4811SOL    HW115332   2.873   4.057   1.698
 4811SOL    HW215333   2.989   4.009   1.802
 4812SOL     OW15334   0.632   6.109   2.254
 4812SOL    HW115335   0.550   6.151   2.292
 4812SOL    HW215336   0.713   6.151   2.295
 4813SOL     OW15337   5.426   1.526   6.973
 4813SOL    HW115338   5.461   1.437   6.944
 4813SOL    HW215339   5.392   1.576   6.894
 4814SOL     OW15340   0.092   3.068   1.034
 4814SOL    HW115341   0.051   3.157   1.015
 4814SOL    HW215342   0.066   3.002   0.964
 4815SOL     OW15343   5.190   3.956   2.664
 4815SOL    HW115344   5.160   3.866   2.697
 4815SOL    HW215345   5.279   3.946   2.618
 4816SOL     OW15346   2.177   4.942   1.178
 4816SOL    HW115347   2.234   4.960   1.097
 4816SOL    HW215348   2.105   5.011   1.185
 4817SOL     OW15349   2.566   1.619   0.219
 4817SOL    HW115350   2.517   1.541   0.259
 4817SOL    HW215351   2.606   1.675   0.292
 4818SOL     OW15352   0.126   0.348   4.666
 4818SOL    HW115353   0.127   0.285   4.588
 4818SOL    HW215354   0.204   0.410   4.660
 4819SOL     OW15355   2.299   2.276   1.356
 4819SOL    HW115356   2.325   2.185   1.321
 4819SOL    HW215357   2.381   2.325   1.385
 4820SOL     OW15358   6.555   2.513   1.762
 4820SOL    HW115359   6.477   2.497   1.822
 4820SOL    HW215360   6.544   2.601   1.716
 4821SOL     OW15361   0.683   6.827   2.353
 4821SOL    HW115362   0.671   6.734   2.316
 4821SOL    HW215363   0.719   6.821   2.446
 4822SOL     OW15364   2.147   3.611   4.736
 4822SOL    HW115365   2.243   3.589   4.718
 4822SOL    HW215366   2.102   3.532   4.777
 4823SOL     OW15367   1.076   0.514   4.034
 4823SOL    HW115368   1.090   0.610   4.058
 4823SOL    HW215369   0.979   0.499   4.014
 4824SOL     OW15370   5.064   2.074   4.112
 4824SOL    HW115371   5.017   2.033   4.190
 4824SOL    HW215372   5.018   2.049   4.027
 4825SOL     OW15373   1.934   1.838   5.008
 4825SOL    HW115374   1.992   1.900   4.956
 4825SOL    HW215375   1.964   1.838   5.104
 4826SOL     OW15376   0.195   1.174   6.282
 4826SOL    HW115377   0.293   1.191   6.289
 4826SOL    HW215378   0.151   1.250   6.235
 4827SOL     OW15379   6.461   1.838   1.273
 4827SOL    HW115380   6.542   1.868   1.222
 4827SOL    HW215381   6.384   1.828   1.209
 4828SOL     OW15382   5.464   3.314   1.327
 4828SOL    HW115383   5.422   3.282   1.242
 4828SOL    HW215384   5.394   3.324   1.397
 4829SOL     OW15385   4.248   6.701   6.966
 4829SOL    HW115386   4.178   6.676   0.013
 4829SOL    HW215387   4.306   6.773   7.004
 4830SOL     OW15388   4.301   6.509   3.763
 4830SOL    HW115389   4.398   6.502   3.739
 4830SOL    HW215390   4.246   6.512   3.680
 4831SOL     OW15391   0.096   4.690   6.259
 4831SOL    HW115392   0.002   4.725   6.254
 4831SOL    HW215393   0.104   4.607   6.204
 4832SOL     OW15394   3.347   3.130   5.059
 4832SOL    HW115395   3.341   3.134   4.960
 4832SOL    HW215396   3.370   3.038   5.088
 4833SOL     OW15397   4.935   2.470   2.882
 4833SOL    HW115398   4.945   2.470   2.782
 4833SOL    HW215399   4.840   2.447   2.905
 4834SOL     OW15400   4.171   6.775   1.122
 4834SOL    HW115401   4.225   6.843   1.172
 4834SOL    HW215402   4.102   6.736   1.183
 4835SOL     OW15403   6.838   0.849   6.190
 4835SOL    HW115404   6.826   0.895   6.101
 4835SOL    HW215405   6.914   0.891   6.239
 4836SOL     OW15406   5.080   2.911   4.544
 4836SOL    HW115407   4.985   2.935   4.524
 4836SOL    HW215408   5.136   2.994   4.541
 4837SOL     OW15409   6.169   4.386   1.772
 4837SOL    HW115410   6.200   4.479   1.792
 4837SOL    HW215411   6.220   4.321   1.828
 4838SOL     OW15412   0.842   4.691   1.066
 4838SOL    HW115413   0.766   4.742   1.026
 4838SOL    HW215414   0.867   4.731   1.154
 4839SOL     OW15415   1.769   2.525   6.256
 4839SOL    HW115416   1.686   2.572   6.226
 4839SOL    HW215417   1.776   2.529   6.355
 4840SOL     OW15418   6.994   5.792   5.918
 4840SOL    HW115419   6.916   5.804   5.980
 4840SOL    HW215420   6.998   5.697   5.888
 4841SOL     OW15421   3.043   6.306   2.326
 4841SOL    HW115422   2.984   6.226   2.313
 4841SOL    HW215423   2.992   6.379   2.370
 4842SOL     OW15424   3.649   4.888   2.466
 4842SOL    HW115425   3.578   4.838   2.516
 4842SOL    HW215426   3.723   4.911   2.529
 4843SOL     OW15427   6.262   3.143   0.632
 4843SOL    HW115428   6.361   3.132   0.641
 4843SOL    HW215429   6.221   3.156   0.722
 4844SOL     OW15430   6.730   3.220   5.588
 4844SOL    HW115431   6.728   3.303   5.644
 4844SOL    HW215432   6.740   3.245   5.492
 4845SOL     OW15433   5.515   5.299   5.662
 4845SOL    HW115434   5.447   5.332   5.597
 4845SOL    HW215435   5.605   5.300   5.619
 4846SOL     OW15436   0.279   3.039   3.798
 4846SOL    HW115437   0.192   2.995   3.776
 4846SOL    HW215438   0.276   3.073   3.892
 4847SOL     OW15439   2.681   1.027   6.054
 4847SOL    HW115440   2.616   1.101   6.036
 4847SOL    HW215441   2.730   1.046   6.139
 4848SOL     OW15442   1.750   0.793   4.032
 4848SOL    HW115443   1.801   0.773   3.949
 4848SOL    HW215444   1.771   0.886   4.062
 4849SOL     OW15445   1.155   6.757   6.795
 4849SOL    HW115446   1.127   6.852   6.810
 4849SOL    HW215447   1.082   6.695   6.824
 4850SOL     OW15448   4.131   1.701   2.441
 4850SOL    HW115449   4.117   1.788   2.394
 4850SOL    HW215450   4.081   1.628   2.395
 4851SOL     OW15451   4.224   6.160   5.760
 4851SOL    HW115452   4.240   6.106   5.842
 4851SOL    HW215453   4.170   6.106   5.695
 4852SOL     OW15454   1.122   6.229   5.179
 4852SOL    HW115455   1.177   6.302   5.138
 4852SOL    HW215456   1.082   6.173   5.106
 4853SOL     OW15457   3.153   1.119   3.492
 4853SOL    HW115458   3.081   1.151   3.430
 4853SOL    HW215459   3.230   1.183   3.489
 4854SOL     OW15460   4.694   0.313   1.415
 4854SOL    HW115461   4.725   0.297   1.321
 4854SOL    HW215462   4.664   0.227   1.455
 4855SOL     OW15463   6.240   2.422   2.738
 4855SOL    HW115464   6.244   2.509   2.688
 4855SOL    HW215465   6.145   2.400   2.758
 4856SOL     OW15466   1.702   3.771   2.835
 4856SOL    HW115467   1.766   3.698   2.856
 4856SOL    HW215468   1.695   3.834   2.912
 4857SOL     OW15469   2.006   2.181   5.132
 4857SOL    HW115470   2.039   2.172   5.038
 4857SOL    HW215471   1.945   2.260   5.139
 4858SOL     OW15472   0.392   0.769   4.367
 4858SOL    HW115473   0.485   0.760   4.331
 4858SOL    HW215474   0.365   0.682   4.409
 4859SOL     OW15475   0.088   0.815   4.779
 4859SOL    HW115476   0.130   0.886   4.835
 4859SOL    HW215477   0.065   0.852   4.689
 4860SOL     OW15478   4.215   4.611   1.449
 4860SOL    HW115479   4.301   4.576   1.411
 4860SOL    HW215480   4.226   4.630   1.546
 4861SOL     OW15481   5.227   4.533   0.013
 4861SOL    HW115482   5.327   4.535   0.010
 4861SOL    HW215483   5.192   4.478   6.958
 4862SOL     OW15484   2.604   4.597   4.544
 4862SOL    HW115485   2.625   4.650   4.626
 4862SOL    HW215486   2.537   4.526   4.566
 4863SOL     OW15487   6.083   4.007   1.743
 4863SOL    HW115488   6.023   3.957   1.680
 4863SOL    HW215489   6.087   3.959   1.831
 4864SOL     OW15490   3.974   1.273   2.534
 4864SOL    HW115491   3.992   1.226   2.620
 4864SOL    HW215492   3.949   1.368   2.553
 4865SOL     OW15493   2.203   6.963   4.612
 4865SOL    HW115494   2.302   6.977   4.607
 4865SOL    HW215495   2.160   6.995   4.528
 4866SOL     OW15496   6.279   2.582   1.593
 4866SOL    HW115497   6.317   2.673   1.609
 4866SOL    HW215498   6.267   2.536   1.681
 4867SOL     OW15499   3.665   5.300   1.922
 4867SOL    HW115500   3.724   5.368   1.879
 4867SOL    HW215501   3.704   5.272   2.009
 4868SOL     OW15502   6.653   5.134   2.670
 4868SOL    HW115503   6.711   5.090   2.601
 4868SOL    HW215504   6.595   5.203   2.626
 4869SOL     OW15505   1.368   1.229   1.479
 4869SOL    HW115506   1.397   1.140   1.444
 4869SOL    HW215507   1.392   1.300   1.414
 4870SOL     OW15508   0.259   5.578   1.845
 4870SOL    HW115509   0.353   5.599   1.821
 4870SOL    HW215510   0.243   5.600   1.941
 4871SOL     OW15511   1.519   1.336   3.648
 4871SOL    HW115512   1.593   1.278   3.616
 4871SOL    HW215513   1.557   1.416   3.695
 4872SOL     OW15514   6.137   6.157   3.611
 4872SOL    HW115515   6.128   6.132   3.515
 4872SOL    HW215516   6.128   6.076   3.668
 4873SOL     OW15517   6.625   5.393   2.950
 4873SOL    HW115518   6.537   5.347   2.936
 4873SOL    HW215519   6.647   5.393   3.048
 4874SOL     OW15520   6.190   3.682   2.919
 4874SOL    HW115521   6.117   3.638   2.971
 4874SOL    HW215522   6.263   3.712   2.981
 4875SOL     OW15523   6.120   2.404   1.394
 4875SOL    HW115524   6.159   2.486   1.436
 4875SOL    HW215525   6.194   2.343   1.366
 4876SOL     OW15526   5.669   1.758   4.122
 4876SOL    HW115527   5.608   1.775   4.044
 4876SOL    HW215528   5.736   1.689   4.097
 4877SOL     OW15529   1.534   1.866   6.727
 4877SOL    HW115530   1.441   1.829   6.729
 4877SOL    HW215531   1.544   1.933   6.801
 4878SOL     OW15532   6.227   1.403   2.556
 4878SOL    HW115533   6.290   1.464   2.604
 4878SOL    HW215534   6.149   1.383   2.614
 4879SOL     OW15535   4.463   6.525   2.716
 4879SOL    HW115536   4.394   6.469   2.671
 4879SOL    HW215537   4.552   6.481   2.709
 4880SOL     OW15538   5.490   3.255   0.391
 4880SOL    HW115539   5.520   3.295   0.478
 4880SOL    HW215540   5.532   3.305   0.315
 4881SOL     OW15541   1.723   0.914   6.674
 4881SOL    HW115542   1.717   0.884   6.770
 4881SOL    HW215543   1.708   0.835   6.614
 4882SOL     OW15544   4.939   1.340   4.821
 4882SOL    HW115545   4.928   1.399   4.901
 4882SOL    HW215546   4.944   1.245   4.850
 4883SOL     OW15547   4.952   4.799   1.813
 4883SOL    HW115548   5.052   4.798   1.815
 4883SOL    HW215549   4.919   4.709   1.787
 4884SOL     OW15550   2.669   6.238   1.353
 4884SOL    HW115551   2.666   6.202   1.446
 4884SOL    HW215552   2.618   6.325   1.349
 4885SOL     OW15553   2.356   5.199   1.990
 4885SOL    HW115554   2.306   5.208   1.904
 4885SOL    HW215555   2.295   5.219   2.067
 4886SOL     OW15556   1.018   5.177   1.192
 4886SOL    HW115557   0.955   5.146   1.121
 4886SOL    HW215558   0.976   5.162   1.282
 4887SOL     OW15559   0.770   0.248   2.764
 4887SOL    HW115560   0.844   0.260   2.829
 4887SOL    HW215561   0.792   0.171   2.703
 4888SOL     OW15562   2.509   0.020   3.685
 4888SOL    HW115563   2.493   6.962   3.625
 4888SOL    HW215564   2.577   7.017   3.754
 4889SOL     OW15565   0.014   1.253   5.689
 4889SOL    HW115566   0.100   1.305   5.693
 4889SOL    HW215567   0.010   1.189   5.766
 4890SOL     OW15568   0.647   0.980   6.676
 4890SOL    HW115569   0.700   0.900   6.647
 4890SOL    HW215570   0.699   1.031   6.746
 4891SOL     OW15571   1.780   4.389   6.707
 4891SOL    HW115572   1.755   4.471   6.758
 4891SOL    HW215573   1.863   4.406   6.654
 4892SOL     OW15574   3.260   5.751   1.997
 4892SOL    HW115575   3.342   5.750   2.054
 4892SOL    HW215576   3.235   5.846   1.977
 4893SOL     OW15577   6.905   3.467   1.648
 4893SOL    HW115578   6.879   3.434   1.739
 4893SOL    HW215579   6.900   3.392   1.583
 4894SOL     OW15580   2.389   1.256   3.259
 4894SOL    HW115581   2.303   1.254   3.209
 4894SOL    HW215582   2.369   1.255   3.358
 4895SOL     OW15583   0.774   4.591   3.863
 4895SOL    HW115584   0.858   4.575   3.812
 4895SOL    HW215585   0.763   4.521   3.933
 4896SOL     OW15586   1.939   5.054   2.084
 4896SOL    HW115587   1.941   5.141   2.134
 4896SOL    HW215588   1.868   4.996   2.121
 4897SOL     OW15589   1.972   3.609   5.706
 4897SOL    HW115590   2.068   3.608   5.678
 4897SOL    HW215591   1.966   3.642   5.800
 4898SOL     OW15592   4.027   0.871   4.243
 4898SOL    HW115593   3.966   0.891   4.319
 4898SOL    HW215594   4.014   0.940   4.171
 4899SOL     OW15595   5.316   5.513   3.057
 4899SOL    HW115596   5.298   5.597   3.109
 4899SOL    HW215597   5.244   5.447   3.076
 4900SOL     OW15598   2.680   6.319   4.524
 4900SOL    HW115599   2.772   6.312   4.562
 4900SOL    HW215600   2.646   6.229   4.500
 4901SOL     OW15601   3.421   0.720   5.670
 4901SOL    HW115602   3.428   0.810   5.628
 4901SOL    HW215603   3.508   0.696   5.713
 4902SOL     OW15604   2.263   1.668   4.413
 4902SOL    HW115605   2.314   1.698   4.333
 4902SOL    HW215606   2.286   1.727   4.491
 4903SOL     OW15607   3.777   6.080   6.803
 4903SOL    HW115608   3.874   6.097   6.781
 4903SOL    HW215609   3.759   6.108   6.897
 4904SOL     OW15610   2.093   0.284   4.099
 4904SOL    HW115611   2.062   0.286   4.004
 4904SOL    HW215612   2.183   0.327   4.105
 4905SOL     OW15613   4.197   6.667   2.703
 4905SOL    HW115614   4.293   6.663   2.732
 4905SOL    HW215615   4.138   6.665   2.784
 4906SOL     OW15616   5.098   2.173   6.242
 4906SOL    HW115617   5.074   2.105   6.172
 4906SOL    HW215618   5.071   2.264   6.212
 4907SOL     OW15619   4.734   5.852   1.893
 4907SOL    HW115620   4.733   5.779   1.962
 4907SOL    HW215621   4.716   5.940   1.936
 4908SOL     OW15622   5.432   5.213   6.915
 4908SOL    HW115623   5.505   5.231   6.848
 4908SOL    HW215624   5.378   5.135   6.886
 4909SOL     OW15625   6.796   6.986   4.057
 4909SOL    HW115626   6.741   6.987   3.973
 4909SOL    HW215627   6.736   6.970   4.135
 4910SOL     OW15628   5.759   0.650   4.876
 4910SOL    HW115629   5.682   0.596   4.908
 4910SOL    HW215630   5.804   0.602   4.800
 4911SOL     OW15631   1.489   3.389   4.031
 4911SOL    HW115632   1.486   3.289   4.025
 4911SOL    HW215633   1.507   3.415   4.126
 4912SOL     OW15634   4.958   1.379   6.693
 4912SOL    HW115635   5.027   1.408   6.626
 4912SOL    HW215636   4.901   1.457   6.717
 4913SOL     OW15637   3.607   2.854   5.509
 4913SOL    HW115638   3.524   2.851   5.454
 4913SOL    HW215639   3.661   2.771   5.494
 4914SOL     OW15640   3.872   0.601   5.162
 4914SOL    HW115641   3.928   0.525   5.130
 4914SOL    HW215642   3.801   0.566   5.223
 4915SOL     OW15643   4.228   6.877   5.624
 4915SOL    HW115644   4.278   6.790   5.625
 4915SOL    HW215645   4.293   6.952   5.637
 4916SOL     OW15646   1.023   7.020   3.974
 4916SOL    HW115647   0.987   0.050   4.052
 4916SOL    HW215648   0.947   6.977   3.924
 4917SOL     OW15649   2.848   5.103   1.480
 4917SOL    HW115650   2.896   5.034   1.425
 4917SOL    HW215651   2.750   5.088   1.474
 4918SOL     OW15652   5.078   5.518   2.327
 4918SOL    HW115653   5.026   5.462   2.391
 4918SOL    HW215654   5.017   5.551   2.254
 4919SOL     OW15655   2.621   2.642   0.387
 4919SOL    HW115656   2.611   2.654   0.288
 4919SOL    HW215657   2.705   2.592   0.406
 4920SOL     OW15658   5.860   0.686   3.941
 4920SOL    HW115659   5.785   0.622   3.950
 4920SOL    HW215660   5.933   0.662   4.004
 4921SOL     OW15661   1.118   5.101   0.274
 4921SOL    HW115662   1.200   5.133   0.226
 4921SOL    HW215663   1.101   5.006   0.252
 4922SOL     OW15664   2.242   2.458   4.890
 4922SOL    HW115665   2.190   2.532   4.931
 4922SOL    HW215666   2.331   2.493   4.860
 4923SOL     OW15667   3.977   1.780   2.807
 4923SOL    HW115668   3.917   1.842   2.756
 4923SOL    HW215669   3.922   1.723   2.867
 4924SOL     OW15670   3.215   1.593   5.032
 4924SOL    HW115671   3.272   1.551   4.961
 4924SOL    HW215672   3.120   1.594   5.002
 4925SOL     OW15673   6.815   6.844   2.569
 4925SOL    HW115674   6.819   6.939   2.598
 4925SOL    HW215675   6.774   6.839   2.478
 4926SOL     OW15676   5.110   1.126   0.664
 4926SOL    HW115677   5.196   1.092   0.625
 4926SOL    HW215678   5.123   1.219   0.697
 4927SOL     OW15679   3.462   3.933   4.118
 4927SOL    HW115680   3.489   3.869   4.190
 4927SOL    HW215681   3.470   4.026   4.153
 4928SOL     OW15682   1.438   0.000   6.800
 4928SOL    HW115683   1.495   6.957   6.851
 4928SOL    HW215684   1.342   7.002   6.818
 4929SOL     OW15685   0.405   5.869   4.704
 4929SOL    HW115686   0.340   5.928   4.752
 4929SOL    HW215687   0.373   5.775   4.708
 4930SOL     OW15688   4.965   0.988   3.243
 4930SOL    HW115689   4.988   0.930   3.165
 4930SOL    HW215690   4.888   0.949   3.292
 4931SOL     OW15691   0.090   6.409   0.521
 4931SOL    HW115692   0.154   6.415   0.444
 4931SOL    HW215693   0.044   6.497   0.533
 4932SOL     OW15694   2.596   3.232   1.622
 4932SOL    HW115695   2.575   3.312   1.679
 4932SOL    HW215696   2.523   3.165   1.631
 4933SOL     OW15697   2.393   0.379   3.120
 4933SOL    HW115698   2.425   0.288   3.093
 4933SOL    HW215699   2.470   0.443   3.116
 4934SOL     OW15700   2.647   5.989   2.408
 4934SOL    HW115701   2.627   5.987   2.310
 4934SOL    HW215702   2.583   5.929   2.456
 4935SOL     OW15703   1.809   1.568   6.327
 4935SOL    HW115704   1.752   1.515   6.264
 4935SOL    HW215705   1.877   1.508   6.368
 4936SOL     OW15706   2.439   4.536   1.933
 4936SOL    HW115707   2.477   4.581   2.014
 4936SOL    HW215708   2.428   4.438   1.952
 4937SOL     OW15709   6.241   2.961   5.504
 4937SOL    HW115710   6.255   2.912   5.418
 4937SOL    HW215711   6.223   2.895   5.577
 4938SOL     OW15712   2.242   5.077   5.415
 4938SOL    HW115713   2.316   5.060   5.350
 4938SOL    HW215714   2.217   5.174   5.414
 4939SOL     OW15715   6.604   2.260   4.187
 4939SOL    HW115716   6.587   2.198   4.264
 4939SOL    HW215717   6.602   2.209   4.101
 4940SOL     OW15718   6.979   1.055   5.134
 4940SOL    HW115719   6.888   1.038   5.171
 4940SOL    HW215720   6.982   1.146   5.091
 4941SOL     OW15721   5.483   2.482   5.384
 4941SOL    HW115722   5.403   2.490   5.444
 4941SOL    HW215723   5.494   2.387   5.356
 4942SOL     OW15724   5.151   2.767   6.323
 4942SOL    HW115725   5.135   2.828   6.246
 4942SOL    HW215726   5.071   2.709   6.337
 4943SOL     OW15727   4.604   3.672   6.574
 4943SOL    HW115728   4.629   3.665   6.477
 4943SOL    HW215729   4.597   3.768   6.600
 4944SOL     OW15730   2.127   4.584   1.816
 4944SOL    HW115731   2.224   4.603   1.809
 4944SOL    HW215732   2.091   4.620   1.902
 4945SOL     OW15733   0.915   0.116   4.194
 4945SOL    HW115734   0.994   0.174   4.215
 4945SOL    HW215735   0.838   0.173   4.166
 4946SOL     OW15736   1.379   4.811   6.910
 4946SOL    HW115737   1.391   4.776   7.003
 4946SOL    HW215738   1.361   4.735   6.848
 4947SOL     OW15739   2.117   1.106   0.831
 4947SOL    HW115740   2.153   1.040   0.766
 4947SOL    HW215741   2.076   1.058   0.909
 4948SOL     OW15742   1.231   2.765   2.356
 4948SOL    HW115743   1.160   2.698   2.333
 4948SOL    HW215744   1.204   2.855   2.323
 4949SOL     OW15745   5.043   6.284   6.206
 4949SOL    HW115746   5.120   6.303   6.266
 4949SOL    HW215747   5.039   6.354   6.134
 4950SOL     OW15748   2.435   5.531   4.472
 4950SOL    HW115749   2.489   5.469   4.416
 4950SOL    HW215750   2.458   5.518   4.569
 4951SOL     OW15751   6.063   1.701   5.287
 4951SOL    HW115752   6.039   1.612   5.248
 4951SOL    HW215753   6.146   1.735   5.242
 4952SOL     OW15754   0.092   0.826   6.031
 4952SOL    HW115755   0.069   0.883   6.109
 4952SOL    HW215756   0.179   0.779   6.047
 4953SOL     OW15757   2.494   5.796   2.573
 4953SOL    HW115758   2.523   5.869   2.635
 4953SOL    HW215759   2.568   5.729   2.563
 4954SOL     OW15760   4.236   3.019   6.832
 4954SOL    HW115761   4.303   2.948   6.853
 4954SOL    HW215762   4.156   2.978   6.787
 4955SOL     OW15763   2.920   6.429   6.372
 4955SOL    HW115764   2.830   6.471   6.357
 4955SOL    HW215765   2.941   6.367   6.296
 4956SOL     OW15766   2.037   6.950   5.375
 4956SOL    HW115767   2.095   0.005   5.408
 4956SOL    HW215768   2.081   6.863   5.396
 4957SOL     OW15769   6.568   2.038   1.634
 4957SOL    HW115770   6.617   2.122   1.656
 4957SOL    HW215771   6.497   2.022   1.703
 4958SOL     OW15772   6.813   4.887   5.459
 4958SOL    HW115773   6.882   4.959   5.469
 4958SOL    HW215774   6.844   4.804   5.504
 4959SOL     OW15775   6.460   1.417   0.058
 4959SOL    HW115776   6.555   1.446   0.054
 4959SOL    HW215777   6.401   1.493   0.030
 4960SOL     OW15778   3.382   4.909   3.522
 4960SOL    HW115779   3.430   4.855   3.591
 4960SOL    HW215780   3.350   4.994   3.563
 4961SOL     OW15781   4.307   1.025   6.217
 4961SOL    HW115782   4.291   0.957   6.288
 4961SOL    HW215783   4.369   0.988   6.148
 4962SOL     OW15784   6.642   2.449   0.314
 4962SOL    HW115785   6.579   2.418   0.242
 4962SOL    HW215786   6.635   2.387   0.392
 4963SOL     OW15787   5.982   5.499   6.977
 4963SOL    HW115788   5.883   5.501   6.961
 4963SOL    HW215789   6.024   5.429   6.920
 4964SOL     OW15790   2.791   0.289   3.762
 4964SOL    HW115791   2.880   0.314   3.800
 4964SOL    HW215792   2.767   0.352   3.688
 4965SOL     OW15793   6.827   0.831   2.798
 4965SOL    HW115794   6.780   0.906   2.751
 4965SOL    HW215795   6.863   0.767   2.731
 4966SOL     OW15796   2.495   6.962   5.022
 4966SOL    HW115797   2.459   6.930   5.110
 4966SOL    HW215798   2.585   7.002   5.035
 4967SOL     OW15799   3.710   5.421   5.953
 4967SOL    HW115800   3.637   5.384   5.895
 4967SOL    HW215801   3.787   5.358   5.953
 4968SOL     OW15802   6.534   2.086   3.997
 4968SOL    HW115803   6.614   2.033   3.970
 4968SOL    HW215804   6.489   2.042   4.076
 4969SOL     OW15805   2.702   6.973   2.621
 4969SOL    HW115806   2.777   6.908   2.628
 4969SOL    HW215807   2.617   6.925   2.598
 4970SOL     OW15808   1.440   2.424   3.092
 4970SOL    HW115809   1.457   2.326   3.103
 4970SOL    HW215810   1.395   2.441   3.005
 4971SOL     OW15811   6.549   5.852   4.099
 4971SOL    HW115812   6.469   5.875   4.044
 4971SOL    HW215813   6.524   5.782   4.167
 4972SOL     OW15814   1.854   3.064   0.473
 4972SOL    HW115815   1.889   3.149   0.513
 4972SOL    HW215816   1.801   3.015   0.542
 4973SOL     OW15817   1.957   0.349   2.535
 4973SOL    HW115818   1.929   0.274   2.476
 4973SOL    HW215819   2.008   0.416   2.481
 4974SOL     OW15820   6.066   4.693   0.940
 4974SOL    HW115821   5.982   4.677   0.888
 4974SOL    HW215822   6.061   4.781   0.986
 4975SOL     OW15823   5.736   4.317   5.637
 4975SOL    HW115824   5.795   4.245   5.674
 4975SOL    HW215825   5.787   4.403   5.634
 4976SOL     OW15826   2.327   0.641   3.808
 4976SOL    HW115827   2.419   0.604   3.810
 4976SOL    HW215828   2.262   0.570   3.779
 4977SOL     OW15829   3.949   4.493   0.327
 4977SOL    HW115830   3.984   4.583   0.354
 4977SOL    HW215831   3.878   4.505   0.258
 4978SOL     OW15832   0.110   4.235   4.749
 4978SOL    HW115833   0.194   4.227   4.695
 4978SOL    HW215834   0.121   4.307   4.817
 4979SOL     OW15835   0.436   6.978   5.863
 4979SOL    HW115836   0.433   0.012   5.946
 4979SOL    HW215837   0.367   7.011   5.798
 4980SOL     OW15838   5.349   6.503   3.316
 4980SOL    HW115839   5.311   6.425   3.365
 4980SOL    HW215840   5.404   6.470   3.239
 4981SOL     OW15841   5.160   6.234   6.705
 4981SOL    HW115842   5.072   6.187   6.703
 4981SOL    HW215843   5.210   6.208   6.787
 4982SOL     OW15844   2.595   1.568   6.141
 4982SOL    HW115845   2.521   1.629   6.171
 4982SOL    HW215846   2.594   1.562   6.041
 4983SOL     OW15847   5.744   2.602   4.917
 4983SOL    HW115848   5.836   2.587   4.880
 4983SOL    HW215849   5.692   2.517   4.912
 4984SOL     OW15850   5.794   4.200   3.507
 4984SOL    HW115851   5.889   4.168   3.502
 4984SOL    HW215852   5.791   4.292   3.546
 4985SOL     OW15853   6.152   6.207   3.303
 4985SOL    HW115854   6.230   6.248   3.256
 4985SOL    HW215855   6.171   6.111   3.323
 4986SOL     OW15856   5.955   4.223   1.841
 4986SOL    HW115857   5.994   4.152   1.781
 4986SOL    HW215858   6.012   4.305   1.836
 4987SOL     OW15859   1.137   0.824   1.097
 4987SOL    HW115860   1.222   0.836   1.046
 4987SOL    HW215861   1.123   0.903   1.157
 4988SOL     OW15862   5.383   0.708   3.299
 4988SOL    HW115863   5.366   0.661   3.385
 4988SOL    HW215864   5.481   0.701   3.276
 4989SOL     OW15865   5.260   0.043   1.794
 4989SOL    HW115866   5.279   0.083   1.704
 4989SOL    HW215867   5.179   7.006   1.788
 4990SOL     OW15868   1.528   1.888   5.120
 4990SOL    HW115869   1.540   1.980   5.083
 4990SOL    HW215870   1.597   1.827   5.080
 4991SOL     OW15871   6.426   4.502   4.777
 4991SOL    HW115872   6.409   4.596   4.747
 4991SOL    HW215873   6.340   4.451   4.779
 4992SOL     OW15874   4.957   0.901   4.617
 4992SOL    HW115875   4.920   0.820   4.570
 4992SOL    HW215876   4.882   0.956   4.654
 4993SOL     OW15877   3.344   5.324   4.036
 4993SOL    HW115878   3.335   5.358   3.942
 4993SOL    HW215879   3.269   5.360   4.092
 4994SOL     OW15880   2.184   0.132   3.248
 4994SOL    HW115881   2.277   0.120   3.282
 4994SOL    HW215882   2.178   0.098   3.154
 4995SOL     OW15883   6.886   2.652   6.006
 4995SOL    HW115884   6.871   2.631   6.103
 4995SOL    HW215885   6.818   2.718   5.975
 4996SOL     OW15886   1.410   0.962   2.559
 4996SOL    HW115887   1.321   0.979   2.601
 4996SOL    HW215888   1.401   0.889   2.491
 4997SOL     OW15889   5.326   2.235   3.305
 4997SOL    HW115890   5.273   2.154   3.331
 4997SOL    HW215891   5.367   2.276   3.387
 4998SOL     OW15892   2.090   3.878   5.088
 4998SOL    HW115893   2.174   3.929   5.107
 4998SOL    HW215894   2.024   3.939   5.043
 4999SOL     OW15895   6.163   4.466   0.696
 4999SOL    HW115896   6.108   4.539   0.737
 4999SOL    HW215897   6.178   4.486   0.599
 5000SOL     OW15898   2.697   7.001   3.875
 5000SOL    HW115899   2.784   6.961   3.845
 5000SOL    HW215900   2.705   0.079   3.880
 5001SOL     OW15901   0.599   3.963   0.553
 5001SOL    HW115902   0.672   3.896   0.542
 5001SOL    HW215903   0.566   3.961   0.647
 5002SOL     OW15904   1.229   3.416   3.457
 5002SOL    HW115905   1.324   3.385   3.467
 5002SOL    HW215906   1.185   3.364   3.383
 5003SOL     OW15907   2.341   6.356   2.885
 5003SOL    HW115908   2.289   6.376   2.968
 5003SOL    HW215909   2.435   6.332   2.908
 5004SOL     OW15910   3.160   5.146   5.735
 5004SOL    HW115911   3.255   5.115   5.728
 5004SOL    HW215912   3.119   5.110   5.818
 5005SOL     OW15913   3.259   2.368   0.221
 5005SOL    HW115914   3.164   2.379   0.193
 5005SOL    HW215915   3.262   2.340   0.317
 5006SOL     OW15916   4.915   6.894   0.591
 5006SOL    HW115917   5.002   6.941   0.605
 5006SOL    HW215918   4.913   6.809   0.644
 5007SOL     OW15919   1.426   0.257   6.651
 5007SOL    HW115920   1.444   0.163   6.681
 5007SOL    HW215921   1.435   0.261   6.551
 5008SOL     OW15922   6.473   6.909   3.139
 5008SOL    HW115923   6.374   6.899   3.148
 5008SOL    HW215924   6.494   6.987   3.080
 5009SOL     OW15925   1.693   6.122   1.034
 5009SOL    HW115926   1.782   6.081   1.014
 5009SOL    HW215927   1.706   6.213   1.073
 5010SOL     OW15928   3.298   3.409   2.761
 5010SOL    HW115929   3.251   3.470   2.697
 5010SOL    HW215930   3.339   3.333   2.710
 5011SOL     OW15931   1.738   3.964   3.024
 5011SOL    HW115932   1.768   3.928   3.112
 5011SOL    HW215933   1.778   4.054   3.009
 5012SOL     OW15934   5.055   4.286   6.361
 5012SOL    HW115935   5.091   4.275   6.454
 5012SOL    HW215936   5.124   4.254   6.295
 5013SOL     OW15937   4.730   1.749   0.043
 5013SOL    HW115938   4.826   1.758   0.017
 5013SOL    HW215939   4.674   1.740   6.981
 5014SOL     OW15940   5.297   4.079   0.999
 5014SOL    HW115941   5.374   4.026   0.962
 5014SOL    HW215942   5.308   4.089   1.098
 5015SOL     OW15943   4.803   2.290   4.037
 5015SOL    HW115944   4.722   2.269   3.981
 5015SOL    HW215945   4.842   2.205   4.073
 5016SOL     OW15946   2.385   2.311   0.731
 5016SOL    HW115947   2.453   2.379   0.705
 5016SOL    HW215948   2.410   2.222   0.692
 5017SOL     OW15949   1.735   1.904   7.016
 5017SOL    HW115950   1.809   1.961   6.981
 5017SOL    HW215951   1.741   1.898   0.095
 5018SOL     OW15952   0.450   4.299   2.143
 5018SOL    HW115953   0.537   4.345   2.159
 5018SOL    HW215954   0.456   4.204   2.172
 5019SOL     OW15955   1.300   5.018   6.626
 5019SOL    HW115956   1.202   5.026   6.608
 5019SOL    HW215957   1.343   5.107   6.614
 5020SOL     OW15958   4.822   6.773   6.052
 5020SOL    HW115959   4.857   6.756   5.960
 5020SOL    HW215960   4.722   6.775   6.050
 5021SOL     OW15961   1.460   1.997   6.056
 5021SOL    HW115962   1.523   1.986   6.133
 5021SOL    HW215963   1.513   2.003   5.971
 5022SOL     OW15964   1.411   0.984   0.640
 5022SOL    HW115965   1.505   0.960   0.663
 5022SOL    HW215966   1.393   0.961   0.545
 5023SOL     OW15967   6.496   3.484   0.910
 5023SOL    HW115968   6.400   3.473   0.936
 5023SOL    HW215969   6.512   3.438   0.823
 5024SOL     OW15970   6.097   5.963   2.392
 5024SOL    HW115971   6.123   6.029   2.321
 5024SOL    HW215972   6.150   5.879   2.380
 5025SOL     OW15973   3.777   2.034   2.320
 5025SOL    HW115974   3.868   2.070   2.301
 5025SOL    HW215975   3.730   2.015   2.234
 5026SOL     OW15976   6.366   6.136   6.384
 5026SOL    HW115977   6.406   6.225   6.409
 5026SOL    HW215978   6.439   6.069   6.375
 5027SOL     OW15979   0.912   6.587   2.092
 5027SOL    HW115980   0.840   6.637   2.141
 5027SOL    HW215981   0.874   6.503   2.055
 5028SOL     OW15982   0.428   6.978   3.099
 5028SOL    HW115983   0.393   0.051   3.097
 5028SOL    HW215984   0.385   6.928   3.175
 5029SOL     OW15985   0.424   2.981   3.023
 5029SOL    HW115986   0.447   3.066   2.976
 5029SOL    HW215987   0.398   3.001   3.117
 5030SOL     OW15988   6.419   0.445   6.502
 5030SOL    HW115989   6.384   0.444   6.409
 5030SOL    HW215990   6.478   0.525   6.515
 5031SOL     OW15991   5.960   0.751   4.578
 5031SOL    HW115992   5.910   0.837   4.587
 5031SOL    HW215993   5.904   0.676   4.613
 5032SOL     OW15994   1.432   3.250   0.714
 5032SOL    HW115995   1.521   3.277   0.752
 5032SOL    HW215996   1.432   3.151   0.698
 5033SOL     OW15997   3.025   6.335   6.609
 5033SOL    HW115998   2.971   6.346   6.526
 5033SOL    HW215999   3.057   6.241   6.616
 5034SOL     OW16000   5.993   1.083   2.834
 5034SOL    HW116001   5.928   1.131   2.894
 5034SOL    HW216002   5.970   0.986   2.831
 5035SOL     OW16003   0.027   4.207   0.358
 5035SOL    HW116004   6.974   4.161   0.308
 5035SOL    HW216005   0.023   4.181   0.454
 5036SOL     OW16006   0.255   4.877   0.019
 5036SOL    HW116007   0.267   4.843   6.947
 5036SOL    HW216008   0.292   4.970   0.025
 5037SOL     OW16009   5.401   2.480   3.015
 5037SOL    HW116010   5.493   2.451   2.985
 5037SOL    HW216011   5.341   2.400   3.015
 5038SOL     OW16012   2.075   3.862   6.131
 5038SOL    HW116013   2.107   3.792   6.195
 5038SOL    HW216014   2.122   3.948   6.151
 5039SOL     OW16015   3.073   3.719   5.474
 5039SOL    HW116016   3.070   3.815   5.444
 5039SOL    HW216017   3.167   3.685   5.464
 5040SOL     OW16018   2.103   4.713   6.231
 5040SOL    HW116019   2.045   4.740   6.154
 5040SOL    HW216020   2.125   4.794   6.286
 5041SOL     OW16021   1.439   1.954   1.611
 5041SOL    HW116022   1.433   1.906   1.523
 5041SOL    HW216023   1.461   1.889   1.683
 5042SOL     OW16024   6.165   3.065   0.863
 5042SOL    HW116025   6.115   2.979   0.866
 5042SOL    HW216026   6.203   3.085   0.953
 5043SOL     OW16027   2.830   1.272   5.766
 5043SOL    HW116028   2.746   1.236   5.726
 5043SOL    HW216029   2.829   1.372   5.762
 5044SOL     OW16030   6.839   6.150   2.161
 5044SOL    HW116031   6.748   6.156   2.120
 5044SOL    HW216032   6.846   6.065   2.214
 5045SOL     OW16033   5.901   3.225   0.360
 5045SOL    HW116034   5.963   3.146   0.364
 5045SOL    HW216035   5.954   3.309   0.362
 5046SOL     OW16036   3.551   4.191   4.000
 5046SOL    HW116037   3.628   4.137   3.968
 5046SOL    HW216038   3.568   4.222   4.093
 5047SOL     OW16039   0.131   3.252   2.408
 5047SOL    HW116040   0.051   3.263   2.349
 5047SOL    HW216041   0.146   3.336   2.460
 5048SOL     OW16042   0.535   1.099   2.042
 5048SOL    HW116043   0.450   1.112   1.990
 5048SOL    HW216044   0.590   1.183   2.037
 5049SOL     OW16045   6.182   2.306   4.728
 5049SOL    HW116046   6.154   2.294   4.823
 5049SOL    HW216047   6.281   2.295   4.720
 5050SOL     OW16048   1.211   0.942   2.253
 5050SOL    HW116049   1.222   0.868   2.319
 5050SOL    HW216050   1.300   0.967   2.215
 5051SOL     OW16051   4.202   3.457   0.747
 5051SOL    HW116052   4.132   3.471   0.817
 5051SOL    HW216053   4.157   3.434   0.660
 5052SOL     OW16054   2.465   5.829   6.059
 5052SOL    HW116055   2.508   5.906   6.012
 5052SOL    HW216056   2.535   5.763   6.085
 5053SOL     OW16057   2.159   3.942   3.761
 5053SOL    HW116058   2.177   3.928   3.663
 5053SOL    HW216059   2.102   3.867   3.794
 5054SOL     OW16060   3.727   5.796   5.234
 5054SOL    HW116061   3.651   5.846   5.276
 5054SOL    HW216062   3.726   5.811   5.135
 5055SOL     OW16063   1.956   6.801   5.616
 5055SOL    HW116064   1.951   6.882   5.558
 5055SOL    HW216065   1.987   6.722   5.562
 5056SOL     OW16066   6.331   4.153   0.388
 5056SOL    HW116067   6.425   4.174   0.415
 5056SOL    HW216068   6.291   4.088   0.452
 5057SOL     OW16069   0.026   5.554   5.064
 5057SOL    HW116070   0.079   5.547   4.979
 5057SOL    HW216071   6.951   5.532   5.046
 5058SOL     OW16072   2.576   3.264   5.358
 5058SOL    HW116073   2.543   3.177   5.322
 5058SOL    HW216074   2.672   3.275   5.334
 5059SOL     OW16075   5.533   3.159   3.164
 5059SOL    HW116076   5.518   3.083   3.227
 5059SOL    HW216077   5.624   3.151   3.123
 5060SOL     OW16078   0.453   2.453   5.510
 5060SOL    HW116079   0.370   2.428   5.560
 5060SOL    HW216080   0.460   2.553   5.505
 5061SOL     OW16081   3.600   3.298   3.242
 5061SOL    HW116082   3.647   3.215   3.273
 5061SOL    HW216083   3.662   3.352   3.185
 5062SOL     OW16084   5.838   0.711   3.058
 5062SOL    HW116085   5.741   0.710   3.034
 5062SOL    HW216086   5.859   0.635   3.119
 5063SOL     OW16087   1.280   0.186   2.237
 5063SOL    HW116088   1.181   0.171   2.233
 5063SOL    HW216089   1.320   0.124   2.304
 5064SOL     OW16090   4.321   3.979   1.736
 5064SOL    HW116091   4.364   4.054   1.786
 5064SOL    HW216092   4.333   3.993   1.638
 5065SOL     OW16093   1.026   1.711   3.263
 5065SOL    HW116094   1.045   1.764   3.181
 5065SOL    HW216095   1.047   1.766   3.344
 5066SOL     OW16096   3.839   4.421   0.748
 5066SOL    HW116097   3.906   4.494   0.733
 5066SOL    HW216098   3.808   4.422   0.842
 5067SOL     OW16099   3.120   1.183   2.602
 5067SOL    HW116100   3.172   1.101   2.627
 5067SOL    HW216101   3.143   1.257   2.664
 5068SOL     OW16102   2.890   4.875   0.295
 5068SOL    HW116103   2.936   4.798   0.340
 5068SOL    HW216104   2.957   4.930   0.245
 5069SOL     OW16105   1.761   2.568   5.658
 5069SOL    HW116106   1.746   2.470   5.641
 5069SOL    HW216107   1.857   2.590   5.645
 5070SOL     OW16108   5.069   4.776   4.399
 5070SOL    HW116109   5.047   4.681   4.423
 5070SOL    HW216110   5.113   4.821   4.477
 5071SOL     OW16111   4.203   1.852   3.654
 5071SOL    HW116112   4.158   1.852   3.743
 5071SOL    HW216113   4.162   1.924   3.597
 5072SOL     OW16114   1.061   0.922   1.433
 5072SOL    HW116115   1.140   0.862   1.435
 5072SOL    HW216116   1.009   0.912   1.519
 5073SOL     OW16117   1.562   4.305   0.695
 5073SOL    HW116118   1.525   4.216   0.671
 5073SOL    HW216119   1.617   4.298   0.778
 5074SOL     OW16120   2.921   2.112   1.889
 5074SOL    HW116121   2.893   2.199   1.930
 5074SOL    HW216122   3.010   2.085   1.927
 5075SOL     OW16123   1.381   2.355   6.118
 5075SOL    HW116124   1.481   2.362   6.119
 5075SOL    HW216125   1.353   2.266   6.153
 5076SOL     OW16126   5.802   0.057   1.093
 5076SOL    HW116127   5.714   0.011   1.106
 5076SOL    HW216128   5.817   0.075   0.996
 5077SOL     OW16129   1.606   4.228   6.011
 5077SOL    HW116130   1.643   4.173   5.936
 5077SOL    HW216131   1.679   4.283   6.051
 5078SOL     OW16132   0.412   1.037   4.355
 5078SOL    HW116133   0.398   0.942   4.384
 5078SOL    HW216134   0.429   1.039   4.257
 5079SOL     OW16135   2.114   2.852   4.698
 5079SOL    HW116136   2.056   2.906   4.759
 5079SOL    HW216137   2.096   2.878   4.603
 5080SOL     OW16138   6.108   6.373   5.873
 5080SOL    HW116139   6.044   6.298   5.891
 5080SOL    HW216140   6.194   6.335   5.839
 5081SOL     OW16141   2.367   3.779   5.879
 5081SOL    HW116142   2.356   3.810   5.785
 5081SOL    HW216143   2.370   3.679   5.882
 5082SOL     OW16144   4.857   6.249   1.334
 5082SOL    HW116145   4.816   6.327   1.287
 5082SOL    HW216146   4.785   6.184   1.358
 5083SOL     OW16147   2.612   0.684   2.566
 5083SOL    HW116148   2.657   0.773   2.563
 5083SOL    HW216149   2.567   0.672   2.655
 5084SOL     OW16150   0.995   4.862   3.718
 5084SOL    HW116151   0.998   4.924   3.639
 5084SOL    HW216152   0.912   4.807   3.714
 5085SOL     OW16153   6.465   2.490   5.864
 5085SOL    HW116154   6.439   2.398   5.836
 5085SOL    HW216155   6.526   2.530   5.795
 5086SOL     OW16156   1.763   5.299   3.049
 5086SOL    HW116157   1.805   5.211   3.071
 5086SOL    HW216158   1.713   5.291   2.963
 5087SOL     OW16159   1.150   5.219   2.147
 5087SOL    HW116160   1.139   5.120   2.136
 5087SOL    HW216161   1.070   5.256   2.195
 5088SOL     OW16162   6.025   6.674   4.109
 5088SOL    HW116163   6.075   6.741   4.055
 5088SOL    HW216164   6.038   6.583   4.070
 5089SOL     OW16165   6.645   4.223   3.639
 5089SOL    HW116166   6.665   4.274   3.722
 5089SOL    HW216167   6.711   4.247   3.568
 5090SOL     OW16168   1.869   3.336   2.568
 5090SOL    HW116169   1.969   3.342   2.563
 5090SOL    HW216170   1.832   3.316   2.477
 5091SOL     OW16171   6.873   1.443   1.447
 5091SOL    HW116172   6.792   1.411   1.399
 5091SOL    HW216173   6.858   1.436   1.546
 5092SOL     OW16174   3.375   3.460   3.197
 5092SOL    HW116175   3.360   3.514   3.280
 5092SOL    HW216176   3.432   3.380   3.219
 5093SOL     OW16177   3.209   0.913   0.568
 5093SOL    HW116178   3.202   0.979   0.493
 5093SOL    HW216179   3.212   0.820   0.530
 5094SOL     OW16180   2.400   5.517   6.195
 5094SOL    HW116181   2.319   5.552   6.243
 5094SOL    HW216182   2.371   5.449   6.127
 5095SOL     OW16183   6.664   2.356   2.710
 5095SOL    HW116184   6.724   2.300   2.654
 5095SOL    HW216185   6.647   2.311   2.797
 5096SOL     OW16186   4.274   4.813   6.534
 5096SOL    HW116187   4.203   4.881   6.554
 5096SOL    HW216188   4.239   4.722   6.555
 5097SOL     OW16189   0.750   0.265   6.473
 5097SOL    HW116190   0.779   0.201   6.543
 5097SOL    HW216191   0.740   0.217   6.386
 5098SOL     OW16192   2.800   0.828   2.144
 5098SOL    HW116193   2.877   0.801   2.086
 5098SOL    HW216194   2.813   0.792   2.236
 5099SOL     OW16195   0.533   0.288   1.262
 5099SOL    HW116196   0.587   0.204   1.255
 5099SOL    HW216197   0.592   0.368   1.249
 5100SOL     OW16198   2.978   5.642   4.341
 5100SOL    HW116199   2.887   5.636   4.300
 5100SOL    HW216200   2.999   5.737   4.363
 5101SOL     OW16201   4.232   0.186   6.669
 5101SOL    HW116202   4.218   0.257   6.738
 5101SOL    HW216203   4.147   0.134   6.659
 5102SOL     OW16204   5.430   6.352   3.720
 5102SOL    HW116205   5.385   6.418   3.780
 5102SOL    HW216206   5.494   6.296   3.773
 5103SOL     OW16207   0.211   0.724   4.177
 5103SOL    HW116208   0.118   0.731   4.212
 5103SOL    HW216209   0.276   0.757   4.245
 5104SOL     OW16210   1.778   5.941   2.148
 5104SOL    HW116211   1.681   5.961   2.138
 5104SOL    HW216212   1.823   6.018   2.194
 5105SOL     OW16213   2.610   2.245   0.199
 5105SOL    HW116214   2.574   2.204   0.115
 5105SOL    HW216215   2.535   2.286   0.251
 5106SOL     OW16216   4.303   1.832   0.429
 5106SOL    HW116217   4.374   1.882   0.379
 5106SOL    HW216218   4.243   1.897   0.475
 5107SOL     OW16219   4.307   2.066   1.668
 5107SOL    HW116220   4.382   2.110   1.618
 5107SOL    HW216221   4.266   2.132   1.732
 5108SOL     OW16222   3.829   3.776   4.792
 5108SOL    HW116223   3.885   3.795   4.873
 5108SOL    HW216224   3.793   3.862   4.755
 5109SOL     OW16225   0.755   2.267   6.672
 5109SOL    HW116226   0.712   2.177   6.674
 5109SOL    HW216227   0.788   2.290   6.763
 5110SOL     OW16228   0.530   0.372   6.291
 5110SOL    HW116229   0.559   0.460   6.255
 5110SOL    HW216230   0.586   0.299   6.251
 5111SOL     OW16231   1.230   0.440   4.823
 5111SOL    HW116232   1.170   0.391   4.759
 5111SOL    HW216233   1.175   0.500   4.881
 5112SOL     OW16234   1.586   6.870   3.437
 5112SOL    HW116235   1.655   6.929   3.395
 5112SOL    HW216236   1.630   6.787   3.471
 5113SOL     OW16237   1.758   6.415   1.127
 5113SOL    HW116238   1.839   6.463   1.162
 5113SOL    HW216239   1.724   6.462   1.046
 5114SOL     OW16240   4.229   0.390   6.858
 5114SOL    HW116241   4.287   0.436   6.926
 5114SOL    HW216242   4.135   0.389   6.891
 5115SOL     OW16243   1.717   5.001   3.893
 5115SOL    HW116244   1.725   5.093   3.930
 5115SOL    HW216245   1.804   4.954   3.902
 5116SOL     OW16246   0.848   6.563   6.797
 5116SOL    HW116247   0.852   6.627   6.720
 5116SOL    HW216248   0.793   6.484   6.772
 5117SOL     OW16249   1.718   4.148   4.386
 5117SOL    HW116250   1.721   4.239   4.427
 5117SOL    HW216251   1.734   4.078   4.456
 5118SOL     OW16252   5.277   1.016   6.975
 5118SOL    HW116253   5.340   1.075   6.922
 5118SOL    HW216254   5.290   0.921   6.947
 5119SOL     OW16255   5.424   0.600   2.619
 5119SOL    HW116256   5.347   0.660   2.600
 5119SOL    HW216257   5.395   0.525   2.678
 5120SOL     OW16258   3.995   0.348   4.113
 5120SOL    HW116259   3.936   0.425   4.088
 5120SOL    HW216260   4.052   0.323   4.034
 5121SOL     OW16261   3.025   2.732   6.710
 5121SOL    HW116262   3.054   2.669   6.639
 5121SOL    HW216263   3.021   2.825   6.673
 5122SOL     OW16264   3.254   6.174   3.807
 5122SOL    HW116265   3.185   6.178   3.734
 5122SOL    HW216266   3.331   6.233   3.783
 5123SOL     OW16267   4.099   2.145   4.339
 5123SOL    HW116268   4.055   2.114   4.254
 5123SOL    HW216269   4.193   2.111   4.342
 5124SOL     OW16270   2.039   5.367   4.886
 5124SOL    HW116271   1.990   5.425   4.821
 5124SOL    HW216272   2.074   5.423   4.961
 5125SOL     OW16273   6.456   3.285   3.755
 5125SOL    HW116274   6.467   3.385   3.757
 5125SOL    HW216275   6.372   3.260   3.803
 5126SOL     OW16276   5.797   5.341   5.539
 5126SOL    HW116277   5.830   5.381   5.454
 5126SOL    HW216278   5.873   5.295   5.586
 5127SOL     OW16279   1.010   3.911   0.138
 5127SOL    HW116280   1.034   3.869   0.051
 5127SOL    HW216281   0.921   3.878   0.168
 5128SOL     OW16282   6.921   0.420   6.047
 5128SOL    HW116283   6.891   0.347   6.108
 5128SOL    HW216284   6.842   0.468   6.011
 5129SOL     OW16285   6.557   6.975   2.391
 5129SOL    HW116286   6.612   0.036   2.405
 5129SOL    HW216287   6.484   6.995   2.326
 5130SOL     OW16288   0.011   5.508   4.141
 5130SOL    HW116289   0.003   5.607   4.142
 5130SOL    HW216290   0.103   5.481   4.112
 5131SOL     OW16291   2.342   4.829   4.270
 5131SOL    HW116292   2.346   4.733   4.300
 5131SOL    HW216293   2.282   4.836   4.190
 5132SOL     OW16294   3.462   2.583   6.889
 5132SOL    HW116295   3.525   2.520   6.935
 5132SOL    HW216296   3.455   2.668   6.941
 5133SOL     OW16297   2.288   5.654   0.151
 5133SOL    HW116298   2.254   5.706   0.229
 5133SOL    HW216299   2.268   5.557   0.165
 5134SOL     OW16300   0.514   3.123   2.810
 5134SOL    HW116301   0.420   3.093   2.795
 5134SOL    HW216302   0.564   3.124   2.724
 5135SOL     OW16303   5.567   3.147   4.862
 5135SOL    HW116304   5.632   3.085   4.906
 5135SOL    HW216305   5.482   3.098   4.842
 5136SOL     OW16306   4.588   0.865   5.957
 5136SOL    HW116307   4.551   0.819   6.038
 5136SOL    HW216308   4.635   0.798   5.900
 5137SOL     OW16309   4.983   2.904   5.317
 5137SOL    HW116310   5.074   2.942   5.325
 5137SOL    HW216311   4.924   2.943   5.388
 5138SOL     OW16312   3.249   2.996   5.449
 5138SOL    HW116313   3.248   3.093   5.422
 5138SOL    HW216314   3.166   2.952   5.417
 5139SOL     OW16315   1.150   0.760   3.245
 5139SOL    HW116316   1.230   0.702   3.263
 5139SOL    HW216317   1.069   0.718   3.286
 5140SOL     OW16318   4.123   2.763   6.961
 5140SOL    HW116319   4.214   2.784   6.997
 5140SOL    HW216320   4.068   2.846   6.961
 5141SOL     OW16321   6.860   3.594   0.656
 5141SOL    HW116322   6.917   3.641   0.588
 5141SOL    HW216323   6.862   3.496   0.639
 5142SOL     OW16324   6.230   0.045   3.574
 5142SOL    HW116325   6.176   7.007   3.514
 5142SOL    HW216326   6.260   0.125   3.524
 5143SOL     OW16327   6.396   4.569   3.552
 5143SOL    HW116328   6.420   4.566   3.649
 5143SOL    HW216329   6.479   4.577   3.497
 5144SOL     OW16330   0.443   4.567   6.106
 5144SOL    HW116331   0.413   4.475   6.082
 5144SOL    HW216332   0.536   4.582   6.073
 5145SOL     OW16333   2.857   5.046   5.677
 5145SOL    HW116334   2.894   5.068   5.767
 5145SOL    HW216335   2.898   5.106   5.609
 5146SOL     OW16336   3.657   4.014   5.622
 5146SOL    HW116337   3.671   3.952   5.545
 5146SOL    HW216338   3.559   4.025   5.639
 5147SOL     OW16339   6.980   5.371   2.722
 5147SOL    HW116340   0.036   5.427   2.694
 5147SOL    HW216341   6.927   5.343   2.642
 5148SOL     OW16342   6.825   6.131   1.450
 5148SOL    HW116343   6.771   6.135   1.366
 5148SOL    HW216344   6.906   6.190   1.439
 5149SOL     OW16345   6.107   5.595   2.681
 5149SOL    HW116346   6.103   5.667   2.750
 5149SOL    HW216347   6.062   5.513   2.715
 5150SOL     OW16348   2.501   5.549   2.978
 5150SOL    HW116349   2.547   5.523   3.063
 5150SOL    HW216350   2.407   5.575   2.999
 5151SOL     OW16351   6.291   2.338   0.900
 5151SOL    HW116352   6.391   2.337   0.891
 5151SOL    HW216353   6.262   2.259   0.954
 5152SOL     OW16354   2.240   4.345   0.160
 5152SOL    HW116355   2.290   4.431   0.147
 5152SOL    HW216356   2.291   4.269   0.120
 5153SOL     OW16357   1.736   0.795   0.170
 5153SOL    HW116358   1.688   0.760   0.251
 5153SOL    HW216359   1.832   0.768   0.174
 5154SOL     OW16360   0.944   2.828   6.203
 5154SOL    HW116361   0.845   2.829   6.217
 5154SOL    HW216362   0.988   2.787   6.283
 5155SOL     OW16363   4.722   0.006   2.089
 5155SOL    HW116364   4.627   0.033   2.074
 5155SOL    HW216365   4.729   6.976   2.175
 5156SOL     OW16366   5.630   3.685   5.975
 5156SOL    HW116367   5.587   3.722   6.057
 5156SOL    HW216368   5.725   3.661   5.994
 5157SOL     OW16369   3.787   2.148   3.295
 5157SOL    HW116370   3.854   2.218   3.320
 5157SOL    HW216371   3.798   2.069   3.355
 5158SOL     OW16372   3.399   1.188   1.808
 5158SOL    HW116373   3.365   1.170   1.900
 5158SOL    HW216374   3.410   1.286   1.795
 5159SOL     OW16375   6.838   3.684   4.474
 5159SOL    HW116376   6.808   3.708   4.382
 5159SOL    HW216377   6.894   3.759   4.511
 5160SOL     OW16378   0.060   5.308   2.968
 5160SOL    HW116379   0.017   5.320   2.879
 5160SOL    HW216380   0.031   5.382   3.029
 5161SOL     OW16381   1.498   3.909   5.448
 5161SOL    HW116382   1.519   3.992   5.500
 5161SOL    HW216383   1.418   3.925   5.391
 5162SOL     OW16384   1.365   5.080   3.095
 5162SOL    HW116385   1.371   5.179   3.102
 5162SOL    HW216386   1.456   5.040   3.110
 5163SOL     OW16387   3.599   6.594   0.178
 5163SOL    HW116388   3.579   6.505   0.220
 5163SOL    HW216389   3.533   6.661   0.210
 5164SOL     OW16390   4.053   2.523   0.115
 5164SOL    HW116391   4.107   2.566   0.043
 5164SOL    HW216392   4.008   2.593   0.170
 5165SOL     OW16393   6.116   4.530   5.938
 5165SOL    HW116394   6.037   4.489   5.985
 5165SOL    HW216395   6.200   4.501   5.984
 5166SOL     OW16396   0.739   5.297   2.533
 5166SOL    HW116397   0.818   5.237   2.521
 5166SOL    HW216398   0.710   5.297   2.629
 5167SOL     OW16399   6.580   6.432   6.765
 5167SOL    HW116400   6.520   6.391   6.834
 5167SOL    HW216401   6.618   6.361   6.706
 5168SOL     OW16402   5.641   4.000   2.203
 5168SOL    HW116403   5.663   4.046   2.117
 5168SOL    HW216404   5.585   3.919   2.183
 5169SOL     OW16405   3.910   1.747   4.269
 5169SOL    HW116406   3.985   1.747   4.335
 5169SOL    HW216407   3.938   1.795   4.186
 5170SOL     OW16408   0.630   4.290   5.548
 5170SOL    HW116409   0.576   4.207   5.534
 5170SOL    HW216410   0.612   4.326   5.640
 5171SOL     OW16411   1.269   5.827   4.209
 5171SOL    HW116412   1.207   5.811   4.133
 5171SOL    HW216413   1.245   5.913   4.255
 5172SOL     OW16414   1.221   2.075   2.398
 5172SOL    HW116415   1.224   2.171   2.369
 5172SOL    HW216416   1.163   2.023   2.335
 5173SOL     OW16417   4.954   4.796   6.068
 5173SOL    HW116418   4.877   4.786   6.005
 5173SOL    HW216419   5.038   4.763   6.024
 5174SOL     OW16420   2.384   5.034   3.713
 5174SOL    HW116421   2.366   5.076   3.802
 5174SOL    HW216422   2.382   5.105   3.642
 5175SOL     OW16423   2.404   3.243   0.300
 5175SOL    HW116424   2.446   3.322   0.255
 5175SOL    HW216425   2.319   3.272   0.343
 5176SOL     OW16426   4.550   3.176   6.592
 5176SOL    HW116427   4.605   3.253   6.624
 5176SOL    HW216428   4.609   3.099   6.571
 5177SOL     OW16429   4.987   0.825   0.139
 5177SOL    HW116430   5.062   0.848   0.200
 5177SOL    HW216431   4.955   0.908   0.093
 5178SOL     OW16432   1.249   4.251   2.275
 5178SOL    HW116433   1.151   4.259   2.257
 5178SOL    HW216434   1.272   4.154   2.287
 5179SOL     OW16435   3.852   5.954   3.820
 5179SOL    HW116436   3.824   6.046   3.847
 5179SOL    HW216437   3.841   5.891   3.898
 5180SOL     OW16438   2.793   2.750   1.210
 5180SOL    HW116439   2.819   2.815   1.138
 5180SOL    HW216440   2.693   2.746   1.216
 5181SOL     OW16441   6.132   1.635   2.184
 5181SOL    HW116442   6.049   1.628   2.128
 5181SOL    HW216443   6.184   1.550   2.177
 5182SOL     OW16444   4.030   4.463   1.343
 5182SOL    HW116445   4.111   4.522   1.353
 5182SOL    HW216446   3.950   4.519   1.321
 5183SOL     OW16447   4.645   1.701   3.061
 5183SOL    HW116448   4.734   1.669   3.092
 5183SOL    HW216449   4.582   1.704   3.138
 5184SOL     OW16450   0.307   2.097   4.494
 5184SOL    HW116451   0.290   2.045   4.410
 5184SOL    HW216452   0.404   2.120   4.499
 5185SOL     OW16453   5.365   1.022   2.445
 5185SOL    HW116454   5.458   1.014   2.408
 5185SOL    HW216455   5.299   0.986   2.379
 5186SOL     OW16456   6.571   3.129   1.150
 5186SOL    HW116457   6.619   3.084   1.074
 5186SOL    HW216458   6.571   3.068   1.230
 5187SOL     OW16459   0.752   6.951   3.905
 5187SOL    HW116460   0.734   6.937   3.808
 5187SOL    HW216461   0.764   6.862   3.950
 5188SOL     OW16462   0.805   5.668   0.918
 5188SOL    HW116463   0.711   5.700   0.912
 5188SOL    HW216464   0.807   5.578   0.962
 5189SOL     OW16465   4.420   4.510   0.555
 5189SOL    HW116466   4.331   4.472   0.529
 5189SOL    HW216467   4.464   4.449   0.621
 5190SOL     OW16468   0.146   2.547   4.038
 5190SOL    HW116469   0.170   2.606   4.115
 5190SOL    HW216470   0.067   2.586   3.990
 5191SOL     OW16471   4.265   0.485   1.828
 5191SOL    HW116472   4.216   0.561   1.786
 5191SOL    HW216473   4.363   0.493   1.807
 5192SOL     OW16474   2.983   5.673   3.093
 5192SOL    HW116475   3.027   5.613   3.027
 5192SOL    HW216476   2.912   5.622   3.141
 5193SOL     OW16477   5.117   4.294   4.693
 5193SOL    HW116478   5.037   4.347   4.722
 5193SOL    HW216479   5.097   4.196   4.700
 5194SOL     OW16480   4.861   2.089   0.497
 5194SOL    HW116481   4.813   2.070   0.412
 5194SOL    HW216482   4.808   2.053   0.574
 5195SOL     OW16483   5.882   6.273   4.670
 5195SOL    HW116484   5.922   6.320   4.749
 5195SOL    HW216485   5.783   6.274   4.677
 5196SOL     OW16486   3.421   4.857   0.822
 5196SOL    HW116487   3.363   4.871   0.742
 5196SOL    HW216488   3.410   4.933   0.886
 5197SOL     OW16489   2.090   5.601   5.068
 5197SOL    HW116490   2.092   5.669   5.142
 5197SOL    HW216491   2.171   5.614   5.010
 5198SOL     OW16492   3.829   6.496   2.989
 5198SOL    HW116493   3.842   6.413   3.043
 5198SOL    HW216494   3.793   6.568   3.048
 5199SOL     OW16495   1.466   5.822   0.508
 5199SOL    HW116496   1.492   5.725   0.504
 5199SOL    HW216497   1.466   5.852   0.603
 5200SOL     OW16498   1.277   2.235   5.054
 5200SOL    HW116499   1.308   2.229   5.149
 5200SOL    HW216500   1.251   2.329   5.033
 5201SOL     OW16501   6.913   6.401   4.021
 5201SOL    HW116502   6.904   6.416   4.119
 5201SOL    HW216503   6.822   6.393   3.979
 5202SOL     OW16504   5.908   4.056   5.605
 5202SOL    HW116505   5.908   3.957   5.622
 5202SOL    HW216506   5.864   4.075   5.518
 5203SOL     OW16507   2.409   1.468   6.415
 5203SOL    HW116508   2.424   1.567   6.418
 5203SOL    HW216509   2.488   1.424   6.371
 5204SOL     OW16510   4.391   6.333   6.777
 5204SOL    HW116511   4.398   6.405   6.707
 5204SOL    HW216512   4.445   6.359   6.857
 5205SOL     OW16513   0.558   5.756   0.874
 5205SOL    HW116514   0.590   5.837   0.924
 5205SOL    HW216515   0.458   5.756   0.872
 5206SOL     OW16516   0.526   5.184   0.445
 5206SOL    HW116517   0.546   5.124   0.367
 5206SOL    HW216518   0.507   5.276   0.413
 5207SOL     OW16519   1.464   6.851   3.819
 5207SOL    HW116520   1.475   6.945   3.850
 5207SOL    HW216521   1.373   6.817   3.845
 5208SOL     OW16522   5.101   2.445   0.002
 5208SOL    HW116523   5.196   2.466   0.027
 5208SOL    HW216524   5.056   2.402   0.080
 5209SOL     OW16525   5.704   0.384   2.290
 5209SOL    HW116526   5.714   0.329   2.373
 5209SOL    HW216527   5.718   0.325   2.209
 5210SOL     OW16528   4.703   3.168   0.291
 5210SOL    HW116529   4.711   3.207   0.383
 5210SOL    HW216530   4.776   3.102   0.276
 5211SOL     OW16531   4.183   2.433   6.047
 5211SOL    HW116532   4.163   2.422   6.144
 5211SOL    HW216533   4.161   2.349   5.998
 5212SOL     OW16534   0.715   2.872   0.614
 5212SOL    HW116535   0.707   2.963   0.573
 5212SOL    HW216536   0.781   2.876   0.690
 5213SOL     OW16537   4.164   3.940   0.241
 5213SOL    HW116538   4.131   3.877   0.171
 5213SOL    HW216539   4.254   3.975   0.215
 5214SOL     OW16540   4.988   2.207   6.510
 5214SOL    HW116541   5.051   2.179   6.438
 5214SOL    HW216542   5.038   2.256   6.581
 5215SOL     OW16543   1.010   4.979   4.030
 5215SOL    HW116544   0.984   4.959   3.935
 5215SOL    HW216545   1.083   4.918   4.059
 5216SOL     OW16546   4.248   4.935   1.551
 5216SOL    HW116547   4.150   4.953   1.560
 5216SOL    HW216548   4.292   4.944   1.641
 5217SOL     OW16549   3.466   5.253   4.294
 5217SOL    HW116550   3.427   5.274   4.204
 5217SOL    HW216551   3.432   5.164   4.325
 5218SOL     OW16552   0.867   0.955   1.627
 5218SOL    HW116553   0.850   0.863   1.662
 5218SOL    HW216554   0.787   0.988   1.577
 5219SOL     OW16555   3.867   1.254   5.003
 5219SOL    HW116556   3.810   1.243   5.085
 5219SOL    HW216557   3.873   1.167   4.955
 5220SOL     OW16558   1.474   6.151   2.347
 5220SOL    HW116559   1.556   6.146   2.405
 5220SOL    HW216560   1.411   6.218   2.386
 5221SOL     OW16561   6.187   1.626   3.223
 5221SOL    HW116562   6.117   1.569   3.180
 5221SOL    HW216563   6.277   1.584   3.210
 5222SOL     OW16564   3.930   6.570   2.558
 5222SOL    HW116565   4.011   6.580   2.616
 5222SOL    HW216566   3.849   6.602   2.608
 5223SOL     OW16567   6.328   2.798   0.586
 5223SOL    HW116568   6.311   2.707   0.624
 5223SOL    HW216569   6.244   2.852   0.591
 5224SOL     OW16570   6.412   3.014   4.556
 5224SOL    HW116571   6.342   3.008   4.628
 5224SOL    HW216572   6.390   2.949   4.484
 5225SOL     OW16573   0.120   0.696   3.922
 5225SOL    HW116574   0.180   0.661   3.993
 5225SOL    HW216575   0.107   0.795   3.935
 5226SOL     OW16576   0.037   7.011   4.943
 5226SOL    HW116577   6.971   0.019   4.904
 5226SOL    HW216578   0.083   6.949   4.880
 5227SOL     OW16579   0.403   3.271   5.629
 5227SOL    HW116580   0.376   3.205   5.699
 5227SOL    HW216581   0.397   3.363   5.666
 5228SOL     OW16582   6.888   2.524   0.515
 5228SOL    HW116583   6.939   2.601   0.552
 5228SOL    HW216584   6.852   2.548   0.425
 5229SOL     OW16585   2.639   6.250   0.228
 5229SOL    HW116586   2.570   6.310   0.269
 5229SOL    HW216587   2.633   6.159   0.269
 5230SOL     OW16588   0.381   5.852   1.850
 5230SOL    HW116589   0.393   5.951   1.858
 5230SOL    HW216590   0.436   5.805   1.919
 5231SOL     OW16591   4.723   2.290   4.574
 5231SOL    HW116592   4.644   2.261   4.521
 5231SOL    HW216593   4.694   2.314   4.667
 5232SOL     OW16594   1.610   3.531   6.113
 5232SOL    HW116595   1.616   3.631   6.110
 5232SOL    HW216596   1.664   3.492   6.038
 5233SOL     OW16597   4.035   1.338   2.279
 5233SOL    HW116598   3.987   1.426   2.286
 5233SOL    HW216599   4.015   1.283   2.359
 5234SOL     OW16600   2.687   1.862   6.056
 5234SOL    HW116601   2.743   1.783   6.082
 5234SOL    HW216602   2.602   1.831   6.013
 5235SOL     OW16603   1.538   2.608   0.863
 5235SOL    HW116604   1.451   2.648   0.892
 5235SOL    HW216605   1.613   2.666   0.894
 5236SOL     OW16606   4.666   5.169   1.786
 5236SOL    HW116607   4.726   5.124   1.853
 5236SOL    HW216608   4.600   5.103   1.750
 5237SOL     OW16609   1.325   0.735   4.969
 5237SOL    HW116610   1.302   0.741   5.067
 5237SOL    HW216611   1.415   0.777   4.953
 5238SOL     OW16612   0.894   4.563   0.355
 5238SOL    HW116613   0.981   4.586   0.399
 5238SOL    HW216614   0.825   4.543   0.424
 5239SOL     OW16615   3.402   2.856   5.013
 5239SOL    HW116616   3.430   2.821   5.102
 5239SOL    HW216617   3.329   2.798   4.976
 5240SOL     OW16618   3.053   2.191   5.356
 5240SOL    HW116619   3.096   2.259   5.296
 5240SOL    HW216620   2.954   2.201   5.352
 5241SOL     OW16621   0.408   5.262   4.479
 5241SOL    HW116622   0.442   5.347   4.440
 5241SOL    HW216623   0.406   5.191   4.409
 5242SOL     OW16624   6.352   6.493   0.331
 5242SOL    HW116625   6.278   6.482   0.398
 5242SOL    HW216626   6.326   6.449   0.245
 5243SOL     OW16627   1.729   5.628   1.544
 5243SOL    HW116628   1.756   5.572   1.622
 5243SOL    HW216629   1.652   5.686   1.570
 5244SOL     OW16630   2.961   5.219   6.964
 5244SOL    HW116631   2.956   5.155   6.888
 5244SOL    HW216632   2.872   5.261   6.978
 5245SOL     OW16633   4.369   4.451   0.127
 5245SOL    HW116634   4.280   4.408   0.144
 5245SOL    HW216635   4.410   4.411   0.045
 5246SOL     OW16636   6.203   3.424   1.725
 5246SOL    HW116637   6.172   3.365   1.650
 5246SOL    HW216638   6.293   3.463   1.701
 5247SOL     OW16639   2.002   0.659   6.415
 5247SOL    HW116640   2.059   0.692   6.339
 5247SOL    HW216641   1.912   0.702   6.410
 5248SOL     OW16642   5.550   1.885   3.085
 5248SOL    HW116643   5.513   1.841   3.167
 5248SOL    HW216644   5.645   1.913   3.102
 5249SOL     OW16645   0.659   5.222   6.060
 5249SOL    HW116646   0.633   5.145   6.001
 5249SOL    HW216647   0.684   5.301   6.003
 5250SOL     OW16648   2.341   5.835   6.641
 5250SOL    HW116649   2.259   5.781   6.621
 5250SOL    HW216650   2.388   5.858   6.556
 5251SOL     OW16651   0.451   3.426   6.994
 5251SOL    HW116652   0.361   3.412   6.953
 5251SOL    HW216653   0.510   3.348   6.973
 5252SOL     OW16654   1.860   6.616   0.460
 5252SOL    HW116655   1.767   6.628   0.494
 5252SOL    HW216656   1.903   6.538   0.506
 5253SOL     OW16657   6.045   4.502   4.711
 5253SOL    HW116658   5.961   4.511   4.658
 5253SOL    HW216659   6.037   4.553   4.797
 5254SOL     OW16660   4.566   0.653   2.963
 5254SOL    HW116661   4.558   0.589   2.886
 5254SOL    HW216662   4.560   0.747   2.929
 5255SOL     OW16663   5.660   1.796   5.181
 5255SOL    HW116664   5.604   1.748   5.113
 5255SOL    HW216665   5.689   1.731   5.251
 5256SOL     OW16666   4.468   1.786   3.680
 5256SOL    HW116667   4.531   1.856   3.647
 5256SOL    HW216668   4.374   1.816   3.666
 5257SOL     OW16669   5.310   6.992   2.050
 5257SOL    HW116670   5.278   0.048   2.105
 5257SOL    HW216671   5.297   7.014   1.953
 5258SOL     OW16672   5.936   3.089   1.700
 5258SOL    HW116673   5.962   3.125   1.790
 5258SOL    HW216674   5.893   3.161   1.646
 5259SOL     OW16675   5.112   6.071   2.120
 5259SOL    HW116676   5.194   6.127   2.119
 5259SOL    HW216677   5.133   5.980   2.086
 5260SOL     OW16678   4.584   3.341   0.576
 5260SOL    HW116679   4.486   3.336   0.596
 5260SOL    HW216680   4.626   3.252   0.594
 5261SOL     OW16681   0.732   3.643   6.636
 5261SOL    HW116682   0.664   3.647   6.710
 5261SOL    HW216683   0.813   3.594   6.669
 5262SOL     OW16684   2.732   1.116   3.550
 5262SOL    HW116685   2.739   1.017   3.542
 5262SOL    HW216686   2.707   1.140   3.644
 5263SOL     OW16687   2.335   1.458   3.972
 5263SOL    HW116688   2.388   1.418   3.897
 5263SOL    HW216689   2.239   1.429   3.963
 5264SOL     OW16690   6.869   2.549   2.196
 5264SOL    HW116691   6.788   2.531   2.251
 5264SOL    HW216692   6.841   2.581   2.105
 5265SOL     OW16693   6.378   3.909   4.010
 5265SOL    HW116694   6.333   3.998   4.017
 5265SOL    HW216695   6.396   3.887   3.914
 5266SOL     OW16696   3.140   5.593   0.650
 5266SOL    HW116697   3.058   5.583   0.706
 5266SOL    HW216698   3.198   5.512   0.660
 5267SOL     OW16699   5.455   3.286   5.401
 5267SOL    HW116700   5.540   3.257   5.444
 5267SOL    HW216701   5.435   3.228   5.322
 5268SOL     OW16702   5.715   1.102   6.866
 5268SOL    HW116703   5.813   1.094   6.844
 5268SOL    HW216704   5.705   1.142   6.957
 5269SOL     OW16705   1.519   6.219   3.033
 5269SOL    HW116706   1.493   6.127   3.004
 5269SOL    HW216707   1.547   6.218   3.129
 5270SOL     OW16708   6.103   0.997   0.954
 5270SOL    HW116709   6.017   1.015   1.002
 5270SOL    HW216710   6.084   0.946   0.870
 5271SOL     OW16711   6.436   5.575   5.369
 5271SOL    HW116712   6.509   5.611   5.312
 5271SOL    HW216713   6.353   5.631   5.357
 5272SOL     OW16714   2.953   5.677   1.972
 5272SOL    HW116715   3.038   5.624   1.975
 5272SOL    HW216716   2.880   5.625   2.016
 5273SOL     OW16717   6.763   2.979   3.822
 5273SOL    HW116718   6.709   2.982   3.907
 5273SOL    HW216719   6.719   3.035   3.752
 5274SOL     OW16720   6.623   6.549   2.860
 5274SOL    HW116721   6.634   6.588   2.952
 5274SOL    HW216722   6.596   6.620   2.796
 5275SOL     OW16723   3.665   2.084   1.467
 5275SOL    HW116724   3.704   1.992   1.460
 5275SOL    HW216725   3.625   2.096   1.558
 5276SOL     OW16726   2.036   0.293   1.200
 5276SOL    HW116727   1.960   0.355   1.177
 5276SOL    HW216728   2.017   0.202   1.163
 5277SOL     OW16729   1.693   1.369   2.289
 5277SOL    HW116730   1.789   1.396   2.281
 5277SOL    HW216731   1.635   1.443   2.256
 5278SOL     OW16732   6.131   6.895   3.966
 5278SOL    HW116733   6.180   6.897   3.879
 5278SOL    HW216734   6.168   6.965   4.027
 5279SOL     OW16735   2.153   4.936   6.375
 5279SOL    HW116736   2.206   4.890   6.446
 5279SOL    HW216737   2.190   5.028   6.360
 5280SOL     OW16738   2.362   6.264   4.830
 5280SOL    HW116739   2.291   6.309   4.884
 5280SOL    HW216740   2.450   6.309   4.847
 5281SOL     OW16741   6.903   2.569   2.746
 5281SOL    HW116742   7.002   2.559   2.732
 5281SOL    HW216743   6.862   2.614   2.667
 5282SOL     OW16744   2.997   1.996   3.795
 5282SOL    HW116745   2.934   1.970   3.722
 5282SOL    HW216746   2.945   2.011   3.879
 5283SOL     OW16747   4.298   6.969   1.241
 5283SOL    HW116748   4.277   6.971   1.339
 5283SOL    HW216749   4.385   7.017   1.225
 5284SOL     OW16750   4.930   3.856   3.344
 5284SOL    HW116751   4.943   3.757   3.339
 5284SOL    HW216752   4.980   3.901   3.270
 5285SOL     OW16753   2.546   4.858   4.045
 5285SOL    HW116754   2.629   4.826   4.090
 5285SOL    HW216755   2.495   4.916   4.108
 5286SOL     OW16756   1.730   4.570   0.186
 5286SOL    HW116757   1.694   4.650   0.234
 5286SOL    HW216758   1.722   4.489   0.245
 5287SOL     OW16759   2.708   6.596   0.733
 5287SOL    HW116760   2.612   6.570   0.723
 5287SOL    HW216761   2.727   6.620   0.828
 5288SOL     OW16762   3.391   0.304   1.941
 5288SOL    HW116763   3.409   0.259   1.854
 5288SOL    HW216764   3.305   0.269   1.979
 5289SOL     OW16765   1.744   4.876   6.140
 5289SOL    HW116766   1.775   4.879   6.236
 5289SOL    HW216767   1.780   4.793   6.097
 5290SOL     OW16768   1.591   5.448   5.220
 5290SOL    HW116769   1.520   5.389   5.258
 5290SOL    HW216770   1.681   5.417   5.250
 5291SOL     OW16771   2.401   5.113   6.431
 5291SOL    HW116772   2.413   5.085   6.526
 5291SOL    HW216773   2.404   5.213   6.424
 5292SOL     OW16774   6.059   3.085   6.643
 5292SOL    HW116775   6.088   3.035   6.724
 5292SOL    HW216776   5.966   3.058   6.619
 5293SOL     OW16777   0.379   0.413   4.935
 5293SOL    HW116778   0.307   0.481   4.923
 5293SOL    HW216779   0.465   0.449   4.899
 5294SOL     OW16780   4.536   3.351   5.589
 5294SOL    HW116781   4.625   3.391   5.611
 5294SOL    HW216782   4.495   3.312   5.672
 5295SOL     OW16783   5.914   0.819   2.817
 5295SOL    HW116784   5.961   0.749   2.764
 5295SOL    HW216785   5.888   0.781   2.906
 5296SOL     OW16786   2.230   5.390   0.209
 5296SOL    HW116787   2.133   5.377   0.186
 5296SOL    HW216788   2.282   5.311   0.176
 5297SOL     OW16789   1.962   2.274   1.885
 5297SOL    HW116790   1.892   2.339   1.855
 5297SOL    HW216791   2.052   2.317   1.875
 5298SOL     OW16792   1.080   5.697   0.955
 5298SOL    HW116793   1.116   5.604   0.959
 5298SOL    HW216794   0.985   5.694   0.922
 5299SOL     OW16795   2.839   2.477   0.460
 5299SOL    HW116796   2.891   2.560   0.440
 5299SOL    HW216797   2.838   2.461   0.558
 5300SOL     OW16798   0.369   5.751   2.600
 5300SOL    HW116799   0.456   5.788   2.566
 5300SOL    HW216800   0.373   5.651   2.600
 5301SOL     OW16801   4.583   1.835   0.675
 5301SOL    HW116802   4.557   1.921   0.632
 5301SOL    HW216803   4.560   1.759   0.613
 5302SOL     OW16804   5.559   4.704   3.113
 5302SOL    HW116805   5.624   4.774   3.144
 5302SOL    HW216806   5.541   4.640   3.187
 5303SOL     OW16807   6.590   6.024   3.663
 5303SOL    HW116808   6.674   6.073   3.685
 5303SOL    HW216809   6.588   6.002   3.565
 5304SOL     OW16810   6.736   1.642   5.785
 5304SOL    HW116811   6.729   1.554   5.831
 5304SOL    HW216812   6.664   1.703   5.819
 5305SOL     OW16813   1.942   6.860   4.633
 5305SOL    HW116814   1.924   6.761   4.630
 5305SOL    HW216815   2.040   6.875   4.642
 5306SOL     OW16816   0.715   5.713   5.251
 5306SOL    HW116817   0.630   5.699   5.303
 5306SOL    HW216818   0.792   5.678   5.304
 5307SOL     OW16819   4.310   6.967   6.743
 5307SOL    HW116820   4.312   6.942   6.840
 5307SOL    HW216821   4.284   0.043   6.735
 5308SOL     OW16822   0.775   6.827   4.773
 5308SOL    HW116823   0.798   6.826   4.676
 5308SOL    HW216824   0.693   6.772   4.789
 5309SOL     OW16825   3.327   3.850   2.279
 5309SOL    HW116826   3.397   3.780   2.295
 5309SOL    HW216827   3.350   3.932   2.330
 5310SOL     OW16828   5.582   2.799   1.871
 5310SOL    HW116829   5.655   2.837   1.814
 5310SOL    HW216830   5.494   2.828   1.835
 5311SOL     OW16831   0.304   5.794   1.082
 5311SOL    HW116832   0.377   5.733   1.112
 5311SOL    HW216833   0.283   5.860   1.154
 5312SOL     OW16834   0.131   4.017   2.543
 5312SOL    HW116835   0.049   4.056   2.584
 5312SOL    HW216836   0.155   4.068   2.460
 5313SOL     OW16837   1.024   5.929   6.973
 5313SOL    HW116838   1.112   5.897   6.938
 5313SOL    HW216839   1.036   6.013   0.004
 5314SOL     OW16840   3.611   4.841   0.334
 5314SOL    HW116841   3.616   4.794   0.422
 5314SOL    HW216842   3.602   4.939   0.349
 5315SOL     OW16843   4.124   4.088   1.032
 5315SOL    HW116844   4.117   4.153   0.957
 5315SOL    HW216845   4.160   4.001   0.999
 5316SOL     OW16846   6.680   4.966   4.974
 5316SOL    HW116847   6.613   4.897   4.947
 5316SOL    HW216848   6.669   4.987   5.071
 5317SOL     OW16849   6.673   1.262   4.772
 5317SOL    HW116850   6.770   1.242   4.759
 5317SOL    HW216851   6.627   1.181   4.805
 5318SOL     OW16852   0.430   1.903   5.698
 5318SOL    HW116853   0.481   1.817   5.695
 5318SOL    HW216854   0.438   1.943   5.789
 5319SOL     OW16855   5.140   6.627   0.272
 5319SOL    HW116856   5.103   6.568   0.200
 5319SOL    HW216857   5.066   6.677   0.315
 5320SOL     OW16858   5.638   5.088   6.467
 5320SOL    HW116859   5.599   5.014   6.413
 5320SOL    HW216860   5.651   5.057   6.562
 5321SOL     OW16861   0.735   4.807   2.696
 5321SOL    HW116862   0.820   4.845   2.730
 5321SOL    HW216863   0.663   4.876   2.700
 5322SOL     OW16864   3.691   6.626   6.053
 5322SOL    HW116865   3.637   6.684   6.113
 5322SOL    HW216866   3.719   6.678   5.972
 5323SOL     OW16867   3.629   2.924   1.056
 5323SOL    HW116868   3.600   2.828   1.060
 5323SOL    HW216869   3.549   2.983   1.064
 5324SOL     OW16870   3.706   2.526   1.743
 5324SOL    HW116871   3.799   2.556   1.725
 5324SOL    HW216872   3.708   2.448   1.806
 5325SOL     OW16873   6.148   6.564   3.281
 5325SOL    HW116874   6.113   6.548   3.188
 5325SOL    HW216875   6.084   6.622   3.331
 5326SOL     OW16876   6.502   5.211   2.339
 5326SOL    HW116877   6.498   5.282   2.410
 5326SOL    HW216878   6.429   5.144   2.354
 5327SOL     OW16879   0.587   5.586   5.753
 5327SOL    HW116880   0.489   5.569   5.766
 5327SOL    HW216881   0.601   5.684   5.739
 5328SOL     OW16882   4.110   2.651   5.908
 5328SOL    HW116883   4.155   2.578   5.960
 5328SOL    HW216884   4.052   2.611   5.838
 5329SOL     OW16885   0.068   3.494   6.576
 5329SOL    HW116886   0.108   3.403   6.593
 5329SOL    HW216887   0.109   3.560   6.639
 5330SOL     OW16888   3.279   4.833   6.904
 5330SOL    HW116889   3.198   4.875   6.864
 5330SOL    HW216890   3.310   4.887   6.982
 5331SOL     OW16891   5.410   1.623   0.765
 5331SOL    HW116892   5.358   1.602   0.682
 5331SOL    HW216893   5.418   1.541   0.822
 5332SOL     OW16894   6.412   4.236   6.987
 5332SOL    HW116895   6.426   4.137   6.987
 5332SOL    HW216896   6.397   4.267   0.060
 5333SOL     OW16897   1.133   0.560   3.768
 5333SOL    HW116898   1.041   0.593   3.748
 5333SOL    HW216899   1.148   0.560   3.867
 5334SOL     OW16900   3.601   5.186   5.207
 5334SOL    HW116901   3.559   5.169   5.118
 5334SOL    HW216902   3.699   5.201   5.196
 5335SOL     OW16903   0.437   5.444   2.186
 5335SOL    HW116904   0.365   5.396   2.237
 5335SOL    HW216905   0.514   5.462   2.246
 5336SOL     OW16906   1.766   2.341   3.547
 5336SOL    HW116907   1.797   2.249   3.522
 5336SOL    HW216908   1.704   2.335   3.625
 5337SOL     OW16909   5.748   4.840   1.198
 5337SOL    HW116910   5.735   4.825   1.296
 5337SOL    HW216911   5.687   4.912   1.167
 5338SOL     OW16912   5.377   1.260   6.624
 5338SOL    HW116913   5.320   1.183   6.593
 5338SOL    HW216914   5.473   1.238   6.607
 5339SOL     OW16915   5.967   1.451   3.166
 5339SOL    HW116916   5.979   1.482   3.072
 5339SOL    HW216917   6.015   1.364   3.179
 5340SOL     OW16918   5.625   3.866   1.236
 5340SOL    HW116919   5.722   3.887   1.222
 5340SOL    HW216920   5.600   3.787   1.180
 5341SOL     OW16921   3.188   4.935   5.321
 5341SOL    HW116922   3.172   4.973   5.230
 5341SOL    HW216923   3.167   4.837   5.321
 5342SOL     OW16924   5.092   6.616   4.559
 5342SOL    HW116925   5.078   6.688   4.627
 5342SOL    HW216926   5.184   6.622   4.522
 5343SOL     OW16927   3.770   3.463   4.672
 5343SOL    HW116928   3.868   3.470   4.686
 5343SOL    HW216929   3.724   3.541   4.715
 5344SOL     OW16930   0.762   1.114   0.176
 5344SOL    HW116931   0.672   1.107   0.131
 5344SOL    HW216932   0.778   1.031   0.229
 5345SOL     OW16933   5.074   0.424   6.556
 5345SOL    HW116934   5.109   0.483   6.483
 5345SOL    HW216935   5.094   0.465   6.645
 5346SOL     OW16936   2.787   5.233   4.384
 5346SOL    HW116937   2.744   5.163   4.442
 5346SOL    HW216938   2.828   5.304   4.441
 5347SOL     OW16939   6.568   3.549   3.528
 5347SOL    HW116940   6.547   3.573   3.622
 5347SOL    HW216941   6.668   3.551   3.515
 5348SOL     OW16942   6.778   0.962   5.949
 5348SOL    HW116943   6.852   1.012   5.904
 5348SOL    HW216944   6.734   0.900   5.884
 5349SOL     OW16945   2.354   3.511   1.112
 5349SOL    HW116946   2.374   3.420   1.147
 5349SOL    HW216947   2.440   3.560   1.095
 5350SOL     OW16948   2.346   6.848   5.226
 5350SOL    HW116949   2.252   6.814   5.226
 5350SOL    HW216950   2.406   6.780   5.269
 5351SOL     OW16951   0.198   5.367   2.338
 5351SOL    HW116952   0.160   5.428   2.408
 5351SOL    HW216953   0.190   5.272   2.369
 5352SOL     OW16954   2.403   4.825   3.277
 5352SOL    HW116955   2.373   4.851   3.368
 5352SOL    HW216956   2.328   4.835   3.212
 5353SOL     OW16957   3.988   5.480   3.778
 5353SOL    HW116958   3.969   5.481   3.680
 5353SOL    HW216959   3.903   5.495   3.828
 5354SOL     OW16960   2.250   4.656   0.525
 5354SOL    HW116961   2.281   4.739   0.570
 5354SOL    HW216962   2.327   4.593   0.514
 5355SOL     OW16963   5.965   4.618   4.348
 5355SOL    HW116964   5.874   4.581   4.329
 5355SOL    HW216965   6.026   4.544   4.377
 5356SOL     OW16966   6.635   3.607   2.553
 5356SOL    HW116967   6.735   3.599   2.550
 5356SOL    HW216968   6.596   3.569   2.469
 5357SOL     OW16969   4.195   4.639   1.057
 5357SOL    HW116970   4.241   4.711   1.006
 5357SOL    HW216971   4.149   4.679   1.136
 5358SOL     OW16972   4.964   2.350   1.118
 5358SOL    HW116973   5.060   2.356   1.148
 5358SOL    HW216974   4.908   2.317   1.194
 5359SOL     OW16975   2.225   2.035   6.574
 5359SOL    HW116976   2.163   2.023   6.497
 5359SOL    HW216977   2.178   2.011   6.659
 5360SOL     OW16978   5.518   5.586   3.774
 5360SOL    HW116979   5.467   5.648   3.834
 5360SOL    HW216980   5.464   5.567   3.692
 5361SOL     OW16981   2.424   6.887   4.331
 5361SOL    HW116982   2.422   6.943   4.414
 5361SOL    HW216983   2.346   6.910   4.273
 5362SOL     OW16984   6.119   6.002   2.671
 5362SOL    HW116985   6.210   5.962   2.661
 5362SOL    HW216986   6.077   6.013   2.581
 5363SOL     OW16987   5.255   6.350   5.614
 5363SOL    HW116988   5.209   6.432   5.647
 5363SOL    HW216989   5.344   6.375   5.576
 5364SOL     OW16990   6.076   6.860   1.899
 5364SOL    HW116991   6.000   6.803   1.866
 5364SOL    HW216992   6.074   6.864   1.998
 5365SOL     OW16993   3.452   2.971   2.252
 5365SOL    HW116994   3.393   2.934   2.180
 5365SOL    HW216995   3.543   2.988   2.214
 5366SOL     OW16996   6.878   6.974   2.209
 5366SOL    HW116997   6.893   0.045   2.247
 5366SOL    HW216998   6.964   6.939   2.171
 5367SOL     OW16999   6.682   6.350   1.166
 5367SOL    HW117000   6.643   6.262   1.192
 5367SOL    HW217001   6.632   6.387   1.087
 5368SOL     OW17002   6.574   6.697   2.634
 5368SOL    HW117003   6.672   6.687   2.619
 5368SOL    HW217004   6.527   6.700   2.546
 5369SOL     OW17005   2.698   6.013   0.884
 5369SOL    HW117006   2.709   6.037   0.980
 5369SOL    HW217007   2.601   5.997   0.865
 5370SOL     OW17008   4.248   3.626   1.061
 5370SOL    HW117009   4.330   3.575   1.088
 5370SOL    HW217010   4.167   3.581   1.100
 5371SOL     OW17011   6.624   4.927   5.257
 5371SOL    HW117012   6.564   5.007   5.257
 5371SOL    HW217013   6.695   4.939   5.327
 5372SOL     OW17014   1.440   6.497   2.731
 5372SOL    HW117015   1.431   6.505   2.830
 5372SOL    HW217016   1.504   6.566   2.698
 5373SOL     OW17017   4.133   6.780   5.906
 5373SOL    HW117018   4.169   6.772   5.813
 5373SOL    HW217019   4.053   6.721   5.915
 5374SOL     OW17020   2.486   4.500   0.550
 5374SOL    HW117021   2.474   4.515   0.648
 5374SOL    HW217022   2.546   4.421   0.536
 5375SOL     OW17023   0.662   5.565   6.104
 5375SOL    HW117024   0.683   5.528   6.014
 5375SOL    HW217025   0.574   5.612   6.102
 5376SOL     OW17026   1.253   2.602   1.743
 5376SOL    HW117027   1.330   2.661   1.717
 5376SOL    HW217028   1.265   2.512   1.702
 5377SOL     OW17029   1.257   0.214   3.117
 5377SOL    HW117030   1.345   0.168   3.129
 5377SOL    HW217031   1.185   0.162   3.162
 5378SOL     OW17032   6.855   0.302   1.633
 5378SOL    HW117033   6.837   0.223   1.692
 5378SOL    HW217034   6.802   0.293   1.549
 5379SOL     OW17035   1.644   3.542   4.653
 5379SOL    HW117036   1.683   3.578   4.738
 5379SOL    HW217037   1.619   3.446   4.666
 5380SOL     OW17038   2.556   6.956   1.086
 5380SOL    HW117039   2.650   6.952   1.120
 5380SOL    HW217040   2.557   6.956   0.986
 5381SOL     OW17041   6.560   6.078   2.140
 5381SOL    HW117042   6.554   5.993   2.193
 5381SOL    HW217043   6.481   6.136   2.162
 5382SOL     OW17044   3.023   2.206   2.704
 5382SOL    HW117045   3.117   2.192   2.674
 5382SOL    HW217046   2.961   2.177   2.631
 5383SOL     OW17047   1.142   2.527   4.353
 5383SOL    HW117048   1.146   2.627   4.348
 5383SOL    HW217049   1.075   2.494   4.287
 5384SOL     OW17050   4.507   5.571   4.620
 5384SOL    HW117051   4.516   5.576   4.720
 5384SOL    HW217052   4.563   5.496   4.585
 5385SOL     OW17053   5.637   2.824   5.599
 5385SOL    HW117054   5.642   2.861   5.506
 5385SOL    HW217055   5.656   2.726   5.598
 5386SOL     OW17056   5.907   1.428   4.248
 5386SOL    HW117057   5.832   1.366   4.223
 5386SOL    HW217058   5.883   1.476   4.333
 5387SOL     OW17059   2.743   6.952   3.478
 5387SOL    HW117060   2.833   6.927   3.443
 5387SOL    HW217061   2.731   0.030   3.470
 5388SOL     OW17062   1.575   6.731   2.634
 5388SOL    HW117063   1.541   6.779   2.715
 5388SOL    HW217064   1.667   6.695   2.653
 5389SOL     OW17065   3.992   1.794   4.689
 5389SOL    HW117066   3.908   1.742   4.700
 5389SOL    HW217067   3.971   1.885   4.654
 5390SOL     OW17068   5.253   4.272   3.572
 5390SOL    HW117069   5.215   4.339   3.507
 5390SOL    HW217070   5.344   4.302   3.600
 5391SOL     OW17071   2.999   1.652   0.049
 5391SOL    HW117072   2.971   1.574   7.013
 5391SOL    HW217073   3.003   1.734   7.013
 5392SOL     OW17074   5.289   3.725   1.628
 5392SOL    HW117075   5.353   3.663   1.582
 5392SOL    HW217076   5.285   3.811   1.578
 5393SOL     OW17077   4.793   0.866   5.220
 5393SOL    HW117078   4.728   0.805   5.175
 5393SOL    HW217079   4.764   0.961   5.205
 5394SOL     OW17080   0.964   5.704   1.253
 5394SOL    HW117081   0.887   5.767   1.259
 5394SOL    HW217082   1.018   5.724   1.171
 5395SOL     OW17083   4.963   0.763   1.047
 5395SOL    HW117084   4.984   0.858   1.069
 5395SOL    HW217085   5.048   0.714   1.027
 5396SOL     OW17086   5.602   5.053   1.687
 5396SOL    HW117087   5.627   5.123   1.753
 5396SOL    HW217088   5.556   5.094   1.609
 5397SOL     OW17089   0.005   1.993   1.886
 5397SOL    HW117090   6.934   1.967   1.914
 5397SOL    HW217091   0.009   2.091   1.869
 5398SOL     OW17092   3.426   2.127   3.802
 5398SOL    HW117093   3.363   2.051   3.818
 5398SOL    HW217094   3.387   2.190   3.736
 5399SOL     OW17095   2.757   0.178   6.456
 5399SOL    HW117096   2.698   0.218   6.526
 5399SOL    HW217097   2.701   0.139   6.382
 5400SOL     OW17098   2.902   3.467   0.557
 5400SOL    HW117099   2.814   3.455   0.512
 5400SOL    HW217100   2.895   3.436   0.652
 5401SOL     OW17101   5.953   4.032   2.171
 5401SOL    HW117102   5.874   3.984   2.209
 5401SOL    HW217103   5.953   4.024   2.072
 5402SOL     OW17104   2.548   6.358   0.620
 5402SOL    HW117105   2.647   6.346   0.632
 5402SOL    HW217106   2.522   6.324   0.530
 5403SOL     OW17107   5.130   3.621   6.283
 5403SOL    HW117108   5.148   3.685   6.208
 5403SOL    HW217109   5.214   3.606   6.335
 5404SOL     OW17110   0.952   0.274   1.549
 5404SOL    HW117111   0.926   0.179   1.569
 5404SOL    HW217112   0.999   0.313   1.629
 5405SOL     OW17113   5.585   5.275   6.703
 5405SOL    HW117114   5.685   5.271   6.715
 5405SOL    HW217115   5.561   5.239   6.613
 5406SOL     OW17116   2.173   0.915   4.735
 5406SOL    HW117117   2.131   0.984   4.794
 5406SOL    HW217118   2.273   0.918   4.746
 5407SOL     OW17119   3.507   1.129   0.638
 5407SOL    HW117120   3.527   1.114   0.735
 5407SOL    HW217121   3.477   1.223   0.624
 5408SOL     OW17122   3.585   1.359   4.837
 5408SOL    HW117123   3.566   1.262   4.823
 5408SOL    HW217124   3.667   1.370   4.892
 5409SOL     OW17125   6.561   1.575   2.438
 5409SOL    HW117126   6.534   1.488   2.397
 5409SOL    HW217127   6.598   1.558   2.530
 5410SOL     OW17128   0.933   2.471   6.610
 5410SOL    HW117129   0.993   2.448   6.686
 5410SOL    HW217130   0.859   2.404   6.604
 5411SOL     OW17131   5.053   5.043   6.147
 5411SOL    HW117132   5.041   5.116   6.080
 5411SOL    HW217133   5.007   4.960   6.114
 5412SOL     OW17134   2.637   1.301   6.289
 5412SOL    HW117135   2.686   1.353   6.219
 5412SOL    HW217136   2.567   1.244   6.245
 5413SOL     OW17137   0.657   6.851   6.899
 5413SOL    HW117138   0.587   6.850   6.971
 5413SOL    HW217139   0.747   6.843   6.941
 5414SOL     OW17140   6.307   4.376   5.501
 5414SOL    HW117141   6.343   4.362   5.408
 5414SOL    HW217142   6.383   4.389   5.564
 5415SOL     OW17143   2.814   6.304   0.604
 5415SOL    HW117144   2.842   6.237   0.673
 5415SOL    HW217145   2.859   6.282   0.517
 5416SOL     OW17146   2.552   4.652   5.054
 5416SOL    HW117147   2.522   4.616   5.143
 5416SOL    HW217148   2.652   4.648   5.049
 5417SOL     OW17149   3.909   0.196   5.080
 5417SOL    HW117150   3.967   0.153   5.012
 5417SOL    HW217151   3.832   0.242   5.035
 5418SOL     OW17152   5.587   5.718   5.064
 5418SOL    HW117153   5.617   5.641   5.121
 5418SOL    HW217154   5.646   5.797   5.082
 5419SOL     OW17155   4.096   6.026   0.599
 5419SOL    HW117156   4.005   5.997   0.570
 5419SOL    HW217157   4.107   6.124   0.583
 5420SOL     OW17158   2.270   1.914   0.944
 5420SOL    HW117159   2.366   1.943   0.948
 5420SOL    HW217160   2.241   1.908   0.849
 5421SOL     OW17161   3.283   5.314   1.430
 5421SOL    HW117162   3.241   5.334   1.341
 5421SOL    HW217163   3.319   5.221   1.428
 5422SOL     OW17164   1.790   5.250   4.991
 5422SOL    HW117165   1.842   5.187   5.048
 5422SOL    HW217166   1.851   5.321   4.956
 5423SOL     OW17167   5.648   5.013   0.417
 5423SOL    HW117168   5.626   5.099   0.464
 5423SOL    HW217169   5.568   4.954   0.417
 5424SOL     OW17170   5.157   3.999   4.420
 5424SOL    HW117171   5.249   3.990   4.459
 5424SOL    HW217172   5.101   3.922   4.447
 5425SOL     OW17173   6.370   2.685   4.588
 5425SOL    HW117174   6.295   2.642   4.538
 5425SOL    HW217175   6.335   2.764   4.639
 5426SOL     OW17176   4.378   5.419   2.426
 5426SOL    HW117177   4.399   5.405   2.329
 5426SOL    HW217178   4.348   5.514   2.440
 5427SOL     OW17179   5.428   2.705   0.654
 5427SOL    HW117180   5.466   2.797   0.659
 5427SOL    HW217181   5.334   2.709   0.619
 5428SOL     OW17182   5.008   6.672   2.173
 5428SOL    HW117183   5.094   6.712   2.205
 5428SOL    HW217184   5.021   6.631   2.083
 5429SOL     OW17185   1.863   0.176   4.847
 5429SOL    HW117186   1.906   0.086   4.853
 5429SOL    HW217187   1.765   0.167   4.867
 5430SOL     OW17188   1.950   3.024   4.843
 5430SOL    HW117189   2.031   3.065   4.885
 5430SOL    HW217190   1.869   3.052   4.894
 5431SOL     OW17191   3.409   3.640   6.921
 5431SOL    HW117192   3.355   3.672   6.999
 5431SOL    HW217193   3.351   3.631   6.841
 5432SOL     OW17194   4.686   5.318   6.397
 5432SOL    HW117195   4.672   5.406   6.351
 5432SOL    HW217196   4.598   5.277   6.419
 5433SOL     OW17197   0.808   0.176   1.247
 5433SOL    HW117198   0.783   0.264   1.288
 5433SOL    HW217199   0.896   0.146   1.283
 5434SOL     OW17200   4.170   1.048   4.682
 5434SOL    HW117201   4.126   1.029   4.770
 5434SOL    HW217202   4.162   1.145   4.661
 5435SOL     OW17203   6.391   3.885   0.779
 5435SOL    HW117204   6.450   3.828   0.723
 5435SOL    HW217205   6.447   3.953   0.827
 5436SOL     OW17206   6.382   4.397   3.994
 5436SOL    HW117207   6.340   4.328   4.054
 5436SOL    HW217208   6.314   4.431   3.930
 5437SOL     OW17209   3.077   5.156   5.477
 5437SOL    HW117210   3.106   5.177   5.570
 5437SOL    HW217211   3.130   5.079   5.442
 5438SOL     OW17212   4.982   5.203   2.063
 5438SOL    HW117213   4.926   5.286   2.060
 5438SOL    HW217214   4.933   5.129   2.017
 5439SOL     OW17215   0.811   3.570   0.014
 5439SOL    HW117216   0.834   3.563   6.937
 5439SOL    HW217217   0.809   3.478   0.054
 5440SOL     OW17218   6.444   6.784   4.107
 5440SOL    HW117219   6.438   6.724   4.027
 5440SOL    HW217220   6.534   6.773   4.150
 5441SOL     OW17221   5.136   3.455   2.993
 5441SOL    HW117222   5.208   3.387   3.003
 5441SOL    HW217223   5.062   3.435   3.058
 5442SOL     OW17224   4.332   6.784   3.797
 5442SOL    HW117225   4.280   6.799   3.713
 5442SOL    HW217226   4.339   6.686   3.815
 5443SOL     OW17227   4.534   5.945   3.917
 5443SOL    HW117228   4.620   5.995   3.929
 5443SOL    HW217229   4.458   6.000   3.952
 5444SOL     OW17230   6.661   1.225   3.809
 5444SOL    HW117231   6.607   1.229   3.893
 5444SOL    HW217232   6.691   1.317   3.785
 5445SOL     OW17233   5.683   4.676   3.520
 5445SOL    HW117234   5.750   4.636   3.458
 5445SOL    HW217235   5.591   4.667   3.481
 5446SOL     OW17236   5.943   4.929   4.824
 5446SOL    HW117237   5.896   4.941   4.737
 5446SOL    HW217238   5.877   4.902   4.894
 5447SOL     OW17239   2.180   1.560   1.213
 5447SOL    HW117240   2.273   1.527   1.227
 5447SOL    HW217241   2.181   1.659   1.201
 5448SOL     OW17242   4.350   4.731   3.800
 5448SOL    HW117243   4.307   4.810   3.842
 5448SOL    HW217244   4.410   4.761   3.726
 5449SOL     OW17245   1.957   1.030   1.470
 5449SOL    HW117246   1.865   1.007   1.502
 5449SOL    HW217247   1.952   1.096   1.396
 5450SOL     OW17248   3.331   6.834   1.377
 5450SOL    HW117249   3.312   6.800   1.285
 5450SOL    HW217250   3.411   6.893   1.375
 5451SOL     OW17251   1.849   6.077   3.793
 5451SOL    HW117252   1.844   6.153   3.727
 5451SOL    HW217253   1.920   6.013   3.766
 5452SOL     OW17254   2.713   4.406   1.447
 5452SOL    HW117255   2.805   4.434   1.418
 5452SOL    HW217256   2.698   4.435   1.542
 5453SOL     OW17257   5.473   3.796   2.147
 5453SOL    HW117258   5.412   3.853   2.202
 5453SOL    HW217259   5.431   3.779   2.057
 5454SOL     OW17260   5.454   5.453   1.560
 5454SOL    HW117261   5.489   5.445   1.654
 5454SOL    HW217262   5.425   5.547   1.544
 5455SOL     OW17263   0.146   1.960   3.708
 5455SOL    HW117264   0.085   2.029   3.668
 5455SOL    HW217265   0.111   1.869   3.687
 5456SOL     OW17266   3.657   1.554   6.545
 5456SOL    HW117267   3.607   1.601   6.472
 5456SOL    HW217268   3.694   1.468   6.510
 5457SOL     OW17269   6.935   2.208   0.787
 5457SOL    HW117270   6.899   2.167   0.703
 5457SOL    HW217271   0.011   2.182   0.797
 5458SOL     OW17272   0.047   4.705   0.686
 5458SOL    HW117273   7.004   4.649   0.739
 5458SOL    HW217274   0.003   4.731   0.599
 5459SOL     OW17275   2.204   5.151   5.100
 5459SOL    HW117276   2.301   5.157   5.123
 5459SOL    HW217277   2.186   5.064   5.054
 5460SOL     OW17278   3.010   6.893   2.320
 5460SOL    HW117279   3.038   6.804   2.356
 5460SOL    HW217280   3.053   6.908   2.231
 5461SOL     OW17281   1.052   0.899   4.603
 5461SOL    HW117282   1.073   0.828   4.671
 5461SOL    HW217283   1.022   0.855   4.518
 5462SOL     OW17284   5.520   6.178   6.404
 5462SOL    HW117285   5.596   6.134   6.357
 5462SOL    HW217286   5.533   6.172   6.503
 5463SOL     OW17287   0.316   1.433   0.034
 5463SOL    HW117288   0.275   1.373   0.102
 5463SOL    HW217289   0.367   1.378   6.989
 5464SOL     OW17290   6.004   6.067   5.114
 5464SOL    HW117291   6.078   6.064   5.182
 5464SOL    HW217292   6.041   6.094   5.025
 5465SOL     OW17293   6.712   0.377   2.902
 5465SOL    HW117294   6.769   0.458   2.887
 5465SOL    HW217295   6.772   0.297   2.911
 5466SOL     OW17296   6.096   2.827   5.813
 5466SOL    HW117297   6.030   2.815   5.739
 5466SOL    HW217298   6.048   2.844   5.899
 5467SOL     OW17299   5.897   4.128   2.890
 5467SOL    HW117300   5.995   4.111   2.893
 5467SOL    HW217301   5.849   4.054   2.938
 5468SOL     OW17302   0.180   2.570   4.334
 5468SOL    HW117303   0.164   2.486   4.284
 5468SOL    HW217304   0.093   2.609   4.363
 5469SOL     OW17305   3.119   5.558   6.055
 5469SOL    HW117306   3.123   5.480   5.993
 5469SOL    HW217307   3.155   5.639   6.009
 5470SOL     OW17308   3.742   5.262   4.254
 5470SOL    HW117309   3.647   5.240   4.277
 5470SOL    HW217310   3.764   5.223   4.164
 5471SOL     OW17311   5.572   0.601   2.346
 5471SOL    HW117312   5.550   0.608   2.443
 5471SOL    HW217313   5.610   0.511   2.327
 5472SOL     OW17314   2.977   3.679   6.741
 5472SOL    HW117315   3.018   3.592   6.713
 5472SOL    HW217316   3.049   3.744   6.765
 5473SOL     OW17317   1.418   3.501   0.283
 5473SOL    HW117318   1.424   3.440   0.204
 5473SOL    HW217319   1.351   3.572   0.266
 5474SOL     OW17320   0.573   5.894   4.510
 5474SOL    HW117321   0.662   5.849   4.512
 5474SOL    HW217322   0.518   5.864   4.588
 5475SOL     OW17323   1.718   1.758   0.492
 5475SOL    HW117324   1.771   1.742   0.576
 5475SOL    HW217325   1.670   1.845   0.500
 5476SOL     OW17326   1.761   4.708   4.948
 5476SOL    HW117327   1.809   4.624   4.974
 5476SOL    HW217328   1.713   4.693   4.861
 5477SOL     OW17329   2.228   3.961   3.182
 5477SOL    HW117330   2.279   4.046   3.170
 5477SOL    HW217331   2.229   3.909   3.097
 5478SOL     OW17332   4.432   6.539   5.419
 5478SOL    HW117333   4.388   6.585   5.342
 5478SOL    HW217334   4.495   6.470   5.385
 5479SOL     OW17335   4.631   1.903   4.717
 5479SOL    HW117336   4.662   1.908   4.622
 5479SOL    HW217337   4.709   1.905   4.778
 5480SOL     OW17338   5.505   5.038   5.068
 5480SOL    HW117339   5.425   4.981   5.085
 5480SOL    HW217340   5.484   5.133   5.092
 5481SOL     OW17341   4.711   1.481   4.775
 5481SOL    HW117342   4.784   1.414   4.783
 5481SOL    HW217343   4.683   1.511   4.866
 5482SOL     OW17344   3.799   3.846   2.367
 5482SOL    HW117345   3.827   3.772   2.306
 5482SOL    HW217346   3.764   3.922   2.313
 5483SOL     OW17347   0.531   1.836   5.366
 5483SOL    HW117348   0.578   1.897   5.429
 5483SOL    HW217349   0.579   1.835   5.278
 5484SOL     OW17350   5.640   0.552   3.960
 5484SOL    HW117351   5.598   0.469   3.997
 5484SOL    HW217352   5.634   0.550   3.860
 5485SOL     OW17353   2.895   6.833   5.021
 5485SOL    HW117354   2.856   6.904   4.962
 5485SOL    HW217355   2.909   6.869   5.113
 5486SOL     OW17356   1.757   5.806   4.564
 5486SOL    HW117357   1.686   5.735   4.565
 5486SOL    HW217358   1.787   5.824   4.657
 5487SOL     OW17359   5.222   3.057   6.425
 5487SOL    HW117360   5.227   2.970   6.474
 5487SOL    HW217361   5.314   3.097   6.420
 5488SOL     OW17362   5.243   1.192   0.956
 5488SOL    HW117363   5.235   1.259   0.882
 5488SOL    HW217364   5.321   1.216   1.014
 5489SOL     OW17365   1.013   4.870   0.933
 5489SOL    HW117366   1.108   4.838   0.940
 5489SOL    HW217367   0.952   4.797   0.964
 5490SOL     OW17368   3.475   0.300   1.212
 5490SOL    HW117369   3.470   0.222   1.149
 5490SOL    HW217370   3.541   0.366   1.177
 5491SOL     OW17371   1.868   3.757   6.481
 5491SOL    HW117372   1.920   3.676   6.510
 5491SOL    HW217373   1.869   3.824   6.555
 5492SOL     OW17374   0.670   2.001   6.663
 5492SOL    HW117375   0.734   1.973   6.592
 5492SOL    HW217376   0.673   1.936   6.739
 5493SOL     OW17377   4.034   3.653   3.780
 5493SOL    HW117378   4.070   3.667   3.688
 5493SOL    HW217379   3.941   3.617   3.775
 5494SOL     OW17380   6.758   2.841   6.583
 5494SOL    HW117381   6.821   2.768   6.610
 5494SOL    HW217382   6.691   2.805   6.518
 5495SOL     OW17383   3.756   2.383   1.469
 5495SOL    HW117384   3.747   2.284   1.459
 5495SOL    HW217385   3.702   2.414   1.548
 5496SOL     OW17386   2.624   0.438   3.481
 5496SOL    HW117387   2.661   0.527   3.455
 5496SOL    HW217388   2.527   0.434   3.460
 5497SOL     OW17389   0.109   2.295   3.925
 5497SOL    HW117390   0.159   2.218   3.963
 5497SOL    HW217391   0.120   2.375   3.983
 5498SOL     OW17392   5.208   6.963   1.242
 5498SOL    HW117393   5.276   6.896   1.269
 5498SOL    HW217394   5.251   0.032   1.234
 5499SOL     OW17395   0.138   1.177   4.174
 5499SOL    HW117396   0.153   1.183   4.273
 5499SOL    HW217397   0.056   1.229   4.150
 5500SOL     OW17398   1.547   0.033   0.079
 5500SOL    HW117399   1.517   0.128   0.092
 5500SOL    HW217400   1.646   0.031   0.066
 5501SOL     OW17401   3.787   0.157   0.892
 5501SOL    HW117402   3.840   0.240   0.881
 5501SOL    HW217403   3.833   0.095   0.956
 5502SOL     OW17404   5.596   4.039   0.036
 5502SOL    HW117405   5.633   4.055   0.127
 5502SOL    HW217406   5.530   3.964   0.039
 5503SOL     OW17407   6.703   5.588   3.622
 5503SOL    HW117408   6.667   5.643   3.698
 5503SOL    HW217409   6.701   5.643   3.538
 5504SOL     OW17410   4.240   1.484   4.964
 5504SOL    HW117411   4.174   1.542   5.012
 5504SOL    HW217412   4.216   1.479   4.867
 5505SOL     OW17413   1.735   5.392   4.519
 5505SOL    HW117414   1.795   5.313   4.511
 5505SOL    HW217415   1.698   5.415   4.428
 5506SOL     OW17416   1.177   1.725   6.386
 5506SOL    HW117417   1.267   1.687   6.406
 5506SOL    HW217418   1.181   1.777   6.301
 5507SOL     OW17419   2.382   0.214   3.796
 5507SOL    HW117420   2.449   0.147   3.764
 5507SOL    HW217421   2.426   0.281   3.856
 5508SOL     OW17422   2.322   0.611   6.521
 5508SOL    HW117423   2.306   0.537   6.587
 5508SOL    HW217424   2.280   0.588   6.434
 5509SOL     OW17425   0.792   6.396   0.783
 5509SOL    HW117426   0.860   6.456   0.741
 5509SOL    HW217427   0.730   6.451   0.840
 5510SOL     OW17428   4.944   6.195   0.915
 5510SOL    HW117429   4.947   6.111   0.969
 5510SOL    HW217430   4.851   6.233   0.916
 5511SOL     OW17431   2.864   0.513   4.130
 5511SOL    HW117432   2.792   0.562   4.080
 5511SOL    HW217433   2.851   0.526   4.228
 5512SOL     OW17434   5.720   2.183   1.848
 5512SOL    HW117435   5.756   2.104   1.897
 5512SOL    HW217436   5.761   2.267   1.884
 5513SOL     OW17437   4.039   4.727   6.279
 5513SOL    HW117438   3.959   4.755   6.227
 5513SOL    HW217439   4.118   4.782   6.253
 5514SOL     OW17440   4.828   6.216   2.552
 5514SOL    HW117441   4.845   6.174   2.463
 5514SOL    HW217442   4.807   6.145   2.619
 5515SOL     OW17443   0.154   4.617   1.394
 5515SOL    HW117444   0.157   4.694   1.456
 5515SOL    HW217445   0.223   4.549   1.421
 5516SOL     OW17446   1.309   4.048   6.270
 5516SOL    HW117447   1.325   4.131   6.216
 5516SOL    HW217448   1.298   3.970   6.208
 5517SOL     OW17449   2.041   3.273   2.125
 5517SOL    HW117450   2.110   3.320   2.070
 5517SOL    HW217451   1.999   3.200   2.070
 5518SOL     OW17452   5.674   6.671   6.327
 5518SOL    HW117453   5.614   6.718   6.262
 5518SOL    HW217454   5.621   6.603   6.378
 5519SOL     OW17455   5.417   3.188   2.754
 5519SOL    HW117456   5.442   3.095   2.784
 5519SOL    HW217457   5.403   3.188   2.655
 5520SOL     OW17458   6.872   5.580   2.153
 5520SOL    HW117459   6.873   5.480   2.155
 5520SOL    HW217460   6.869   5.611   2.058
 5521SOL     OW17461   4.597   0.049   1.466
 5521SOL    HW117462   4.573   6.977   1.493
 5521SOL    HW217463   4.540   0.115   1.515
 5522SOL     OW17464   0.215   5.187   1.008
 5522SOL    HW117465   0.126   5.231   0.993
 5522SOL    HW217466   0.207   5.088   0.993
 5523SOL     OW17467   3.875   0.144   2.038
 5523SOL    HW117468   3.818   0.212   1.993
 5523SOL    HW217469   3.844   0.131   2.132
 5524SOL     OW17470   5.072   5.364   5.080
 5524SOL    HW117471   5.082   5.330   5.173
 5524SOL    HW217472   4.977   5.390   5.063
 5525SOL     OW17473   6.844   3.012   7.012
 5525SOL    HW117474   6.784   3.092   0.000
 5525SOL    HW217475   6.899   3.022   6.929
 5526SOL     OW17476   5.200   4.915   4.841
 5526SOL    HW117477   5.158   5.005   4.850
 5526SOL    HW217478   5.180   4.878   4.751
 5527SOL     OW17479   6.533   3.582   4.674
 5527SOL    HW117480   6.556   3.661   4.731
 5527SOL    HW217481   6.434   3.574   4.667
 5528SOL     OW17482   1.068   1.974   6.774
 5528SOL    HW117483   0.995   1.981   6.841
 5528SOL    HW217484   1.044   1.905   6.705
 5529SOL     OW17485   1.941   0.643   4.180
 5529SOL    HW117486   2.021   0.689   4.218
 5529SOL    HW217487   1.866   0.709   4.172
 5530SOL     OW17488   6.964   2.273   1.930
 5530SOL    HW117489   6.869   2.271   1.960
 5530SOL    HW217490   6.981   2.356   1.877
 5531SOL     OW17491   3.886   2.963   2.371
 5531SOL    HW117492   3.902   3.030   2.444
 5531SOL    HW217493   3.828   2.889   2.406
 5532SOL     OW17494   1.406   2.256   0.429
 5532SOL    HW117495   1.427   2.160   0.450
 5532SOL    HW217496   1.315   2.260   0.386
 5533SOL     OW17497   3.712   0.912   3.116
 5533SOL    HW117498   3.658   0.836   3.153
 5533SOL    HW217499   3.809   0.893   3.128
 5534SOL     OW17500   0.618   1.524   5.929
 5534SOL    HW117501   0.561   1.549   6.007
 5534SOL    HW217502   0.710   1.560   5.943
 5535SOL     OW17503   0.411   3.267   4.470
 5535SOL    HW117504   0.336   3.263   4.404
 5535SOL    HW217505   0.382   3.318   4.551
 5536SOL     OW17506   2.667   1.059   4.333
 5536SOL    HW117507   2.759   1.044   4.298
 5536SOL    HW217508   2.628   1.140   4.291
 5537SOL     OW17509   2.784   0.672   3.383
 5537SOL    HW117510   2.735   0.694   3.298
 5537SOL    HW217511   2.787   0.752   3.442
 5538SOL     OW17512   2.915   0.219   5.193
 5538SOL    HW117513   2.889   0.252   5.102
 5538SOL    HW217514   3.014   0.210   5.197
 5539SOL     OW17515   1.563   3.190   0.223
 5539SOL    HW117516   1.550   3.199   0.125
 5539SOL    HW217517   1.609   3.272   0.258
 5540SOL     OW17518   5.805   3.487   3.685
 5540SOL    HW117519   5.728   3.497   3.622
 5540SOL    HW217520   5.795   3.553   3.760
 5541SOL     OW17521   5.801   1.137   6.101
 5541SOL    HW117522   5.810   1.232   6.072
 5541SOL    HW217523   5.876   1.083   6.065
 5542SOL     OW17524   6.249   5.178   6.354
 5542SOL    HW117525   6.219   5.086   6.329
 5542SOL    HW217526   6.343   5.175   6.387
 5543SOL     OW17527   3.189   5.341   5.932
 5543SOL    HW117528   3.147   5.279   5.999
 5543SOL    HW217529   3.175   5.305   5.840
 5544SOL     OW17530   5.443   6.616   5.800
 5544SOL    HW117531   5.488   6.527   5.797
 5544SOL    HW217532   5.506   6.686   5.766
 5545SOL     OW17533   4.257   1.830   2.860
 5545SOL    HW117534   4.161   1.803   2.851
 5545SOL    HW217535   4.276   1.904   2.795
 5546SOL     OW17536   1.033   6.603   4.647
 5546SOL    HW117537   1.128   6.633   4.644
 5546SOL    HW217538   0.990   6.636   4.732
 5547SOL     OW17539   3.490   0.380   4.363
 5547SOL    HW117540   3.472   0.370   4.265
 5547SOL    HW217541   3.413   0.344   4.416
 5548SOL     OW17542   5.837   3.545   5.572
 5548SOL    HW117543   5.922   3.556   5.520
 5548SOL    HW217544   5.804   3.451   5.561
 5549SOL     OW17545   5.087   4.065   0.831
 5549SOL    HW117546   4.992   4.073   0.863
 5549SOL    HW217547   5.149   4.077   0.909
 5550SOL     OW17548   2.310   4.613   2.539
 5550SOL    HW117549   2.298   4.520   2.503
 5550SOL    HW217550   2.408   4.635   2.540
 5551SOL     OW17551   2.273   5.584   3.166
 5551SOL    HW117552   2.203   5.574   3.095
 5551SOL    HW217553   2.241   5.648   3.236
 5552SOL     OW17554   6.317   0.344   0.128
 5552SOL    HW117555   6.322   0.267   0.192
 5552SOL    HW217556   6.397   0.342   0.068
 5553SOL     OW17557   4.964   6.279   0.422
 5553SOL    HW117558   4.962   6.180   0.409
 5553SOL    HW217559   5.047   6.316   0.379
 5554SOL     OW17560   4.734   1.663   6.074
 5554SOL    HW117561   4.661   1.723   6.106
 5554SOL    HW217562   4.701   1.604   6.001
 5555SOL     OW17563   1.508   3.876   3.778
 5555SOL    HW117564   1.588   3.825   3.808
 5555SOL    HW217565   1.513   3.970   3.812
 5556SOL     OW17566   6.747   1.409   3.242
 5556SOL    HW117567   6.841   1.444   3.242
 5556SOL    HW217568   6.693   1.461   3.309
 5557SOL     OW17569   3.294   6.719   3.321
 5557SOL    HW117570   3.238   6.733   3.239
 5557SOL    HW217571   3.359   6.645   3.304
 5558SOL     OW17572   4.265   3.588   6.114
 5558SOL    HW117573   4.306   3.663   6.165
 5558SOL    HW217574   4.220   3.624   6.032
 5559SOL     OW17575   1.517   0.287   2.153
 5559SOL    HW117576   1.424   0.250   2.159
 5559SOL    HW217577   1.571   0.256   2.231
 5560SOL     OW17578   1.170   6.708   2.461
 5560SOL    HW117579   1.140   6.795   2.421
 5560SOL    HW217580   1.230   6.726   2.539
 5561SOL     OW17581   1.008   1.594   3.966
 5561SOL    HW117582   0.938   1.569   3.899
 5561SOL    HW217583   1.024   1.517   4.028
 5562SOL     OW17584   3.832   2.364   6.781
 5562SOL    HW117585   3.792   2.283   6.823
 5562SOL    HW217586   3.807   2.446   6.833
 5563SOL     OW17587   4.188   5.104   2.284
 5563SOL    HW117588   4.125   5.132   2.356
 5563SOL    HW217589   4.280   5.139   2.305
 5564SOL     OW17590   4.497   0.669   1.526
 5564SOL    HW117591   4.514   0.588   1.470
 5564SOL    HW217592   4.507   0.646   1.623
 5565SOL     OW17593   4.606   1.718   6.537
 5565SOL    HW117594   4.514   1.723   6.499
 5565SOL    HW217595   4.602   1.732   6.636
 5566SOL     OW17596   1.496   5.265   6.850
 5566SOL    HW117597   1.584   5.311   6.863
 5566SOL    HW217598   1.513   5.174   6.810
 5567SOL     OW17599   0.250   3.183   1.602
 5567SOL    HW117600   0.280   3.090   1.581
 5567SOL    HW217601   0.158   3.197   1.567
 5568SOL     OW17602   4.376   1.477   3.867
 5568SOL    HW117603   4.297   1.452   3.811
 5568SOL    HW217604   4.362   1.447   3.961
 5569SOL     OW17605   1.759   1.626   2.654
 5569SOL    HW117606   1.715   1.583   2.732
 5569SOL    HW217607   1.707   1.707   2.626
 5570SOL     OW17608   6.136   4.444   4.460
 5570SOL    HW117609   6.226   4.489   4.455
 5570SOL    HW217610   6.097   4.457   4.551
 5571SOL     OW17611   0.017   5.848   0.547
 5571SOL    HW117612   0.057   5.899   0.622
 5571SOL    HW217613   6.951   5.891   0.520
 5572SOL     OW17614   1.317   2.211   5.337
 5572SOL    HW117615   1.275   2.142   5.397
 5572SOL    HW217616   1.370   2.275   5.393
 5573SOL     OW17617   1.897   4.428   5.871
 5573SOL    HW117618   1.984   4.413   5.826
 5573SOL    HW217619   1.845   4.343   5.874
 5574SOL     OW17620   6.497   1.867   2.461
 5574SOL    HW117621   6.515   1.769   2.450
 5574SOL    HW217622   6.400   1.882   2.480
 5575SOL     OW17623   0.017   1.213   0.854
 5575SOL    HW117624   6.980   1.164   0.919
 5575SOL    HW217625   6.981   1.274   0.799
 5576SOL     OW17626   1.322   5.409   1.985
 5576SOL    HW117627   1.267   5.373   2.061
 5576SOL    HW217628   1.362   5.497   2.012
 5577SOL     OW17629   2.827   3.204   5.266
 5577SOL    HW117630   2.774   3.119   5.265
 5577SOL    HW217631   2.889   3.205   5.187
 5578SOL     OW17632   3.552   3.833   0.203
 5578SOL    HW117633   3.470   3.819   0.148
 5578SOL    HW217634   3.621   3.880   0.149
 5579SOL     OW17635   1.031   3.595   5.875
 5579SOL    HW117636   0.946   3.561   5.835
 5579SOL    HW217637   1.055   3.540   5.955
 5580SOL     OW17638   5.133   2.458   6.062
 5580SOL    HW117639   5.195   2.471   5.985
 5580SOL    HW217640   5.056   2.522   6.056
 5581SOL     OW17641   2.062   0.312   2.161
 5581SOL    HW117642   2.023   0.403   2.178
 5581SOL    HW217643   2.068   0.297   2.063
 5582SOL     OW17644   3.209   3.468   4.504
 5582SOL    HW117645   3.143   3.542   4.520
 5582SOL    HW217646   3.184   3.389   4.560
 5583SOL     OW17647   4.145   0.476   2.569
 5583SOL    HW117648   4.156   0.474   2.469
 5583SOL    HW217649   4.131   0.570   2.599
 5584SOL     OW17650   5.825   4.465   3.960
 5584SOL    HW117651   5.879   4.548   3.970
 5584SOL    HW217652   5.728   4.486   3.971
 5585SOL     OW17653   4.769   6.099   3.916
 5585SOL    HW117654   4.831   6.022   3.902
 5585SOL    HW217655   4.822   6.181   3.937
 5586SOL     OW17656   0.080   2.336   6.812
 5586SOL    HW117657   0.166   2.383   6.834
 5586SOL    HW217658   0.041   2.298   6.896
 5587SOL     OW17659   3.815   6.044   2.697
 5587SOL    HW117660   3.883   6.108   2.661
 5587SOL    HW217661   3.835   5.952   2.663
 5588SOL     OW17662   2.129   6.219   2.771
 5588SOL    HW117663   2.045   6.235   2.823
 5588SOL    HW217664   2.208   6.247   2.825
 5589SOL     OW17665   5.769   4.022   5.359
 5589SOL    HW117666   5.688   3.992   5.410
 5589SOL    HW217667   5.739   4.067   5.275
 5590SOL     OW17668   6.211   5.199   4.277
 5590SOL    HW117669   6.126   5.149   4.297
 5590SOL    HW217670   6.192   5.297   4.275
 5591SOL     OW17671   5.512   1.205   0.144
 5591SOL    HW117672   5.610   1.185   0.150
 5591SOL    HW217673   5.483   1.195   0.049
 5592SOL     OW17674   6.667   5.051   2.932
 5592SOL    HW117675   6.755   5.077   2.971
 5592SOL    HW217676   6.661   5.082   2.838
 5593SOL     OW17677   0.337   3.142   6.200
 5593SOL    HW117678   0.336   3.081   6.120
 5593SOL    HW217679   0.244   3.157   6.231
 5594SOL     OW17680   3.499   0.915   6.658
 5594SOL    HW117681   3.577   0.855   6.640
 5594SOL    HW217682   3.479   0.914   6.756
 5595SOL     OW17683   6.120   0.703   5.591
 5595SOL    HW117684   6.092   0.607   5.593
 5595SOL    HW217685   6.212   0.710   5.553
 5596SOL     OW17686   4.746   0.406   3.086
 5596SOL    HW117687   4.673   0.396   3.154
 5596SOL    HW217688   4.712   0.459   3.008
 5597SOL     OW17689   5.868   1.857   5.465
 5597SOL    HW117690   5.885   1.951   5.436
 5597SOL    HW217691   5.910   1.794   5.400
 5598SOL     OW17692   6.178   3.314   3.857
 5598SOL    HW117693   6.097   3.314   3.798
 5598SOL    HW217694   6.157   3.359   3.943
 5599SOL     OW17695   0.778   2.902   1.948
 5599SOL    HW117696   0.754   2.945   2.036
 5599SOL    HW217697   0.861   2.943   1.913
 5600SOL     OW17698   2.378   0.190   2.590
 5600SOL    HW117699   2.286   0.197   2.628
 5600SOL    HW217700   2.383   0.111   2.528
 5601SOL     OW17701   2.843   1.193   6.411
 5601SOL    HW117702   2.749   1.225   6.398
 5601SOL    HW217703   2.881   1.235   6.494
 5602SOL     OW17704   0.380   0.248   1.798
 5602SOL    HW117705   0.314   0.175   1.782
 5602SOL    HW217706   0.342   0.334   1.763
 5603SOL     OW17707   5.700   2.613   0.054
 5603SOL    HW117708   5.711   2.679   7.000
 5603SOL    HW217709   5.650   2.656   0.129
 5604SOL     OW17710   6.496   2.391   5.228
 5604SOL    HW117711   6.483   2.361   5.322
 5604SOL    HW217712   6.573   2.341   5.187
 5605SOL     OW17713   0.663   1.004   4.516
 5605SOL    HW117714   0.618   0.981   4.430
 5605SOL    HW217715   0.594   1.029   4.584
 5606SOL     OW17716   5.519   0.436   1.011
 5606SOL    HW117717   5.548   0.349   1.051
 5606SOL    HW217718   5.419   0.438   1.004
 5607SOL     OW17719   5.839   1.281   3.848
 5607SOL    HW117720   5.937   1.298   3.837
 5607SOL    HW217721   5.825   1.196   3.900
 5608SOL     OW17722   6.494   0.839   2.760
 5608SOL    HW117723   6.397   0.863   2.757
 5608SOL    HW217724   6.549   0.918   2.732
 5609SOL     OW17725   4.603   5.670   2.154
 5609SOL    HW117726   4.600   5.571   2.164
 5609SOL    HW217727   4.536   5.712   2.216
 5610SOL     OW17728   5.234   4.539   1.648
 5610SOL    HW117729   5.327   4.503   1.649
 5610SOL    HW217730   5.170   4.467   1.676
 5611SOL     OW17731   0.821   5.126   3.486
 5611SOL    HW117732   0.894   5.176   3.532
 5611SOL    HW217733   0.755   5.093   3.553
 5612SOL     OW17734   4.313   3.310   6.588
 5612SOL    HW117735   4.401   3.263   6.598
 5612SOL    HW217736   4.245   3.246   6.551
 5613SOL     OW17737   5.221   5.560   5.285
 5613SOL    HW117738   5.193   5.538   5.378
 5613SOL    HW217739   5.152   5.528   5.221
 5614SOL     OW17740   5.474   2.689   4.933
 5614SOL    HW117741   5.427   2.769   4.972
 5614SOL    HW217742   5.523   2.717   4.850
 5615SOL     OW17743   6.584   1.332   4.063
 5615SOL    HW117744   6.559   1.331   4.160
 5615SOL    HW217745   6.634   1.417   4.043
 5616SOL     OW17746   1.817   2.628   4.872
 5616SOL    HW117747   1.789   2.697   4.805
 5616SOL    HW217748   1.916   2.634   4.886
 5617SOL     OW17749   2.026   4.898   5.390
 5617SOL    HW117750   2.099   4.963   5.413
 5617SOL    HW217751   2.022   4.886   5.291
 5618SOL     OW17752   6.936   5.027   4.089
 5618SOL    HW117753   6.866   5.098   4.086
 5618SOL    HW217754   6.917   4.965   4.165
 5619SOL     OW17755   3.814   3.698   4.235
 5619SOL    HW117756   3.842   3.611   4.276
 5619SOL    HW217757   3.851   3.705   4.143
 5620SOL     OW17758   4.206   4.043   6.949
 5620SOL    HW117759   4.163   3.954   6.969
 5620SOL    HW217760   4.305   4.032   6.943
 5621SOL     OW17761   1.656   2.885   0.088
 5621SOL    HW117762   1.745   2.910   0.127
 5621SOL    HW217763   1.585   2.942   0.129
 5622SOL     OW17764   4.095   0.166   6.084
 5622SOL    HW117765   4.157   0.245   6.084
 5622SOL    HW217766   4.147   0.082   6.074
 5623SOL     OW17767   4.692   6.432   4.669
 5623SOL    HW117768   4.776   6.391   4.633
 5623SOL    HW217769   4.628   6.359   4.693
 5624SOL     OW17770   0.259   4.533   3.923
 5624SOL    HW117771   0.279   4.581   4.009
 5624SOL    HW217772   0.164   4.500   3.925
 5625SOL     OW17773   0.164   6.783   5.626
 5625SOL    HW117774   0.210   6.697   5.649
 5625SOL    HW217775   0.115   6.771   5.539
 5626SOL     OW17776   2.588   6.456   3.875
 5626SOL    HW117777   2.574   6.406   3.960
 5626SOL    HW217778   2.595   6.391   3.799
 5627SOL     OW17779   0.257   5.079   6.443
 5627SOL    HW117780   0.202   5.061   6.361
 5627SOL    HW217781   0.237   5.170   6.478
 5628SOL     OW17782   1.692   2.937   1.521
 5628SOL    HW117783   1.787   2.960   1.501
 5628SOL    HW217784   1.650   2.896   1.440
 5629SOL     OW17785   4.557   3.090   1.581
 5629SOL    HW117786   4.603   3.064   1.666
 5629SOL    HW217787   4.464   3.055   1.582
 5630SOL     OW17788   2.007   4.170   6.730
 5630SOL    HW117789   1.929   4.175   6.792
 5630SOL    HW217790   1.999   4.242   6.660
 5631SOL     OW17791   4.961   1.413   2.198
 5631SOL    HW117792   4.971   1.366   2.111
 5631SOL    HW217793   4.966   1.347   2.273
 5632SOL     OW17794   3.040   2.455   5.570
 5632SOL    HW117795   3.101   2.533   5.554
 5632SOL    HW217796   3.093   2.370   5.565
 5633SOL     OW17797   5.888   4.789   4.548
 5633SOL    HW117798   5.872   4.712   4.610
 5633SOL    HW217799   5.938   4.757   4.467
 5634SOL     OW17800   1.548   4.975   4.109
 5634SOL    HW117801   1.610   4.934   4.176
 5634SOL    HW217802   1.599   5.002   4.028
 5635SOL     OW17803   1.527   6.569   6.633
 5635SOL    HW117804   1.506   6.640   6.566
 5635SOL    HW217805   1.619   6.584   6.669
 5636SOL     OW17806   5.698   6.882   4.941
 5636SOL    HW117807   5.644   6.834   5.011
 5636SOL    HW217808   5.636   6.927   4.877
 5637SOL     OW17809   4.516   6.476   3.287
 5637SOL    HW117810   4.428   6.497   3.331
 5637SOL    HW217811   4.575   6.428   3.352
 5638SOL     OW17812   6.745   3.597   1.377
 5638SOL    HW117813   6.702   3.596   1.287
 5638SOL    HW217814   6.785   3.508   1.396
 5639SOL     OW17815   2.784   0.292   2.290
 5639SOL    HW117816   2.746   0.282   2.382
 5639SOL    HW217817   2.739   0.369   2.245
 5640SOL     OW17818   3.412   0.923   2.464
 5640SOL    HW117819   3.379   1.013   2.436
 5640SOL    HW217820   3.511   0.919   2.452
 5641SOL     OW17821   0.123   4.717   5.276
 5641SOL    HW117822   0.139   4.654   5.200
 5641SOL    HW217823   0.059   4.789   5.247
 5642SOL     OW17824   0.247   5.813   5.388
 5642SOL    HW117825   0.157   5.793   5.426
 5642SOL    HW217826   0.262   5.912   5.386
 5643SOL     OW17827   3.788   0.956   3.946
 5643SOL    HW117828   3.736   0.926   4.026
 5643SOL    HW217829   3.886   0.953   3.967
 5644SOL     OW17830   3.593   0.134   4.806
 5644SOL    HW117831   3.687   0.102   4.819
 5644SOL    HW217832   3.568   0.123   4.710
 5645SOL     OW17833   5.465   5.019   2.648
 5645SOL    HW117834   5.415   4.976   2.723
 5645SOL    HW217835   5.547   5.063   2.684
 5646SOL     OW17836   0.812   5.876   3.524
 5646SOL    HW117837   0.837   5.874   3.427
 5646SOL    HW217838   0.712   5.869   3.533
 5647SOL     OW17839   4.500   6.864   0.578
 5647SOL    HW117840   4.529   6.771   0.602
 5647SOL    HW217841   4.541   6.929   0.641
 5648SOL     OW17842   1.725   0.152   3.676
 5648SOL    HW117843   1.794   0.147   3.603
 5648SOL    HW217844   1.637   0.121   3.641
 5649SOL     OW17845   0.346   0.562   4.684
 5649SOL    HW117846   0.302   0.607   4.607
 5649SOL    HW217847   0.433   0.607   4.705
 5650SOL     OW17848   0.971   4.825   0.643
 5650SOL    HW117849   0.961   4.877   0.728
 5650SOL    HW217850   1.007   4.885   0.572
 5651SOL     OW17851   1.521   1.590   1.442
 5651SOL    HW117852   1.528   1.620   1.537
 5651SOL    HW217853   1.547   1.494   1.435
 5652SOL     OW17854   6.703   6.774   2.332
 5652SOL    HW117855   6.774   6.811   2.271
 5652SOL    HW217856   6.636   6.845   2.352
 5653SOL     OW17857   0.004   6.328   6.824
 5653SOL    HW117858   0.009   6.314   6.725
 5653SOL    HW217859   0.079   6.279   6.868
 5654SOL     OW17860   6.308   0.308   5.467
 5654SOL    HW117861   6.394   0.313   5.516
 5654SOL    HW217862   6.232   0.323   5.530
 5655SOL     OW17863   1.287   3.695   4.728
 5655SOL    HW117864   1.209   3.706   4.667
 5655SOL    HW217865   1.368   3.736   4.686
 5656SOL     OW17866   0.194   3.709   6.719
 5656SOL    HW117867   0.150   3.798   6.733
 5656SOL    HW217868   0.261   3.716   6.646
 5657SOL     OW17869   5.877   1.771   0.506
 5657SOL    HW117870   5.861   1.854   0.452
 5657SOL    HW217871   5.813   1.700   0.476
 5658SOL     OW17872   3.924   4.214   6.484
 5658SOL    HW117873   3.868   4.297   6.485
 5658SOL    HW217874   3.974   4.209   6.397
 5659SOL     OW17875   4.051   3.268   4.389
 5659SOL    HW117876   4.135   3.239   4.434
 5659SOL    HW217877   3.972   3.231   4.437
 5660SOL     OW17878   5.221   7.019   0.643
 5660SOL    HW117879   5.292   0.061   0.674
 5660SOL    HW217880   5.238   6.928   0.681
 5661SOL     OW17881   1.574   5.157   5.115
 5661SOL    HW117882   1.516   5.092   5.065
 5661SOL    HW217883   1.639   5.199   5.052
 5662SOL     OW17884   2.973   6.331   3.733
 5662SOL    HW117885   3.010   6.289   3.650
 5662SOL    HW217886   2.934   6.260   3.791
 5663SOL     OW17887   1.836   3.202   0.029
 5663SOL    HW117888   1.841   3.289   0.077
 5663SOL    HW217889   1.912   3.195   6.986
 5664SOL     OW17890   6.641   4.203   4.948
 5664SOL    HW117891   6.559   4.187   4.894
 5664SOL    HW217892   6.712   4.137   4.923
 5665SOL     OW17893   1.972   1.099   0.362
 5665SOL    HW117894   2.014   1.180   0.404
 5665SOL    HW217895   1.898   1.128   0.302
 5666SOL     OW17896   6.079   6.430   2.283
 5666SOL    HW117897   5.988   6.450   2.318
 5666SOL    HW217898   6.097   6.487   2.203
 5667SOL     OW17899   0.990   5.525   4.335
 5667SOL    HW117900   0.917   5.482   4.387
 5667SOL    HW217901   0.971   5.623   4.324
 5668SOL     OW17902   5.289   2.254   4.161
 5668SOL    HW117903   5.278   2.295   4.252
 5668SOL    HW217904   5.209   2.199   4.140
 5669SOL     OW17905   6.926   3.422   6.864
 5669SOL    HW117906   6.866   3.502   6.853
 5669SOL    HW217907   6.873   3.345   6.900
 5670SOL     OW17908   7.019   2.724   3.608
 5670SOL    HW117909   7.021   2.757   3.514
 5670SOL    HW217910   6.936   2.669   3.622
 5671SOL     OW17911   6.634   6.129   6.635
 5671SOL    HW117912   6.688   6.142   6.718
 5671SOL    HW217913   6.684   6.164   6.556
 5672SOL     OW17914   3.744   4.420   6.467
 5672SOL    HW117915   3.695   4.472   6.397
 5672SOL    HW217916   3.696   4.428   6.554
 5673SOL     OW17917   1.012   0.124   2.172
 5673SOL    HW117918   0.966   0.067   2.104
 5673SOL    HW217919   0.958   0.206   2.189
 5674SOL     OW17920   0.205   5.317   4.662
 5674SOL    HW117921   0.279   5.302   4.596
 5674SOL    HW217922   0.126   5.356   4.615
 5675SOL     OW17923   3.747   2.588   6.944
 5675SOL    HW117924   3.815   2.646   6.898
 5675SOL    HW217925   3.726   2.627   0.012
 5676SOL     OW17926   1.918   2.854   2.174
 5676SOL    HW117927   2.016   2.837   2.159
 5676SOL    HW217928   1.891   2.936   2.124
 5677SOL     OW17929   0.793   1.269   0.529
 5677SOL    HW117930   0.700   1.235   0.512
 5677SOL    HW217931   0.807   1.279   0.627
 5678SOL     OW17932   4.033   6.398   2.381
 5678SOL    HW117933   3.966   6.459   2.424
 5678SOL    HW217934   4.068   6.441   2.298
 5679SOL     OW17935   0.282   1.321   3.970
 5679SOL    HW117936   0.228   1.370   3.901
 5679SOL    HW217937   0.222   1.265   4.026
 5680SOL     OW17938   1.505   5.170   5.618
 5680SOL    HW117939   1.558   5.101   5.668
 5680SOL    HW217940   1.453   5.225   5.683
 5681SOL     OW17941   0.024   4.312   0.645
 5681SOL    HW117942   0.122   4.294   0.638
 5681SOL    HW217943   7.012   4.281   0.735
 5682SOL     OW17944   2.389   4.729   5.490
 5682SOL    HW117945   2.435   4.661   5.433
 5682SOL    HW217946   2.332   4.683   5.557
 5683SOL     OW17947   3.966   0.880   6.015
 5683SOL    HW117948   3.958   0.930   6.101
 5683SOL    HW217949   4.017   0.795   6.031
 5684SOL     OW17950   2.535   3.206   5.639
 5684SOL    HW117951   2.445   3.237   5.668
 5684SOL    HW217952   2.559   3.251   5.552
 5685SOL     OW17953   1.913   3.014   2.389
 5685SOL    HW117954   1.996   3.070   2.385
 5685SOL    HW217955   1.922   2.938   2.325
 5686SOL     OW17956   3.285   1.470   5.897
 5686SOL    HW117957   3.382   1.462   5.918
 5686SOL    HW217958   3.231   1.445   5.977
 5687SOL     OW17959   1.002   4.866   6.706
 5687SOL    HW117960   1.077   4.826   6.759
 5687SOL    HW217961   0.948   4.927   6.765
 5688SOL     OW17962   0.497   2.471   1.368
 5688SOL    HW117963   0.570   2.469   1.436
 5688SOL    HW217964   0.485   2.379   1.330
 5689SOL     OW17965   3.836   1.175   0.510
 5689SOL    HW117966   3.848   1.183   0.412
 5689SOL    HW217967   3.832   1.079   0.536
 5690SOL     OW17968   2.280   6.148   7.010
 5690SOL    HW117969   2.257   6.118   0.082
 5690SOL    HW217970   2.356   6.094   6.975
 5691SOL     OW17971   3.227   0.885   2.048
 5691SOL    HW117972   3.166   0.959   2.075
 5691SOL    HW217973   3.173   0.802   2.031
 5692SOL     OW17974   5.997   3.528   0.667
 5692SOL    HW117975   6.035   3.484   0.749
 5692SOL    HW217976   5.917   3.477   0.637
 5693SOL     OW17977   5.499   2.246   2.611
 5693SOL    HW117978   5.446   2.295   2.542
 5693SOL    HW217979   5.551   2.311   2.666
 5694SOL     OW17980   0.943   1.509   3.507
 5694SOL    HW117981   0.853   1.480   3.475
 5694SOL    HW217982   0.989   1.562   3.435
 5695SOL     OW17983   1.138   2.823   3.144
 5695SOL    HW117984   1.238   2.828   3.139
 5695SOL    HW217985   1.099   2.850   3.056
 5696SOL     OW17986   0.952   1.502   3.066
 5696SOL    HW117987   1.020   1.428   3.067
 5696SOL    HW217988   0.982   1.575   3.127
 5697SOL     OW17989   6.053   2.162   1.527
 5697SOL    HW117990   6.062   2.253   1.486
 5697SOL    HW217991   6.023   2.096   1.458
 5698SOL     OW17992   0.984   4.010   3.920
 5698SOL    HW117993   0.901   4.021   3.975
 5698SOL    HW217994   1.047   4.085   3.939
 5699SOL     OW17995   0.713   2.610   3.164
 5699SOL    HW117996   0.684   2.702   3.188
 5699SOL    HW217997   0.691   2.591   3.069
 5700SOL     OW17998   6.870   0.000   3.246
 5700SOL    HW117999   6.793   0.041   3.295
 5700SOL    HW218000   6.900   0.062   3.173
 5701SOL     OW18001   1.103   0.915   2.011
 5701SOL    HW118002   1.143   0.947   2.097
 5701SOL    HW218003   1.038   0.842   2.030
 5702SOL     OW18004   2.595   5.737   4.943
 5702SOL    HW118005   2.548   5.729   4.855
 5702SOL    HW218006   2.690   5.764   4.928
 5703SOL     OW18007   6.673   4.609   1.829
 5703SOL    HW118008   6.604   4.641   1.894
 5703SOL    HW218009   6.727   4.537   1.872
 5704SOL     OW18010   4.564   4.750   2.324
 5704SOL    HW118011   4.608   4.690   2.391
 5704SOL    HW218012   4.482   4.705   2.288
 5705SOL     OW18013   5.091   0.379   0.132
 5705SOL    HW118014   5.160   0.335   0.075
 5705SOL    HW218015   5.136   0.439   0.199
 5706SOL     OW18016   6.894   3.950   0.862
 5706SOL    HW118017   6.859   3.904   0.781
 5706SOL    HW218018   6.986   3.917   0.882
 5707SOL     OW18019   0.269   6.443   0.310
 5707SOL    HW118020   0.211   6.439   0.229
 5707SOL    HW218021   0.359   6.405   0.288
 5708SOL     OW18022   5.291   5.823   1.734
 5708SOL    HW118023   5.295   5.920   1.709
 5708SOL    HW218024   5.241   5.813   1.820
 5709SOL     OW18025   1.290   0.734   2.431
 5709SOL    HW118026   1.202   0.692   2.455
 5709SOL    HW218027   1.342   0.670   2.374
 5710SOL     OW18028   2.487   2.967   0.820
 5710SOL    HW118029   2.517   3.043   0.763
 5710SOL    HW218030   2.430   2.905   0.766
 5711SOL     OW18031   5.631   0.992   2.256
 5711SOL    HW118032   5.729   0.986   2.273
 5711SOL    HW218033   5.594   0.901   2.241
 5712SOL     OW18034   6.569   0.177   6.527
 5712SOL    HW118035   6.525   0.265   6.544
 5712SOL    HW218036   6.531   0.108   6.589
 5713SOL     OW18037   3.359   2.882   1.429
 5713SOL    HW118038   3.337   2.823   1.351
 5713SOL    HW218039   3.378   2.825   1.509
 5714SOL     OW18040   0.337   5.674   0.302
 5714SOL    HW118041   0.413   5.619   0.336
 5714SOL    HW218042   0.371   5.743   0.238
 5715SOL     OW18043   1.058   0.003   3.203
 5715SOL    HW118044   0.983   6.986   3.149
 5715SOL    HW218045   1.143   6.975   3.183
 5716SOL     OW18046   1.863   3.912   6.708
 5716SOL    HW118047   1.955   3.951   6.717
 5716SOL    HW218048   1.795   3.985   6.719
 5717SOL     OW18049   1.519   4.979   1.066
 5717SOL    HW118050   1.501   4.889   1.025
 5717SOL    HW218051   1.481   4.981   1.158
 5718SOL     OW18052   0.385   2.515   5.002
 5718SOL    HW118053   0.424   2.473   5.084
 5718SOL    HW218054   0.286   2.522   5.012
 5719SOL     OW18055   2.764   1.928   6.631
 5719SOL    HW118056   2.835   1.867   6.595
 5719SOL    HW218057   2.700   1.951   6.558
 5720SOL     OW18058   1.585   5.523   4.946
 5720SOL    HW118059   1.558   5.469   4.867
 5720SOL    HW218060   1.571   5.469   5.029
 5721SOL     OW18061   0.375   3.452   1.147
 5721SOL    HW118062   0.405   3.358   1.162
 5721SOL    HW218063   0.443   3.514   1.187
 5722SOL     OW18064   6.811   1.581   4.854
 5722SOL    HW118065   6.812   1.664   4.909
 5722SOL    HW218066   6.884   1.584   4.786
 5723SOL     OW18067   3.755   3.325   0.682
 5723SOL    HW118068   3.741   3.300   0.586
 5723SOL    HW218069   3.791   3.418   0.687
 5724SOL     OW18070   5.721   2.892   4.900
 5724SOL    HW118071   5.690   2.868   4.808
 5724SOL    HW218072   5.717   2.811   4.959
 5725SOL     OW18073   5.002   5.732   4.399
 5725SOL    HW118074   4.963   5.658   4.345
 5725SOL    HW218075   5.005   5.706   4.495
 5726SOL     OW18076   0.253   4.545   4.719
 5726SOL    HW118077   0.296   4.580   4.802
 5726SOL    HW218078   0.153   4.555   4.727
 5727SOL     OW18079   6.683   1.510   3.695
 5727SOL    HW118080   6.684   1.592   3.752
 5727SOL    HW218081   6.593   1.467   3.702
 5728SOL     OW18082   3.822   0.492   6.762
 5728SOL    HW118083   3.834   0.450   6.852
 5728SOL    HW218084   3.904   0.543   6.738
 5729SOL     OW18085   1.134   1.449   0.689
 5729SOL    HW118086   1.204   1.458   0.760
 5729SOL    HW218087   1.059   1.512   0.707
 5730SOL     OW18088   4.444   4.988   6.053
 5730SOL    HW118089   4.521   4.970   6.114
 5730SOL    HW218090   4.417   5.084   6.060
 5731SOL     OW18091   6.918   6.651   3.691
 5731SOL    HW118092   6.821   6.647   3.715
 5731SOL    HW218093   6.964   6.718   3.749
 5732SOL     OW18094   6.486   5.243   4.859
 5732SOL    HW118095   6.395   5.280   4.842
 5732SOL    HW218096   6.536   5.237   4.772
 5733SOL     OW18097   4.238   6.607   5.234
 5733SOL    HW118098   4.182   6.680   5.271
 5733SOL    HW218099   4.295   6.642   5.159
 5734SOL     OW18100   1.085   6.906   5.437
 5734SOL    HW118101   1.028   6.942   5.363
 5734SOL    HW218102   1.071   6.961   5.520
 5735SOL     OW18103   4.215   2.173   2.137
 5735SOL    HW118104   4.230   2.271   2.121
 5735SOL    HW218105   4.119   2.152   2.120
 5736SOL     OW18106   6.267   4.574   0.291
 5736SOL    HW118107   6.313   4.633   0.357
 5736SOL    HW218108   6.190   4.623   0.250
 5737SOL     OW18109   5.489   7.012   1.087
 5737SOL    HW118110   5.500   6.976   1.180
 5737SOL    HW218111   5.443   0.080   1.092
 5738SOL     OW18112   2.481   3.077   5.967
 5738SOL    HW118113   2.425   3.078   5.884
 5738SOL    HW218114   2.448   3.006   6.029
 5739SOL     OW18115   1.511   0.945   5.601
 5739SOL    HW118116   1.454   1.015   5.644
 5739SOL    HW218117   1.561   0.895   5.672
 5740SOL     OW18118   4.223   3.567   1.664
 5740SOL    HW118119   4.277   3.494   1.705
 5740SOL    HW218120   4.202   3.636   1.733
 5741SOL     OW18121   0.483   3.902   4.315
 5741SOL    HW118122   0.563   3.843   4.301
 5741SOL    HW218123   0.449   3.890   4.409
 5742SOL     OW18124   5.242   6.782   2.243
 5742SOL    HW118125   5.240   6.852   2.171
 5742SOL    HW218126   5.328   6.790   2.295
 5743SOL     OW18127   2.759   4.959   5.169
 5743SOL    HW118128   2.834   5.020   5.192
 5743SOL    HW218129   2.774   4.869   5.210
 5744SOL     OW18130   4.868   0.988   2.317
 5744SOL    HW118131   4.774   1.010   2.343
 5744SOL    HW218132   4.874   0.978   2.218
 5745SOL     OW18133   1.432   0.867   4.031
 5745SOL    HW118134   1.507   0.801   4.039
 5745SOL    HW218135   1.456   0.937   3.964
 5746SOL     OW18136   6.106   6.771   1.415
 5746SOL    HW118137   6.136   6.677   1.432
 5746SOL    HW218138   6.076   6.780   1.320
 5747SOL     OW18139   0.120   4.510   3.140
 5747SOL    HW118140   0.063   4.526   3.221
 5747SOL    HW218141   0.098   4.577   3.069
 5748SOL     OW18142   1.617   5.670   0.190
 5748SOL    HW118143   1.638   5.706   0.099
 5748SOL    HW218144   1.660   5.728   0.259
 5749SOL     OW18145   1.518   6.942   5.011
 5749SOL    HW118146   1.471   6.961   4.925
 5749SOL    HW218147   1.569   0.002   5.039
 5750SOL     OW18148   5.619   6.252   4.639
 5750SOL    HW118149   5.572   6.334   4.605
 5750SOL    HW218150   5.593   6.173   4.582
 5751SOL     OW18151   2.991   2.200   4.342
 5751SOL    HW118152   2.999   2.194   4.242
 5751SOL    HW218153   2.899   2.229   4.366
 5752SOL     OW18154   6.057   0.777   0.211
 5752SOL    HW118155   6.098   0.697   0.168
 5752SOL    HW218156   6.013   0.750   0.297
 5753SOL     OW18157   3.717   3.282   5.204
 5753SOL    HW118158   3.718   3.297   5.303
 5753SOL    HW218159   3.810   3.263   5.173
 5754SOL     OW18160   6.578   4.060   0.951
 5754SOL    HW118161   6.642   4.010   1.009
 5754SOL    HW218162   6.627   4.130   0.900
 5755SOL     OW18163   2.033   3.273   6.441
 5755SOL    HW118164   1.973   3.279   6.361
 5755SOL    HW218165   2.116   3.223   6.417
 5756SOL     OW18166   6.191   6.370   3.763
 5756SOL    HW118167   6.141   6.307   3.705
 5756SOL    HW218168   6.240   6.437   3.707
 5757SOL     OW18169   6.633   6.141   2.799
 5757SOL    HW118170   6.560   6.170   2.861
 5757SOL    HW218171   6.668   6.220   2.749
 5758SOL     OW18172   2.426   0.986   5.104
 5758SOL    HW118173   2.333   0.998   5.140
 5758SOL    HW218174   2.431   1.023   5.012
 5759SOL     OW18175   4.774   1.191   6.651
 5759SOL    HW118176   4.857   1.246   6.661
 5759SOL    HW218177   4.784   1.129   6.574
 5760SOL     OW18178   0.639   4.576   1.333
 5760SOL    HW118179   0.587   4.610   1.411
 5760SOL    HW218180   0.590   4.596   1.248
 5761SOL     OW18181   5.833   6.681   6.572
 5761SOL    HW118182   5.768   6.683   6.648
 5761SOL    HW218183   5.783   6.690   6.485
 5762SOL     OW18184   4.703   5.895   0.331
 5762SOL    HW118185   4.725   5.841   0.412
 5762SOL    HW218186   4.633   5.847   0.278
 5763SOL     OW18187   0.151   0.855   6.776
 5763SOL    HW118188   0.111   0.763   6.769
 5763SOL    HW218189   0.123   0.910   6.698
 5764SOL     OW18190   4.730   4.934   5.650
 5764SOL    HW118191   4.728   4.878   5.733
 5764SOL    HW218192   4.751   5.028   5.675
 5765SOL     OW18193   6.815   3.713   6.986
 5765SOL    HW118194   6.778   3.755   0.048
 5765SOL    HW218195   6.840   3.785   6.921
 5766SOL     OW18196   2.244   2.273   0.184
 5766SOL    HW118197   2.172   2.211   0.215
 5766SOL    HW218198   2.300   2.300   0.262
 5767SOL     OW18199   1.903   0.191   0.477
 5767SOL    HW118200   1.831   0.193   0.408
 5767SOL    HW218201   1.952   0.103   0.472
 5768SOL     OW18202   0.051   6.755   3.056
 5768SOL    HW118203   0.097   6.766   2.968
 5768SOL    HW218204   0.081   6.828   3.119
 5769SOL     OW18205   2.690   6.010   4.485
 5769SOL    HW118206   2.674   5.942   4.414
 5769SOL    HW218207   2.615   6.010   4.550
 5770SOL     OW18208   5.631   0.301   0.285
 5770SOL    HW118209   5.561   0.235   0.312
 5770SOL    HW218210   5.708   0.296   0.349
 5771SOL     OW18211   1.597   6.293   3.299
 5771SOL    HW118212   1.568   6.376   3.347
 5771SOL    HW218213   1.563   6.213   3.348
 5772SOL     OW18214   6.315   2.557   0.732
 5772SOL    HW118215   6.297   2.483   0.798
 5772SOL    HW218216   6.377   2.623   0.773
 5773SOL     OW18217   4.876   1.092   4.097
 5773SOL    HW118218   4.850   1.156   4.169
 5773SOL    HW218219   4.919   1.142   4.022
 5774SOL     OW18220   2.933   5.724   3.911
 5774SOL    HW118221   3.023   5.709   3.951
 5774SOL    HW218222   2.937   5.801   3.847
 5775SOL     OW18223   1.589   0.818   2.219
 5775SOL    HW118224   1.579   0.817   2.120
 5775SOL    HW218225   1.546   0.900   2.256
 5776SOL     OW18226   6.160   0.876   5.810
 5776SOL    HW118227   6.254   0.903   5.790
 5776SOL    HW218228   6.132   0.802   5.747
 5777SOL     OW18229   6.519   0.569   5.253
 5777SOL    HW118230   6.586   0.587   5.182
 5777SOL    HW218231   6.460   0.493   5.226
 5778SOL     OW18232   1.742   0.311   1.495
 5778SOL    HW118233   1.771   0.402   1.467
 5778SOL    HW218234   1.822   0.251   1.501
 5779SOL     OW18235   4.085   1.539   0.680
 5779SOL    HW118236   4.176   1.508   0.708
 5779SOL    HW218237   4.023   1.461   0.675
 5780SOL     OW18238   6.102   5.323   3.151
 5780SOL    HW118239   6.167   5.246   3.147
 5780SOL    HW218240   6.049   5.316   3.235
 5781SOL     OW18241   0.714   4.118   4.762
 5781SOL    HW118242   0.793   4.056   4.754
 5781SOL    HW218243   0.635   4.066   4.795
 5782SOL     OW18244   1.548   0.806   1.042
 5782SOL    HW118245   1.491   0.782   1.121
 5782SOL    HW218246   1.589   0.724   1.004
 5783SOL     OW18247   1.649   0.710   1.459
 5783SOL    HW118248   1.610   0.730   1.369
 5783SOL    HW218249   1.709   0.630   1.453
 5784SOL     OW18250   6.825   6.236   0.089
 5784SOL    HW118251   6.729   6.244   0.114
 5784SOL    HW218252   6.869   6.325   0.099
 5785SOL     OW18253   1.730   1.698   1.238
 5785SOL    HW118254   1.713   1.789   1.276
 5785SOL    HW218255   1.681   1.630   1.291
 5786SOL     OW18256   1.055   4.186   0.128
 5786SOL    HW118257   1.060   4.206   0.226
 5786SOL    HW218258   1.051   4.088   0.114
 5787SOL     OW18259   4.572   2.728   4.995
 5787SOL    HW118260   4.526   2.720   5.083
 5787SOL    HW218261   4.534   2.660   4.932
 5788SOL     OW18262   3.138   1.066   1.442
 5788SOL    HW118263   3.194   1.061   1.525
 5788SOL    HW218264   3.181   1.128   1.376
 5789SOL     OW18265   3.398   3.525   6.062
 5789SOL    HW118266   3.357   3.541   5.972
 5789SOL    HW218267   3.377   3.433   6.093
 5790SOL     OW18268   0.327   4.932   4.985
 5790SOL    HW118269   0.310   4.838   4.956
 5790SOL    HW218270   0.425   4.950   4.983
 5791SOL     OW18271   2.741   2.119   2.624
 5791SOL    HW118272   2.661   2.179   2.626
 5791SOL    HW218273   2.763   2.096   2.529
 5792SOL     OW18274   5.830   3.475   2.046
 5792SOL    HW118275   5.811   3.552   2.106
 5792SOL    HW218276   5.781   3.487   1.959
 5793SOL     OW18277   6.012   0.639   4.162
 5793SOL    HW118278   6.087   0.677   4.216
 5793SOL    HW218279   5.925   0.667   4.202
 5794SOL     OW18280   2.978   0.310   6.541
 5794SOL    HW118281   2.891   0.267   6.518
 5794SOL    HW218282   3.003   0.376   6.471
 5795SOL     OW18283   6.854   0.019   1.334
 5795SOL    HW118284   6.918   0.080   1.288
 5795SOL    HW218285   6.772   0.070   1.361
 5796SOL     OW18286   4.271   0.867   6.434
 5796SOL    HW118287   4.299   0.896   6.526
 5796SOL    HW218288   4.183   0.820   6.440
 5797SOL     OW18289   4.987   1.551   0.425
 5797SOL    HW118290   4.928   1.549   0.506
 5797SOL    HW218291   4.977   1.640   0.380
 5798SOL     OW18292   0.102   5.005   4.599
 5798SOL    HW118293   0.108   5.033   4.504
 5798SOL    HW218294   0.129   5.081   4.658
 5799SOL     OW18295   0.092   0.395   4.288
 5799SOL    HW118296   0.126   0.377   4.196
 5799SOL    HW218297   0.030   0.473   4.285
 5800SOL     OW18298   0.907   6.603   1.808
 5800SOL    HW118299   0.890   6.508   1.779
 5800SOL    HW218300   0.914   6.606   1.908
 5801SOL     OW18301   2.104   2.552   3.512
 5801SOL    HW118302   2.046   2.574   3.590
 5801SOL    HW218303   2.152   2.465   3.530
 5802SOL     OW18304   6.332   2.878   2.705
 5802SOL    HW118305   6.280   2.816   2.646
 5802SOL    HW218306   6.269   2.920   2.771
 5803SOL     OW18307   2.107   5.697   3.376
 5803SOL    HW118308   2.028   5.637   3.362
 5803SOL    HW218309   2.076   5.791   3.385
 5804SOL     OW18310   7.013   5.746   3.035
 5804SOL    HW118311   6.918   5.762   3.063
 5804SOL    HW218312   0.002   5.770   2.938
 5805SOL     OW18313   1.699   2.943   0.683
 5805SOL    HW118314   1.709   2.960   0.780
 5805SOL    HW218315   1.753   2.862   0.658
 5806SOL     OW18316   6.942   4.796   4.604
 5806SOL    HW118317   6.851   4.832   4.624
 5806SOL    HW218318   7.009   4.870   4.611
 5807SOL     OW18319   1.146   5.549   0.408
 5807SOL    HW118320   1.244   5.536   0.397
 5807SOL    HW218321   1.100   5.460   0.412
 5808SOL     OW18322   6.895   6.605   4.339
 5808SOL    HW118323   6.906   6.511   4.371
 5808SOL    HW218324   6.976   6.659   4.364
 5809SOL     OW18325   6.651   1.895   5.256
 5809SOL    HW118326   6.675   1.825   5.323
 5809SOL    HW218327   6.731   1.953   5.238
 5810SOL     OW18328   4.859   0.802   5.496
 5810SOL    HW118329   4.819   0.711   5.494
 5810SOL    HW218330   4.846   0.847   5.408
 5811SOL     OW18331   3.648   1.258   5.169
 5811SOL    HW118332   3.557   1.299   5.159
 5811SOL    HW218333   3.698   1.305   5.242
 5812SOL     OW18334   4.892   3.143   5.792
 5812SOL    HW118335   4.819   3.162   5.859
 5812SOL    HW218336   4.862   3.070   5.731
 5813SOL     OW18337   2.459   0.206   0.696
 5813SOL    HW118338   2.411   0.288   0.665
 5813SOL    HW218339   2.512   0.227   0.778
 5814SOL     OW18340   0.450   3.213   2.183
 5814SOL    HW118341   0.396   3.220   2.266
 5814SOL    HW218342   0.496   3.124   2.180
 5815SOL     OW18343   4.501   1.669   4.277
 5815SOL    HW118344   4.516   1.767   4.290
 5815SOL    HW218345   4.587   1.625   4.253
 5816SOL     OW18346   5.267   4.990   0.227
 5816SOL    HW118347   5.204   4.972   0.152
 5816SOL    HW218348   5.218   5.033   0.303
 5817SOL     OW18349   5.839   4.803   5.406
 5817SOL    HW118350   5.829   4.896   5.369
 5817SOL    HW218351   5.922   4.799   5.462
 5818SOL     OW18352   6.920   5.742   5.229
 5818SOL    HW118353   6.969   5.669   5.182
 5818SOL    HW218354   6.940   5.738   5.327
 5819SOL     OW18355   3.399   6.210   6.968
 5819SOL    HW118356   3.325   6.150   6.938
 5819SOL    HW218357   3.438   6.174   0.032
 5820SOL     OW18358   4.295   4.595   2.689
 5820SOL    HW118359   4.258   4.642   2.609
 5820SOL    HW218360   4.228   4.598   2.763
 5821SOL     OW18361   6.711   0.884   1.638
 5821SOL    HW118362   6.645   0.928   1.699
 5821SOL    HW218363   6.771   0.824   1.692
 5822SOL     OW18364   1.849   2.976   1.746
 5822SOL    HW118365   1.828   2.903   1.811
 5822SOL    HW218366   1.781   2.976   1.672
 5823SOL     OW18367   2.756   6.958   4.605
 5823SOL    HW118368   2.829   6.933   4.542
 5823SOL    HW218369   2.790   0.005   4.670
 5824SOL     OW18370   0.263   6.403   3.384
 5824SOL    HW118371   0.166   6.423   3.392
 5824SOL    HW218372   0.300   6.378   3.474
 5825SOL     OW18373   0.491   6.155   4.512
 5825SOL    HW118374   0.529   6.066   4.535
 5825SOL    HW218375   0.423   6.145   4.439
 5826SOL     OW18376   0.356   6.378   6.220
 5826SOL    HW118377   0.358   6.279   6.223
 5826SOL    HW218378   0.416   6.410   6.147
 5827SOL     OW18379   1.923   3.404   4.441
 5827SOL    HW118380   1.898   3.431   4.534
 5827SOL    HW218381   1.867   3.454   4.376
 5828SOL     OW18382   4.800   1.533   2.597
 5828SOL    HW118383   4.856   1.454   2.575
 5828SOL    HW218384   4.835   1.578   2.679
 5829SOL     OW18385   1.627   0.523   4.543
 5829SOL    HW118386   1.647   0.515   4.641
 5829SOL    HW218387   1.543   0.474   4.522
 5830SOL     OW18388   5.210   0.188   5.750
 5830SOL    HW118389   5.199   0.260   5.819
 5830SOL    HW218390   5.177   0.222   5.662
 5831SOL     OW18391   1.166   1.010   5.871
 5831SOL    HW118392   1.159   0.917   5.906
 5831SOL    HW218393   1.089   1.030   5.811
 5832SOL     OW18394   3.534   4.608   0.192
 5832SOL    HW118395   3.622   4.564   0.176
 5832SOL    HW218396   3.549   4.699   0.229
 5833SOL     OW18397   3.888   3.270   4.907
 5833SOL    HW118398   3.900   3.369   4.915
 5833SOL    HW218399   3.944   3.224   4.976
 5834SOL     OW18400   6.516   4.320   6.610
 5834SOL    HW118401   6.527   4.329   6.511
 5834SOL    HW218402   6.429   4.362   6.637
 5835SOL     OW18403   5.304   2.017   2.862
 5835SOL    HW118404   5.207   2.031   2.842
 5835SOL    HW218405   5.334   1.931   2.821
 5836SOL     OW18406   3.087   0.229   1.768
 5836SOL    HW118407   3.167   0.284   1.743
 5836SOL    HW218408   3.117   0.143   1.809
 5837SOL     OW18409   3.652   2.957   0.169
 5837SOL    HW118410   3.582   3.017   0.131
 5837SOL    HW218411   3.632   2.862   0.146
 5838SOL     OW18412   2.872   1.854   1.278
 5838SOL    HW118413   2.888   1.827   1.183
 5838SOL    HW218414   2.905   1.783   1.340
 5839SOL     OW18415   0.751   2.222   0.641
 5839SOL    HW118416   0.746   2.145   0.705
 5839SOL    HW218417   0.846   2.251   0.631
 5840SOL     OW18418   0.989   4.057   6.703
 5840SOL    HW118419   1.030   4.144   6.729
 5840SOL    HW218420   0.891   4.058   6.725
 5841SOL     OW18421   5.245   1.105   1.759
 5841SOL    HW118422   5.171   1.137   1.818
 5841SOL    HW218423   5.320   1.070   1.816
 5842SOL     OW18424   4.851   2.728   1.623
 5842SOL    HW118425   4.856   2.719   1.524
 5842SOL    HW218426   4.760   2.763   1.649
 5843SOL     OW18427   1.421   4.366   2.087
 5843SOL    HW118428   1.499   4.304   2.073
 5843SOL    HW218429   1.352   4.321   2.142
 5844SOL     OW18430   1.667   5.917   6.029
 5844SOL    HW118431   1.641   5.951   5.939
 5844SOL    HW218432   1.635   5.823   6.040
 5845SOL     OW18433   0.955   0.114   1.865
 5845SOL    HW118434   0.928   0.088   1.772
 5845SOL    HW218435   0.875   0.149   1.914
 5846SOL     OW18436   5.930   3.799   5.665
 5846SOL    HW118437   5.982   3.802   5.750
 5846SOL    HW218438   5.901   3.705   5.646
 5847SOL     OW18439   2.705   2.474   1.803
 5847SOL    HW118440   2.797   2.461   1.841
 5847SOL    HW218441   2.659   2.385   1.798
 5848SOL     OW18442   1.831   5.619   3.368
 5848SOL    HW118443   1.744   5.639   3.322
 5848SOL    HW218444   1.828   5.656   3.461
 5849SOL     OW18445   1.875   0.131   5.676
 5849SOL    HW118446   1.805   0.199   5.699
 5849SOL    HW218447   1.925   0.161   5.595
 5850SOL     OW18448   0.367   3.469   2.207
 5850SOL    HW118449   0.281   3.483   2.159
 5850SOL    HW218450   0.410   3.385   2.174
 5851SOL     OW18451   5.252   3.862   3.898
 5851SOL    HW118452   5.253   3.813   3.985
 5851SOL    HW218453   5.302   3.948   3.908
 5852SOL     OW18454   5.160   6.469   2.540
 5852SOL    HW118455   5.166   6.369   2.551
 5852SOL    HW218456   5.064   6.496   2.528
 5853SOL     OW18457   4.078   5.280   5.451
 5853SOL    HW118458   4.066   5.234   5.539
 5853SOL    HW218459   4.047   5.375   5.459
 5854SOL     OW18460   4.147   3.851   5.441
 5854SOL    HW118461   4.095   3.768   5.462
 5854SOL    HW218462   4.181   3.845   5.347
 5855SOL     OW18463   1.564   1.081   4.309
 5855SOL    HW118464   1.594   1.107   4.400
 5855SOL    HW218465   1.466   1.102   4.298
 5856SOL     OW18466   1.613   5.946   3.742
 5856SOL    HW118467   1.573   5.938   3.833
 5856SOL    HW218468   1.696   6.003   3.747
 5857SOL     OW18469   6.317   3.195   5.033
 5857SOL    HW118470   6.365   3.277   5.004
 5857SOL    HW218471   6.383   3.124   5.057
 5858SOL     OW18472   2.120   2.219   2.817
 5858SOL    HW118473   2.149   2.281   2.889
 5858SOL    HW218474   2.104   2.271   2.732
 5859SOL     OW18475   6.510   6.115   1.207
 5859SOL    HW118476   6.417   6.079   1.210
 5859SOL    HW218477   6.558   6.077   1.128
 5860SOL     OW18478   6.752   5.346   3.232
 5860SOL    HW118479   6.765   5.298   3.319
 5860SOL    HW218480   6.833   5.402   3.212
 5861SOL     OW18481   5.585   1.077   4.152
 5861SOL    HW118482   5.625   1.019   4.082
 5861SOL    HW218483   5.486   1.085   4.138
 5862SOL     OW18484   6.042   5.402   0.954
 5862SOL    HW118485   6.060   5.386   0.857
 5862SOL    HW218486   5.975   5.475   0.964
 5863SOL     OW18487   2.759   2.315   4.778
 5863SOL    HW118488   2.781   2.322   4.875
 5863SOL    HW218489   2.844   2.309   4.725
 5864SOL     OW18490   2.991   3.889   2.451
 5864SOL    HW118491   2.937   3.815   2.492
 5864SOL    HW218492   3.006   3.869   2.354
 5865SOL     OW18493   5.601   0.551   5.120
 5865SOL    HW118494   5.590   0.464   5.168
 5865SOL    HW218495   5.512   0.597   5.116
 5866SOL     OW18496   3.416   3.087   1.037
 5866SOL    HW118497   3.443   3.153   1.106
 5866SOL    HW218498   3.331   3.116   0.993
 5867SOL     OW18499   2.203   3.457   1.501
 5867SOL    HW118500   2.222   3.383   1.565
 5867SOL    HW218501   2.105   3.475   1.499
 5868SOL     OW18502   2.120   1.797   5.781
 5868SOL    HW118503   2.053   1.772   5.851
 5868SOL    HW218504   2.189   1.857   5.821
 5869SOL     OW18505   2.261   5.774   2.832
 5869SOL    HW118506   2.335   5.739   2.775
 5869SOL    HW218507   2.205   5.697   2.864
 5870SOL     OW18508   5.273   6.311   5.139
 5870SOL    HW118509   5.192   6.313   5.080
 5870SOL    HW218510   5.285   6.218   5.174
 5871SOL     OW18511   3.519   3.548   1.933
 5871SOL    HW118512   3.485   3.642   1.943
 5871SOL    HW218513   3.527   3.525   1.836
 5872SOL     OW18514   4.217   6.920   1.495
 5872SOL    HW118515   4.159   6.840   1.513
 5872SOL    HW218516   4.195   6.993   1.560
 5873SOL     OW18517   3.424   6.848   2.163
 5873SOL    HW118518   3.523   6.859   2.167
 5873SOL    HW218519   3.392   6.870   2.071
 5874SOL     OW18520   2.233   4.438   5.312
 5874SOL    HW118521   2.209   4.354   5.263
 5874SOL    HW218522   2.150   4.481   5.348
 5875SOL     OW18523   4.131   1.381   0.291
 5875SOL    HW118524   4.152   1.413   0.199
 5875SOL    HW218525   4.141   1.457   0.355
 5876SOL     OW18526   3.896   3.401   1.644
 5876SOL    HW118527   3.846   3.469   1.698
 5876SOL    HW218528   3.904   3.433   1.549
 5877SOL     OW18529   6.579   6.499   0.955
 5877SOL    HW118530   6.615   6.574   1.009
 5877SOL    HW218531   6.651   6.462   0.896
 5878SOL     OW18532   0.073   5.403   4.423
 5878SOL    HW118533   0.059   5.309   4.393
 5878SOL    HW218534   7.005   5.445   4.441
 5879SOL     OW18535   1.943   4.050   0.009
 5879SOL    HW118536   1.972   4.020   0.099
 5879SOL    HW218537   1.877   3.984   6.993
 5880SOL     OW18538   4.452   3.877   6.939
 5880SOL    HW118539   4.549   3.868   6.914
 5880SOL    HW218540   4.400   3.803   6.899
 5881SOL     OW18541   0.609   6.385   2.844
 5881SOL    HW118542   0.582   6.421   2.933
 5881SOL    HW218543   0.662   6.301   2.856
 5882SOL     OW18544   0.441   6.110   1.421
 5882SOL    HW118545   0.364   6.074   1.369
 5882SOL    HW218546   0.413   6.193   1.469
 5883SOL     OW18547   1.398   0.777   6.334
 5883SOL    HW118548   1.484   0.771   6.385
 5883SOL    HW218549   1.395   0.863   6.283
 5884SOL     OW18550   3.080   1.602   4.703
 5884SOL    HW118551   3.100   1.676   4.638
 5884SOL    HW218552   3.065   1.642   4.794
 5885SOL     OW18553   0.615   0.561   3.420
 5885SOL    HW118554   0.679   0.487   3.440
 5885SOL    HW218555   0.625   0.634   3.488
 5886SOL     OW18556   0.754   1.646   5.053
 5886SOL    HW118557   0.745   1.594   4.968
 5886SOL    HW218558   0.847   1.683   5.059
 5887SOL     OW18559   2.757   1.542   3.427
 5887SOL    HW118560   2.702   1.625   3.438
 5887SOL    HW218561   2.818   1.531   3.506
 5888SOL     OW18562   3.000   1.004   1.772
 5888SOL    HW118563   2.914   1.054   1.759
 5888SOL    HW218564   2.987   0.908   1.746
 5889SOL     OW18565   1.307   6.609   0.869
 5889SOL    HW118566   1.391   6.639   0.913
 5889SOL    HW218567   1.298   6.510   0.878
 5890SOL     OW18568   2.087   1.356   3.906
 5890SOL    HW118569   2.061   1.302   3.986
 5890SOL    HW218570   2.122   1.296   3.835
 5891SOL     OW18571   3.781   3.294   6.077
 5891SOL    HW118572   3.774   3.299   5.977
 5891SOL    HW218573   3.775   3.198   6.106
 5892SOL     OW18574   0.584   5.069   1.789
 5892SOL    HW118575   0.516   5.059   1.862
 5892SOL    HW218576   0.598   4.981   1.743
 5893SOL     OW18577   1.758   3.981   4.175
 5893SOL    HW118578   1.729   3.896   4.221
 5893SOL    HW218579   1.771   4.053   4.243
 5894SOL     OW18580   6.641   4.720   4.420
 5894SOL    HW118581   6.678   4.629   4.399
 5894SOL    HW218582   6.647   4.736   4.518
 5895SOL     OW18583   5.420   3.709   4.353
 5895SOL    HW118584   5.386   3.779   4.416
 5895SOL    HW218585   5.471   3.752   4.279
 5896SOL     OW18586   4.695   0.566   0.026
 5896SOL    HW118587   4.706   0.549   6.949
 5896SOL    HW218588   4.755   0.506   0.078
 5897SOL     OW18589   4.222   0.677   1.606
 5897SOL    HW118590   4.315   0.702   1.578
 5897SOL    HW218591   4.190   0.601   1.549
 5898SOL     OW18592   1.908   6.815   3.441
 5898SOL    HW118593   1.890   6.900   3.393
 5898SOL    HW218594   1.965   6.833   3.522
 5899SOL     OW18595   5.113   5.701   5.988
 5899SOL    HW118596   5.178   5.750   5.930
 5899SOL    HW218597   5.139   5.713   6.084
 5900SOL     OW18598   5.362   4.944   3.252
 5900SOL    HW118599   5.384   5.041   3.248
 5900SOL    HW218600   5.436   4.891   3.212
 5901SOL     OW18601   2.641   0.382   0.459
 5901SOL    HW118602   2.590   0.450   0.406
 5901SOL    HW218603   2.594   0.294   0.454
 5902SOL     OW18604   6.537   2.586   6.214
 5902SOL    HW118605   6.500   2.496   6.188
 5902SOL    HW218606   6.553   2.640   6.132
 5903SOL     OW18607   4.171   4.461   6.888
 5903SOL    HW118608   4.187   4.403   6.968
 5903SOL    HW218609   4.176   4.406   6.805
 5904SOL     OW18610   0.977   3.953   1.714
 5904SOL    HW118611   1.026   3.935   1.629
 5904SOL    HW218612   0.999   3.882   1.781
 5905SOL     OW18613   6.457   5.761   2.938
 5905SOL    HW118614   6.397   5.682   2.956
 5905SOL    HW218615   6.520   5.739   2.864
 5906SOL     OW18616   4.180   2.183   3.707
 5906SOL    HW118617   4.130   2.242   3.770
 5906SOL    HW218618   4.279   2.195   3.721
 5907SOL     OW18619   0.469   5.013   1.193
 5907SOL    HW118620   0.416   4.991   1.275
 5907SOL    HW218621   0.562   4.975   1.203
 5908SOL     OW18622   0.304   2.514   6.321
 5908SOL    HW118623   0.236   2.578   6.355
 5908SOL    HW218624   0.392   2.560   6.311
 5909SOL     OW18625   6.749   5.579   0.646
 5909SOL    HW118626   6.736   5.491   0.693
 5909SOL    HW218627   6.774   5.563   0.551
 5910SOL     OW18628   0.222   3.634   3.513
 5910SOL    HW118629   0.168   3.593   3.586
 5910SOL    HW218630   0.176   3.716   3.479
 5911SOL     OW18631   6.568   6.580   6.243
 5911SOL    HW118632   6.549   6.665   6.292
 5911SOL    HW218633   6.522   6.504   6.289
 5912SOL     OW18634   6.637   0.737   5.744
 5912SOL    HW118635   6.670   0.683   5.666
 5912SOL    HW218636   6.539   0.757   5.731
 5913SOL     OW18637   4.513   3.011   6.340
 5913SOL    HW118638   4.451   2.948   6.388
 5913SOL    HW218639   4.592   3.030   6.398
 5914SOL     OW18640   1.738   5.063   6.616
 5914SOL    HW118641   1.682   5.091   6.537
 5914SOL    HW218642   1.679   5.053   6.696
 5915SOL     OW18643   4.661   5.635   1.197
 5915SOL    HW118644   4.751   5.594   1.213
 5915SOL    HW218645   4.662   5.730   1.226
 5916SOL     OW18646   5.635   6.259   3.869
 5916SOL    HW118647   5.632   6.314   3.953
 5916SOL    HW218648   5.724   6.270   3.825
 5917SOL     OW18649   3.265   3.419   4.238
 5917SOL    HW118650   3.353   3.375   4.223
 5917SOL    HW218651   3.258   3.451   4.332
 5918SOL     OW18652   2.144   4.189   5.193
 5918SOL    HW118653   2.063   4.146   5.233
 5918SOL    HW218654   2.214   4.120   5.177
 5919SOL     OW18655   3.770   2.936   3.006
 5919SOL    HW118656   3.680   2.911   3.041
 5919SOL    HW218657   3.828   2.969   3.081
 5920SOL     OW18658   4.385   0.988   6.697
 5920SOL    HW118659   4.454   0.951   6.759
 5920SOL    HW218660   4.421   1.069   6.651
 5921SOL     OW18661   3.609   5.272   6.303
 5921SOL    HW118662   3.570   5.347   6.248
 5921SOL    HW218663   3.542   5.198   6.310
 5922SOL     OW18664   5.299   3.908   3.147
 5922SOL    HW118665   5.283   3.989   3.203
 5922SOL    HW218666   5.381   3.923   3.091
 5923SOL     OW18667   7.017   1.578   1.903
 5923SOL    HW118668   6.999   1.528   1.988
 5923SOL    HW218669   0.066   1.647   1.918
 5924SOL     OW18670   6.736   0.049   2.936
 5924SOL    HW118671   6.813   0.102   2.901
 5924SOL    HW218672   6.685   0.010   2.859
 5925SOL     OW18673   4.147   6.791   1.993
 5925SOL    HW118674   4.121   6.876   1.947
 5925SOL    HW218675   4.068   6.730   1.998
 5926SOL     OW18676   4.023   5.559   2.168
 5926SOL    HW118677   3.948   5.528   2.227
 5926SOL    HW218678   3.995   5.555   2.072
 5927SOL     OW18679   1.610   4.769   2.483
 5927SOL    HW118680   1.583   4.694   2.545
 5927SOL    HW218681   1.692   4.741   2.432
 5928SOL     OW18682   3.492   6.711   1.080
 5928SOL    HW118683   3.420   6.778   1.098
 5928SOL    HW218684   3.557   6.750   1.014
 5929SOL     OW18685   6.584   0.272   6.017
 5929SOL    HW118686   6.570   0.240   6.110
 5929SOL    HW218687   6.622   0.365   6.018
 5930SOL     OW18688   6.550   4.060   3.170
 5930SOL    HW118689   6.625   4.001   3.200
 5930SOL    HW218690   6.465   4.030   3.214
 5931SOL     OW18691   6.769   5.966   2.649
 5931SOL    HW118692   6.849   6.025   2.644
 5931SOL    HW218693   6.704   6.002   2.716
 5932SOL     OW18694   3.117   0.071   1.169
 5932SOL    HW118695   3.138   0.137   1.097
 5932SOL    HW218696   3.119   0.116   1.258
 5933SOL     OW18697   6.522   4.922   3.661
 5933SOL    HW118698   6.430   4.884   3.667
 5933SOL    HW218699   6.530   5.002   3.720
 5934SOL     OW18700   3.498   2.924   4.782
 5934SOL    HW118701   3.464   2.875   4.862
 5934SOL    HW218702   3.598   2.924   4.783
 5935SOL     OW18703   6.651   4.948   6.490
 5935SOL    HW118704   6.570   4.894   6.468
 5935SOL    HW218705   6.685   4.923   6.580
 5936SOL     OW18706   3.281   2.377   1.400
 5936SOL    HW118707   3.257   2.380   1.497
 5936SOL    HW218708   3.313   2.467   1.371
 5937SOL     OW18709   6.311   3.295   2.177
 5937SOL    HW118710   6.230   3.295   2.236
 5937SOL    HW218711   6.286   3.263   2.086
 5938SOL     OW18712   6.362   5.356   2.826
 5938SOL    HW118713   6.320   5.323   2.911
 5938SOL    HW218714   6.310   5.435   2.792
 5939SOL     OW18715   2.307   6.493   3.154
 5939SOL    HW118716   2.323   6.411   3.208
 5939SOL    HW218717   2.366   6.567   3.186
 5940SOL     OW18718   4.513   5.238   2.572
 5940SOL    HW118719   4.525   5.165   2.505
 5940SOL    HW218720   4.463   5.314   2.531
 5941SOL     OW18721   5.704   3.621   2.243
 5941SOL    HW118722   5.783   3.675   2.272
 5941SOL    HW218723   5.621   3.675   2.253
 5942SOL     OW18724   5.442   3.931   0.317
 5942SOL    HW118725   5.359   3.931   0.373
 5942SOL    HW218726   5.435   3.860   0.247
 5943SOL     OW18727   3.494   4.192   5.997
 5943SOL    HW118728   3.566   4.123   6.001
 5943SOL    HW218729   3.535   4.283   5.998
 5944SOL     OW18730   0.062   2.316   0.458
 5944SOL    HW118731   0.146   2.307   0.511
 5944SOL    HW218732   7.018   2.374   0.508
 5945SOL     OW18733   6.477   4.747   5.483
 5945SOL    HW118734   6.383   4.727   5.458
 5945SOL    HW218735   6.517   4.809   5.415
 5946SOL     OW18736   3.591   3.672   5.959
 5946SOL    HW118737   3.534   3.616   6.020
 5946SOL    HW218738   3.627   3.750   6.010
 5947SOL     OW18739   3.337   3.207   2.358
 5947SOL    HW118740   3.392   3.125   2.340
 5947SOL    HW218741   3.286   3.232   2.276
 5948SOL     OW18742   4.234   4.968   2.556
 5948SOL    HW118743   4.153   4.915   2.534
 5948SOL    HW218744   4.218   5.064   2.535
 5949SOL     OW18745   5.311   3.974   1.496
 5949SOL    HW118746   5.349   4.044   1.555
 5949SOL    HW218747   5.215   3.995   1.476
 5950SOL     OW18748   5.427   1.279   5.405
 5950SOL    HW118749   5.396   1.332   5.484
 5950SOL    HW218750   5.381   1.312   5.323
 5951SOL     OW18751   1.446   5.471   3.825
 5951SOL    HW118752   1.461   5.487   3.728
 5951SOL    HW218753   1.406   5.380   3.839
 5952SOL     OW18754   5.422   5.142   3.042
 5952SOL    HW118755   5.410   5.059   2.987
 5952SOL    HW218756   5.363   5.214   3.007
 5953SOL     OW18757   6.724   3.682   5.412
 5953SOL    HW118758   6.661   3.702   5.337
 5953SOL    HW218759   6.672   3.664   5.495
 5954SOL     OW18760   6.251   5.115   5.513
 5954SOL    HW118761   6.192   5.145   5.588
 5954SOL    HW218762   6.203   5.127   5.426
 5955SOL     OW18763   4.770   5.568   2.467
 5955SOL    HW118764   4.817   5.608   2.388
 5955SOL    HW218765   4.771   5.468   2.459
 5956SOL     OW18766   4.543   1.927   4.281
 5956SOL    HW118767   4.474   1.966   4.342
 5956SOL    HW218768   4.625   1.906   4.334
 5957SOL     OW18769   3.040   0.969   4.840
 5957SOL    HW118770   2.996   1.045   4.792
 5957SOL    HW218771   3.060   0.996   4.934
 5958SOL     OW18772   4.868   6.401   2.966
 5958SOL    HW118773   4.918   6.316   2.983
 5958SOL    HW218774   4.857   6.414   2.868
 5959SOL     OW18775   4.271   2.991   5.666
 5959SOL    HW118776   4.177   2.976   5.637
 5959SOL    HW218777   4.332   2.985   5.587
 5960SOL     OW18778   4.027   5.513   5.060
 5960SOL    HW118779   4.087   5.438   5.031
 5960SOL    HW218780   4.000   5.567   4.980
 5961SOL     OW18781   4.735   2.271   2.605
 5961SOL    HW118782   4.717   2.342   2.674
 5961SOL    HW218783   4.692   2.297   2.518
 5962SOL     OW18784   5.878   6.113   6.894
 5962SOL    HW118785   5.844   6.023   6.924
 5962SOL    HW218786   5.978   6.114   6.899
 5963SOL     OW18787   3.683   3.600   6.503
 5963SOL    HW118788   3.737   3.523   6.468
 5963SOL    HW218789   3.701   3.681   6.448
 5964SOL     OW18790   1.166   6.220   5.442
 5964SOL    HW118791   1.175   6.136   5.494
 5964SOL    HW218792   1.143   6.199   5.347
 5965SOL     OW18793   2.008   1.684   0.175
 5965SOL    HW118794   1.931   1.653   0.118
 5965SOL    HW218795   2.057   1.757   0.128
 5966SOL     OW18796   2.201   6.038   5.780
 5966SOL    HW118797   2.166   5.949   5.810
 5966SOL    HW218798   2.244   6.029   5.690
 5967SOL     OW18799   2.938   0.253   6.056
 5967SOL    HW118800   2.911   0.216   5.967
 5967SOL    HW218801   3.035   0.276   6.054
 5968SOL     OW18802   5.585   2.285   0.299
 5968SOL    HW118803   5.645   2.338   0.239
 5968SOL    HW218804   5.574   2.333   0.386
 5969SOL     OW18805   5.934   0.431   6.646
 5969SOL    HW118806   5.969   0.521   6.672
 5969SOL    HW218807   5.930   0.373   6.727
 5970SOL     OW18808   0.265   4.328   2.955
 5970SOL    HW118809   0.226   4.361   3.041
 5970SOL    HW218810   0.222   4.240   2.931
 5971SOL     OW18811   0.542   1.463   2.405
 5971SOL    HW118812   0.487   1.502   2.332
 5971SOL    HW218813   0.560   1.533   2.474
 5972SOL     OW18814   5.560   6.060   6.063
 5972SOL    HW118815   5.574   6.056   5.964
 5972SOL    HW218816   5.560   5.968   6.100
 5973SOL     OW18817   1.512   3.280   1.698
 5973SOL    HW118818   1.440   3.333   1.742
 5973SOL    HW218819   1.598   3.291   1.749
 5974SOL     OW18820   5.780   5.653   6.529
 5974SOL    HW118821   5.693   5.650   6.578
 5974SOL    HW218822   5.846   5.705   6.583
 5975SOL     OW18823   4.367   0.261   1.097
 5975SOL    HW118824   4.424   0.187   1.132
 5975SOL    HW218825   4.394   0.282   1.004
 5976SOL     OW18826   3.897   2.674   6.102
 5976SOL    HW118827   3.827   2.692   6.033
 5976SOL    HW218828   3.987   2.691   6.062
 5977SOL     OW18829   1.449   6.016   0.226
 5977SOL    HW118830   1.502   6.072   0.162
 5977SOL    HW218831   1.411   6.076   0.297
 5978SOL     OW18832   4.245   5.321   1.833
 5978SOL    HW118833   4.243   5.357   1.926
 5978SOL    HW218834   4.335   5.338   1.792
 5979SOL     OW18835   6.015   0.478   2.804
 5979SOL    HW118836   5.993   0.487   2.706
 5979SOL    HW218837   6.085   0.545   2.829
 5980SOL     OW18838   3.613   4.179   1.081
 5980SOL    HW118839   3.705   4.153   1.051
 5980SOL    HW218840   3.546   4.136   1.020
 5981SOL     OW18841   5.642   1.873   1.646
 5981SOL    HW118842   5.565   1.937   1.646
 5981SOL    HW218843   5.617   1.791   1.698
 5982SOL     OW18844   6.217   2.177   1.775
 5982SOL    HW118845   6.289   2.110   1.794
 5982SOL    HW218846   6.152   2.137   1.710
 5983SOL     OW18847   1.254   1.263   3.659
 5983SOL    HW118848   1.340   1.313   3.672
 5983SOL    HW218849   1.180   1.314   3.702
 5984SOL     OW18850   5.870   5.710   3.180
 5984SOL    HW118851   5.863   5.798   3.227
 5984SOL    HW218852   5.780   5.667   3.175
 5985SOL     OW18853   0.054   3.518   3.731
 5985SOL    HW118854   0.033   3.611   3.763
 5985SOL    HW218855   0.035   3.453   3.805
 5986SOL     OW18856   3.188   4.123   4.394
 5986SOL    HW118857   3.105   4.173   4.418
 5986SOL    HW218858   3.210   4.139   4.298
 5987SOL     OW18859   5.665   0.138   3.736
 5987SOL    HW118860   5.758   0.170   3.719
 5987SOL    HW218861   5.668   0.043   3.766
 5988SOL     OW18862   4.069   0.677   5.741
 5988SOL    HW118863   4.097   0.655   5.834
 5988SOL    HW218864   4.090   0.774   5.723
 5989SOL     OW18865   2.486   5.890   6.419
 5989SOL    HW118866   2.585   5.889   6.405
 5989SOL    HW218867   2.448   5.976   6.385
 5990SOL     OW18868   3.132   3.593   0.636
 5990SOL    HW118869   3.063   3.545   0.581
 5990SOL    HW218870   3.096   3.610   0.727
 5991SOL     OW18871   3.820   5.262   6.830
 5991SOL    HW118872   3.914   5.282   6.805
 5991SOL    HW218873   3.769   5.233   6.749
 5992SOL     OW18874   3.668   0.342   1.953
 5992SOL    HW118875   3.693   0.427   1.998
 5992SOL    HW218876   3.568   0.337   1.944
 5993SOL     OW18877   3.515   4.469   5.991
 5993SOL    HW118878   3.563   4.483   5.905
 5993SOL    HW218879   3.421   4.499   5.983
 5994SOL     OW18880   6.796   2.511   1.137
 5994SOL    HW118881   6.779   2.561   1.222
 5994SOL    HW218882   6.816   2.415   1.159
 5995SOL     OW18883   5.016   3.749   2.211
 5995SOL    HW118884   5.028   3.650   2.207
 5995SOL    HW218885   4.934   3.775   2.160
 5996SOL     OW18886   0.740   6.145   0.775
 5996SOL    HW118887   0.802   6.081   0.730
 5996SOL    HW218888   0.780   6.237   0.773
 5997SOL     OW18889   0.135   5.580   2.564
 5997SOL    HW118890   0.143   5.677   2.588
 5997SOL    HW218891   0.226   5.539   2.560
 5998SOL     OW18892   6.411   1.483   3.156
 5998SOL    HW118893   6.400   1.408   3.221
 5998SOL    HW218894   6.395   1.450   3.063
 5999SOL     OW18895   2.473   2.762   1.623
 5999SOL    HW118896   2.535   2.713   1.562
 5999SOL    HW218897   2.457   2.709   1.706
 6000SOL     OW18898   2.492   6.672   0.448
 6000SOL    HW118899   2.448   6.712   0.528
 6000SOL    HW218900   2.591   6.681   0.456
 6001SOL     OW18901   0.236   4.585   6.871
 6001SOL    HW118902   0.325   4.628   6.854
 6001SOL    HW218903   0.179   4.592   6.789
 6002SOL     OW18904   5.786   0.547   0.763
 6002SOL    HW118905   5.700   0.598   0.768
 6002SOL    HW218906   5.851   0.597   0.706
 6003SOL     OW18907   5.971   1.955   4.647
 6003SOL    HW118908   5.957   1.865   4.607
 6003SOL    HW218909   6.015   2.015   4.581
 6004SOL     OW18910   6.722   3.863   3.253
 6004SOL    HW118911   6.765   3.920   3.323
 6004SOL    HW218912   6.792   3.823   3.194
 6005SOL     OW18913   5.101   5.299   4.417
 6005SOL    HW118914   5.035   5.373   4.405
 6005SOL    HW218915   5.053   5.214   4.440
 6006SOL     OW18916   2.903   1.308   5.372
 6006SOL    HW118917   2.917   1.226   5.426
 6006SOL    HW218918   2.960   1.382   5.408
 6007SOL     OW18919   5.228   3.618   5.957
 6007SOL    HW118920   5.253   3.571   6.043
 6007SOL    HW218921   5.138   3.587   5.928
 6008SOL     OW18922   2.456   4.559   5.275
 6008SOL    HW118923   2.537   4.509   5.305
 6008SOL    HW218924   2.375   4.501   5.288
 6009SOL     OW18925   2.170   0.703   3.212
 6009SOL    HW118926   2.118   0.739   3.135
 6009SOL    HW218927   2.252   0.657   3.178
 6010SOL     OW18928   1.147   5.213   4.113
 6010SOL    HW118929   1.187   5.218   4.205
 6010SOL    HW218930   1.117   5.119   4.096
 6011SOL     OW18931   5.466   2.948   2.856
 6011SOL    HW118932   5.546   2.948   2.916
 6011SOL    HW218933   5.429   2.856   2.849
 6012SOL     OW18934   5.835   1.046   0.679
 6012SOL    HW118935   5.922   1.002   0.704
 6012SOL    HW218936   5.813   1.115   0.748
 6013SOL     OW18937   5.244   1.814   2.651
 6013SOL    HW118938   5.274   1.726   2.614
 6013SOL    HW218939   5.252   1.884   2.579
 6014SOL     OW18940   3.944   3.637   2.811
 6014SOL    HW118941   3.890   3.655   2.729
 6014SOL    HW218942   4.011   3.565   2.793
 6015SOL     OW18943   6.421   3.941   4.280
 6015SOL    HW118944   6.413   3.936   4.180
 6015SOL    HW218945   6.388   4.030   4.311
 6016SOL     OW18946   6.221   1.654   5.521
 6016SOL    HW118947   6.153   1.678   5.451
 6016SOL    HW218948   6.195   1.696   5.608
 6017SOL     OW18949   6.267   4.899   3.720
 6017SOL    HW118950   6.194   4.862   3.662
 6017SOL    HW218951   6.237   4.895   3.816
 6018SOL     OW18952   4.022   0.515   6.219
 6018SOL    HW118953   3.974   0.461   6.151
 6018SOL    HW218954   4.042   0.458   6.299
 6019SOL     OW18955   0.826   2.740   4.415
 6019SOL    HW118956   0.856   2.835   4.418
 6019SOL    HW218957   0.826   2.708   4.320
 6020SOL     OW18958   0.983   4.788   1.284
 6020SOL    HW118959   0.998   4.871   1.231
 6020SOL    HW218960   1.049   4.783   1.359
 6021SOL     OW18961   4.247   0.297   2.726
 6021SOL    HW118962   4.236   0.382   2.675
 6021SOL    HW218963   4.310   0.237   2.678
 6022SOL     OW18964   5.338   1.947   3.766
 6022SOL    HW118965   5.413   1.890   3.729
 6022SOL    HW218966   5.335   1.936   3.865
 6023SOL     OW18967   5.795   1.180   1.477
 6023SOL    HW118968   5.733   1.156   1.552
 6023SOL    HW218969   5.882   1.133   1.489
 6024SOL     OW18970   2.159   4.768   2.714
 6024SOL    HW118971   2.209   4.725   2.638
 6024SOL    HW218972   2.067   4.791   2.684
 6025SOL     OW18973   3.994   1.675   3.243
 6025SOL    HW118974   4.075   1.682   3.185
 6025SOL    HW218975   3.928   1.744   3.216
 6026SOL     OW18976   6.942   4.303   5.612
 6026SOL    HW118977   6.944   4.378   5.678
 6026SOL    HW218978   0.015   4.279   5.586
 6027SOL     OW18979   0.888   3.052   5.485
 6027SOL    HW118980   0.803   3.073   5.533
 6027SOL    HW218981   0.950   3.130   5.491
 6028SOL     OW18982   6.692   4.726   0.367
 6028SOL    HW118983   6.699   4.659   0.293
 6028SOL    HW218984   6.599   4.728   0.402
 6029SOL     OW18985   2.473   0.008   4.563
 6029SOL    HW118986   2.481   0.097   4.517
 6029SOL    HW218987   2.563   6.987   4.571
 6030SOL     OW18988   3.860   5.107   2.706
 6030SOL    HW118989   3.800   5.186   2.709
 6030SOL    HW218990   3.807   5.024   2.727
 6031SOL     OW18991   2.994   5.793   4.678
 6031SOL    HW118992   2.943   5.713   4.646
 6031SOL    HW218993   2.996   5.862   4.607
 6032SOL     OW18994   2.405   4.420   2.837
 6032SOL    HW118995   2.466   4.475   2.780
 6032SOL    HW218996   2.402   4.458   2.929
 6033SOL     OW18997   2.494   2.010   2.880
 6033SOL    HW118998   2.397   1.987   2.891
 6033SOL    HW218999   2.543   1.931   2.844
 6034SOL     OW19000   1.235   0.127   5.218
 6034SOL    HW119001   1.280   0.200   5.270
 6034SOL    HW219002   1.266   0.038   5.252
 6035SOL     OW19003   0.764   1.667   2.034
 6035SOL    HW119004   0.695   1.594   2.038
 6035SOL    HW219005   0.739   1.739   2.099
 6036SOL     OW19006   5.142   4.910   3.092
 6036SOL    HW119007   5.178   4.834   3.037
 6036SOL    HW219008   5.203   4.927   3.169
 6037SOL     OW19009   4.191   6.290   0.483
 6037SOL    HW119010   4.289   6.296   0.504
 6037SOL    HW219011   4.177   6.222   0.411
 6038SOL     OW19012   1.924   2.655   6.016
 6038SOL    HW119013   1.849   2.622   5.959
 6038SOL    HW219014   1.928   2.603   6.101
 6039SOL     OW19015   3.062   3.082   2.869
 6039SOL    HW119016   3.061   3.180   2.849
 6039SOL    HW219017   2.994   3.061   2.939
 6040SOL     OW19018   1.504   1.557   0.596
 6040SOL    HW119019   1.478   1.614   0.674
 6040SOL    HW219020   1.561   1.610   0.533
 6041SOL     OW19021   3.063   0.564   5.361
 6041SOL    HW119022   3.047   0.660   5.383
 6041SOL    HW219023   3.159   0.541   5.381
 6042SOL     OW19024   4.444   0.168   2.347
 6042SOL    HW119025   4.367   0.191   2.406
 6042SOL    HW219026   4.448   0.069   2.333
 6043SOL     OW19027   1.051   5.266   5.620
 6043SOL    HW119028   0.984   5.241   5.550
 6043SOL    HW219029   1.013   5.248   5.711
 6044SOL     OW19030   1.417   2.762   1.575
 6044SOL    HW119031   1.416   2.756   1.475
 6044SOL    HW219032   1.457   2.850   1.602
 6045SOL     OW19033   6.437   4.062   2.554
 6045SOL    HW119034   6.353   4.059   2.609
 6045SOL    HW219035   6.498   3.987   2.582
 6046SOL     OW19036   3.516   2.604   0.568
 6046SOL    HW119037   3.576   2.533   0.606
 6046SOL    HW219038   3.497   2.583   0.472
 6047SOL     OW19039   5.288   1.865   1.849
 6047SOL    HW119040   5.317   1.875   1.945
 6047SOL    HW219041   5.194   1.832   1.846
 6048SOL     OW19042   4.256   5.192   5.239
 6048SOL    HW119043   4.349   5.169   5.269
 6048SOL    HW219044   4.203   5.225   5.317
 6049SOL     OW19045   5.112   3.478   0.133
 6049SOL    HW119046   5.124   3.479   0.034
 6049SOL    HW219047   5.015   3.472   0.155
 6050SOL     OW19048   3.429   5.841   6.038
 6050SOL    HW119049   3.509   5.828   5.980
 6050SOL    HW219050   3.346   5.816   5.987
 6051SOL     OW19051   1.942   6.785   4.075
 6051SOL    HW119052   2.030   6.827   4.094
 6051SOL    HW219053   1.903   6.824   3.992
 6052SOL     OW19054   5.819   1.161   0.435
 6052SOL    HW119055   5.809   1.126   0.529
 6052SOL    HW219056   5.879   1.100   0.384
 6053SOL     OW19057   4.528   1.255   6.567
 6053SOL    HW119058   4.598   1.220   6.631
 6053SOL    HW219059   4.549   1.350   6.544
 6054SOL     OW19060   2.396   2.822   0.257
 6054SOL    HW119061   2.468   2.800   0.191
 6054SOL    HW219062   2.307   2.801   0.218
 6055SOL     OW19063   4.903   6.494   5.516
 6055SOL    HW119064   4.932   6.401   5.494
 6055SOL    HW219065   4.982   6.547   5.548
 6056SOL     OW19066   5.183   3.220   4.632
 6056SOL    HW119067   5.146   3.172   4.711
 6056SOL    HW219068   5.269   3.265   4.657
 6057SOL     OW19069   6.376   1.953   3.154
 6057SOL    HW119070   6.403   1.866   3.194
 6057SOL    HW219071   6.277   1.953   3.139
 6058SOL     OW19072   4.657   3.511   1.591
 6058SOL    HW119073   4.685   3.456   1.513
 6058SOL    HW219074   4.607   3.592   1.560
 6059SOL     OW19075   5.166   5.026   5.810
 6059SOL    HW119076   5.089   5.073   5.854
 6059SOL    HW219077   5.179   4.937   5.852
 6060SOL     OW19078   2.711   3.415   6.609
 6060SOL    HW119079   2.692   3.414   6.511
 6060SOL    HW219080   2.672   3.498   6.650
 6061SOL     OW19081   3.806   2.498   1.124
 6061SOL    HW119082   3.718   2.452   1.119
 6061SOL    HW219083   3.850   2.478   1.211
 6062SOL     OW19084   2.694   1.301   5.206
 6062SOL    HW119085   2.616   1.279   5.264
 6062SOL    HW219086   2.778   1.297   5.260
 6063SOL     OW19087   4.330   2.493   6.349
 6063SOL    HW119088   4.324   2.547   6.265
 6063SOL    HW219089   4.425   2.465   6.364
 6064SOL     OW19090   0.929   6.394   1.376
 6064SOL    HW119091   1.011   6.389   1.319
 6064SOL    HW219092   0.907   6.302   1.410
 6065SOL     OW19093   0.668   6.545   2.274
 6065SOL    HW119094   0.716   6.460   2.292
 6065SOL    HW219095   0.645   6.551   2.177
 6066SOL     OW19096   4.691   1.272   6.060
 6066SOL    HW119097   4.697   1.250   6.157
 6066SOL    HW219098   4.646   1.361   6.049
 6067SOL     OW19099   6.009   0.943   5.437
 6067SOL    HW119100   5.984   0.875   5.368
 6067SOL    HW219101   6.031   0.895   5.523
 6068SOL     OW19102   5.190   3.103   5.131
 6068SOL    HW119103   5.131   3.122   5.210
 6068SOL    HW219104   5.142   3.128   5.047
 6069SOL     OW19105   6.001   3.038   4.911
 6069SOL    HW119106   5.903   3.022   4.904
 6069SOL    HW219107   6.020   3.136   4.905
 6070SOL     OW19108   3.041   2.131   0.803
 6070SOL    HW119109   3.080   2.073   0.732
 6070SOL    HW219110   2.955   2.170   0.771
 6071SOL     OW19111   5.682   5.802   4.606
 6071SOL    HW119112   5.754   5.853   4.654
 6071SOL    HW219113   5.690   5.817   4.508
 6072SOL     OW19114   6.504   6.688   1.276
 6072SOL    HW119115   6.591   6.721   1.239
 6072SOL    HW219116   6.520   6.605   1.330
 6073SOL     OW19117   5.827   3.275   0.620
 6073SOL    HW119118   5.850   3.229   0.534
 6073SOL    HW219119   5.729   3.295   0.621
 6074SOL     OW19120   1.060   6.450   2.464
 6074SOL    HW119121   1.100   6.541   2.479
 6074SOL    HW219122   1.100   6.408   2.383
 6075SOL     OW19123   5.434   0.575   5.727
 6075SOL    HW119124   5.455   0.620   5.640
 6075SOL    HW219125   5.484   0.618   5.801
 6076SOL     OW19126   3.632   5.628   4.153
 6076SOL    HW119127   3.624   5.603   4.249
 6076SOL    HW219128   3.572   5.705   4.133
 6077SOL     OW19129   6.132   5.338   0.673
 6077SOL    HW119130   6.097   5.399   0.601
 6077SOL    HW219131   6.121   5.243   0.644
 6078SOL     OW19132   4.861   5.216   0.374
 6078SOL    HW119133   4.780   5.188   0.323
 6078SOL    HW219134   4.839   5.222   0.471
 6079SOL     OW19135   4.561   3.920   5.862
 6079SOL    HW119136   4.559   4.007   5.912
 6079SOL    HW219137   4.482   3.915   5.802
 6080SOL     OW19138   0.050   6.603   1.281
 6080SOL    HW119139   0.050   6.637   1.187
 6080SOL    HW219140   0.074   6.677   1.344
 6081SOL     OW19141   6.486   2.664   5.206
 6081SOL    HW119142   6.470   2.565   5.207
 6081SOL    HW219143   6.582   2.682   5.230
 6082SOL     OW19144   1.868   1.504   3.526
 6082SOL    HW119145   1.856   1.408   3.501
 6082SOL    HW219146   1.947   1.514   3.586
 6083SOL     OW19147   6.379   5.774   0.079
 6083SOL    HW119148   6.399   5.738   0.170
 6083SOL    HW219149   6.330   5.705   0.025
 6084SOL     OW19150   0.646   0.099   3.322
 6084SOL    HW119151   0.576   0.167   3.345
 6084SOL    HW219152   0.618   0.010   3.357
 6085SOL     OW19153   0.107   6.147   0.475
 6085SOL    HW119154   0.065   6.106   0.394
 6085SOL    HW219155   0.095   6.246   0.473
 6086SOL     OW19156   3.297   1.182   5.985
 6086SOL    HW119157   3.200   1.184   5.961
 6086SOL    HW219158   3.324   1.272   6.019
 6087SOL     OW19159   3.741   5.677   1.387
 6087SOL    HW119160   3.710   5.595   1.434
 6087SOL    HW219161   3.671   5.706   1.321
 6088SOL     OW19162   5.545   6.128   4.404
 6088SOL    HW119163   5.462   6.108   4.456
 6088SOL    HW219164   5.524   6.190   4.328
 6089SOL     OW19165   5.447   3.028   2.113
 6089SOL    HW119166   5.471   2.947   2.166
 6089SOL    HW219167   5.530   3.079   2.090
 6090SOL     OW19168   2.271   6.008   4.931
 6090SOL    HW119169   2.297   6.102   4.907
 6090SOL    HW219170   2.328   5.976   5.007
 6091SOL     OW19171   1.762   1.129   0.186
 6091SOL    HW119172   1.668   1.141   0.218
 6091SOL    HW219173   1.779   1.192   0.110
 6092SOL     OW19174   4.188   0.009   2.435
 6092SOL    HW119175   4.162   0.056   2.351
 6092SOL    HW219176   4.192   6.932   2.418
 6093SOL     OW19177   1.975   3.424   1.901
 6093SOL    HW119178   1.982   3.364   1.820
 6093SOL    HW219179   2.066   3.442   1.937
 6094SOL     OW19180   2.088   6.652   1.996
 6094SOL    HW119181   2.081   6.564   1.949
 6094SOL    HW219182   2.157   6.645   2.069
 6095SOL     OW19183   5.443   4.064   1.278
 6095SOL    HW119184   5.523   4.020   1.238
 6095SOL    HW219185   5.422   4.022   1.366
 6096SOL     OW19186   5.761   6.657   4.110
 6096SOL    HW119187   5.860   6.668   4.099
 6096SOL    HW219188   5.724   6.737   4.158
 6097SOL     OW19189   2.192   5.786   1.912
 6097SOL    HW119190   2.177   5.860   1.847
 6097SOL    HW219191   2.128   5.795   1.989
 6098SOL     OW19192   0.988   0.998   4.853
 6098SOL    HW119193   1.058   0.939   4.811
 6098SOL    HW219194   0.925   1.031   4.783
 6099SOL     OW19195   5.652   6.280   0.399
 6099SOL    HW119196   5.700   6.366   0.387
 6099SOL    HW219197   5.579   6.272   0.331
 6100SOL     OW19198   5.565   6.130   0.802
 6100SOL    HW119199   5.470   6.102   0.786
 6100SOL    HW219200   5.576   6.227   0.779
 6101SOL     OW19201   6.452   3.568   3.787
 6101SOL    HW119202   6.363   3.612   3.799
 6101SOL    HW219203   6.507   3.580   3.870
 6102SOL     OW19204   3.293   6.307   3.141
 6102SOL    HW119205   3.332   6.216   3.157
 6102SOL    HW219206   3.252   6.309   3.049
 6103SOL     OW19207   6.477   1.934   0.925
 6103SOL    HW119208   6.456   1.841   0.956
 6103SOL    HW219209   6.400   1.994   0.946
 6104SOL     OW19210   5.799   0.956   5.713
 6104SOL    HW119211   5.793   1.055   5.705
 6104SOL    HW219212   5.870   0.932   5.780
 6105SOL     OW19213   3.229   6.252   0.225
 6105SOL    HW119214   3.198   6.281   0.134
 6105SOL    HW219215   3.290   6.322   0.263
 6106SOL     OW19216   1.404   3.878   6.586
 6106SOL    HW119217   1.330   3.898   6.649
 6106SOL    HW219218   1.441   3.786   6.606
 6107SOL     OW19219   4.086   5.744   4.593
 6107SOL    HW119220   4.109   5.831   4.548
 6107SOL    HW219221   4.033   5.687   4.530
 6108SOL     OW19222   1.975   3.246   1.674
 6108SOL    HW119223   1.916   3.167   1.691
 6108SOL    HW219224   2.071   3.218   1.677
 6109SOL     OW19225   5.932   1.963   5.099
 6109SOL    HW119226   5.937   1.866   5.121
 6109SOL    HW219227   5.990   1.983   5.020
 6110SOL     OW19228   3.772   3.996   0.714
 6110SOL    HW119229   3.722   3.945   0.645
 6110SOL    HW219230   3.868   3.967   0.714
 6111SOL     OW19231   1.712   4.020   2.543
 6111SOL    HW119232   1.629   4.025   2.599
 6111SOL    HW219233   1.740   3.925   2.532
 6112SOL     OW19234   3.682   0.232   2.405
 6112SOL    HW119235   3.760   0.295   2.407
 6112SOL    HW219236   3.658   0.206   2.499
 6113SOL     OW19237   3.076   1.558   6.655
 6113SOL    HW119238   3.174   1.559   6.635
 6113SOL    HW219239   3.030   1.627   6.598
 6114SOL     OW19240   5.368   4.883   1.637
 6114SOL    HW119241   5.419   4.963   1.606
 6114SOL    HW219242   5.270   4.900   1.628
 6115SOL     OW19243   5.490   6.947   4.046
 6115SOL    HW119244   5.499   0.025   4.046
 6115SOL    HW219245   5.565   6.907   3.993
 6116SOL     OW19246   4.113   1.431   6.029
 6116SOL    HW119247   4.119   1.345   5.980
 6116SOL    HW219248   4.018   1.450   6.053
 6117SOL     OW19249   1.447   1.352   3.313
 6117SOL    HW119250   1.475   1.318   3.223
 6117SOL    HW219251   1.515   1.324   3.381
 6118SOL     OW19252   0.146   0.851   1.788
 6118SOL    HW119253   0.160   0.944   1.753
 6118SOL    HW219254   0.134   0.855   1.887
 6119SOL     OW19255   0.719   4.126   6.742
 6119SOL    HW119256   0.639   4.146   6.684
 6119SOL    HW219257   0.728   4.196   6.812
 6120SOL     OW19258   3.840   6.469   5.234
 6120SOL    HW119259   3.758   6.421   5.266
 6120SOL    HW219260   3.858   6.444   5.139
 6121SOL     OW19261   0.680   3.432   5.456
 6121SOL    HW119262   0.694   3.526   5.488
 6121SOL    HW219263   0.592   3.425   5.408
 6122SOL     OW19264   4.424   5.555   0.364
 6122SOL    HW119265   4.457   5.464   0.338
 6122SOL    HW219266   4.479   5.625   0.317
 6123SOL     OW19267   5.279   6.861   6.665
 6123SOL    HW119268   5.336   6.888   6.587
 6123SOL    HW219269   5.209   6.796   6.634
 6124SOL     OW19270   1.768   6.810   5.802
 6124SOL    HW119271   1.835   6.796   5.730
 6124SOL    HW219272   1.792   6.892   5.855
 6125SOL     OW19273   2.118   4.411   0.880
 6125SOL    HW119274   2.077   4.472   0.812
 6125SOL    HW219275   2.167   4.337   0.833
 6126SOL     OW19276   0.930   6.726   4.428
 6126SOL    HW119277   0.945   6.676   4.513
 6126SOL    HW219278   0.954   6.822   4.442
 6127SOL     OW19279   3.297   0.504   1.036
 6127SOL    HW119280   3.364   0.566   1.076
 6127SOL    HW219281   3.213   0.505   1.090
 6128SOL     OW19282   5.703   4.039   0.309
 6128SOL    HW119283   5.617   3.990   0.319
 6128SOL    HW219284   5.772   3.979   0.270
 6129SOL     OW19285   6.776   3.116   3.041
 6129SOL    HW119286   6.841   3.061   2.989
 6129SOL    HW219287   6.807   3.211   3.043
 6130SOL     OW19288   5.901   2.383   2.690
 6130SOL    HW119289   5.852   2.300   2.663
 6130SOL    HW219290   5.915   2.441   2.610
 6131SOL     OW19291   0.128   1.504   5.150
 6131SOL    HW119292   0.218   1.460   5.158
 6131SOL    HW219293   0.065   1.443   5.102
 6132SOL     OW19294   5.093   2.124   0.287
 6132SOL    HW119295   5.024   2.196   0.277
 6132SOL    HW219296   5.172   2.146   0.230
 6133SOL     OW19297   1.848   3.455   2.246
 6133SOL    HW119298   1.781   3.383   2.264
 6133SOL    HW219299   1.927   3.417   2.199
 6134SOL     OW19300   3.772   4.797   6.639
 6134SOL    HW119301   3.707   4.818   6.712
 6134SOL    HW219302   3.790   4.880   6.586
 6135SOL     OW19303   0.329   0.717   0.741
 6135SOL    HW119304   0.261   0.668   0.796
 6135SOL    HW219305   0.354   0.802   0.788
 6136SOL     OW19306   1.335   3.094   2.095
 6136SOL    HW119307   1.272   3.030   2.050
 6136SOL    HW219308   1.371   3.051   2.177
 6137SOL     OW19309   6.505   3.373   2.882
 6137SOL    HW119310   6.509   3.331   2.792
 6137SOL    HW219311   6.511   3.473   2.874
 6138SOL     OW19312   3.677   6.479   2.748
 6138SOL    HW119313   3.646   6.384   2.734
 6138SOL    HW219314   3.734   6.484   2.830
 6139SOL     OW19315   1.896   6.603   6.182
 6139SOL    HW119316   1.831   6.652   6.124
 6139SOL    HW219317   1.857   6.590   6.273
 6140SOL     OW19318   0.877   6.403   1.638
 6140SOL    HW119319   0.836   6.312   1.632
 6140SOL    HW219320   0.897   6.437   1.545
 6141SOL     OW19321   0.004   6.751   6.963
 6141SOL    HW119322   7.002   6.654   6.977
 6141SOL    HW219323   0.032   6.791   0.029
 6142SOL     OW19324   0.943   6.756   0.340
 6142SOL    HW119325   1.035   6.781   0.309
 6142SOL    HW219326   0.943   6.662   0.373
 6143SOL     OW19327   6.910   3.729   1.702
 6143SOL    HW119328   6.821   3.766   1.678
 6143SOL    HW219329   6.914   3.632   1.676
 6144SOL     OW19330   5.205   4.752   3.410
 6144SOL    HW119331   5.224   4.842   3.370
 6144SOL    HW219332   5.255   4.743   3.496
 6145SOL     OW19333   4.955   5.112   3.151
 6145SOL    HW119334   5.024   5.040   3.153
 6145SOL    HW219335   4.880   5.087   3.213
 6146SOL     OW19336   3.172   5.638   3.994
 6146SOL    HW119337   3.214   5.598   3.912
 6146SOL    HW219338   3.132   5.565   4.050
 6147SOL     OW19339   2.237   1.828   4.116
 6147SOL    HW119340   2.298   1.901   4.144
 6147SOL    HW219341   2.148   1.839   4.160
 6148SOL     OW19342   5.276   6.687   5.186
 6148SOL    HW119343   5.335   6.680   5.267
 6148SOL    HW219344   5.189   6.729   5.212
 6149SOL     OW19345   2.622   5.838   1.393
 6149SOL    HW119346   2.546   5.875   1.339
 6149SOL    HW219347   2.636   5.894   1.474
 6150SOL     OW19348   4.800   5.154   6.654
 6150SOL    HW119349   4.753   5.076   6.614
 6150SOL    HW219350   4.852   5.202   6.583
 6151SOL     OW19351   6.179   4.686   6.524
 6151SOL    HW119352   6.200   4.751   6.597
 6151SOL    HW219353   6.252   4.687   6.456
 6152SOL     OW19354   6.361   5.043   4.678
 6152SOL    HW119355   6.348   5.140   4.700
 6152SOL    HW219356   6.400   5.035   4.586
 6153SOL     OW19357   5.097   4.233   1.532
 6153SOL    HW119358   5.042   4.296   1.477
 6153SOL    HW219359   5.187   4.221   1.488
 6154SOL     OW19360   5.544   2.179   2.907
 6154SOL    HW119361   5.460   2.138   2.873
 6154SOL    HW219362   5.564   2.144   2.998
 6155SOL     OW19363   1.757   1.716   3.672
 6155SOL    HW119364   1.836   1.759   3.716
 6155SOL    HW219365   1.787   1.635   3.622
 6156SOL     OW19366   4.323   4.169   1.447
 6156SOL    HW119367   4.306   4.209   1.356
 6156SOL    HW219368   4.305   4.238   1.517
 6157SOL     OW19369   6.916   1.180   4.439
 6157SOL    HW119370   7.013   1.167   4.422
 6157SOL    HW219371   6.902   1.203   4.535
 6158SOL     OW19372   3.786   2.217   6.064
 6158SOL    HW119373   3.861   2.246   6.006
 6158SOL    HW219374   3.701   2.258   6.033
 6159SOL     OW19375   5.430   2.529   2.381
 6159SOL    HW119376   5.404   2.591   2.455
 6159SOL    HW219377   5.359   2.461   2.367
 6160SOL     OW19378   5.195   1.436   6.538
 6160SOL    HW119379   5.264   1.364   6.537
 6160SOL    HW219380   5.177   1.466   6.444
 6161SOL     OW19381   4.839   1.603   5.413
 6161SOL    HW119382   4.769   1.540   5.380
 6161SOL    HW219383   4.854   1.675   5.345
 6162SOL     OW19384   0.883   6.101   3.281
 6162SOL    HW119385   0.970   6.128   3.322
 6162SOL    HW219386   0.881   6.131   3.185
 6163SOL     OW19387   6.530   6.864   0.932
 6163SOL    HW119388   6.588   6.902   1.003
 6163SOL    HW219389   6.451   6.818   0.973
 6164SOL     OW19390   3.875   3.946   2.636
 6164SOL    HW119391   3.936   4.018   2.602
 6164SOL    HW219392   3.840   3.893   2.558
 6165SOL     OW19393   5.005   1.688   0.008
 6165SOL    HW119394   5.002   1.593   0.039
 6165SOL    HW219395   5.026   1.690   6.931
 6166SOL     OW19396   5.596   1.491   6.631
 6166SOL    HW119397   5.508   1.521   6.669
 6166SOL    HW219398   5.584   1.402   6.586
 6167SOL     OW19399   1.159   5.661   3.154
 6167SOL    HW119400   1.156   5.601   3.234
 6167SOL    HW219401   1.103   5.621   3.081
 6168SOL     OW19402   1.939   3.789   2.135
 6168SOL    HW119403   1.890   3.702   2.128
 6168SOL    HW219404   1.981   3.811   2.047
 6169SOL     OW19405   0.959   1.994   0.236
 6169SOL    HW119406   0.984   2.061   0.306
 6169SOL    HW219407   0.998   1.905   0.259
 6170SOL     OW19408   1.248   4.277   5.373
 6170SOL    HW119409   1.154   4.282   5.404
 6170SOL    HW219410   1.305   4.234   5.443
 6171SOL     OW19411   1.012   3.221   1.053
 6171SOL    HW119412   1.042   3.130   1.081
 6171SOL    HW219413   1.084   3.264   0.998
 6172SOL     OW19414   1.373   2.874   2.609
 6172SOL    HW119415   1.362   2.806   2.536
 6172SOL    HW219416   1.469   2.899   2.617
 6173SOL     OW19417   6.631   5.532   1.858
 6173SOL    HW119418   6.608   5.569   1.768
 6173SOL    HW219419   6.611   5.434   1.860
 6174SOL     OW19420   5.829   4.827   3.706
 6174SOL    HW119421   5.783   4.767   3.640
 6174SOL    HW219422   5.869   4.905   3.658
 6175SOL     OW19423   4.606   0.476   3.496
 6175SOL    HW119424   4.625   0.385   3.532
 6175SOL    HW219425   4.642   0.484   3.403
 6176SOL     OW19426   4.981   3.906   6.017
 6176SOL    HW119427   4.934   3.892   6.105
 6176SOL    HW219428   4.930   3.861   5.944
 6177SOL     OW19429   5.642   0.923   1.227
 6177SOL    HW119430   5.579   0.954   1.298
 6177SOL    HW219431   5.607   0.838   1.186
 6178SOL     OW19432   4.740   5.221   2.739
 6178SOL    HW119433   4.647   5.231   2.704
 6178SOL    HW219434   4.762   5.124   2.750
 6179SOL     OW19435   7.012   4.423   3.596
 6179SOL    HW119436   6.923   4.462   3.620
 6179SOL    HW219437   0.063   4.490   3.614
 6180SOL     OW19438   3.576   4.292   0.152
 6180SOL    HW119439   3.622   4.311   0.065
 6180SOL    HW219440   3.634   4.231   0.207
 6181SOL     OW19441   3.899   6.934   1.000
 6181SOL    HW119442   3.990   6.907   1.031
 6181SOL    HW219443   3.831   6.869   1.033
 6182SOL     OW19444   5.456   3.048   5.180
 6182SOL    HW119445   5.369   3.075   5.140
 6182SOL    HW219446   5.530   3.071   5.116
 6183SOL     OW19447   1.278   2.406   2.836
 6183SOL    HW119448   1.321   2.465   2.768
 6183SOL    HW219449   1.303   2.310   2.818
 6184SOL     OW19450   1.947   6.992   6.490
 6184SOL    HW119451   2.044   6.975   6.506
 6184SOL    HW219452   1.901   6.906   6.468
 6185SOL     OW19453   0.624   3.773   5.889
 6185SOL    HW119454   0.697   3.822   5.937
 6185SOL    HW219455   0.623   3.801   5.793
 6186SOL     OW19456   6.897   0.259   0.085
 6186SOL    HW119457   6.821   0.216   0.134
 6186SOL    HW219458   6.972   0.275   0.149
 6187SOL     OW19459   4.928   4.918   3.391
 6187SOL    HW119460   4.908   4.849   3.322
 6187SOL    HW219461   5.014   4.896   3.436
 6188SOL     OW19462   2.153   0.838   0.744
 6188SOL    HW119463   2.229   0.777   0.724
 6188SOL    HW219464   2.086   0.790   0.802
 6189SOL     OW19465   4.628   4.402   3.153
 6189SOL    HW119466   4.648   4.424   3.057
 6189SOL    HW219467   4.530   4.415   3.170
 6190SOL     OW19468   0.763   4.013   5.752
 6190SOL    HW119469   0.837   4.075   5.779
 6190SOL    HW219470   0.801   3.932   5.707
 6191SOL     OW19471   3.102   2.024   0.078
 6191SOL    HW119472   3.069   2.115   0.053
 6191SOL    HW219473   3.070   1.957   0.010
 6192SOL     OW19474   3.313   2.391   5.846
 6192SOL    HW119475   3.267   2.399   5.934
 6192SOL    HW219476   3.252   2.350   5.779
 6193SOL     OW19477   5.240   0.846   2.256
 6193SOL    HW119478   5.327   0.796   2.253
 6193SOL    HW219479   5.223   0.887   2.166
 6194SOL     OW19480   1.403   7.019   1.767
 6194SOL    HW119481   1.453   0.059   1.828
 6194SOL    HW219482   1.468   6.966   1.712
 6195SOL     OW19483   3.837   6.300   6.279
 6195SOL    HW119484   3.859   6.334   6.188
 6195SOL    HW219485   3.915   6.316   6.340
 6196SOL     OW19486   5.399   3.001   1.515
 6196SOL    HW119487   5.397   2.986   1.614
 6196SOL    HW219488   5.397   2.913   1.468
 6197SOL     OW19489   4.145   4.418   0.536
 6197SOL    HW119490   4.151   4.322   0.560
 6197SOL    HW219491   4.077   4.431   0.464
 6198SOL     OW19492   4.249   6.197   2.275
 6198SOL    HW119493   4.333   6.201   2.328
 6198SOL    HW219494   4.209   6.288   2.269
 6199SOL     OW19495   1.081   1.191   0.572
 6199SOL    HW119496   0.992   1.232   0.552
 6199SOL    HW219497   1.139   1.258   0.619
 6200SOL     OW19498   1.455   1.605   5.880
 6200SOL    HW119499   1.498   1.598   5.970
 6200SOL    HW219500   1.477   1.524   5.826
 6201SOL     OW19501   0.511   3.550   5.021
 6201SOL    HW119502   0.571   3.582   4.948
 6201SOL    HW219503   0.503   3.450   5.016
 6202SOL     OW19504   3.492   1.594   2.208
 6202SOL    HW119505   3.505   1.628   2.301
 6202SOL    HW219506   3.529   1.501   2.201
 6203SOL     OW19507   6.868   6.426   2.447
 6203SOL    HW119508   6.899   6.333   2.471
 6203SOL    HW219509   6.856   6.479   2.531
 6204SOL     OW19510   0.600   5.060   4.573
 6204SOL    HW119511   0.606   5.060   4.672
 6204SOL    HW219512   0.558   5.146   4.542
 6205SOL     OW19513   6.465   5.730   0.356
 6205SOL    HW119514   6.500   5.714   0.448
 6205SOL    HW219515   6.398   5.659   0.332
 6206SOL     OW19516   6.348   1.787   3.596
 6206SOL    HW119517   6.272   1.748   3.545
 6206SOL    HW219518   6.400   1.850   3.537
 6207SOL     OW19519   0.800   5.100   4.855
 6207SOL    HW119520   0.761   5.191   4.842
 6207SOL    HW219521   0.891   5.108   4.896
 6208SOL     OW19522   5.287   2.156   5.845
 6208SOL    HW119523   5.268   2.060   5.863
 6208SOL    HW219524   5.210   2.212   5.877
 6209SOL     OW19525   4.122   5.809   6.756
 6209SOL    HW119526   4.214   5.810   6.717
 6209SOL    HW219527   4.056   5.838   6.687
 6210SOL     OW19528   5.059   3.199   3.576
 6210SOL    HW119529   5.121   3.134   3.533
 6210SOL    HW219530   5.112   3.264   3.631
 6211SOL     OW19531   2.813   6.492   5.569
 6211SOL    HW119532   2.724   6.517   5.531
 6211SOL    HW219533   2.858   6.574   5.605
 6212SOL     OW19534   2.090   5.312   4.527
 6212SOL    HW119535   2.054   5.291   4.618
 6212SOL    HW219536   2.032   5.269   4.458
 6213SOL     OW19537   6.370   0.569   0.622
 6213SOL    HW119538   6.313   0.570   0.704
 6213SOL    HW219539   6.460   0.607   0.645
 6214SOL     OW19540   4.804   4.905   4.316
 6214SOL    HW119541   4.793   4.845   4.237
 6214SOL    HW219542   4.883   4.873   4.370
 6215SOL     OW19543   4.130   1.642   0.443
 6215SOL    HW119544   4.197   1.716   0.430
 6215SOL    HW219545   4.144   1.601   0.533
 6216SOL     OW19546   6.375   1.746   2.115
 6216SOL    HW119547   6.283   1.732   2.152
 6216SOL    HW219548   6.418   1.658   2.100
 6217SOL     OW19549   0.279   3.500   2.906
 6217SOL    HW119550   0.226   3.503   2.991
 6217SOL    HW219551   0.249   3.573   2.845
 6218SOL     OW19552   3.814   6.126   0.059
 6218SOL    HW119553   3.865   6.211   0.069
 6218SOL    HW219554   3.878   6.049   0.063
 6219SOL     OW19555   1.546   2.002   4.517
 6219SOL    HW119556   1.623   2.064   4.506
 6219SOL    HW219557   1.518   2.000   4.613
 6220SOL     OW19558   1.840   1.493   4.793
 6220SOL    HW119559   1.910   1.540   4.846
 6220SOL    HW219560   1.783   1.562   4.747
 6221SOL     OW19561   5.908   5.847   6.684
 6221SOL    HW119562   5.899   5.946   6.674
 6221SOL    HW219563   5.996   5.818   6.645
 6222SOL     OW19564   1.153   6.053   1.356
 6222SOL    HW119565   1.237   6.004   1.379
 6222SOL    HW219566   1.165   6.101   1.269
 6223SOL     OW19567   1.379   5.247   3.961
 6223SOL    HW119568   1.294   5.236   4.012
 6223SOL    HW219569   1.457   5.224   4.020
 6224SOL     OW19570   2.879   1.670   6.065
 6224SOL    HW119571   2.971   1.669   6.105
 6224SOL    HW219572   2.875   1.603   5.991
 6225SOL     OW19573   3.931   3.742   6.861
 6225SOL    HW119574   3.994   3.718   6.786
 6225SOL    HW219575   3.840   3.758   6.824
 6226SOL     OW19576   0.012   1.845   5.444
 6226SOL    HW119577   0.110   1.867   5.446
 6226SOL    HW219578   7.020   1.751   5.412
 6227SOL     OW19579   3.156   5.851   5.324
 6227SOL    HW119580   3.063   5.845   5.288
 6227SOL    HW219581   3.221   5.848   5.248
 6228SOL     OW19582   1.406   3.014   2.351
 6228SOL    HW119583   1.377   3.066   2.431
 6228SOL    HW219584   1.464   2.938   2.380
 6229SOL     OW19585   0.650   2.198   3.754
 6229SOL    HW119586   0.668   2.134   3.829
 6229SOL    HW219587   0.553   2.192   3.728
 6230SOL     OW19588   0.692   1.486   3.422
 6230SOL    HW119589   0.679   1.495   3.521
 6230SOL    HW219590   0.603   1.475   3.377
 6231SOL     OW19591   6.160   5.998   0.382
 6231SOL    HW119592   6.107   6.025   0.462
 6231SOL    HW219593   6.106   5.934   0.327
 6232SOL     OW19594   6.794   0.842   0.415
 6232SOL    HW119595   6.855   0.839   0.495
 6232SOL    HW219596   6.845   0.876   0.336
 6233SOL     OW19597   6.914   1.713   1.087
 6233SOL    HW119598   6.937   1.706   0.990
 6233SOL    HW219599   6.909   1.621   1.127
 6234SOL     OW19600   6.687   1.008   5.660
 6234SOL    HW119601   6.753   1.055   5.602
 6234SOL    HW219602   6.701   0.909   5.652
 6235SOL     OW19603   0.258   6.742   0.925
 6235SOL    HW119604   0.253   6.772   0.829
 6235SOL    HW219605   0.190   6.793   0.978
 6236SOL     OW19606   1.014   3.942   0.815
 6236SOL    HW119607   0.942   3.913   0.878
 6236SOL    HW219608   1.068   4.015   0.857
 6237SOL     OW19609   3.476   0.494   6.422
 6237SOL    HW119610   3.427   0.501   6.509
 6237SOL    HW219611   3.571   0.466   6.439
 6238SOL     OW19612   3.795   4.879   2.892
 6238SOL    HW119613   3.702   4.913   2.896
 6238SOL    HW219614   3.814   4.824   2.974
 6239SOL     OW19615   2.943   0.725   1.721
 6239SOL    HW119616   3.012   0.704   1.652
 6239SOL    HW219617   2.852   0.721   1.679
 6240SOL     OW19618   1.945   3.244   5.465
 6240SOL    HW119619   1.908   3.217   5.377
 6240SOL    HW219620   2.041   3.271   5.454
 6241SOL     OW19621   3.121   0.226   1.418
 6241SOL    HW119622   3.130   0.140   1.468
 6241SOL    HW219623   3.201   0.283   1.436
 6242SOL     OW19624   4.545   0.490   3.988
 6242SOL    HW119625   4.465   0.549   3.999
 6242SOL    HW219626   4.518   0.394   3.999
 6243SOL     OW19627   6.218   6.579   4.555
 6243SOL    HW119628   6.228   6.619   4.463
 6243SOL    HW219629   6.262   6.490   4.557
 6244SOL     OW19630   6.635   2.416   2.353
 6244SOL    HW119631   6.613   2.321   2.373
 6244SOL    HW219632   6.601   2.474   2.428
 6245SOL     OW19633   1.728   4.105   0.274
 6245SOL    HW119634   1.659   4.125   0.205
 6245SOL    HW219635   1.749   4.007   0.273
 6246SOL     OW19636   1.468   1.966   5.681
 6246SOL    HW119637   1.534   2.025   5.728
 6246SOL    HW219638   1.470   1.985   5.583
 6247SOL     OW19639   6.934   5.159   4.360
 6247SOL    HW119640   6.927   5.190   4.265
 6247SOL    HW219641   6.870   5.084   4.375
 6248SOL     OW19642   3.141   3.399   0.378
 6248SOL    HW119643   3.045   3.375   0.393
 6248SOL    HW219644   3.198   3.358   0.449
 6249SOL     OW19645   0.039   3.915   0.478
 6249SOL    HW119646   0.116   3.972   0.507
 6249SOL    HW219647   0.060   3.874   0.389
 6250SOL     OW19648   6.722   0.515   0.128
 6250SOL    HW119649   6.809   0.526   0.176
 6250SOL    HW219650   6.695   0.419   0.128
 6251SOL     OW19651   3.575   6.017   6.574
 6251SOL    HW119652   3.565   6.102   6.523
 6251SOL    HW219653   3.659   6.021   6.629
 6252SOL     OW19654   2.336   6.059   5.523
 6252SOL    HW119655   2.393   6.142   5.522
 6252SOL    HW219656   2.394   5.979   5.505
 6253SOL     OW19657   2.332   4.733   3.903
 6253SOL    HW119658   2.402   4.795   3.939
 6253SOL    HW219659   2.241   4.767   3.928
 6254SOL     OW19660   5.848   1.345   1.272
 6254SOL    HW119661   5.839   1.278   1.346
 6254SOL    HW219662   5.770   1.407   1.274
 6255SOL     OW19663   3.251   0.575   0.767
 6255SOL    HW119664   3.249   0.563   0.866
 6255SOL    HW219665   3.250   0.672   0.745
 6256SOL     OW19666   3.956   5.462   1.891
 6256SOL    HW119667   3.978   5.456   1.794
 6256SOL    HW219668   3.997   5.385   1.939
 6257SOL     OW19669   5.285   2.244   0.724
 6257SOL    HW119670   5.227   2.323   0.744
 6257SOL    HW219671   5.245   2.191   0.650
 6258SOL     OW19672   3.598   0.680   3.236
 6258SOL    HW119673   3.527   0.722   3.291
 6258SOL    HW219674   3.560   0.606   3.182
 6259SOL     OW19675   1.854   2.507   6.926
 6259SOL    HW119676   1.761   2.525   6.961
 6259SOL    HW219677   1.849   2.475   6.832
 6260SOL     OW19678   3.471   5.833   0.216
 6260SOL    HW119679   3.471   5.753   0.156
 6260SOL    HW219680   3.410   5.818   0.293
 6261SOL     OW19681   4.075   1.366   7.005
 6261SOL    HW119682   4.164   1.322   7.012
 6261SOL    HW219683   4.050   1.376   6.909
 6262SOL     OW19684   2.583   6.417   1.682
 6262SOL    HW119685   2.493   6.376   1.695
 6262SOL    HW219686   2.583   6.471   1.598
 6263SOL     OW19687   0.185   0.618   4.941
 6263SOL    HW119688   0.164   0.662   4.854
 6263SOL    HW219689   0.170   0.683   5.016
 6264SOL     OW19690   1.577   0.124   1.960
 6264SOL    HW119691   1.672   0.155   1.950
 6264SOL    HW219692   1.525   0.192   2.011
 6265SOL     OW19693   4.064   3.288   0.580
 6265SOL    HW119694   4.066   3.192   0.551
 6265SOL    HW219695   3.972   3.311   0.612
 6266SOL     OW19696   4.051   0.923   3.981
 6266SOL    HW119697   4.064   0.841   3.926
 6266SOL    HW219698   4.138   0.974   3.986
 6267SOL     OW19699   2.623   6.976   5.874
 6267SOL    HW119700   2.643   6.961   5.777
 6267SOL    HW219701   2.529   7.009   5.884
 6268SOL     OW19702   2.864   0.289   3.168
 6268SOL    HW119703   2.934   0.321   3.104
 6268SOL    HW219704   2.778   0.336   3.150
 6269SOL     OW19705   0.361   6.733   1.805
 6269SOL    HW119706   0.304   6.725   1.723
 6269SOL    HW219707   0.452   6.695   1.786
 6270SOL     OW19708   1.622   0.265   6.145
 6270SOL    HW119709   1.604   0.187   6.205
 6270SOL    HW219710   1.536   0.298   6.106
 6271SOL     OW19711   6.069   2.080   6.513
 6271SOL    HW119712   6.120   2.026   6.446
 6271SOL    HW219713   6.014   2.148   6.465
 6272SOL     OW19714   0.608   2.585   0.148
 6272SOL    HW119715   0.514   2.556   0.129
 6272SOL    HW219716   0.615   2.614   0.244
 6273SOL     OW19717   0.948   6.219   2.592
 6273SOL    HW119718   1.018   6.154   2.561
 6273SOL    HW219719   0.968   6.310   2.555
 6274SOL     OW19720   3.324   6.112   5.958
 6274SOL    HW119721   3.386   6.187   5.982
 6274SOL    HW219722   3.309   6.054   6.038
 6275SOL     OW19723   2.421   6.557   6.496
 6275SOL    HW119724   2.366   6.636   6.469
 6275SOL    HW219725   2.367   6.474   6.486
 6276SOL     OW19726   2.048   4.249   3.804
 6276SOL    HW119727   1.976   4.250   3.874
 6276SOL    HW219728   2.116   4.180   3.827
 6277SOL     OW19729   4.727   3.451   1.193
 6277SOL    HW119730   4.795   3.474   1.123
 6277SOL    HW219731   4.741   3.356   1.222
 6278SOL     OW19732   5.499   6.829   5.128
 6278SOL    HW119733   5.417   6.783   5.093
 6278SOL    HW219734   5.508   6.812   5.226
 6279SOL     OW19735   3.904   6.416   6.928
 6279SOL    HW119736   3.826   6.414   6.865
 6279SOL    HW219737   3.982   6.372   6.885
 6280SOL     OW19738   1.058   1.828   4.750
 6280SOL    HW119739   1.076   1.813   4.653
 6280SOL    HW219740   1.123   1.895   4.786
 6281SOL     OW19741   0.411   4.881   3.954
 6281SOL    HW119742   0.370   4.832   4.031
 6281SOL    HW219743   0.508   4.858   3.948
 6282SOL     OW19744   0.297   5.702   5.751
 6282SOL    HW119745   0.277   5.799   5.736
 6282SOL    HW219746   0.214   5.648   5.739
 6283SOL     OW19747   7.017   3.283   5.209
 6283SOL    HW119748   7.008   3.232   5.124
 6283SOL    HW219749   0.084   3.331   5.210
 6284SOL     OW19750   0.647   5.553   4.680
 6284SOL    HW119751   0.654   5.477   4.745
 6284SOL    HW219752   0.679   5.637   4.724
 6285SOL     OW19753   0.102   3.851   4.476
 6285SOL    HW119754   0.193   3.881   4.505
 6285SOL    HW219755   0.033   3.907   4.522
 6286SOL     OW19756   6.006   1.844   4.295
 6286SOL    HW119757   6.067   1.771   4.326
 6286SOL    HW219758   5.911   1.820   4.317
 6287SOL     OW19759   3.504   5.259   4.686
 6287SOL    HW119760   3.429   5.325   4.684
 6287SOL    HW219761   3.575   5.287   4.621
 6288SOL     OW19762   4.931   4.626   2.499
 6288SOL    HW119763   4.907   4.583   2.411
 6288SOL    HW219764   4.989   4.564   2.551
 6289SOL     OW19765   1.905   4.990   0.991
 6289SOL    HW119766   1.952   5.036   1.067
 6289SOL    HW219767   1.970   4.976   0.916
 6290SOL     OW19768   6.812   5.191   5.573
 6290SOL    HW119769   6.790   5.220   5.480
 6290SOL    HW219770   6.746   5.122   5.603
 6291SOL     OW19771   3.936   3.462   4.210
 6291SOL    HW119772   3.969   3.379   4.257
 6291SOL    HW219773   3.896   3.437   4.122
 6292SOL     OW19774   1.279   1.965   4.872
 6292SOL    HW119775   1.257   1.981   4.968
 6292SOL    HW219776   1.281   2.052   4.823
 6293SOL     OW19777   4.324   1.051   0.727
 6293SOL    HW119778   4.418   1.048   0.761
 6293SOL    HW219779   4.272   1.120   0.778
 6294SOL     OW19780   3.401   6.843   3.936
 6294SOL    HW119781   3.494   6.805   3.940
 6294SOL    HW219782   3.403   6.938   3.966
 6295SOL     OW19783   5.629   4.441   5.898
 6295SOL    HW119784   5.678   4.354   5.912
 6295SOL    HW219785   5.615   4.455   5.800
 6296SOL     OW19786   0.583   6.446   6.047
 6296SOL    HW119787   0.597   6.408   5.956
 6296SOL    HW219788   0.575   6.546   6.040
 6297SOL     OW19789   5.392   0.878   4.573
 6297SOL    HW119790   5.431   0.938   4.503
 6297SOL    HW219791   5.450   0.880   4.655
 6298SOL     OW19792   1.534   3.215   6.680
 6298SOL    HW119793   1.488   3.138   6.723
 6298SOL    HW219794   1.468   3.287   6.659
 6299SOL     OW19795   6.235   2.079   0.999
 6299SOL    HW119796   6.168   2.085   0.925
 6299SOL    HW219797   6.193   2.036   1.079
 6300SOL     OW19798   6.472   1.164   6.992
 6300SOL    HW119799   6.544   1.159   6.923
 6300SOL    HW219800   6.469   1.256   0.010
 6301SOL     OW19801   4.164   6.823   0.358
 6301SOL    HW119802   4.142   6.858   0.449
 6301SOL    HW219803   4.263   6.813   0.348
 6302SOL     OW19804   1.484   0.363   3.501
 6302SOL    HW119805   1.461   0.267   3.517
 6302SOL    HW219806   1.518   0.403   3.586
 6303SOL     OW19807   1.959   0.999   3.651
 6303SOL    HW119808   2.033   0.993   3.584
 6303SOL    HW219809   1.926   0.907   3.673
 6304SOL     OW19810   2.335   1.227   1.347
 6304SOL    HW119811   2.276   1.205   1.270
 6304SOL    HW219812   2.398   1.301   1.322
 6305SOL     OW19813   6.471   6.958   0.504
 6305SOL    HW119814   6.489   7.008   0.589
 6305SOL    HW219815   6.524   6.873   0.503
 6306SOL     OW19816   0.453   4.342   3.918
 6306SOL    HW119817   0.483   4.317   3.826
 6306SOL    HW219818   0.372   4.399   3.912
 6307SOL     OW19819   3.331   3.991   4.964
 6307SOL    HW119820   3.277   3.985   5.047
 6307SOL    HW219821   3.271   4.004   4.885
 6308SOL     OW19822   2.301   1.856   4.622
 6308SOL    HW119823   2.354   1.926   4.574
 6308SOL    HW219824   2.244   1.898   4.691
 6309SOL     OW19825   5.785   4.663   5.157
 6309SOL    HW119826   5.813   4.713   5.239
 6309SOL    HW219827   5.689   4.636   5.166
 6310SOL     OW19828   2.438   5.912   3.057
 6310SOL    HW119829   2.367   5.870   2.998
 6310SOL    HW219830   2.523   5.860   3.048
 6311SOL     OW19831   4.982   1.277   5.690
 6311SOL    HW119832   4.915   1.231   5.748
 6311SOL    HW219833   5.073   1.265   5.728
 6312SOL     OW19834   6.671   6.326   5.344
 6312SOL    HW119835   6.599   6.394   5.355
 6312SOL    HW219836   6.708   6.302   5.433
 6313SOL     OW19837   6.794   5.796   4.613
 6313SOL    HW119838   6.808   5.763   4.520
 6313SOL    HW219839   6.876   5.780   4.668
 6314SOL     OW19840   3.982   6.750   1.331
 6314SOL    HW119841   3.906   6.694   1.298
 6314SOL    HW219842   3.992   6.739   1.430
 6315SOL     OW19843   1.952   2.507   5.294
 6315SOL    HW119844   2.000   2.482   5.378
 6315SOL    HW219845   1.955   2.606   5.282
 6316SOL     OW19846   5.233   2.137   6.760
 6316SOL    HW119847   5.293   2.140   6.840
 6316SOL    HW219848   5.288   2.143   6.677
 6317SOL     OW19849   4.549   5.014   1.318
 6317SOL    HW119850   4.473   4.988   1.258
 6317SOL    HW219851   4.523   5.094   1.372
 6318SOL     OW19852   3.673   0.152   5.780
 6318SOL    HW119853   3.595   0.104   5.739
 6318SOL    HW219854   3.724   0.199   5.708
 6319SOL     OW19855   6.328   1.956   4.813
 6319SOL    HW119856   6.364   1.989   4.726
 6319SOL    HW219857   6.400   1.960   4.882
 6320SOL     OW19858   6.192   6.512   5.462
 6320SOL    HW119859   6.131   6.517   5.541
 6320SOL    HW219860   6.148   6.459   5.389
 6321SOL     OW19861   3.994   3.811   0.759
 6321SOL    HW119862   4.075   3.840   0.810
 6321SOL    HW219863   4.012   3.816   0.661
 6322SOL     OW19864   2.155   2.356   0.855
 6322SOL    HW119865   2.247   2.357   0.816
 6322SOL    HW219866   2.147   2.280   0.920
 6323SOL     OW19867   2.692   2.591   1.543
 6323SOL    HW119868   2.689   2.583   1.643
 6323SOL    HW219869   2.787   2.595   1.513
 6324SOL     OW19870   5.192   0.515   0.369
 6324SOL    HW119871   5.290   0.522   0.389
 6324SOL    HW219872   5.143   0.584   0.422
 6325SOL     OW19873   1.842   3.237   2.813
 6325SOL    HW119874   1.878   3.145   2.797
 6325SOL    HW219875   1.846   3.290   2.728
 6326SOL     OW19876   4.821   4.893   1.584
 6326SOL    HW119877   4.838   4.890   1.682
 6326SOL    HW219878   4.764   4.816   1.557
 6327SOL     OW19879   0.242   0.962   4.967
 6327SOL    HW119880   0.312   1.021   5.007
 6327SOL    HW219881   0.224   0.886   5.029
 6328SOL     OW19882   2.979   3.781   0.490
 6328SOL    HW119883   3.052   3.732   0.537
 6328SOL    HW219884   2.915   3.819   0.557
 6329SOL     OW19885   1.675   2.549   3.114
 6329SOL    HW119886   1.589   2.499   3.110
 6329SOL    HW219887   1.726   2.522   3.196
 6330SOL     OW19888   5.271   0.448   1.700
 6330SOL    HW119889   5.236   0.478   1.789
 6330SOL    HW219890   5.322   0.362   1.711
 6331SOL     OW19891   6.375   2.508   5.604
 6331SOL    HW119892   6.339   2.418   5.582
 6331SOL    HW219893   6.308   2.578   5.579
 6332SOL     OW19894   0.290   3.319   0.610
 6332SOL    HW119895   0.216   3.267   0.567
 6332SOL    HW219896   0.257   3.410   0.633
 6333SOL     OW19897   4.511   6.008   4.973
 6333SOL    HW119898   4.496   5.980   4.879
 6333SOL    HW219899   4.584   5.952   5.013
 6334SOL     OW19900   2.742   0.970   2.487
 6334SOL    HW119901   2.749   1.068   2.468
 6334SOL    HW219902   2.834   0.931   2.493
 6335SOL     OW19903   4.149   0.335   0.441
 6335SOL    HW119904   4.218   0.339   0.368
 6335SOL    HW219905   4.117   0.428   0.461
 6336SOL     OW19906   1.036   2.465   6.331
 6336SOL    HW119907   1.013   2.496   6.423
 6336SOL    HW219908   1.044   2.365   6.330
 6337SOL     OW19909   4.989   4.971   5.304
 6337SOL    HW119910   5.048   5.000   5.228
 6337SOL    HW219911   5.036   4.988   5.390
 6338SOL     OW19912   3.535   2.073   4.252
 6338SOL    HW119913   3.549   2.147   4.318
 6338SOL    HW219914   3.438   2.067   4.229
 6339SOL     OW19915   0.871   3.681   3.499
 6339SOL    HW119916   0.908   3.755   3.557
 6339SOL    HW219917   0.867   3.713   3.404
 6340SOL     OW19918   2.014   5.011   1.818
 6340SOL    HW119919   2.004   5.065   1.901
 6340SOL    HW219920   2.110   4.989   1.804
 6341SOL     OW19921   0.258   4.073   4.213
 6341SOL    HW119922   0.336   4.014   4.234
 6341SOL    HW219923   0.281   4.130   4.134
 6342SOL     OW19924   1.789   0.780   2.423
 6342SOL    HW119925   1.721   0.797   2.352
 6342SOL    HW219926   1.768   0.836   2.504
 6343SOL     OW19927   4.946   1.675   6.550
 6343SOL    HW119928   4.849   1.677   6.573
 6343SOL    HW219929   4.972   1.581   6.525
 6344SOL     OW19930   5.312   2.044   4.502
 6344SOL    HW119931   5.257   2.127   4.510
 6344SOL    HW219932   5.253   1.968   4.471
 6345SOL     OW19933   6.002   3.147   2.671
 6345SOL    HW119934   5.989   3.050   2.655
 6345SOL    HW219935   5.986   3.198   2.586
 6346SOL     OW19936   6.864   5.294   4.091
 6346SOL    HW119937   6.814   5.282   4.005
 6346SOL    HW219938   6.917   5.378   4.087
 6347SOL     OW19939   1.709   0.611   0.889
 6347SOL    HW119940   1.648   0.597   0.811
 6347SOL    HW219941   1.749   0.524   0.917
 6348SOL     OW19942   1.729   3.031   5.857
 6348SOL    HW119943   1.726   2.937   5.824
 6348SOL    HW219944   1.777   3.033   5.946
 6349SOL     OW19945   2.297   0.776   1.240
 6349SOL    HW119946   2.244   0.693   1.255
 6349SOL    HW219947   2.268   0.847   1.304
 6350SOL     OW19948   0.407   5.078   4.242
 6350SOL    HW119949   0.328   5.075   4.181
 6350SOL    HW219950   0.475   5.142   4.205
 6351SOL     OW19951   6.220   3.698   3.797
 6351SOL    HW119952   6.205   3.694   3.699
 6351SOL    HW219953   6.163   3.771   3.836
 6352SOL     OW19954   3.766   6.411   4.954
 6352SOL    HW119955   3.683   6.467   4.948
 6352SOL    HW219956   3.843   6.460   4.912
 6353SOL     OW19957   1.481   6.826   6.110
 6353SOL    HW119958   1.447   6.735   6.084
 6353SOL    HW219959   1.580   6.829   6.097
 6354SOL     OW19960   2.640   5.251   3.070
 6354SOL    HW119961   2.573   5.320   3.099
 6354SOL    HW219962   2.710   5.242   3.140
 6355SOL     OW19963   0.937   5.268   7.010
 6355SOL    HW119964   1.013   5.251   6.948
 6355SOL    HW219965   0.953   5.352   0.040
 6356SOL     OW19966   5.229   5.652   1.543
 6356SOL    HW119967   5.206   5.567   1.591
 6356SOL    HW219968   5.255   5.722   1.609
 6357SOL     OW19969   6.293   3.438   2.489
 6357SOL    HW119970   6.241   3.456   2.573
 6357SOL    HW219971   6.381   3.396   2.512
 6358SOL     OW19972   0.380   2.250   6.373
 6358SOL    HW119973   0.419   2.250   6.465
 6358SOL    HW219974   0.345   2.342   6.352
 6359SOL     OW19975   6.134   0.550   0.073
 6359SOL    HW119976   6.207   0.487   0.101
 6359SOL    HW219977   6.136   0.560   6.994
 6360SOL     OW19978   1.200   4.825   4.117
 6360SOL    HW119979   1.195   4.730   4.085
 6360SOL    HW219980   1.231   4.827   4.212
 6361SOL     OW19981   1.153   6.712   1.076
 6361SOL    HW119982   1.202   6.643   1.023
 6361SOL    HW219983   1.170   6.697   1.174
 6362SOL     OW19984   6.796   6.121   6.850
 6362SOL    HW119985   6.833   6.187   6.916
 6362SOL    HW219986   6.763   6.040   6.900
 6363SOL     OW19987   1.712   5.252   3.981
 6363SOL    HW119988   1.697   5.334   3.926
 6363SOL    HW219989   1.789   5.267   4.043
 6364SOL     OW19990   2.377   1.621   5.738
 6364SOL    HW119991   2.370   1.675   5.654
 6364SOL    HW219992   2.287   1.584   5.761
 6365SOL     OW19993   5.920   0.266   3.694
 6365SOL    HW119994   5.937   0.365   3.694
 6365SOL    HW219995   5.998   0.219   3.735
 6366SOL     OW19996   1.124   5.732   5.730
 6366SOL    HW119997   1.201   5.668   5.742
 6366SOL    HW219998   1.039   5.680   5.721
 6367SOL     OW19999   3.675   1.419   4.577
 6367SOL    HW120000   3.642   1.393   4.667
 6367SOL    HW220001   3.706   1.514   4.580
 6368SOL     OW20002   3.531   5.256   3.331
 6368SOL    HW120003   3.599   5.201   3.380
 6368SOL    HW220004   3.446   5.258   3.384
 6369SOL     OW20005   2.413   5.845   4.312
 6369SOL    HW120006   2.331   5.898   4.334
 6369SOL    HW220007   2.395   5.748   4.330
 6370SOL     OW20008   0.013   3.275   3.621
 6370SOL    HW120009   0.006   3.374   3.612
 6370SOL    HW220010   0.036   3.252   3.715
 6371SOL     OW20011   4.689   4.663   2.977
 6371SOL    HW120012   4.654   4.643   2.886
 6371SOL    HW220013   4.650   4.750   3.009
 6372SOL     OW20014   1.869   0.952   1.778
 6372SOL    HW120015   1.935   1.013   1.822
 6372SOL    HW220016   1.776   0.986   1.793
 6373SOL     OW20017   4.745   4.119   2.331
 6373SOL    HW120018   4.838   4.106   2.366
 6373SOL    HW220019   4.740   4.083   2.237
 6374SOL     OW20020   3.985   3.843   2.980
 6374SOL    HW120021   3.958   3.771   2.916
 6374SOL    HW220022   4.025   3.919   2.930
 6375SOL     OW20023   6.966   1.580   3.202
 6375SOL    HW120024   6.963   1.678   3.222
 6375SOL    HW220025   0.033   1.558   3.158
 6376SOL     OW20026   5.411   2.267   4.816
 6376SOL    HW120027   5.343   2.280   4.744
 6376SOL    HW220028   5.389   2.324   4.895
 6377SOL     OW20029   6.902   2.062   5.303
 6377SOL    HW120030   6.929   2.008   5.382
 6377SOL    HW220031   6.958   2.036   5.224
 6378SOL     OW20032   4.770   4.664   4.158
 6378SOL    HW120033   4.866   4.638   4.167
 6378SOL    HW220034   4.712   4.583   4.169
 6379SOL     OW20035   1.273   4.210   4.653
 6379SOL    HW120036   1.294   4.124   4.699
 6379SOL    HW220037   1.344   4.277   4.673
 6380SOL     OW20038   0.437   1.575   5.408
 6380SOL    HW120039   0.473   1.661   5.370
 6380SOL    HW220040   0.344   1.590   5.442
 6381SOL     OW20041   4.033   3.086   1.823
 6381SOL    HW120042   4.067   3.091   1.917
 6381SOL    HW220043   3.987   2.998   1.809
 6382SOL     OW20044   2.427   2.098   0.584
 6382SOL    HW120045   2.346   2.057   0.541
 6382SOL    HW220046   2.509   2.061   0.542
 6383SOL     OW20047   1.702   2.713   2.859
 6383SOL    HW120048   1.688   2.683   2.954
 6383SOL    HW220049   1.705   2.633   2.799
 6384SOL     OW20050   6.432   4.062   2.907
 6384SOL    HW120051   6.470   4.051   2.999
 6384SOL    HW220052   6.504   4.043   2.839
 6385SOL     OW20053   0.410   3.904   3.446
 6385SOL    HW120054   0.472   3.977   3.420
 6385SOL    HW220055   0.463   3.820   3.462
 6386SOL     OW20056   2.447   4.653   5.910
 6386SOL    HW120057   2.497   4.729   5.951
 6386SOL    HW220058   2.487   4.631   5.821
 6387SOL     OW20059   6.686   1.437   6.462
 6387SOL    HW120060   6.750   1.476   6.529
 6387SOL    HW220061   6.647   1.511   6.407
 6388SOL     OW20062   4.102   6.270   1.931
 6388SOL    HW120063   4.183   6.211   1.920
 6388SOL    HW220064   4.032   6.219   1.981
 6389SOL     OW20065   0.192   5.601   2.124
 6389SOL    HW120066   0.219   5.507   2.147
 6389SOL    HW220067   0.105   5.622   2.168
 6390SOL     OW20068   0.344   0.737   5.996
 6390SOL    HW120069   0.433   0.758   6.035
 6390SOL    HW220070   0.337   0.778   5.905
 6391SOL     OW20071   2.857   0.025   6.198
 6391SOL    HW120072   2.858   0.120   6.166
 6391SOL    HW220073   2.866   6.984   6.120
 6392SOL     OW20074   2.722   5.633   2.605
 6392SOL    HW120075   2.704   5.547   2.654
 6392SOL    HW220076   2.776   5.694   2.662
 6393SOL     OW20077   0.137   6.412   2.017
 6393SOL    HW120078   0.056   6.406   2.075
 6393SOL    HW220079   0.162   6.508   2.005
 6394SOL     OW20080   2.227   5.336   0.821
 6394SOL    HW120081   2.186   5.279   0.750
 6394SOL    HW220082   2.242   5.428   0.785
 6395SOL     OW20083   0.292   2.853   1.639
 6395SOL    HW120084   0.338   2.867   1.551
 6395SOL    HW220085   0.272   2.756   1.651
 6396SOL     OW20086   5.073   3.703   6.698
 6396SOL    HW120087   5.117   3.682   6.611
 6396SOL    HW220088   5.014   3.627   6.726
 6397SOL     OW20089   6.118   1.820   0.888
 6397SOL    HW120090   6.022   1.820   0.861
 6397SOL    HW220091   6.175   1.849   0.811
 6398SOL     OW20092   3.067   6.962   1.791
 6398SOL    HW120093   3.112   6.989   1.706
 6398SOL    HW220094   2.968   6.974   1.782
 6399SOL     OW20095   1.514   6.384   6.439
 6399SOL    HW120096   1.456   6.392   6.358
 6399SOL    HW220097   1.481   6.447   6.509
 6400SOL     OW20098   2.662   6.037   2.109
 6400SOL    HW120099   2.605   5.965   2.070
 6400SOL    HW220100   2.610   6.122   2.114
 6401SOL     OW20101   5.521   5.496   3.277
 6401SOL    HW120102   5.470   5.447   3.206
 6401SOL    HW220103   5.543   5.588   3.245
 6402SOL     OW20104   3.294   2.160   3.558
 6402SOL    HW120105   3.273   2.183   3.463
 6402SOL    HW220106   3.212   2.126   3.603
 6403SOL     OW20107   6.994   6.056   6.316
 6403SOL    HW120108   0.006   6.144   6.280
 6403SOL    HW220109   6.944   6.071   6.401
 6404SOL     OW20110   4.402   0.955   2.502
 6404SOL    HW120111   4.306   0.972   2.483
 6404SOL    HW220112   4.456   1.037   2.480
 6405SOL     OW20113   3.034   0.385   3.935
 6405SOL    HW120114   2.978   0.445   3.991
 6405SOL    HW220115   3.114   0.434   3.902
 6406SOL     OW20116   0.727   2.899   2.386
 6406SOL    HW120117   0.793   2.945   2.446
 6406SOL    HW220118   0.650   2.866   2.440
 6407SOL     OW20119   2.522   6.695   3.800
 6407SOL    HW120120   2.542   6.599   3.822
 6407SOL    HW220121   2.605   6.749   3.807
 6408SOL     OW20122   5.788   1.187   0.108
 6408SOL    HW120123   5.802   1.165   0.204
 6408SOL    HW220124   5.871   1.229   0.070
 6409SOL     OW20125   6.860   4.247   3.442
 6409SOL    HW120126   6.919   4.324   3.465
 6409SOL    HW220127   6.887   4.209   3.354
 6410SOL     OW20128   2.161   1.508   6.598
 6410SOL    HW120129   2.104   1.440   6.552
 6410SOL    HW220130   2.254   1.503   6.562
 6411SOL     OW20131   0.866   3.035   3.033
 6411SOL    HW120132   0.885   3.125   2.994
 6411SOL    HW220133   0.862   3.043   3.133
 6412SOL     OW20134   0.668   1.976   4.692
 6412SOL    HW120135   0.631   1.938   4.607
 6412SOL    HW220136   0.593   1.987   4.758
 6413SOL     OW20137   3.763   4.988   3.664
 6413SOL    HW120138   3.847   4.942   3.691
 6413SOL    HW220139   3.698   4.985   3.740
 6414SOL     OW20140   5.685   0.860   0.489
 6414SOL    HW120141   5.638   0.896   0.409
 6414SOL    HW220142   5.671   0.921   0.567
 6415SOL     OW20143   1.830   3.527   2.904
 6415SOL    HW120144   1.838   3.431   2.877
 6415SOL    HW220145   1.860   3.538   2.999
 6416SOL     OW20146   0.780   1.202   6.512
 6416SOL    HW120147   0.704   1.239   6.564
 6416SOL    HW220148   0.851   1.169   6.574
 6417SOL     OW20149   5.838   5.118   0.710
 6417SOL    HW120150   5.901   5.105   0.633
 6417SOL    HW220151   5.764   5.052   0.703
 6418SOL     OW20152   4.825   3.822   2.057
 6418SOL    HW120153   4.853   3.918   2.047
 6418SOL    HW220154   4.726   3.814   2.043
 6419SOL     OW20155   2.099   4.614   3.181
 6419SOL    HW120156   2.093   4.582   3.276
 6419SOL    HW220157   2.110   4.714   3.181
 6420SOL     OW20158   2.970   5.971   4.458
 6420SOL    HW120159   2.871   5.958   4.456
 6420SOL    HW220160   3.003   5.984   4.364
 6421SOL     OW20161   5.080   0.283   3.151
 6421SOL    HW120162   5.077   0.266   3.249
 6421SOL    HW220163   5.141   0.360   3.132
 6422SOL     OW20164   0.081   0.977   3.982
 6422SOL    HW120165   7.002   0.986   3.976
 6422SOL    HW220166   0.115   1.034   4.057
 6423SOL     OW20167   5.124   5.367   3.480
 6423SOL    HW120168   5.041   5.319   3.509
 6423SOL    HW220169   5.186   5.375   3.558
 6424SOL     OW20170   0.335   5.347   5.967
 6424SOL    HW120171   0.237   5.363   5.959
 6424SOL    HW220172   0.355   5.252   5.942
 6425SOL     OW20173   6.276   6.025   3.067
 6425SOL    HW120174   6.354   6.084   3.050
 6425SOL    HW220175   6.306   5.942   3.113
 6426SOL     OW20176   1.577   5.189   2.856
 6426SOL    HW120177   1.527   5.245   2.790
 6426SOL    HW220178   1.549   5.093   2.846
 6427SOL     OW20179   3.399   3.789   4.639
 6427SOL    HW120180   3.443   3.877   4.624
 6427SOL    HW220181   3.442   3.720   4.580
 6428SOL     OW20182   5.865   3.544   5.898
 6428SOL    HW120183   5.903   3.487   5.971
 6428SOL    HW220184   5.805   3.488   5.840
 6429SOL     OW20185   1.288   1.794   5.788
 6429SOL    HW120186   1.341   1.732   5.846
 6429SOL    HW220187   1.350   1.843   5.726
 6430SOL     OW20188   6.281   1.103   2.981
 6430SOL    HW120189   6.200   1.134   3.031
 6430SOL    HW220190   6.341   1.181   2.963
 6431SOL     OW20191   4.915   6.565   4.010
 6431SOL    HW120192   4.948   6.659   4.002
 6431SOL    HW220193   4.948   6.526   4.096
 6432SOL     OW20194   4.355   4.526   5.928
 6432SOL    HW120195   4.338   4.480   5.842
 6432SOL    HW220196   4.401   4.614   5.911
 6433SOL     OW20197   1.907   5.271   6.099
 6433SOL    HW120198   1.827   5.257   6.040
 6433SOL    HW220199   1.877   5.307   6.187
 6434SOL     OW20200   2.606   4.462   6.609
 6434SOL    HW120201   2.682   4.431   6.667
 6434SOL    HW220202   2.520   4.457   6.660
 6435SOL     OW20203   4.817   6.632   0.997
 6435SOL    HW120204   4.818   6.688   0.914
 6435SOL    HW220205   4.883   6.669   1.062
 6436SOL     OW20206   1.297   3.073   2.863
 6436SOL    HW120207   1.359   3.002   2.829
 6436SOL    HW220208   1.215   3.075   2.806
 6437SOL     OW20209   2.508   1.347   0.328
 6437SOL    HW120210   2.526   1.271   0.265
 6437SOL    HW220211   2.586   1.358   0.389
 6438SOL     OW20212   6.263   4.147   5.778
 6438SOL    HW120213   6.244   4.121   5.873
 6438SOL    HW220214   6.336   4.216   5.777
 6439SOL     OW20215   5.635   1.096   1.703
 6439SOL    HW120216   5.675   1.175   1.749
 6439SOL    HW220217   5.552   1.068   1.750
 6440SOL     OW20218   2.253   1.972   5.964
 6440SOL    HW120219   2.295   2.063   5.970
 6440SOL    HW220220   2.324   1.902   5.966
 6441SOL     OW20221   6.431   6.811   1.736
 6441SOL    HW120222   6.389   6.751   1.667
 6441SOL    HW220223   6.400   6.783   1.827
 6442SOL     OW20224   2.551   1.674   4.673
 6442SOL    HW120225   2.489   1.609   4.716
 6442SOL    HW220226   2.499   1.737   4.615
 6443SOL     OW20227   4.137   2.230   5.889
 6443SOL    HW120228   4.078   2.152   5.866
 6443SOL    HW220229   4.227   2.217   5.849
 6444SOL     OW20230   5.502   2.580   4.402
 6444SOL    HW120231   5.460   2.666   4.430
 6444SOL    HW220232   5.564   2.547   4.473
 6445SOL     OW20233   4.090   3.259   4.719
 6445SOL    HW120234   4.141   3.273   4.804
 6445SOL    HW220235   4.005   3.211   4.739
 6446SOL     OW20236   0.993   1.063   6.621
 6446SOL    HW120237   1.059   1.054   6.695
 6446SOL    HW220238   1.003   0.986   6.557
 6447SOL     OW20239   5.385   4.962   3.674
 6447SOL    HW120240   5.297   4.979   3.631
 6447SOL    HW220241   5.375   4.894   3.747
 6448SOL     OW20242   4.072   5.791   2.335
 6448SOL    HW120243   4.063   5.705   2.284
 6448SOL    HW220244   4.125   5.856   2.281
 6449SOL     OW20245   3.675   6.110   1.300
 6449SOL    HW120246   3.688   6.052   1.220
 6449SOL    HW220247   3.666   6.052   1.382
 6450SOL     OW20248   0.411   4.091   0.881
 6450SOL    HW120249   0.423   4.191   0.881
 6450SOL    HW220250   0.317   4.069   0.908
 6451SOL     OW20251   2.165   0.751   4.490
 6451SOL    HW120252   2.257   0.761   4.528
 6451SOL    HW220253   2.171   0.732   4.392
 6452SOL     OW20254   4.444   5.817   4.261
 6452SOL    HW120255   4.517   5.886   4.259
 6452SOL    HW220256   4.424   5.792   4.355
 6453SOL     OW20257   2.366   6.253   1.735
 6453SOL    HW120258   2.367   6.209   1.645
 6453SOL    HW220259   2.287   6.314   1.741
 6454SOL     OW20260   1.063   2.579   2.847
 6454SOL    HW120261   0.987   2.536   2.896
 6454SOL    HW220262   1.144   2.521   2.854
 6455SOL     OW20263   6.813   3.230   3.486
 6455SOL    HW120264   6.763   3.158   3.534
 6455SOL    HW220265   6.901   3.245   3.531
 6456SOL     OW20266   0.877   0.583   3.700
 6456SOL    HW120267   0.847   0.532   3.781
 6456SOL    HW220268   0.807   0.649   3.674
 6457SOL     OW20269   4.867   1.706   1.269
 6457SOL    HW120270   4.938   1.749   1.213
 6457SOL    HW220271   4.777   1.726   1.229
 6458SOL     OW20272   1.231   6.392   4.478
 6458SOL    HW120273   1.312   6.335   4.492
 6458SOL    HW220274   1.170   6.346   4.413
 6459SOL     OW20275   6.317   3.112   1.080
 6459SOL    HW120276   6.267   3.061   1.150
 6459SOL    HW220277   6.409   3.132   1.113
 6460SOL     OW20278   5.923   6.168   5.974
 6460SOL    HW120279   5.857   6.234   6.009
 6460SOL    HW220280   5.930   6.091   6.038
 6461SOL     OW20281   2.181   4.627   5.966
 6461SOL    HW120282   2.277   4.640   5.941
 6461SOL    HW220283   2.167   4.658   6.060
 6462SOL     OW20284   2.228   2.299   4.176
 6462SOL    HW120285   2.278   2.361   4.115
 6462SOL    HW220286   2.196   2.220   4.124
 6463SOL     OW20287   6.127   2.962   6.864
 6463SOL    HW120288   6.066   2.936   6.939
 6463SOL    HW220289   6.220   2.933   6.885
 6464SOL     OW20290   0.988   5.708   4.906
 6464SOL    HW120291   0.899   5.691   4.948
 6464SOL    HW220292   1.052   5.638   4.937
 6465SOL     OW20293   0.073   3.219   2.902
 6465SOL    HW120294   0.015   3.286   2.856
 6465SOL    HW220295   0.113   3.260   2.984
 6466SOL     OW20296   1.154   1.073   6.323
 6466SOL    HW120297   1.140   1.088   6.225
 6466SOL    HW220298   1.067   1.051   6.366
 6467SOL     OW20299   3.194   1.427   0.294
 6467SOL    HW120300   3.250   1.496   0.340
 6467SOL    HW220301   3.097   1.451   0.302
 6468SOL     OW20302   3.158   6.444   0.550
 6468SOL    HW120303   3.195   6.351   0.556
 6468SOL    HW220304   3.200   6.491   0.472
 6469SOL     OW20305   4.600   1.222   4.703
 6469SOL    HW120306   4.529   1.179   4.648
 6469SOL    HW220307   4.569   1.313   4.733
 6470SOL     OW20308   6.038   3.018   0.474
 6470SOL    HW120309   6.126   3.066   0.466
 6470SOL    HW220310   6.038   2.963   0.557
 6471SOL     OW20311   6.685   6.632   5.670
 6471SOL    HW120312   6.612   6.565   5.659
 6471SOL    HW220313   6.646   6.722   5.688
 6472SOL     OW20314   0.608   5.552   1.728
 6472SOL    HW120315   0.590   5.645   1.760
 6472SOL    HW220316   0.613   5.490   1.806
 6473SOL     OW20317   3.222   1.307   4.459
 6473SOL    HW120318   3.272   1.390   4.435
 6473SOL    HW220319   3.282   1.245   4.509
 6474SOL     OW20320   2.882   4.213   5.906
 6474SOL    HW120321   2.865   4.241   5.812
 6474SOL    HW220322   2.980   4.218   5.926
 6475SOL     OW20323   5.938   5.159   3.814
 6475SOL    HW120324   5.920   5.215   3.895
 6475SOL    HW220325   5.868   5.177   3.745
 6476SOL     OW20326   3.926   3.424   1.367
 6476SOL    HW120327   3.931   3.326   1.387
 6476SOL    HW220328   3.957   3.440   1.273
 6477SOL     OW20329   5.933   5.197   1.164
 6477SOL    HW120330   5.849   5.224   1.116
 6477SOL    HW220331   5.949   5.099   1.150
 6478SOL     OW20332   3.452   0.557   1.664
 6478SOL    HW120333   3.384   0.529   1.731
 6478SOL    HW220334   3.480   0.651   1.682
 6479SOL     OW20335   4.425   5.216   3.936
 6479SOL    HW120336   4.413   5.305   3.892
 6479SOL    HW220337   4.522   5.204   3.960
 6480SOL     OW20338   2.774   1.626   6.344
 6480SOL    HW120339   2.803   1.535   6.375
 6480SOL    HW220340   2.757   1.624   6.246
 6481SOL     OW20341   3.475   2.027   2.186
 6481SOL    HW120342   3.451   2.082   2.266
 6481SOL    HW220343   3.520   2.086   2.119
 6482SOL     OW20344   6.631   0.678   6.528
 6482SOL    HW120345   6.638   0.713   6.434
 6482SOL    HW220346   6.721   0.646   6.557
 6483SOL     OW20347   1.154   6.695   2.185
 6483SOL    HW120348   1.212   6.658   2.258
 6483SOL    HW220349   1.077   6.633   2.171
 6484SOL     OW20350   3.269   6.885   1.091
 6484SOL    HW120351   3.201   6.949   1.124
 6484SOL    HW220352   3.293   6.907   0.996
 6485SOL     OW20353   2.009   5.008   3.851
 6485SOL    HW120354   2.021   4.968   3.761
 6485SOL    HW220355   2.013   5.108   3.844
 6486SOL     OW20356   2.451   4.604   3.673
 6486SOL    HW120357   2.538   4.652   3.663
 6486SOL    HW220358   2.410   4.628   3.761
 6487SOL     OW20359   0.313   6.443   5.132
 6487SOL    HW120360   0.403   6.404   5.115
 6487SOL    HW220361   0.318   6.543   5.130
 6488SOL     OW20362   3.622   6.262   4.481
 6488SOL    HW120363   3.548   6.312   4.526
 6488SOL    HW220364   3.589   6.222   4.396
 6489SOL     OW20365   3.307   2.543   6.516
 6489SOL    HW120366   3.245   2.587   6.451
 6489SOL    HW220367   3.263   2.460   6.552
 6490SOL     OW20368   4.398   0.540   0.006
 6490SOL    HW120369   4.357   0.629   7.010
 6490SOL    HW220370   4.494   0.551   0.031
 6491SOL     OW20371   4.239   0.984   0.438
 6491SOL    HW120372   4.186   0.972   0.522
 6491SOL    HW220373   4.291   0.901   0.419
 6492SOL     OW20374   4.092   5.069   6.882
 6492SOL    HW120375   4.142   5.102   6.962
 6492SOL    HW220376   3.994   5.078   6.898
 6493SOL     OW20377   1.001   4.676   5.207
 6493SOL    HW120378   1.079   4.723   5.166
 6493SOL    HW220379   1.008   4.683   5.307
 6494SOL     OW20380   6.917   0.499   4.005
 6494SOL    HW120381   6.946   0.439   3.930
 6494SOL    HW220382   6.932   0.594   3.979
 6495SOL     OW20383   5.672   0.081   4.650
 6495SOL    HW120384   5.710   0.135   4.725
 6495SOL    HW220385   5.586   0.041   4.678
 6496SOL     OW20386   6.589   0.560   2.731
 6496SOL    HW120387   6.571   0.526   2.823
 6496SOL    HW220388   6.566   0.657   2.726
 6497SOL     OW20389   1.414   1.678   0.809
 6497SOL    HW120390   1.409   1.584   0.845
 6497SOL    HW220391   1.419   1.742   0.885
 6498SOL     OW20392   1.875   3.282   3.694
 6498SOL    HW120393   1.960   3.250   3.735
 6498SOL    HW220394   1.886   3.376   3.662
 6499SOL     OW20395   5.334   2.881   5.363
 6499SOL    HW120396   5.403   2.931   5.311
 6499SOL    HW220397   5.362   2.786   5.373
 6500SOL     OW20398   6.828   4.137   4.297
 6500SOL    HW120399   6.921   4.152   4.330
 6500SOL    HW220400   6.815   4.184   4.210
 6501SOL     OW20401   6.516   1.708   6.749
 6501SOL    HW120402   6.478   1.652   6.675
 6501SOL    HW220403   6.596   1.662   6.788
 6502SOL     OW20404   6.926   1.901   1.500
 6502SOL    HW120405   6.841   1.906   1.449
 6502SOL    HW220406   6.957   1.994   1.521
 6503SOL     OW20407   5.200   1.134   3.290
 6503SOL    HW120408   5.132   1.061   3.295
 6503SOL    HW220409   5.291   1.093   3.280
 6504SOL     OW20410   4.008   6.155   5.309
 6504SOL    HW120411   4.043   6.156   5.216
 6504SOL    HW220412   4.044   6.234   5.359
 6505SOL     OW20413   5.287   5.948   0.491
 6505SOL    HW120414   5.268   6.015   0.563
 6505SOL    HW220415   5.346   5.876   0.527
 6506SOL     OW20416   6.361   2.170   2.659
 6506SOL    HW120417   6.416   2.117   2.724
 6506SOL    HW220418   6.332   2.255   2.702
 6507SOL     OW20419   1.422   5.239   5.345
 6507SOL    HW120420   1.467   5.203   5.263
 6507SOL    HW220421   1.459   5.195   5.426
 6508SOL     OW20422   1.407   0.670   2.684
 6508SOL    HW120423   1.396   0.662   2.584
 6508SOL    HW220424   1.415   0.578   2.723
 6509SOL     OW20425   3.631   1.874   4.467
 6509SOL    HW120426   3.627   1.900   4.371
 6509SOL    HW220427   3.588   1.945   4.523
 6510SOL     OW20428   6.568   5.440   6.841
 6510SOL    HW120429   6.535   5.396   6.924
 6510SOL    HW220430   6.647   5.390   6.806
 6511SOL     OW20431   4.260   1.512   4.312
 6511SOL    HW120432   4.195   1.575   4.356
 6511SOL    HW220433   4.344   1.561   4.289
 6512SOL     OW20434   4.659   6.412   1.739
 6512SOL    HW120435   4.721   6.356   1.683
 6512SOL    HW220436   4.700   6.502   1.754
 6513SOL     OW20437   2.793   5.388   2.777
 6513SOL    HW120438   2.833   5.342   2.698
 6513SOL    HW220439   2.759   5.320   2.842
 6514SOL     OW20440   6.413   1.426   3.759
 6514SOL    HW120441   6.355   1.490   3.808
 6514SOL    HW220442   6.414   1.338   3.807
 6515SOL     OW20443   0.113   4.438   4.216
 6515SOL    HW120444   0.065   4.373   4.275
 6515SOL    HW220445   0.163   4.504   4.273
 6516SOL     OW20446   0.308   3.473   1.730
 6516SOL    HW120447   0.364   3.463   1.647
 6516SOL    HW220448   0.255   3.390   1.744
 6517SOL     OW20449   6.461   1.002   0.999
 6517SOL    HW120450   6.554   1.013   0.963
 6517SOL    HW220451   6.402   1.071   0.958
 6518SOL     OW20452   0.073   0.541   6.964
 6518SOL    HW120453   0.026   0.540   0.032
 6518SOL    HW220454   0.162   0.584   6.974
 6519SOL     OW20455   1.197   2.130   3.138
 6519SOL    HW120456   1.268   2.098   3.076
 6519SOL    HW220457   1.157   2.215   3.104
 6520SOL     OW20458   5.631   5.617   2.289
 6520SOL    HW120459   5.605   5.543   2.351
 6520SOL    HW220460   5.713   5.662   2.324
 6521SOL     OW20461   2.121   2.499   3.872
 6521SOL    HW120462   2.114   2.579   3.813
 6521SOL    HW220463   2.030   2.459   3.885
 6522SOL     OW20464   3.246   5.166   6.355
 6522SOL    HW120465   3.193   5.136   6.435
 6522SOL    HW220466   3.316   5.098   6.333
 6523SOL     OW20467   3.999   1.120   6.547
 6523SOL    HW120468   4.072   1.171   6.501
 6523SOL    HW220469   4.037   1.072   6.626
 6524SOL     OW20470   3.193   3.929   1.511
 6524SOL    HW120471   3.209   3.918   1.609
 6524SOL    HW220472   3.196   4.026   1.488
 6525SOL     OW20473   2.662   5.035   2.628
 6525SOL    HW120474   2.756   5.043   2.661
 6525SOL    HW220475   2.599   5.062   2.700
 6526SOL     OW20476   1.948   0.038   6.778
 6526SOL    HW120477   1.864   0.087   6.803
 6526SOL    HW220478   1.936   7.015   6.689
 6527SOL     OW20479   0.869   2.149   4.567
 6527SOL    HW120480   0.785   2.113   4.608
 6527SOL    HW220481   0.928   2.073   4.539
 6528SOL     OW20482   0.021   0.790   5.433
 6528SOL    HW120483   0.058   0.716   5.489
 6528SOL    HW220484   0.081   0.869   5.439
 6529SOL     OW20485   1.420   0.862   2.872
 6529SOL    HW120486   1.413   0.798   2.795
 6529SOL    HW220487   1.366   0.944   2.852
 6530SOL     OW20488   6.711   3.865   0.179
 6530SOL    HW120489   6.680   3.864   0.274
 6530SOL    HW220490   6.635   3.891   0.119
 6531SOL     OW20491   5.689   3.015   5.365
 6531SOL    HW120492   5.772   2.966   5.338
 6531SOL    HW220493   5.626   3.018   5.288
 6532SOL     OW20494   6.918   1.178   0.538
 6532SOL    HW120495   6.882   1.237   0.610
 6532SOL    HW220496   6.948   1.092   0.579
 6533SOL     OW20497   4.539   0.096   1.201
 6533SOL    HW120498   4.618   0.145   1.164
 6533SOL    HW220499   4.560   0.066   1.295
 6534SOL     OW20500   3.554   4.607   1.360
 6534SOL    HW120501   3.531   4.697   1.398
 6534SOL    HW220502   3.537   4.536   1.429
 6535SOL     OW20503   5.955   4.221   4.030
 6535SOL    HW120504   5.915   4.311   4.012
 6535SOL    HW220505   5.960   4.206   4.129
 6536SOL     OW20506   1.405   1.346   5.639
 6536SOL    HW120507   1.329   1.410   5.650
 6536SOL    HW220508   1.473   1.385   5.576
 6537SOL     OW20509   6.768   5.515   0.354
 6537SOL    HW120510   6.795   5.554   0.265
 6537SOL    HW220511   6.676   5.476   0.346
 6538SOL     OW20512   2.713   4.028   6.789
 6538SOL    HW120513   2.705   3.956   6.858
 6538SOL    HW220514   2.789   4.006   6.727
 6539SOL     OW20515   3.877   0.548   5.617
 6539SOL    HW120516   3.951   0.585   5.672
 6539SOL    HW220517   3.887   0.449   5.611
 6540SOL     OW20518   4.335   1.869   5.976
 6540SOL    HW120519   4.394   1.861   6.056
 6540SOL    HW220520   4.244   1.900   6.004
 6541SOL     OW20521   4.936   2.233   5.111
 6541SOL    HW120522   5.015   2.294   5.118
 6541SOL    HW220523   4.958   2.144   5.149
 6542SOL     OW20524   5.980   3.888   3.788
 6542SOL    HW120525   5.891   3.886   3.742
 6542SOL    HW220526   5.986   3.969   3.846
 6543SOL     OW20527   5.708   2.980   5.798
 6543SOL    HW120528   5.699   2.941   5.889
 6543SOL    HW220529   5.663   2.920   5.731
 6544SOL     OW20530   0.800   6.189   2.814
 6544SOL    HW120531   0.826   6.100   2.853
 6544SOL    HW220532   0.862   6.211   2.738
 6545SOL     OW20533   3.897   2.452   0.871
 6545SOL    HW120534   3.858   2.455   0.963
 6545SOL    HW220535   3.915   2.546   0.840
 6546SOL     OW20536   2.939   4.662   0.114
 6546SOL    HW120537   2.952   4.599   0.190
 6546SOL    HW220538   2.895   4.746   0.147
 6547SOL     OW20539   4.728   1.050   5.581
 6547SOL    HW120540   4.763   0.956   5.576
 6547SOL    HW220541   4.746   1.087   5.672
 6548SOL     OW20542   1.269   3.729   0.253
 6548SOL    HW120543   1.182   3.695   0.217
 6548SOL    HW220544   1.321   3.772   0.179
 6549SOL     OW20545   4.767   0.886   1.731
 6549SOL    HW120546   4.818   0.811   1.689
 6549SOL    HW220547   4.820   0.971   1.724
 6550SOL     OW20548   0.162   6.641   4.358
 6550SOL    HW120549   0.195   6.560   4.407
 6550SOL    HW220550   0.136   6.615   4.265
 6551SOL     OW20551   1.965   4.956   2.433
 6551SOL    HW120552   2.057   4.967   2.396
 6551SOL    HW220553   1.965   4.883   2.502
 6552SOL     OW20554   1.792   6.723   6.484
 6552SOL    HW120555   1.703   6.761   6.459
 6552SOL    HW220556   1.798   6.628   6.452
 6553SOL     OW20557   0.273   2.341   3.605
 6553SOL    HW120558   0.267   2.439   3.626
 6553SOL    HW220559   0.282   2.329   3.506
 6554SOL     OW20560   0.136   1.178   4.811
 6554SOL    HW120561   0.173   1.115   4.879
 6554SOL    HW220562   0.200   1.254   4.797
 6555SOL     OW20563   6.075   2.100   2.680
 6555SOL    HW120564   6.175   2.106   2.673
 6555SOL    HW220565   6.036   2.103   2.588
 6556SOL     OW20566   5.455   4.779   4.900
 6556SOL    HW120567   5.448   4.682   4.873
 6556SOL    HW220568   5.369   4.825   4.880
 6557SOL     OW20569   3.336   6.582   2.143
 6557SOL    HW120570   3.292   6.600   2.055
 6557SOL    HW220571   3.371   6.668   2.181
 6558SOL     OW20572   6.927   4.753   6.499
 6558SOL    HW120573   6.867   4.805   6.559
 6558SOL    HW220574   6.872   4.704   6.431
 6559SOL     OW20575   1.043   3.893   6.220
 6559SOL    HW120576   1.023   3.946   6.302
 6559SOL    HW220577   1.035   3.795   6.240
 6560SOL     OW20578   4.457   5.251   1.028
 6560SOL    HW120579   4.402   5.292   1.100
 6560SOL    HW220580   4.554   5.258   1.051
 6561SOL     OW20581   3.596   3.938   1.352
 6561SOL    HW120582   3.658   4.017   1.348
 6561SOL    HW220583   3.551   3.936   1.441
 6562SOL     OW20584   5.894   3.658   1.103
 6562SOL    HW120585   5.916   3.756   1.105
 6562SOL    HW220586   5.977   3.605   1.090
 6563SOL     OW20587   5.589   6.525   0.099
 6563SOL    HW120588   5.666   6.577   0.063
 6563SOL    HW220589   5.612   6.427   0.100
 6564SOL     OW20590   6.971   4.535   3.340
 6564SOL    HW120591   7.004   4.492   3.423
 6564SOL    HW220592   6.928   4.623   3.362
 6565SOL     OW20593   6.302   2.353   3.598
 6565SOL    HW120594   6.280   2.286   3.526
 6565SOL    HW220595   6.367   2.313   3.662
 6566SOL     OW20596   3.610   6.229   2.502
 6566SOL    HW120597   3.605   6.325   2.475
 6566SOL    HW220598   3.663   6.178   2.434
 6567SOL     OW20599   4.206   1.188   2.120
 6567SOL    HW120600   4.118   1.142   2.124
 6567SOL    HW220601   4.201   1.276   2.168
 6568SOL     OW20602   3.885   1.144   3.373
 6568SOL    HW120603   3.964   1.085   3.394
 6568SOL    HW220604   3.914   1.219   3.314
 6569SOL     OW20605   3.046   3.451   6.593
 6569SOL    HW120606   3.108   3.377   6.568
 6569SOL    HW220607   2.983   3.468   6.517
 6570SOL     OW20608   3.728   0.527   2.153
 6570SOL    HW120609   3.669   0.597   2.193
 6570SOL    HW220610   3.780   0.482   2.225
 6571SOL     OW20611   2.948   5.895   1.468
 6571SOL    HW120612   2.913   5.842   1.546
 6571SOL    HW220613   2.981   5.983   1.500
 6572SOL     OW20614   6.701   4.964   5.738
 6572SOL    HW120615   6.633   4.892   5.722
 6572SOL    HW220616   6.670   5.023   5.813
 6573SOL     OW20617   2.339   1.661   2.114
 6573SOL    HW120618   2.438   1.648   2.105
 6573SOL    HW220619   2.292   1.611   2.041
 6574SOL     OW20620   3.150   5.857   2.992
 6574SOL    HW120621   3.070   5.798   3.004
 6574SOL    HW220622   3.165   5.875   2.895
 6575SOL     OW20623   1.167   0.288   2.709
 6575SOL    HW120624   1.244   0.347   2.734
 6575SOL    HW220625   1.108   0.275   2.788
 6576SOL     OW20626   2.651   5.629   6.161
 6576SOL    HW120627   2.562   5.600   6.197
 6576SOL    HW220628   2.724   5.578   6.207
 6577SOL     OW20629   0.449   1.263   4.511
 6577SOL    HW120630   0.443   1.180   4.455
 6577SOL    HW220631   0.465   1.237   4.606
 6578SOL     OW20632   1.435   5.101   3.424
 6578SOL    HW120633   1.370   5.175   3.406
 6578SOL    HW220634   1.460   5.102   3.521
 6579SOL     OW20635   6.510   3.772   5.252
 6579SOL    HW120636   6.467   3.802   5.167
 6579SOL    HW220637   6.480   3.832   5.327
 6580SOL     OW20638   0.511   2.270   0.537
 6580SOL    HW120639   0.471   2.179   0.529
 6580SOL    HW220640   0.606   2.262   0.566
 6581SOL     OW20641   2.639   0.665   6.777
 6581SOL    HW120642   2.599   0.721   6.705
 6581SOL    HW220643   2.570   0.643   6.845
 6582SOL     OW20644   1.008   1.583   1.927
 6582SOL    HW120645   1.021   1.499   1.979
 6582SOL    HW220646   0.928   1.632   1.961
 6583SOL     OW20647   4.355   0.855   5.065
 6583SOL    HW120648   4.296   0.813   5.134
 6583SOL    HW220649   4.357   0.954   5.078
 6584SOL     OW20650   4.674   2.183   0.914
 6584SOL    HW120651   4.582   2.190   0.877
 6584SOL    HW220652   4.726   2.265   0.889
 6585SOL     OW20653   5.918   6.687   0.342
 6585SOL    HW120654   5.871   6.758   0.395
 6585SOL    HW220655   5.977   6.731   0.274
 6586SOL     OW20656   0.559   1.674   5.667
 6586SOL    HW120657   0.524   1.622   5.589
 6586SOL    HW220658   0.552   1.619   5.750
 6587SOL     OW20659   1.979   6.550   4.687
 6587SOL    HW120660   1.911   6.508   4.747
 6587SOL    HW220661   2.065   6.561   4.736
 6588SOL     OW20662   0.699   3.938   1.676
 6588SOL    HW120663   0.692   3.841   1.656
 6588SOL    HW220664   0.794   3.963   1.694
 6589SOL     OW20665   5.108   0.958   0.438
 6589SOL    HW120666   5.111   1.003   0.349
 6589SOL    HW220667   5.194   0.975   0.487
 6590SOL     OW20668   1.064   0.603   5.611
 6590SOL    HW120669   1.001   0.578   5.538
 6590SOL    HW220670   1.013   0.642   5.688
 6591SOL     OW20671   5.468   5.572   2.042
 6591SOL    HW120672   5.506   5.615   2.124
 6591SOL    HW220673   5.397   5.507   2.068
 6592SOL     OW20674   6.181   0.242   3.785
 6592SOL    HW120675   6.236   0.242   3.869
 6592SOL    HW220676   6.221   0.178   3.719
 6593SOL     OW20677   2.553   2.227   2.313
 6593SOL    HW120678   2.463   2.260   2.288
 6593SOL    HW220679   2.559   2.218   2.413
 6594SOL     OW20680   3.241   2.232   6.864
 6594SOL    HW120681   3.308   2.286   6.916
 6594SOL    HW220682   3.153   2.236   6.910
 6595SOL     OW20683   0.536   3.952   6.845
 6595SOL    HW120684   0.614   3.977   6.787
 6595SOL    HW220685   0.558   3.973   6.940
 6596SOL     OW20686   3.010   6.399   4.460
 6596SOL    HW120687   2.981   6.313   4.501
 6596SOL    HW220688   3.108   6.398   4.445
 6597SOL     OW20689   1.773   5.453   1.279
 6597SOL    HW120690   1.751   5.494   1.368
 6597SOL    HW220691   1.872   5.439   1.273
 6598SOL     OW20692   1.688   6.056   4.770
 6598SOL    HW120693   1.713   6.122   4.699
 6598SOL    HW220694   1.771   6.013   4.805
 6599SOL     OW20695   4.484   6.310   5.905
 6599SOL    HW120696   4.478   6.361   5.991
 6599SOL    HW220697   4.455   6.216   5.920
 6600SOL     OW20698   5.297   5.136   5.493
 6600SOL    HW120699   5.239   5.061   5.525
 6600SOL    HW220700   5.379   5.100   5.449
 6601SOL     OW20701   0.972   1.449   5.007
 6601SOL    HW120702   1.024   1.534   5.014
 6601SOL    HW220703   1.024   1.383   4.953
 6602SOL     OW20704   0.543   0.958   2.314
 6602SOL    HW120705   0.578   1.028   2.253
 6602SOL    HW220706   0.460   0.918   2.275
 6603SOL     OW20707   6.733   2.816   4.203
 6603SOL    HW120708   6.671   2.738   4.204
 6603SOL    HW220709   6.702   2.882   4.135
 6604SOL     OW20710   2.248   0.033   1.744
 6604SOL    HW120711   2.218   0.055   1.838
 6604SOL    HW220712   2.244   0.116   1.688
 6605SOL     OW20713   5.837   3.666   1.395
 6605SOL    HW120714   5.783   3.582   1.397
 6605SOL    HW220715   5.867   3.685   1.302
 6606SOL     OW20716   0.011   5.947   1.467
 6606SOL    HW120717   7.016   5.853   1.497
 6606SOL    HW220718   6.945   5.997   1.466
 6607SOL     OW20719   1.716   3.201   2.344
 6607SOL    HW120720   1.788   3.135   2.366
 6607SOL    HW220721   1.630   3.171   2.384
 6608SOL     OW20722   6.145   6.078   0.871
 6608SOL    HW120723   6.084   6.109   0.944
 6608SOL    HW220724   6.210   6.012   0.909
 6609SOL     OW20725   4.476   1.212   5.580
 6609SOL    HW120726   4.531   1.254   5.507
 6609SOL    HW220727   4.526   1.133   5.616
 6610SOL     OW20728   2.974   0.305   6.805
 6610SOL    HW120729   2.875   0.297   6.789
 6610SOL    HW220730   3.021   0.312   6.717
 6611SOL     OW20731   5.816   2.978   3.600
 6611SOL    HW120732   5.864   2.964   3.687
 6611SOL    HW220733   5.719   2.954   3.612
 6612SOL     OW20734   6.094   2.253   6.044
 6612SOL    HW120735   6.104   2.330   6.106
 6612SOL    HW220736   6.173   2.192   6.053
 6613SOL     OW20737   6.490   5.888   4.949
 6613SOL    HW120738   6.461   5.973   4.993
 6613SOL    HW220739   6.586   5.871   4.968
 6614SOL     OW20740   5.155   6.550   0.815
 6614SOL    HW120741   5.153   6.516   0.909
 6614SOL    HW220742   5.247   6.580   0.792
 6615SOL     OW20743   1.251   4.947   2.619
 6615SOL    HW120744   1.246   4.865   2.562
 6615SOL    HW220745   1.280   4.922   2.711
 6616SOL     OW20746   4.203   1.220   5.535
 6616SOL    HW120747   4.151   1.212   5.620
 6616SOL    HW220748   4.301   1.210   5.554
 6617SOL     OW20749   4.377   5.010   3.309
 6617SOL    HW120750   4.365   5.101   3.270
 6617SOL    HW220751   4.398   5.018   3.406
 6618SOL     OW20752   1.522   2.729   2.400
 6618SOL    HW120753   1.455   2.701   2.333
 6618SOL    HW220754   1.610   2.687   2.380
 6619SOL     OW20755   6.306   6.859   3.742
 6619SOL    HW120756   6.273   6.934   3.685
 6619SOL    HW220757   6.395   6.883   3.781
 6620SOL     OW20758   1.720   3.130   4.946
 6620SOL    HW120759   1.677   3.046   4.977
 6620SOL    HW220760   1.659   3.178   4.883
 6621SOL     OW20761   2.847   2.981   6.106
 6621SOL    HW120762   2.928   2.921   6.113
 6621SOL    HW220763   2.866   3.055   6.042
 6622SOL     OW20764   5.993   6.711   1.124
 6622SOL    HW120765   5.895   6.694   1.131
 6622SOL    HW220766   6.040   6.625   1.101
 6623SOL     OW20767   3.053   3.022   5.774
 6623SOL    HW120768   3.125   3.044   5.708
 6623SOL    HW220769   3.003   3.105   5.799
 6624SOL     OW20770   0.961   5.212   5.873
 6624SOL    HW120771   0.916   5.137   5.920
 6624SOL    HW220772   0.958   5.294   5.929
 6625SOL     OW20773   4.957   1.988   5.635
 6625SOL    HW120774   4.898   2.024   5.708
 6625SOL    HW220775   4.968   2.057   5.564
 6626SOL     OW20776   4.908   5.225   5.600
 6626SOL    HW120777   4.945   5.288   5.668
 6626SOL    HW220778   4.974   5.151   5.583
 6627SOL     OW20779   2.237   6.570   4.805
 6627SOL    HW120780   2.279   6.656   4.836
 6627SOL    HW220781   2.283   6.539   4.721
 6628SOL     OW20782   4.589   4.469   4.924
 6628SOL    HW120783   4.634   4.417   4.997
 6628SOL    HW220784   4.493   4.484   4.948
 6629SOL     OW20785   4.287   5.797   0.040
 6629SOL    HW120786   4.216   5.865   0.023
 6629SOL    HW220787   4.253   5.730   0.106
 6630SOL     OW20788   4.033   1.008   1.884
 6630SOL    HW120789   4.030   0.974   1.790
 6630SOL    HW220790   4.039   0.931   1.947
 6631SOL     OW20791   2.680   5.706   3.599
 6631SOL    HW120792   2.624   5.764   3.658
 6631SOL    HW220793   2.668   5.733   3.503
 6632SOL     OW20794   6.981   6.355   1.412
 6632SOL    HW120795   7.016   6.417   1.342
 6632SOL    HW220796   6.941   6.408   1.487
 6633SOL     OW20797   0.591   4.391   6.541
 6633SOL    HW120798   0.675   4.395   6.488
 6633SOL    HW220799   0.525   4.458   6.505
 6634SOL     OW20800   5.452   2.308   3.922
 6634SOL    HW120801   5.409   2.271   4.005
 6634SOL    HW220802   5.484   2.401   3.939
 6635SOL     OW20803   4.558   4.861   3.156
 6635SOL    HW120804   4.495   4.912   3.215
 6635SOL    HW220805   4.561   4.904   3.066
 6636SOL     OW20806   4.851   2.556   5.763
 6636SOL    HW120807   4.900   2.643   5.762
 6636SOL    HW220808   4.799   2.548   5.848
 6637SOL     OW20809   1.577   0.082   6.334
 6637SOL    HW120810   1.489   0.035   6.345
 6637SOL    HW220811   1.597   0.134   6.417
 6638SOL     OW20812   3.313   3.609   3.843
 6638SOL    HW120813   3.245   3.549   3.885
 6638SOL    HW220814   3.376   3.642   3.914
 6639SOL     OW20815   5.502   4.453   6.592
 6639SOL    HW120816   5.446   4.535   6.597
 6639SOL    HW220817   5.579   4.468   6.530
 6640SOL     OW20818   1.383   1.383   4.945
 6640SOL    HW120819   1.358   1.456   5.008
 6640SOL    HW220820   1.476   1.352   4.964
 6641SOL     OW20821   2.188   1.845   6.794
 6641SOL    HW120822   2.107   1.818   6.744
 6641SOL    HW220823   2.268   1.796   6.759
 6642SOL     OW20824   2.760   5.530   6.532
 6642SOL    HW120825   2.696   5.585   6.585
 6642SOL    HW220826   2.853   5.547   6.564
 6643SOL     OW20827   5.875   5.117   0.041
 6643SOL    HW120828   5.845   5.212   0.055
 6643SOL    HW220829   5.863   5.066   0.126
 6644SOL     OW20830   2.189   5.461   2.150
 6644SOL    HW120831   2.156   5.438   2.059
 6644SOL    HW220832   2.265   5.525   2.142
 6645SOL     OW20833   6.540   5.245   0.534
 6645SOL    HW120834   6.628   5.277   0.569
 6645SOL    HW220835   6.537   5.145   0.538
 6646SOL     OW20836   4.441   7.000   5.028
 6646SOL    HW120837   4.382   0.026   5.093
 6646SOL    HW220838   4.425   6.901   5.032
 6647SOL     OW20839   4.872   0.984   2.030
 6647SOL    HW120840   4.875   0.899   1.977
 6647SOL    HW220841   4.796   1.041   1.999
 6648SOL     OW20842   4.296   6.590   3.005
 6648SOL    HW120843   4.215   6.568   2.950
 6648SOL    HW220844   4.378   6.554   2.961
 6649SOL     OW20845   4.943   0.918   6.578
 6649SOL    HW120846   5.028   0.875   6.606
 6649SOL    HW220847   4.873   0.903   6.649
 6650SOL     OW20848   3.290   1.480   5.460
 6650SOL    HW120849   3.267   1.410   5.528
 6650SOL    HW220850   3.367   1.448   5.405
 6651SOL     OW20851   2.082   2.097   5.608
 6651SOL    HW120852   2.104   2.108   5.511
 6651SOL    HW220853   2.029   2.014   5.622
 6652SOL     OW20854   0.729   4.493   0.582
 6652SOL    HW120855   0.734   4.403   0.539
 6652SOL    HW220856   0.716   4.482   0.681
 6653SOL     OW20857   2.970   3.219   2.517
 6653SOL    HW120858   3.008   3.129   2.497
 6653SOL    HW220859   2.971   3.275   2.434
 6654SOL     OW20860   1.267   4.192   1.411
 6654SOL    HW120861   1.275   4.259   1.485
 6654SOL    HW220862   1.338   4.209   1.343
 6655SOL     OW20863   0.892   0.186   3.329
 6655SOL    HW120864   0.967   0.123   3.310
 6655SOL    HW220865   0.805   0.139   3.314
 6656SOL     OW20866   5.535   1.776   3.699
 6656SOL    HW120867   5.513   1.689   3.656
 6656SOL    HW220868   5.624   1.770   3.744
 6657SOL     OW20869   5.800   5.774   6.243
 6657SOL    HW120870   5.719   5.814   6.201
 6657SOL    HW220871   5.784   5.761   6.341
 6658SOL     OW20872   6.760   0.839   4.384
 6658SOL    HW120873   6.751   0.921   4.326
 6658SOL    HW220874   6.776   0.759   4.326
 6659SOL     OW20875   1.948   2.329   0.408
 6659SOL    HW120876   1.999   2.244   0.393
 6659SOL    HW220877   2.002   2.391   0.464
 6660SOL     OW20878   1.230   5.016   1.164
 6660SOL    HW120879   1.292   5.029   1.242
 6660SOL    HW220880   1.154   5.081   1.171
 6661SOL     OW20881   1.020   6.608   5.182
 6661SOL    HW120882   1.117   6.622   5.164
 6661SOL    HW220883   1.004   6.607   5.280
 6662SOL     OW20884   1.188   0.823   0.167
 6662SOL    HW120885   1.249   0.902   0.161
 6662SOL    HW220886   1.242   0.739   0.165
 6663SOL     OW20887   6.739   4.601   4.076
 6663SOL    HW120888   6.823   4.654   4.083
 6663SOL    HW220889   6.664   4.660   4.046
 6664SOL     OW20890   1.905   6.189   0.606
 6664SOL    HW120891   1.974   6.214   0.537
 6664SOL    HW220892   1.830   6.140   0.561
 6665SOL     OW20893   1.923   6.514   4.105
 6665SOL    HW120894   1.917   6.614   4.111
 6665SOL    HW220895   1.830   6.476   4.097
 6666SOL     OW20896   6.404   7.002   5.139
 6666SOL    HW120897   6.333   6.954   5.089
 6666SOL    HW220898   6.367   0.017   5.225
 6667SOL     OW20899   6.427   5.959   6.737
 6667SOL    HW120900   6.487   6.017   6.681
 6667SOL    HW220901   6.401   5.878   6.685
 6668SOL     OW20902   0.182   5.440   1.460
 6668SOL    HW120903   0.240   5.516   1.433
 6668SOL    HW220904   0.188   5.366   1.393
 6669SOL     OW20905   1.628   3.211   3.649
 6669SOL    HW120906   1.558   3.276   3.680
 6669SOL    HW220907   1.719   3.244   3.675
 6670SOL     OW20908   3.554   2.205   5.436
 6670SOL    HW120909   3.459   2.202   5.404
 6670SOL    HW220910   3.559   2.169   5.529
 6671SOL     OW20911   6.164   5.778   0.658
 6671SOL    HW120912   6.262   5.800   0.649
 6671SOL    HW220913   6.113   5.861   0.678
 6672SOL     OW20914   6.340   1.903   6.474
 6672SOL    HW120915   6.322   1.894   6.572
 6672SOL    HW220916   6.368   1.997   6.453
 6673SOL     OW20917   5.810   5.542   4.301
 6673SOL    HW120918   5.826   5.641   4.296
 6673SOL    HW220919   5.747   5.515   4.228
 6674SOL     OW20920   0.865   4.970   5.974
 6674SOL    HW120921   0.849   4.983   6.072
 6674SOL    HW220922   0.893   4.875   5.958
 6675SOL     OW20923   4.697   3.834   1.753
 6675SOL    HW120924   4.790   3.807   1.727
 6675SOL    HW220925   4.632   3.766   1.720
 6676SOL     OW20926   0.067   3.165   5.465
 6676SOL    HW120927   0.017   3.181   5.380
 6676SOL    HW220928   0.083   3.253   5.510
 6677SOL     OW20929   1.166   1.386   6.642
 6677SOL    HW120930   1.085   1.400   6.584
 6677SOL    HW220931   1.136   1.364   6.735
 6678SOL     OW20932   3.241   3.268   6.505
 6678SOL    HW120933   3.320   3.326   6.527
 6678SOL    HW220934   3.270   3.173   6.495
 6679SOL     OW20935   2.707   1.199   3.825
 6679SOL    HW120936   2.738   1.107   3.852
 6679SOL    HW220937   2.615   1.215   3.860
 6680SOL     OW20938   4.666   6.902   6.918
 6680SOL    HW120939   4.677   6.806   6.893
 6680SOL    HW220940   4.575   6.916   6.958
 6681SOL     OW20941   4.169   5.904   1.610
 6681SOL    HW120942   4.135   5.975   1.548
 6681SOL    HW220943   4.207   5.947   1.692
 6682SOL     OW20944   0.169   4.520   2.710
 6682SOL    HW120945   0.156   4.513   2.611
 6682SOL    HW220946   0.189   4.430   2.747
 6683SOL     OW20947   5.948   2.741   5.570
 6683SOL    HW120948   6.018   2.670   5.577
 6683SOL    HW220949   5.858   2.700   5.584
 6684SOL     OW20950   2.799   0.271   1.685
 6684SOL    HW120951   2.891   0.277   1.724
 6684SOL    HW220952   2.758   0.362   1.682
 6685SOL     OW20953   6.553   3.609   5.638
 6685SOL    HW120954   6.458   3.587   5.616
 6685SOL    HW220955   6.588   3.541   5.702
 6686SOL     OW20956   5.600   5.864   4.208
 6686SOL    HW120957   5.566   5.944   4.257
 6686SOL    HW220958   5.586   5.876   4.110
 6687SOL     OW20959   1.049   3.342   0.169
 6687SOL    HW120960   1.063   3.440   0.185
 6687SOL    HW220961   1.073   3.320   0.075
 6688SOL     OW20962   0.287   3.904   2.848
 6688SOL    HW120963   0.244   3.830   2.796
 6688SOL    HW220964   0.338   3.964   2.787
 6689SOL     OW20965   4.637   2.931   0.441
 6689SOL    HW120966   4.667   2.870   0.368
 6689SOL    HW220967   4.643   3.026   0.410
 6690SOL     OW20968   1.985   0.710   0.991
 6690SOL    HW120969   2.057   0.647   0.960
 6690SOL    HW220970   1.896   0.677   0.960
 6691SOL     OW20971   2.615   6.585   1.011
 6691SOL    HW120972   2.564   6.666   1.040
 6691SOL    HW220973   2.699   6.578   1.065
 6692SOL     OW20974   3.807   4.165   4.885
 6692SOL    HW120975   3.896   4.175   4.839
 6692SOL    HW220976   3.738   4.217   4.834
 6693SOL     OW20977   3.994   3.812   5.018
 6693SOL    HW120978   3.932   3.880   5.059
 6693SOL    HW220979   4.089   3.840   5.035
 6694SOL     OW20980   4.089   6.094   1.072
 6694SOL    HW120981   4.189   6.087   1.084
 6694SOL    HW220982   4.060   6.187   1.094
 6695SOL     OW20983   3.317   1.420   0.027
 6695SOL    HW120984   3.401   1.473   0.020
 6695SOL    HW220985   3.263   1.453   0.104
 6696SOL     OW20986   1.907   2.926   5.562
 6696SOL    HW120987   1.997   2.969   5.562
 6696SOL    HW220988   1.869   2.929   5.655
 6697SOL     OW20989   4.433   2.171   2.291
 6697SOL    HW120990   4.413   2.234   2.365
 6697SOL    HW220991   4.361   2.177   2.221
 6698SOL     OW20992   2.910   2.537   1.311
 6698SOL    HW120993   3.005   2.520   1.284
 6698SOL    HW220994   2.881   2.625   1.274
 6699SOL     OW20995   2.461   5.054   6.699
 6699SOL    HW120996   2.435   4.959   6.715
 6699SOL    HW220997   2.559   5.065   6.717
 6700SOL     OW20998   6.932   6.738   1.018
 6700SOL    HW120999   6.906   6.727   0.922
 6700SOL    HW221000   6.966   6.830   1.034
 6701SOL     OW21001   5.629   3.157   1.488
 6701SOL    HW121002   5.573   3.228   1.446
 6701SOL    HW221003   5.575   3.073   1.499
 6702SOL     OW21004   3.079   1.726   2.048
 6702SOL    HW121005   3.115   1.684   1.964
 6702SOL    HW221006   3.155   1.753   2.107
 6703SOL     OW21007   6.344   2.254   6.854
 6703SOL    HW121008   6.293   2.168   6.851
 6703SOL    HW221009   6.319   2.310   6.776
 6704SOL     OW21010   3.564   2.100   3.155
 6704SOL    HW121011   3.588   2.149   3.071
 6704SOL    HW221012   3.628   2.126   3.228
 6705SOL     OW21013   6.433   2.654   1.390
 6705SOL    HW121014   6.457   2.585   1.322
 6705SOL    HW221015   6.372   2.614   1.459
 6706SOL     OW21016   1.423   3.956   2.006
 6706SOL    HW121017   1.436   3.948   2.104
 6706SOL    HW221018   1.511   3.949   1.959
 6707SOL     OW21019   6.577   5.757   3.769
 6707SOL    HW121020   6.560   5.853   3.750
 6707SOL    HW221021   6.490   5.709   3.784
 6708SOL     OW21022   6.929   4.919   1.438
 6708SOL    HW121023   6.914   4.823   1.462
 6708SOL    HW221024   6.840   4.964   1.426
 6709SOL     OW21025   2.812   6.889   3.059
 6709SOL    HW121026   2.769   6.934   2.981
 6709SOL    HW221027   2.869   6.955   3.108
 6710SOL     OW21028   3.740   1.112   6.287
 6710SOL    HW121029   3.832   1.075   6.305
 6710SOL    HW221030   3.717   1.178   6.358
 6711SOL     OW21031   4.758   5.389   6.058
 6711SOL    HW121032   4.806   5.453   5.998
 6711SOL    HW221033   4.719   5.439   6.135
 6712SOL     OW21034   4.767   4.540   0.027
 6712SOL    HW121035   4.683   4.590   0.006
 6712SOL    HW221036   4.844   4.603   0.031
 6713SOL     OW21037   2.088   0.590   2.504
 6713SOL    HW121038   2.187   0.579   2.492
 6713SOL    HW221039   2.060   0.680   2.471
 6714SOL     OW21040   6.316   1.447   6.030
 6714SOL    HW121041   6.316   1.351   6.002
 6714SOL    HW221042   6.224   1.475   6.055
 6715SOL     OW21043   7.013   6.890   6.682
 6715SOL    HW121044   6.916   6.915   6.687
 6715SOL    HW221045   0.015   6.828   6.757
 6716SOL     OW21046   0.629   5.927   1.451
 6716SOL    HW121047   0.561   6.000   1.446
 6716SOL    HW221048   0.652   5.897   1.359
 6717SOL     OW21049   4.516   2.853   6.658
 6717SOL    HW121050   4.470   2.942   6.667
 6717SOL    HW221051   4.479   2.805   6.578
 6718SOL     OW21052   4.934   0.012   0.236
 6718SOL    HW121053   4.861   0.050   0.178
 6718SOL    HW221054   4.984   6.963   0.185
 6719SOL     OW21055   2.188   0.034   6.923
 6719SOL    HW121056   2.105   0.079   6.891
 6719SOL    HW221057   2.192   0.040   0.002
 6720SOL     OW21058   0.750   6.820   3.657
 6720SOL    HW121059   0.782   6.855   3.569
 6720SOL    HW221060   0.828   6.788   3.711
 6721SOL     OW21061   6.197   0.464   6.240
 6721SOL    HW121062   6.268   0.532   6.251
 6721SOL    HW221063   6.163   0.466   6.146
 6722SOL     OW21064   0.082   3.093   1.313
 6722SOL    HW121065   0.072   3.053   1.222
 6722SOL    HW221066   0.022   3.172   1.321
 6723SOL     OW21067   2.392   6.798   2.992
 6723SOL    HW121068   2.346   6.887   2.987
 6723SOL    HW221069   2.421   6.780   3.085
 6724SOL     OW21070   1.480   3.710   5.788
 6724SOL    HW121071   1.552   3.759   5.738
 6724SOL    HW221072   1.501   3.612   5.789
 6725SOL     OW21073   0.451   3.685   1.485
 6725SOL    HW121074   0.378   3.707   1.549
 6725SOL    HW221075   0.429   3.722   1.395
 6726SOL     OW21076   0.943   1.964   5.274
 6726SOL    HW121077   0.891   1.925   5.197
 6726SOL    HW221078   0.941   2.064   5.268
 6727SOL     OW21079   6.010   3.848   5.378
 6727SOL    HW121080   6.037   3.771   5.436
 6727SOL    HW221081   5.912   3.864   5.387
 6728SOL     OW21082   4.208   1.119   3.210
 6728SOL    HW121083   4.279   1.082   3.149
 6728SOL    HW221084   4.213   1.073   3.298
 6729SOL     OW21085   6.968   1.374   2.594
 6729SOL    HW121086   0.031   1.357   2.543
 6729SOL    HW221087   6.965   1.314   2.674
 6730SOL     OW21088   2.538   6.463   0.031
 6730SOL    HW121089   2.532   6.446   6.953
 6730SOL    HW221090   2.543   6.376   0.079
 6731SOL     OW21091   0.974   6.091   1.804
 6731SOL    HW121092   1.005   5.997   1.808
 6731SOL    HW221093   1.019   6.138   1.728
 6732SOL     OW21094   5.467   4.879   5.587
 6732SOL    HW121095   5.471   4.924   5.677
 6732SOL    HW221096   5.495   4.784   5.596
 6733SOL     OW21097   3.926   4.765   7.017
 6733SOL    HW121098   3.855   4.831   6.992
 6733SOL    HW221099   4.004   4.775   6.954
 6734SOL     OW21100   6.484   1.988   5.038
 6734SOL    HW121101   6.420   2.065   5.040
 6734SOL    HW221102   6.503   1.959   5.132
 6735SOL     OW21103   0.068   4.190   4.383
 6735SOL    HW121104   0.084   4.148   4.472
 6735SOL    HW221105   0.133   4.153   4.316
 6736SOL     OW21106   3.277   3.754   0.140
 6736SOL    HW121107   3.209   3.692   0.181
 6736SOL    HW221108   3.234   3.842   0.121
 6737SOL     OW21109   2.030   2.584   0.791
 6737SOL    HW121110   1.949   2.616   0.840
 6737SOL    HW221111   2.055   2.493   0.824
 6738SOL     OW21112   1.814   5.051   2.653
 6738SOL    HW121113   1.721   5.014   2.657
 6738SOL    HW221114   1.850   5.041   2.561
 6739SOL     OW21115   3.742   5.890   5.622
 6739SOL    HW121116   3.680   5.956   5.580
 6739SOL    HW221117   3.836   5.910   5.594
 6740SOL     OW21118   1.788   1.046   4.139
 6740SOL    HW121119   1.711   1.065   4.200
 6740SOL    HW221120   1.783   1.105   4.059
 6741SOL     OW21121   3.980   1.190   5.359
 6741SOL    HW121122   4.035   1.210   5.278
 6741SOL    HW221123   4.017   1.240   5.438
 6742SOL     OW21124   6.406   5.935   2.646
 6742SOL    HW121125   6.474   5.969   2.711
 6742SOL    HW221126   6.405   5.835   2.647
 6743SOL     OW21127   4.194   4.997   0.149
 6743SOL    HW121128   4.107   5.046   0.156
 6743SOL    HW221129   4.178   4.900   0.165
 6744SOL     OW21130   5.569   5.296   5.984
 6744SOL    HW121131   5.602   5.277   6.076
 6744SOL    HW221132   5.526   5.214   5.947
 6745SOL     OW21133   0.294   0.477   2.831
 6745SOL    HW121134   0.242   0.504   2.912
 6745SOL    HW221135   0.371   0.420   2.859
 6746SOL     OW21136   1.100   1.285   2.997
 6746SOL    HW121137   1.178   1.330   3.040
 6746SOL    HW221138   1.095   1.190   3.029
 6747SOL     OW21139   5.653   0.815   5.240
 6747SOL    HW121140   5.604   0.760   5.172
 6747SOL    HW221141   5.721   0.757   5.286
 6748SOL     OW21142   1.379   0.644   3.693
 6748SOL    HW121143   1.284   0.615   3.704
 6748SOL    HW221144   1.439   0.576   3.733
 6749SOL     OW21145   2.795   6.198   0.028
 6749SOL    HW121146   2.733   6.240   0.095
 6749SOL    HW221147   2.771   6.102   0.016
 6750SOL     OW21148   4.264   2.192   5.424
 6750SOL    HW121149   4.293   2.131   5.498
 6750SOL    HW221150   4.246   2.283   5.461
 6751SOL     OW21151   4.677   0.238   3.625
 6751SOL    HW121152   4.636   0.221   3.715
 6751SOL    HW221153   4.694   0.151   3.579
 6752SOL     OW21154   0.408   2.434   2.856
 6752SOL    HW121155   0.394   2.526   2.893
 6752SOL    HW221156   0.338   2.372   2.892
 6753SOL     OW21157   4.348   0.669   6.249
 6753SOL    HW121158   4.347   0.725   6.332
 6753SOL    HW221159   4.347   0.573   6.274
 6754SOL     OW21160   0.147   1.520   6.754
 6754SOL    HW121161   0.203   1.438   6.763
 6754SOL    HW221162   0.183   1.591   6.814
 6755SOL     OW21163   4.318   0.637   3.371
 6755SOL    HW121164   4.320   0.730   3.408
 6755SOL    HW221165   4.290   0.573   3.442
 6756SOL     OW21166   3.858   5.316   5.241
 6756SOL    HW121167   3.912   5.326   5.157
 6756SOL    HW221168   3.919   5.304   5.319
 6757SOL     OW21169   4.379   0.392   1.342
 6757SOL    HW121170   4.434   0.360   1.418
 6757SOL    HW221171   4.368   0.318   1.275
 6758SOL     OW21172   6.960   2.744   1.304
 6758SOL    HW121173   7.015   2.707   1.229
 6758SOL    HW221174   6.992   2.707   1.391
 6759SOL     OW21175   0.724   4.926   3.940
 6759SOL    HW121176   0.786   4.981   3.996
 6759SOL    HW221177   0.736   4.949   3.844
 6760SOL     OW21178   6.414   4.899   3.361
 6760SOL    HW121179   6.505   4.928   3.334
 6760SOL    HW221180   6.378   4.961   3.431
 6761SOL     OW21181   6.291   2.058   6.074
 6761SOL    HW121182   6.369   2.028   6.128
 6761SOL    HW221183   6.323   2.103   5.990
 6762SOL     OW21184   6.995   5.500   3.207
 6762SOL    HW121185   0.055   5.496   3.267
 6762SOL    HW221186   7.006   5.575   3.143
 6763SOL     OW21187   0.407   5.278   3.672
 6763SOL    HW121188   0.308   5.283   3.689
 6763SOL    HW221189   0.451   5.230   3.747
 6764SOL     OW21190   2.662   4.936   6.464
 6764SOL    HW121191   2.681   5.025   6.422
 6764SOL    HW221192   2.652   4.947   6.563
 6765SOL     OW21193   5.054   4.605   4.158
 6765SOL    HW121194   5.030   4.520   4.204
 6765SOL    HW221195   5.092   4.669   4.225
 6766SOL     OW21196   4.893   6.127   6.399
 6766SOL    HW121197   4.913   6.195   6.328
 6766SOL    HW221198   4.828   6.060   6.364
 6767SOL     OW21199   0.987   2.508   0.203
 6767SOL    HW121200   0.931   2.426   0.194
 6767SOL    HW221201   0.936   2.577   0.255
 6768SOL     OW21202   0.837   6.600   3.363
 6768SOL    HW121203   0.791   6.596   3.274
 6768SOL    HW221204   0.869   6.693   3.379
 6769SOL     OW21205   3.001   6.958   5.618
 6769SOL    HW121206   2.917   6.956   5.563
 6769SOL    HW221207   3.025   0.032   5.639
 6770SOL     OW21208   6.113   1.858   3.097
 6770SOL    HW121209   6.143   1.776   3.147
 6770SOL    HW221210   6.048   1.909   3.154
 6771SOL     OW21211   3.600   1.301   2.181
 6771SOL    HW121212   3.526   1.256   2.130
 6771SOL    HW221213   3.672   1.235   2.200
 6772SOL     OW21214   4.641   2.024   2.320
 6772SOL    HW121215   4.556   2.077   2.321
 6772SOL    HW221216   4.621   1.928   2.344
 6773SOL     OW21217   0.226   6.317   1.520
 6773SOL    HW121218   0.131   6.319   1.489
 6773SOL    HW221219   0.237   6.245   1.588
 6774SOL     OW21220   1.584   2.897   4.325
 6774SOL    HW121221   1.601   2.806   4.364
 6774SOL    HW221222   1.657   2.959   4.354
 6775SOL     OW21223   0.707   2.053   3.482
 6775SOL    HW121224   0.707   2.046   3.582
 6775SOL    HW221225   0.794   2.093   3.452
 6776SOL     OW21226   4.210   3.693   1.431
 6776SOL    HW121227   4.128   3.686   1.374
 6776SOL    HW221228   4.197   3.639   1.514
 6777SOL     OW21229   4.784   5.549   0.515
 6777SOL    HW121230   4.792   5.529   0.418
 6777SOL    HW221231   4.808   5.644   0.533
 6778SOL     OW21232   6.232   4.050   2.241
 6778SOL    HW121233   6.232   4.011   2.333
 6778SOL    HW221234   6.138   4.062   2.210
 6779SOL     OW21235   5.092   4.525   5.868
 6779SOL    HW121236   5.040   4.526   5.783
 6779SOL    HW221237   5.076   4.439   5.916
 6780SOL     OW21238   0.879   3.740   2.872
 6780SOL    HW121239   0.975   3.716   2.866
 6780SOL    HW221240   0.861   3.821   2.815
 6781SOL     OW21241   6.793   1.979   3.749
 6781SOL    HW121242   6.844   1.924   3.815
 6781SOL    HW221243   6.805   2.076   3.771
 6782SOL     OW21244   0.748   1.357   2.910
 6782SOL    HW121245   0.772   1.314   2.823
 6782SOL    HW221246   0.832   1.381   2.959
 6783SOL     OW21247   1.097   3.296   5.780
 6783SOL    HW121248   1.180   3.329   5.824
 6783SOL    HW221249   1.062   3.367   5.718
 6784SOL     OW21250   2.554   4.212   0.945
 6784SOL    HW121251   2.502   4.237   1.027
 6784SOL    HW221252   2.545   4.113   0.929
 6785SOL     OW21253   5.751   4.888   5.625
 6785SOL    HW121254   5.764   4.845   5.536
 6785SOL    HW221255   5.840   4.900   5.670
 6786SOL     OW21256   0.605   3.179   6.268
 6786SOL    HW121257   0.505   3.170   6.264
 6786SOL    HW221258   0.638   3.225   6.185
 6787SOL     OW21259   3.293   1.955   1.244
 6787SOL    HW121260   3.331   2.030   1.297
 6787SOL    HW221261   3.311   1.868   1.291
 6788SOL     OW21262   0.456   4.317   2.619
 6788SOL    HW121263   0.486   4.368   2.699
 6788SOL    HW221264   0.429   4.225   2.647
 6789SOL     OW21265   6.947   4.241   3.795
 6789SOL    HW121266   6.949   4.146   3.766
 6789SOL    HW221267   6.970   4.301   3.718
 6790SOL     OW21268   0.409   4.362   6.954
 6790SOL    HW121269   0.481   4.386   7.020
 6790SOL    HW221270   0.356   4.443   6.931
 6791SOL     OW21271   4.067   2.131   2.462
 6791SOL    HW121272   4.092   2.060   2.397
 6791SOL    HW221273   3.998   2.096   2.525
 6792SOL     OW21274   4.857   6.906   5.436
 6792SOL    HW121275   4.766   6.884   5.472
 6792SOL    HW221276   4.903   6.969   5.499
 6793SOL     OW21277   3.326   0.690   6.932
 6793SOL    HW121278   3.408   0.635   6.949
 6793SOL    HW221279   3.247   0.647   6.975
 6794SOL     OW21280   5.097   1.120   5.179
 6794SOL    HW121281   5.039   1.116   5.260
 6794SOL    HW221282   5.039   1.116   5.097
 6795SOL     OW21283   0.684   6.451   0.338
 6795SOL    HW121284   0.688   6.464   0.437
 6795SOL    HW221285   0.631   6.369   0.317
 6796SOL     OW21286   5.720   0.129   2.479
 6796SOL    HW121287   5.751   0.100   2.569
 6796SOL    HW221288   5.758   0.070   2.409
 6797SOL     OW21289   6.491   1.731   0.191
 6797SOL    HW121290   6.573   1.713   0.135
 6797SOL    HW221291   6.416   1.675   0.158
 6798SOL     OW21292   6.559   0.524   1.504
 6798SOL    HW121293   6.563   0.464   1.584
 6798SOL    HW221294   6.497   0.485   1.436
 6799SOL     OW21295   5.482   0.042   2.448
 6799SOL    HW121296   5.577   0.060   2.474
 6799SOL    HW221297   5.449   0.115   2.388
 6800SOL     OW21298   2.465   2.635   1.864
 6800SOL    HW121299   2.562   2.611   1.859
 6800SOL    HW221300   2.413   2.555   1.895
 6801SOL     OW21301   0.973   6.736   3.811
 6801SOL    HW121302   1.017   6.657   3.768
 6801SOL    HW221303   1.037   6.779   3.874
 6802SOL     OW21304   3.637   5.982   1.536
 6802SOL    HW121305   3.564   5.915   1.548
 6802SOL    HW221306   3.662   6.021   1.625
 6803SOL     OW21307   4.204   4.493   6.589
 6803SOL    HW121308   4.113   4.530   6.572
 6803SOL    HW221309   4.250   4.475   6.501
 6804SOL     OW21310   3.697   5.179   3.106
 6804SOL    HW121311   3.620   5.224   3.151
 6804SOL    HW221312   3.774   5.173   3.170
 6805SOL     OW21313   0.512   5.101   6.764
 6805SOL    HW121314   0.453   5.028   6.799
 6805SOL    HW221315   0.608   5.072   6.774
 6806SOL     OW21316   6.741   0.682   4.145
 6806SOL    HW121317   6.751   0.731   4.058
 6806SOL    HW221318   6.658   0.627   4.142
 6807SOL     OW21319   3.815   4.008   3.153
 6807SOL    HW121320   3.770   4.037   3.069
 6807SOL    HW221321   3.883   3.938   3.132
 6808SOL     OW21322   6.595   1.367   5.007
 6808SOL    HW121323   6.620   1.334   4.916
 6808SOL    HW221324   6.555   1.459   5.000
 6809SOL     OW21325   6.625   3.696   0.719
 6809SOL    HW121326   6.717   3.663   0.699
 6809SOL    HW221327   6.579   3.631   0.779
 6810SOL     OW21328   3.108   0.936   2.371
 6810SOL    HW121329   3.117   0.951   2.469
 6810SOL    HW221330   3.155   0.851   2.346
 6811SOL     OW21331   6.170   2.752   2.542
 6811SOL    HW121332   6.187   2.690   2.466
 6811SOL    HW221333   6.073   2.777   2.544
 6812SOL     OW21334   3.481   4.101   5.185
 6812SOL    HW121335   3.433   4.081   5.100
 6812SOL    HW221336   3.441   4.046   5.259
 6813SOL     OW21337   5.857   3.333   2.497
 6813SOL    HW121338   5.825   3.425   2.519
 6813SOL    HW221339   5.786   3.267   2.519
 6814SOL     OW21340   4.747   1.560   6.760
 6814SOL    HW121341   4.711   1.500   6.831
 6814SOL    HW221342   4.722   1.655   6.780
 6815SOL     OW21343   2.463   6.153   6.552
 6815SOL    HW121344   2.531   6.085   6.578
 6815SOL    HW221345   2.397   6.164   6.627
 6816SOL     OW21346   6.787   1.430   5.202
 6816SOL    HW121347   6.735   1.410   5.119
 6816SOL    HW221348   6.772   1.358   5.269
 6817SOL     OW21349   2.446   2.668   3.813
 6817SOL    HW121350   2.427   2.650   3.717
 6817SOL    HW221351   2.537   2.632   3.837
 6818SOL     OW21352   1.834   0.043   0.122
 6818SOL    HW121353   1.914   0.097   0.097
 6818SOL    HW221354   1.860   6.969   0.137
 6819SOL     OW21355   4.806   1.324   3.042
 6819SOL    HW121356   4.760   1.366   2.963
 6819SOL    HW221357   4.897   1.292   3.015
 6820SOL     OW21358   1.052   5.788   1.493
 6820SOL    HW121359   1.028   5.748   1.404
 6820SOL    HW221360   0.973   5.781   1.554
 6821SOL     OW21361   4.514   3.007   5.507
 6821SOL    HW121362   4.537   3.073   5.435
 6821SOL    HW221363   4.513   3.054   5.595
 6822SOL     OW21364   6.184   2.571   5.856
 6822SOL    HW121365   6.284   2.571   5.854
 6822SOL    HW221366   6.150   2.664   5.850
 6823SOL     OW21367   5.719   4.101   6.521
 6823SOL    HW121368   5.632   4.085   6.475
 6823SOL    HW221369   5.746   4.196   6.509
 6824SOL     OW21370   1.826   1.366   0.342
 6824SOL    HW121371   1.803   1.446   0.285
 6824SOL    HW221372   1.873   1.397   0.424
 6825SOL     OW21373   6.108   6.826   0.195
 6825SOL    HW121374   6.156   6.840   0.281
 6825SOL    HW221375   6.158   6.761   0.138
 6826SOL     OW21376   1.277   3.854   3.490
 6826SOL    HW121377   1.377   3.861   3.482
 6826SOL    HW221378   1.253   3.851   3.587
 6827SOL     OW21379   4.956   5.434   5.775
 6827SOL    HW121380   5.030   5.476   5.829
 6827SOL    HW221381   4.894   5.505   5.743
 6828SOL     OW21382   3.911   1.552   2.596
 6828SOL    HW121383   3.953   1.594   2.677
 6828SOL    HW221384   3.875   1.624   2.536
 6829SOL     OW21385   5.261   6.679   5.508
 6829SOL    HW121386   5.359   6.683   5.488
 6829SOL    HW221387   5.229   6.770   5.534
 6830SOL     OW21388   5.651   0.654   3.300
 6830SOL    HW121389   5.678   0.564   3.265
 6830SOL    HW221390   5.683   0.664   3.394
 6831SOL     OW21391   1.720   1.189   5.806
 6831SOL    HW121392   1.787   1.119   5.778
 6831SOL    HW221393   1.634   1.144   5.830
 6832SOL     OW21394   2.431   3.992   0.667
 6832SOL    HW121395   2.357   3.958   0.609
 6832SOL    HW221396   2.486   4.059   0.616
 6833SOL     OW21397   2.494   4.565   6.358
 6833SOL    HW121398   2.546   4.645   6.327
 6833SOL    HW221399   2.532   4.532   6.444
 6834SOL     OW21400   6.077   6.958   1.131
 6834SOL    HW121401   6.048   6.863   1.125
 6834SOL    HW221402   6.001   7.018   1.106
 6835SOL     OW21403   3.620   1.383   4.294
 6835SOL    HW121404   3.551   1.314   4.275
 6835SOL    HW221405   3.653   1.373   4.387
 6836SOL     OW21406   2.572   3.928   6.126
 6836SOL    HW121407   2.518   3.995   6.178
 6836SOL    HW221408   2.663   3.921   6.167
 6837SOL     OW21409   0.586   2.042   2.664
 6837SOL    HW121410   0.658   1.974   2.677
 6837SOL    HW221411   0.616   2.109   2.597
 6838SOL     OW21412   2.840   3.991   6.230
 6838SOL    HW121413   2.842   4.057   6.305
 6838SOL    HW221414   2.929   3.945   6.223
 6839SOL     OW21415   5.135   1.366   4.629
 6839SOL    HW121416   5.213   1.318   4.671
 6839SOL    HW221417   5.063   1.379   4.698
 6840SOL     OW21418   3.140   6.556   5.384
 6840SOL    HW121419   3.076   6.630   5.403
 6840SOL    HW221420   3.134   6.486   5.455
 6841SOL     OW21421   4.138   5.102   0.636
 6841SOL    HW121422   4.061   5.046   0.606
 6841SOL    HW221423   4.121   5.135   0.729
 6842SOL     OW21424   2.338   2.521   0.074
 6842SOL    HW121425   2.276   2.445   0.091
 6842SOL    HW221426   2.290   2.607   0.087
 6843SOL     OW21427   5.180   0.405   2.435
 6843SOL    HW121428   5.106   0.442   2.492
 6843SOL    HW221429   5.169   0.306   2.427
 6844SOL     OW21430   6.120   6.086   4.185
 6844SOL    HW121431   6.199   6.097   4.246
 6844SOL    HW221432   6.046   6.146   4.215
 6845SOL     OW21433   5.191   4.446   2.582
 6845SOL    HW121434   5.259   4.379   2.550
 6845SOL    HW221435   5.193   4.451   2.682
 6846SOL     OW21436   4.080   3.205   1.457
 6846SOL    HW121437   4.135   3.209   1.374
 6846SOL    HW221438   4.047   3.112   1.471
 6847SOL     OW21439   6.969   3.996   2.297
 6847SOL    HW121440   6.913   3.993   2.381
 6847SOL    HW221441   0.008   3.916   2.295
 6848SOL     OW21442   2.912   6.666   3.430
 6848SOL    HW121443   2.851   6.679   3.352
 6848SOL    HW221444   2.870   6.604   3.496
 6849SOL     OW21445   2.856   5.404   4.574
 6849SOL    HW121446   2.837   5.498   4.545
 6849SOL    HW221447   2.806   5.385   4.658
 6850SOL     OW21448   5.426   3.586   2.444
 6850SOL    HW121449   5.505   3.540   2.484
 6850SOL    HW221450   5.436   3.590   2.345
 6851SOL     OW21451   1.582   2.757   4.043
 6851SOL    HW121452   1.616   2.774   4.135
 6851SOL    HW221453   1.510   2.688   4.046
 6852SOL     OW21454   1.020   4.487   1.188
 6852SOL    HW121455   1.037   4.479   1.287
 6852SOL    HW221456   0.978   4.576   1.169
 6853SOL     OW21457   6.653   3.381   6.424
 6853SOL    HW121458   6.609   3.304   6.378
 6853SOL    HW221459   6.584   3.450   6.445
 6854SOL     OW21460   6.195   1.994   5.686
 6854SOL    HW121461   6.286   1.951   5.686
 6854SOL    HW221462   6.125   1.924   5.703
 6855SOL     OW21463   3.434   6.048   2.549
 6855SOL    HW121464   3.505   6.117   2.533
 6855SOL    HW221465   3.459   5.964   2.500
 6856SOL     OW21466   5.239   4.648   5.455
 6856SOL    HW121467   5.325   4.686   5.490
 6856SOL    HW221468   5.248   4.549   5.446
 6857SOL     OW21469   3.588   1.724   6.999
 6857SOL    HW121470   3.632   1.813   7.003
 6857SOL    HW221471   3.623   1.666   0.052
 6858SOL     OW21472   3.757   3.359   4.003
 6858SOL    HW121473   3.698   3.411   3.942
 6858SOL    HW221474   3.701   3.301   4.062
 6859SOL     OW21475   1.208   6.655   1.354
 6859SOL    HW121476   1.229   6.578   1.414
 6859SOL    HW221477   1.234   6.740   1.400
 6860SOL     OW21478   5.837   5.224   1.530
 6860SOL    HW121479   5.920   5.205   1.478
 6860SOL    HW221480   5.837   5.171   1.614
 6861SOL     OW21481   5.854   4.102   0.917
 6861SOL    HW121482   5.785   4.161   0.876
 6861SOL    HW221483   5.924   4.080   0.850
 6862SOL     OW21484   2.015   4.339   4.712
 6862SOL    HW121485   2.058   4.350   4.802
 6862SOL    HW221486   2.085   4.325   4.643
 6863SOL     OW21487   5.582   1.400   4.687
 6863SOL    HW121488   5.567   1.488   4.732
 6863SOL    HW221489   5.554   1.405   4.592
 6864SOL     OW21490   3.576   5.981   3.574
 6864SOL    HW121491   3.644   6.007   3.643
 6864SOL    HW221492   3.623   5.962   3.487
 6865SOL     OW21493   6.493   5.365   2.563
 6865SOL    HW121494   6.457   5.398   2.650
 6865SOL    HW221495   6.531   5.442   2.512
 6866SOL     OW21496   6.426   4.569   2.226
 6866SOL    HW121497   6.356   4.604   2.289
 6866SOL    HW221498   6.510   4.550   2.277
 6867SOL     OW21499   1.333   4.477   1.377
 6867SOL    HW121500   1.251   4.490   1.434
 6867SOL    HW221501   1.333   4.544   1.303
 6868SOL     OW21502   1.287   5.245   5.812
 6868SOL    HW121503   1.256   5.279   5.901
 6868SOL    HW221504   1.209   5.239   5.750
 6869SOL     OW21505   5.989   1.338   5.508
 6869SOL    HW121506   6.042   1.253   5.504
 6869SOL    HW221507   5.904   1.322   5.558
 6870SOL     OW21508   0.252   4.772   2.245
 6870SOL    HW121509   0.249   4.709   2.167
 6870SOL    HW221510   0.295   4.857   2.217
 6871SOL     OW21511   5.790   5.039   2.337
 6871SOL    HW121512   5.843   4.992   2.266
 6871SOL    HW221513   5.712   4.982   2.364
 6872SOL     OW21514   1.289   3.587   0.694
 6872SOL    HW121515   1.328   3.602   0.784
 6872SOL    HW221516   1.192   3.613   0.694
 6873SOL     OW21517   6.201   3.909   5.202
 6873SOL    HW121518   6.120   3.880   5.253
 6873SOL    HW221519   6.228   4.001   5.232
 6874SOL     OW21520   0.742   5.365   2.794
 6874SOL    HW121521   0.713   5.456   2.825
 6874SOL    HW221522   0.828   5.373   2.743
 6875SOL     OW21523   1.032   2.902   3.531
 6875SOL    HW121524   0.999   2.828   3.473
 6875SOL    HW221525   0.957   2.936   3.589
 6876SOL     OW21526   4.158   6.183   5.071
 6876SOL    HW121527   4.150   6.099   5.016
 6876SOL    HW221528   4.253   6.198   5.095
 6877SOL     OW21529   2.823   4.362   6.731
 6877SOL    HW121530   2.880   4.400   6.803
 6877SOL    HW221531   2.843   4.264   6.720
 6878SOL     OW21532   2.642   2.661   5.247
 6878SOL    HW121533   2.599   2.592   5.307
 6878SOL    HW221534   2.610   2.648   5.153
 6879SOL     OW21535   0.853   1.975   6.986
 6879SOL    HW121536   0.774   1.913   6.985
 6879SOL    HW221537   0.900   1.966   0.053
 6880SOL     OW21538   1.985   3.683   5.425
 6880SOL    HW121539   2.025   3.770   5.398
 6880SOL    HW221540   2.010   3.662   5.519
 6881SOL     OW21541   0.509   4.041   2.693
 6881SOL    HW121542   0.493   3.987   2.610
 6881SOL    HW221543   0.602   4.025   2.726
 6882SOL     OW21544   3.180   0.349   5.989
 6882SOL    HW121545   3.254   0.352   6.056
 6882SOL    HW221546   3.189   0.425   5.925
 6883SOL     OW21547   4.184   1.746   0.862
 6883SOL    HW121548   4.119   1.721   0.934
 6883SOL    HW221549   4.172   1.685   0.784
 6884SOL     OW21550   1.506   3.772   4.585
 6884SOL    HW121551   1.570   3.698   4.605
 6884SOL    HW221552   1.491   3.776   4.486
 6885SOL     OW21553   4.266   5.785   4.798
 6885SOL    HW121554   4.208   5.744   4.727
 6885SOL    HW221555   4.220   5.865   4.837
 6886SOL     OW21556   7.010   0.848   3.585
 6886SOL    HW121557   7.015   0.942   3.620
 6886SOL    HW221558   6.962   0.847   3.498
 6887SOL     OW21559   5.048   6.471   6.024
 6887SOL    HW121560   4.965   6.516   5.992
 6887SOL    HW221561   5.123   6.538   6.025
 6888SOL     OW21562   5.341   6.550   6.954
 6888SOL    HW121563   5.426   6.543   7.006
 6888SOL    HW221564   5.264   6.525   7.012
 6889SOL     OW21565   1.727   2.389   4.939
 6889SOL    HW121566   1.706   2.398   5.037
 6889SOL    HW221567   1.784   2.466   4.911
 6890SOL     OW21568   3.481   6.541   1.306
 6890SOL    HW121569   3.420   6.461   1.304
 6890SOL    HW221570   3.483   6.584   1.215
 6891SOL     OW21571   2.251   3.990   4.157
 6891SOL    HW121572   2.316   4.033   4.219
 6891SOL    HW221573   2.176   4.054   4.138
 6892SOL     OW21574   3.601   1.158   3.315
 6892SOL    HW121575   3.614   1.250   3.277
 6892SOL    HW221576   3.690   1.115   3.329
 6893SOL     OW21577   5.440   5.548   0.398
 6893SOL    HW121578   5.434   5.627   0.336
 6893SOL    HW221579   5.503   5.481   0.360
 6894SOL     OW21580   6.162   5.095   7.004
 6894SOL    HW121581   6.063   5.108   7.011
 6894SOL    HW221582   6.185   5.000   0.003
 6895SOL     OW21583   2.515   5.410   6.441
 6895SOL    HW121584   2.524   5.463   6.526
 6895SOL    HW221585   2.474   5.468   6.371
 6896SOL     OW21586   2.234   6.991   3.847
 6896SOL    HW121587   2.262   0.066   3.849
 6896SOL    HW221588   2.280   6.941   3.920
 6897SOL     OW21589   2.649   3.364   0.168
 6897SOL    HW121590   2.658   3.267   0.145
 6897SOL    HW221591   2.740   3.404   0.177
 6898SOL     OW21592   3.869   1.564   2.278
 6898SOL    HW121593   3.825   1.636   2.332
 6898SOL    HW221594   3.858   1.584   2.181
 6899SOL     OW21595   4.994   0.064   0.971
 6899SOL    HW121596   5.051   0.024   1.044
 6899SOL    HW221597   4.914   0.006   0.956
 6900SOL     OW21598   6.401   0.575   5.943
 6900SOL    HW121599   6.359   0.485   5.930
 6900SOL    HW221600   6.343   0.645   5.901
 6901SOL     OW21601   0.536   6.995   6.186
 6901SOL    HW121602   0.456   0.034   6.195
 6901SOL    HW221603   0.509   6.901   6.203
 6902SOL     OW21604   6.221   6.821   0.760
 6902SOL    HW121605   6.251   6.740   0.810
 6902SOL    HW221606   6.257   6.819   0.667
 6903SOL     OW21607   4.165   5.320   4.630
 6903SOL    HW121608   4.081   5.345   4.679
 6903SOL    HW221609   4.174   5.378   4.549
 6904SOL     OW21610   5.831   2.134   4.139
 6904SOL    HW121611   5.810   2.099   4.231
 6904SOL    HW221612   5.841   2.233   4.144
 6905SOL     OW21613   5.876   6.561   0.069
 6905SOL    HW121614   5.908   6.598   0.157
 6905SOL    HW221615   5.906   6.621   7.016
 6906SOL     OW21616   4.275   0.753   4.317
 6906SOL    HW121617   4.262   0.706   4.405
 6906SOL    HW221618   4.187   0.790   4.286
 6907SOL     OW21619   5.208   1.931   1.143
 6907SOL    HW121620   5.262   1.885   1.072
 6907SOL    HW221621   5.113   1.940   1.113
 6908SOL     OW21622   1.104   6.274   5.848
 6908SOL    HW121623   1.187   6.226   5.819
 6908SOL    HW221624   1.098   6.274   5.947
 6909SOL     OW21625   5.812   4.443   1.621
 6909SOL    HW121626   5.816   4.534   1.579
 6909SOL    HW221627   5.894   4.392   1.599
 6910SOL     OW21628   6.944   2.266   3.726
 6910SOL    HW121629   7.009   2.305   3.792
 6910SOL    HW221630   6.945   2.321   3.642
 6911SOL     OW21631   4.753   6.361   3.432
 6911SOL    HW121632   4.815   6.336   3.506
 6911SOL    HW221633   4.795   6.433   3.375
 6912SOL     OW21634   4.364   5.309   0.007
 6912SOL    HW121635   4.388   5.263   6.942
 6912SOL    HW221636   4.372   5.245   0.083
 6913SOL     OW21637   5.198   4.746   5.950
 6913SOL    HW121638   5.292   4.720   5.972
 6913SOL    HW221639   5.156   4.674   5.895
 6914SOL     OW21640   5.597   4.853   0.121
 6914SOL    HW121641   5.681   4.904   0.142
 6914SOL    HW221642   5.547   4.836   0.206
 6915SOL     OW21643   6.072   4.425   1.509
 6915SOL    HW121644   6.121   4.437   1.595
 6915SOL    HW221645   6.135   4.392   1.439
 6916SOL     OW21646   5.892   3.863   0.176
 6916SOL    HW121647   5.964   3.913   0.127
 6916SOL    HW221648   5.929   3.829   0.263
 6917SOL     OW21649   3.278   5.947   0.949
 6917SOL    HW121650   3.240   5.928   1.040
 6917SOL    HW221651   3.312   6.041   0.947
 6918SOL     OW21652   0.879   3.240   4.377
 6918SOL    HW121653   0.901   3.161   4.320
 6918SOL    HW221654   0.906   3.221   4.472
 6919SOL     OW21655   0.658   6.572   3.146
 6919SOL    HW121656   0.616   6.652   3.102
 6919SOL    HW221657   0.588   6.507   3.172
 6920SOL     OW21658   4.178   5.582   5.625
 6920SOL    HW121659   4.103   5.536   5.672
 6920SOL    HW221660   4.163   5.579   5.526
 6921SOL     OW21661   5.062   6.080   3.188
 6921SOL    HW121662   5.069   6.167   3.236
 6921SOL    HW221663   4.968   6.047   3.191
 6922SOL     OW21664   2.479   5.589   6.650
 6922SOL    HW121665   2.467   5.687   6.633
 6922SOL    HW221666   2.395   5.551   6.688
 6923SOL     OW21667   4.949   5.245   4.022
 6923SOL    HW121668   4.979   5.165   4.074
 6923SOL    HW221669   5.027   5.304   4.004
 6924SOL     OW21670   1.120   4.245   6.850
 6924SOL    HW121671   1.044   4.259   6.913
 6924SOL    HW221672   1.207   4.258   6.898
 6925SOL     OW21673   4.151   5.970   4.425
 6925SOL    HW121674   4.134   5.928   4.336
 6925SOL    HW221675   4.200   6.057   4.412
 6926SOL     OW21676   3.169   3.112   2.157
 6926SOL    HW121677   3.077   3.142   2.134
 6926SOL    HW221678   3.213   3.073   2.075
 6927SOL     OW21679   5.418   3.308   5.792
 6927SOL    HW121680   5.360   3.275   5.867
 6927SOL    HW221681   5.393   3.403   5.771
 6928SOL     OW21682   6.913   6.330   1.014
 6928SOL    HW121683   6.836   6.322   1.078
 6928SOL    HW221684   6.877   6.339   0.921
 6929SOL     OW21685   4.730   5.302   1.078
 6929SOL    HW121686   4.761   5.322   1.170
 6929SOL    HW221687   4.748   5.380   1.018
 6930SOL     OW21688   6.900   0.213   2.320
 6930SOL    HW121689   6.809   0.251   2.338
 6930SOL    HW221690   6.946   0.268   2.251
 6931SOL     OW21691   1.485   0.588   2.306
 6931SOL    HW121692   1.561   0.541   2.352
 6931SOL    HW221693   1.522   0.645   2.233
 6932SOL     OW21694   4.005   0.294   0.810
 6932SOL    HW121695   4.052   0.255   0.889
 6932SOL    HW221696   4.055   0.269   0.727
 6933SOL     OW21697   3.134   6.033   5.558
 6933SOL    HW121698   3.087   6.120   5.540
 6933SOL    HW221699   3.149   5.985   5.472
 6934SOL     OW21700   4.941   4.097   5.803
 6934SOL    HW121701   4.889   4.181   5.817
 6934SOL    HW221702   4.962   4.056   5.892
 6935SOL     OW21703   4.691   5.585   3.710
 6935SOL    HW121704   4.604   5.601   3.757
 6935SOL    HW221705   4.677   5.587   3.611
 6936SOL     OW21706   6.449   2.763   3.060
 6936SOL    HW121707   6.505   2.682   3.045
 6936SOL    HW221708   6.376   2.741   3.125
 6937SOL     OW21709   6.534   6.141   0.598
 6937SOL    HW121710   6.511   6.121   0.502
 6937SOL    HW221711   6.585   6.226   0.602
 6938SOL     OW21712   4.800   3.403   5.573
 6938SOL    HW121713   4.879   3.386   5.631
 6938SOL    HW221714   4.830   3.444   5.486
 6939SOL     OW21715   0.060   4.149   1.306
 6939SOL    HW121716   7.018   4.101   1.245
 6939SOL    HW221717   0.120   4.208   1.252
 6940SOL     OW21718   4.864   1.131   0.561
 6940SOL    HW121719   4.961   1.110   0.565
 6940SOL    HW221720   4.812   1.057   0.604
 6941SOL     OW21721   3.506   2.905   3.117
 6941SOL    HW121722   3.467   2.987   3.159
 6941SOL    HW221723   3.459   2.887   3.031
 6942SOL     OW21724   6.425   2.772   0.860
 6942SOL    HW121725   6.403   2.804   0.952
 6942SOL    HW221726   6.452   2.850   0.803
 6943SOL     OW21727   5.039   6.374   0.030
 6943SOL    HW121728   5.030   6.292   6.995
 6943SOL    HW221729   4.995   6.451   7.005
 6944SOL     OW21730   1.708   4.432   6.164
 6944SOL    HW121731   1.804   4.406   6.169
 6944SOL    HW221732   1.667   4.429   6.255
 6945SOL     OW21733   5.936   3.355   6.071
 6945SOL    HW121734   5.872   3.338   6.146
 6945SOL    HW221735   5.940   3.275   6.012
 6946SOL     OW21736   6.354   6.586   1.543
 6946SOL    HW121737   6.413   6.512   1.576
 6946SOL    HW221738   6.267   6.548   1.513
 6947SOL     OW21739   3.382   6.689   5.622
 6947SOL    HW121740   3.365   6.689   5.523
 6947SOL    HW221741   3.323   6.757   5.666
 6948SOL     OW21742   5.510   0.714   6.352
 6948SOL    HW121743   5.591   0.710   6.294
 6948SOL    HW221744   5.477   0.621   6.369
 6949SOL     OW21745   5.005   6.821   3.981
 6949SOL    HW121746   5.008   6.885   3.904
 6949SOL    HW221747   5.067   6.853   4.053
 6950SOL     OW21748   1.949   0.294   3.850
 6950SOL    HW121749   1.960   0.394   3.849
 6950SOL    HW221750   1.868   0.269   3.796
 6951SOL     OW21751   6.674   6.134   6.200
 6951SOL    HW121752   6.590   6.135   6.146
 6951SOL    HW221753   6.713   6.226   6.203
 6952SOL     OW21754   6.834   5.498   4.362
 6952SOL    HW121755   6.901   5.488   4.288
 6952SOL    HW221756   6.775   5.576   4.343
 6953SOL     OW21757   5.105   0.136   6.551
 6953SOL    HW121758   5.128   0.094   6.639
 6953SOL    HW221759   5.089   0.234   6.564
 6954SOL     OW21760   0.345   4.063   3.854
 6954SOL    HW121761   0.418   3.995   3.866
 6954SOL    HW221762   0.380   4.154   3.874
 6955SOL     OW21763   6.517   0.536   2.472
 6955SOL    HW121764   6.605   0.543   2.427
 6955SOL    HW221765   6.529   0.546   2.571
 6956SOL     OW21766   4.838   5.912   3.136
 6956SOL    HW121767   4.873   5.840   3.076
 6956SOL    HW221768   4.741   5.928   3.117
 6957SOL     OW21769   5.839   4.716   0.798
 6957SOL    HW121770   5.765   4.652   0.818
 6957SOL    HW221771   5.804   4.790   0.740
 6958SOL     OW21772   2.908   3.911   4.992
 6958SOL    HW121773   2.911   3.813   5.011
 6958SOL    HW221774   2.839   3.954   5.050
 6959SOL     OW21775   2.718   1.520   4.990
 6959SOL    HW121776   2.728   1.455   4.914
 6959SOL    HW221777   2.697   1.471   5.074
 6960SOL     OW21778   1.289   5.473   1.289
 6960SOL    HW121779   1.291   5.421   1.374
 6960SOL    HW221780   1.281   5.571   1.310
 6961SOL     OW21781   6.555   2.609   4.243
 6961SOL    HW121782   6.547   2.535   4.309
 6961SOL    HW221783   6.477   2.606   4.180
 6962SOL     OW21784   5.586   6.254   2.034
 6962SOL    HW121785   5.538   6.166   2.034
 6962SOL    HW221786   5.568   6.302   1.948
 6963SOL     OW21787   6.780   5.125   0.947
 6963SOL    HW121788   6.738   5.038   0.973
 6963SOL    HW221789   6.770   5.190   1.022
 6964SOL     OW21790   3.757   5.875   4.959
 6964SOL    HW121791   3.742   5.816   4.879
 6964SOL    HW221792   3.812   5.954   4.931
 6965SOL     OW21793   0.489   3.595   6.787
 6965SOL    HW121794   0.486   3.564   6.883
 6965SOL    HW221795   0.414   3.552   6.736
 6966SOL     OW21796   6.930   2.362   3.480
 6966SOL    HW121797   7.005   2.419   3.447
 6966SOL    HW221798   6.874   2.334   3.402
 6967SOL     OW21799   1.865   0.551   5.522
 6967SOL    HW121800   1.844   0.564   5.619
 6967SOL    HW221801   1.963   0.564   5.507
 6968SOL     OW21802   4.066   6.489   2.869
 6968SOL    HW121803   4.099   6.395   2.861
 6968SOL    HW221804   3.966   6.490   2.876
 6969SOL     OW21805   2.683   2.515   1.078
 6969SOL    HW121806   2.711   2.440   1.018
 6969SOL    HW221807   2.762   2.547   1.130
 6970SOL     OW21808   3.997   4.079   6.716
 6970SOL    HW121809   4.092   4.096   6.742
 6970SOL    HW221810   3.971   4.141   6.642
 6971SOL     OW21811   6.891   4.508   1.421
 6971SOL    HW121812   6.948   4.470   1.494
 6971SOL    HW221813   6.934   4.490   1.332
 6972SOL     OW21814   5.470   4.557   3.323
 6972SOL    HW121815   5.472   4.467   3.280
 6972SOL    HW221816   5.375   4.581   3.343
 6973SOL     OW21817   1.199   3.670   5.389
 6973SOL    HW121818   1.230   3.692   5.481
 6973SOL    HW221819   1.275   3.633   5.335
 6974SOL     OW21820   3.377   2.889   2.873
 6974SOL    HW121821   3.454   2.947   2.846
 6974SOL    HW221822   3.319   2.871   2.793
 6975SOL     OW21823   1.917   6.061   6.327
 6975SOL    HW121824   1.830   6.061   6.376
 6975SOL    HW221825   1.900   6.063   6.229
 6976SOL     OW21826   4.285   5.393   5.072
 6976SOL    HW121827   4.376   5.433   5.085
 6976SOL    HW221828   4.268   5.324   5.143
 6977SOL     OW21829   4.478   2.590   1.853
 6977SOL    HW121830   4.524   2.534   1.784
 6977SOL    HW221831   4.414   2.533   1.905
 6978SOL     OW21832   4.830   1.730   2.079
 6978SOL    HW121833   4.828   1.659   2.008
 6978SOL    HW221834   4.781   1.698   2.160
 6979SOL     OW21835   1.441   4.530   0.813
 6979SOL    HW121836   1.444   4.623   0.776
 6979SOL    HW221837   1.488   4.468   0.750
 6980SOL     OW21838   1.216   1.234   3.389
 6980SOL    HW121839   1.230   1.231   3.488
 6980SOL    HW221840   1.294   1.279   3.345
 6981SOL     OW21841   3.556   3.234   6.328
 6981SOL    HW121842   3.573   3.136   6.315
 6981SOL    HW221843   3.486   3.265   6.264
 6982SOL     OW21844   1.495   0.759   4.287
 6982SOL    HW121845   1.523   0.669   4.252
 6982SOL    HW221846   1.460   0.814   4.211
 6983SOL     OW21847   4.761   2.018   4.137
 6983SOL    HW121848   4.671   2.040   4.174
 6983SOL    HW221849   4.758   2.022   4.037
 6984SOL     OW21850   2.275   1.725   3.860
 6984SOL    HW121851   2.319   1.637   3.877
 6984SOL    HW221852   2.266   1.775   3.946
 6985SOL     OW21853   4.234   5.627   1.523
 6985SOL    HW121854   4.234   5.720   1.559
 6985SOL    HW221855   4.306   5.618   1.453
 6986SOL     OW21856   2.216   6.676   6.334
 6986SOL    HW121857   2.158   6.758   6.339
 6986SOL    HW221858   2.199   6.627   6.249
 6987SOL     OW21859   0.421   2.004   5.952
 6987SOL    HW121860   0.490   2.003   6.024
 6987SOL    HW221861   0.335   2.039   5.987
 6988SOL     OW21862   6.934   1.185   5.422
 6988SOL    HW121863   6.945   1.227   5.512
 6988SOL    HW221864   6.837   1.178   5.400
 6989SOL     OW21865   0.599   3.640   4.253
 6989SOL    HW121866   0.617   3.541   4.257
 6989SOL    HW221867   0.565   3.670   4.343
 6990SOL     OW21868   5.063   2.415   1.603
 6990SOL    HW121869   5.099   2.464   1.682
 6990SOL    HW221870   4.963   2.419   1.604
 6991SOL     OW21871   2.951   4.917   4.305
 6991SOL    HW121872   2.945   4.902   4.403
 6991SOL    HW221873   3.018   4.989   4.286
 6992SOL     OW21874   5.125   6.562   5.711
 6992SOL    HW121875   5.179   6.628   5.658
 6992SOL    HW221876   5.156   6.562   5.806
 6993SOL     OW21877   7.001   0.931   3.265
 6993SOL    HW121878   0.001   1.026   3.242
 6993SOL    HW221879   6.928   0.898   3.206
 6994SOL     OW21880   0.535   3.037   4.583
 6994SOL    HW121881   0.561   2.961   4.524
 6994SOL    HW221882   0.494   3.110   4.529
 6995SOL     OW21883   6.613   4.572   5.925
 6995SOL    HW121884   6.606   4.638   5.999
 6995SOL    HW221885   6.652   4.616   5.844
 6996SOL     OW21886   2.104   0.349   6.854
 6996SOL    HW121887   2.050   0.285   6.909
 6996SOL    HW221888   2.051   0.432   6.838
 6997SOL     OW21889   5.904   6.360   5.540
 6997SOL    HW121890   5.914   6.272   5.586
 6997SOL    HW221891   5.965   6.362   5.460
 6998SOL     OW21892   1.623   2.047   0.924
 6998SOL    HW121893   1.716   2.038   0.888
 6998SOL    HW221894   1.573   1.961   0.911
 6999SOL     OW21895   2.530   2.691   5.576
 6999SOL    HW121896   2.622   2.655   5.559
 6999SOL    HW221897   2.537   2.786   5.604
 7000SOL     OW21898   6.562   5.918   1.402
 7000SOL    HW121899   6.640   5.873   1.358
 7000SOL    HW221900   6.511   5.971   1.334
 7001SOL     OW21901   2.229   3.131   5.239
 7001SOL    HW121902   2.312   3.095   5.197
 7001SOL    HW221903   2.153   3.067   5.223
 7002SOL     OW21904   2.644   4.985   3.777
 7002SOL    HW121905   2.648   4.981   3.877
 7002SOL    HW221906   2.549   4.974   3.748
 7003SOL     OW21907   3.967   5.610   6.845
 7003SOL    HW121908   4.012   5.692   6.810
 7003SOL    HW221909   4.021   5.571   6.919
 7004SOL     OW21910   1.797   4.834   1.859
 7004SOL    HW121911   1.871   4.901   1.859
 7004SOL    HW221912   1.811   4.769   1.934
 7005SOL     OW21913   1.503   6.848   0.256
 7005SOL    HW121914   1.511   6.935   0.207
 7005SOL    HW221915   1.536   6.859   0.350
 7006SOL     OW21916   4.785   4.756   4.666
 7006SOL    HW121917   4.755   4.840   4.710
 7006SOL    HW221918   4.710   4.719   4.611
 7007SOL     OW21919   4.524   6.789   4.019
 7007SOL    HW121920   4.441   6.797   3.963
 7007SOL    HW221921   4.542   6.692   4.037
 7008SOL     OW21922   1.288   4.536   4.903
 7008SOL    HW121923   1.298   4.469   4.977
 7008SOL    HW221924   1.193   4.567   4.899
 7009SOL     OW21925   6.632   5.492   2.368
 7009SOL    HW121926   6.693   5.420   2.335
 7009SOL    HW221927   6.681   5.580   2.367
 7010SOL     OW21928   5.126   4.921   5.554
 7010SOL    HW121929   5.165   4.947   5.643
 7010SOL    HW221930   5.177   4.844   5.517
 7011SOL     OW21931   3.881   6.601   5.805
 7011SOL    HW121932   3.930   6.583   5.720
 7011SOL    HW221933   3.806   6.665   5.787
 7012SOL     OW21934   1.792   1.477   1.994
 7012SOL    HW121935   1.733   1.524   2.060
 7012SOL    HW221936   1.843   1.405   2.041
 7013SOL     OW21937   0.621   0.836   0.736
 7013SOL    HW121938   0.603   0.808   0.831
 7013SOL    HW221939   0.616   0.755   0.677
 7014SOL     OW21940   4.396   3.449   1.256
 7014SOL    HW121941   4.360   3.510   1.327
 7014SOL    HW221942   4.449   3.376   1.299
 7015SOL     OW21943   5.829   4.859   1.993
 7015SOL    HW121944   5.899   4.830   1.928
 7015SOL    HW221945   5.848   4.821   2.083
 7016SOL     OW21946   3.596   4.935   1.742
 7016SOL    HW121947   3.610   4.846   1.785
 7016SOL    HW221948   3.511   4.975   1.775
 7017SOL     OW21949   2.406   6.390   2.371
 7017SOL    HW121950   2.463   6.347   2.302
 7017SOL    HW221951   2.452   6.387   2.460
 7018SOL     OW21952   6.170   4.407   3.501
 7018SOL    HW121953   6.107   4.479   3.527
 7018SOL    HW221954   6.264   4.443   3.501
 7019SOL     OW21955   2.488   3.755   6.655
 7019SOL    HW121956   2.577   3.715   6.678
 7019SOL    HW221957   2.466   3.826   6.722
 7020SOL     OW21958   5.645   6.953   6.978
 7020SOL    HW121959   5.603   6.875   6.932
 7020SOL    HW221960   5.730   6.977   6.933
 7021SOL     OW21961   1.521   1.621   6.151
 7021SOL    HW121962   1.547   1.529   6.179
 7021SOL    HW221963   1.535   1.685   6.227
 7022SOL     OW21964   4.751   5.808   0.580
 7022SOL    HW121965   4.802   5.859   0.649
 7022SOL    HW221966   4.661   5.783   0.617
 7023SOL     OW21967   0.713   1.808   3.365
 7023SOL    HW121968   0.811   1.793   3.362
 7023SOL    HW221969   0.695   1.905   3.381
 7024SOL     OW21970   1.530   4.409   5.562
 7024SOL    HW121971   1.433   4.433   5.568
 7024SOL    HW221972   1.585   4.479   5.607
 7025SOL     OW21973   2.418   0.595   6.944
 7025SOL    HW121974   2.384   0.537   7.018
 7025SOL    HW221975   2.386   0.688   6.958
 7026SOL     OW21976   3.174   2.058   2.023
 7026SOL    HW121977   3.193   2.088   2.117
 7026SOL    HW221978   3.151   1.960   2.023
 7027SOL     OW21979   2.523   5.118   4.153
 7027SOL    HW121980   2.508   5.195   4.215
 7027SOL    HW221981   2.616   5.124   4.115
 7028SOL     OW21982   4.929   0.140   4.317
 7028SOL    HW121983   4.877   0.054   4.313
 7028SOL    HW221984   4.935   0.179   4.225
 7029SOL     OW21985   5.146   5.421   5.995
 7029SOL    HW121986   5.159   5.381   6.085
 7029SOL    HW221987   5.159   5.520   6.000
 7030SOL     OW21988   0.125   1.756   5.011
 7030SOL    HW121989   0.158   1.681   5.068
 7030SOL    HW221990   0.187   1.769   4.934
 7031SOL     OW21991   1.897   6.272   5.015
 7031SOL    HW121992   1.849   6.349   4.972
 7031SOL    HW221993   1.843   6.237   5.091
 7032SOL     OW21994   3.634   0.343   3.429
 7032SOL    HW121995   3.672   0.304   3.346
 7032SOL    HW221996   3.581   0.425   3.406
 7033SOL     OW21997   1.326   2.449   3.331
 7033SOL    HW121998   1.232   2.432   3.363
 7033SOL    HW221999   1.324   2.473   3.234
 7034SOL     OW22000   6.269   0.270   2.955
 7034SOL    HW122001   6.261   0.325   3.038
 7034SOL    HW222002   6.350   0.211   2.962
 7035SOL     OW22003   1.761   6.332   1.472
 7035SOL    HW122004   1.803   6.345   1.562
 7035SOL    HW222005   1.711   6.415   1.447
 7036SOL     OW22006   0.372   0.762   2.797
 7036SOL    HW122007   0.306   0.688   2.788
 7036SOL    HW222008   0.381   0.787   2.893
 7037SOL     OW22009   1.763   0.451   6.275
 7037SOL    HW122010   1.702   0.398   6.216
 7037SOL    HW222011   1.811   0.389   6.338
 7038SOL     OW22012   1.441   3.306   4.412
 7038SOL    HW122013   1.402   3.214   4.402
 7038SOL    HW222014   1.410   3.347   4.497
 7039SOL     OW22015   2.725   4.729   1.368
 7039SOL    HW122016   2.793   4.656   1.366
 7039SOL    HW222017   2.700   4.748   1.463
 7040SOL     OW22018   6.476   2.287   4.837
 7040SOL    HW122019   6.493   2.385   4.850
 7040SOL    HW222020   6.421   2.253   4.914
 7041SOL     OW22021   0.666   2.427   1.566
 7041SOL    HW122022   0.699   2.511   1.610
 7041SOL    HW222023   0.592   2.388   1.620
 7042SOL     OW22024   5.503   5.815   6.145
 7042SOL    HW122025   5.412   5.803   6.185
 7042SOL    HW222026   5.531   5.731   6.100
 7043SOL     OW22027   2.127   3.418   2.487
 7043SOL    HW122028   2.214   3.443   2.529
 7043SOL    HW222029   2.082   3.501   2.453
 7044SOL     OW22030   4.926   5.159   3.521
 7044SOL    HW122031   4.847   5.191   3.573
 7044SOL    HW222032   4.898   5.086   3.459
 7045SOL     OW22033   5.205   5.819   3.091
 7045SOL    HW122034   5.243   5.791   3.003
 7045SOL    HW222035   5.195   5.918   3.093
 7046SOL     OW22036   3.401   1.674   3.270
 7046SOL    HW122037   3.307   1.661   3.239
 7046SOL    HW222038   3.451   1.729   3.202
 7047SOL     OW22039   0.768   2.630   1.961
 7047SOL    HW122040   0.736   2.587   2.045
 7047SOL    HW222041   0.743   2.727   1.962
 7048SOL     OW22042   6.460   6.202   3.023
 7048SOL    HW122043   6.395   6.258   2.971
 7048SOL    HW222044   6.510   6.259   3.087
 7049SOL     OW22045   3.264   1.385   0.915
 7049SOL    HW122046   3.355   1.391   0.956
 7049SOL    HW222047   3.249   1.293   0.881
 7050SOL     OW22048   3.924   3.842   1.975
 7050SOL    HW122049   3.838   3.811   2.015
 7050SOL    HW222050   3.908   3.924   1.919
 7051SOL     OW22051   6.868   0.556   1.099
 7051SOL    HW122052   6.935   0.629   1.110
 7051SOL    HW222053   6.833   0.557   1.005
 7052SOL     OW22054   5.551   2.902   3.660
 7052SOL    HW122055   5.504   2.945   3.737
 7052SOL    HW222056   5.493   2.830   3.622
 7053SOL     OW22057   0.710   3.561   4.816
 7053SOL    HW122058   0.737   3.465   4.811
 7053SOL    HW222059   0.791   3.619   4.819
 7054SOL     OW22060   0.486   6.238   0.686
 7054SOL    HW122061   0.573   6.195   0.708
 7054SOL    HW222062   0.496   6.337   0.687
 7055SOL     OW22063   3.577   6.070   5.508
 7055SOL    HW122064   3.532   6.001   5.452
 7055SOL    HW222065   3.550   6.057   5.604
 7056SOL     OW22066   6.259   5.889   2.118
 7056SOL    HW122067   6.261   5.981   2.157
 7056SOL    HW222068   6.346   5.842   2.138
 7057SOL     OW22069   1.144   6.172   3.422
 7057SOL    HW122070   1.167   6.214   3.334
 7057SOL    HW222071   1.217   6.109   3.449
 7058SOL     OW22072   6.892   5.512   6.242
 7058SOL    HW122073   6.874   5.546   6.334
 7058SOL    HW222074   6.816   5.534   6.182
 7059SOL     OW22075   6.315   1.177   4.187
 7059SOL    HW122076   6.267   1.261   4.163
 7059SOL    HW222077   6.250   1.101   4.189
 7060SOL     OW22078   4.211   0.197   1.721
 7060SOL    HW122079   4.137   0.140   1.757
 7060SOL    HW222080   4.204   0.288   1.761
 7061SOL     OW22081   1.331   3.158   3.892
 7061SOL    HW122082   1.314   3.061   3.876
 7061SOL    HW222083   1.313   3.209   3.808
 7062SOL     OW22084   4.927   1.152   5.402
 7062SOL    HW122085   4.876   1.100   5.469
 7062SOL    HW222086   4.950   1.242   5.440
 7063SOL     OW22087   0.690   0.483   1.692
 7063SOL    HW122088   0.731   0.569   1.660
 7063SOL    HW222089   0.638   0.441   1.618
 7064SOL     OW22090   3.950   2.156   1.500
 7064SOL    HW122091   3.984   2.192   1.413
 7064SOL    HW222092   3.855   2.127   1.489
 7065SOL     OW22093   4.004   3.785   6.013
 7065SOL    HW122094   4.096   3.824   6.015
 7065SOL    HW222095   3.943   3.846   5.961
 7066SOL     OW22096   4.258   6.993   0.568
 7066SOL    HW122097   4.187   6.945   0.618
 7066SOL    HW222098   4.345   6.946   0.579
 7067SOL     OW22099   1.707   1.671   5.109
 7067SOL    HW122100   1.780   1.731   5.074
 7067SOL    HW222101   1.746   1.584   5.137
 7068SOL     OW22102   7.002   4.487   3.963
 7068SOL    HW122103   6.958   4.409   3.917
 7068SOL    HW222104   7.014   4.466   4.060
 7069SOL     OW22105   5.415   1.545   4.466
 7069SOL    HW122106   5.470   1.627   4.454
 7069SOL    HW222107   5.469   1.464   4.441
 7070SOL     OW22108   6.569   6.262   4.825
 7070SOL    HW122109   6.553   6.355   4.790
 7070SOL    HW222110   6.639   6.264   4.895
 7071SOL     OW22111   1.829   6.227   6.676
 7071SOL    HW122112   1.889   6.298   6.638
 7071SOL    HW222113   1.776   6.266   6.752
 7072SOL     OW22114   1.047   6.520   6.957
 7072SOL    HW122115   0.966   6.522   6.897
 7072SOL    HW222116   1.126   6.489   6.904
 7073SOL     OW22117   4.965   0.201   4.582
 7073SOL    HW122118   4.959   0.299   4.599
 7073SOL    HW222119   4.955   0.183   4.484
 7074SOL     OW22120   4.616   2.312   2.092
 7074SOL    HW122121   4.672   2.263   2.159
 7074SOL    HW222122   4.585   2.249   2.021
 7075SOL     OW22123   1.883   5.058   5.156
 7075SOL    HW122124   1.887   5.109   5.242
 7075SOL    HW222125   1.975   5.034   5.126
 7076SOL     OW22126   5.674   2.387   6.870
 7076SOL    HW122127   5.680   2.446   6.950
 7076SOL    HW222128   5.597   2.324   6.881
 7077SOL     OW22129   2.224   4.322   4.209
 7077SOL    HW122130   2.144   4.269   4.183
 7077SOL    HW222131   2.271   4.355   4.127
 7078SOL     OW22132   0.058   6.919   1.710
 7078SOL    HW122133   0.044   6.842   1.772
 7078SOL    HW222134   0.022   6.896   1.619
 7079SOL     OW22135   6.620   6.137   4.586
 7079SOL    HW122136   6.569   6.051   4.594
 7079SOL    HW222137   6.623   6.182   4.676
 7080SOL     OW22138   2.960   2.204   4.054
 7080SOL    HW122139   2.894   2.129   4.051
 7080SOL    HW222140   2.919   2.286   4.014
 7081SOL     OW22141   3.144   0.557   0.032
 7081SOL    HW122142   3.199   0.483   0.069
 7081SOL    HW222143   3.068   0.518   7.000
 7082SOL     OW22144   6.046   4.360   6.600
 7082SOL    HW122145   6.005   4.386   6.687
 7082SOL    HW222146   6.117   4.426   6.575
 7083SOL     OW22147   2.780   0.387   0.703
 7083SOL    HW122148   2.731   0.369   0.618
 7083SOL    HW222149   2.740   0.331   0.777
 7084SOL     OW22150   0.305   6.584   5.743
 7084SOL    HW122151   0.264   6.499   5.710
 7084SOL    HW222152   0.355   6.567   5.828
 7085SOL     OW22153   0.984   2.195   1.854
 7085SOL    HW122154   0.948   2.270   1.798
 7085SOL    HW222155   0.914   2.124   1.863
 7086SOL     OW22156   5.362   0.988   5.147
 7086SOL    HW122157   5.269   1.026   5.151
 7086SOL    HW222158   5.409   1.006   5.233
 7087SOL     OW22159   6.226   3.008   3.871
 7087SOL    HW122160   6.195   3.103   3.868
 7087SOL    HW222161   6.150   2.948   3.844
 7088SOL     OW22162   5.496   2.979   3.372
 7088SOL    HW122163   5.486   2.881   3.358
 7088SOL    HW222164   5.506   2.998   3.470
 7089SOL     OW22165   3.138   2.117   4.838
 7089SOL    HW122166   3.188   2.173   4.905
 7089SOL    HW222167   3.075   2.175   4.787
 7090SOL     OW22168   2.560   0.320   6.570
 7090SOL    HW122169   2.601   0.387   6.509
 7090SOL    HW222170   2.473   0.356   6.605
 7091SOL     OW22171   0.663   1.322   6.775
 7091SOL    HW122172   0.660   1.303   6.873
 7091SOL    HW222173   0.578   1.367   6.747
 7092SOL     OW22174   4.570   2.976   6.088
 7092SOL    HW122175   4.545   2.974   6.185
 7092SOL    HW222176   4.533   3.059   6.046
 7093SOL     OW22177   2.951   3.762   3.235
 7093SOL    HW122178   3.006   3.685   3.269
 7093SOL    HW222179   2.958   3.838   3.299
 7094SOL     OW22180   0.512   5.877   6.001
 7094SOL    HW122181   0.440   5.810   5.982
 7094SOL    HW222182   0.493   5.961   5.951
 7095SOL     OW22183   3.123   3.693   6.359
 7095SOL    HW122184   3.219   3.675   6.378
 7095SOL    HW222185   3.114   3.777   6.306
 7096SOL     OW22186   6.400   0.859   3.904
 7096SOL    HW122187   6.397   0.826   3.810
 7096SOL    HW222188   6.382   0.783   3.967
 7097SOL     OW22189   6.000   1.341   0.711
 7097SOL    HW122190   6.047   1.421   0.750
 7097SOL    HW222191   6.053   1.306   0.634
 7098SOL     OW22192   1.649   0.182   5.022
 7098SOL    HW122193   1.648   0.135   5.110
 7098SOL    HW222194   1.563   0.231   5.009
 7099SOL     OW22195   2.930   1.002   5.190
 7099SOL    HW122196   2.923   0.996   5.290
 7099SOL    HW222197   2.933   1.098   5.162
 7100SOL     OW22198   5.580   2.474   1.137
 7100SOL    HW122199   5.565   2.438   1.045
 7100SOL    HW222200   5.495   2.466   1.189
 7101SOL     OW22201   2.047   1.097   4.906
 7101SOL    HW122202   2.116   1.163   4.937
 7101SOL    HW222203   1.966   1.147   4.874
 7102SOL     OW22204   4.616   0.129   0.790
 7102SOL    HW122205   4.607   0.153   0.694
 7102SOL    HW222206   4.590   0.207   0.847
 7103SOL     OW22207   4.552   4.754   1.806
 7103SOL    HW122208   4.619   4.764   1.880
 7103SOL    HW222209   4.494   4.674   1.825
 7104SOL     OW22210   0.567   2.805   4.427
 7104SOL    HW122211   0.487   2.752   4.457
 7104SOL    HW222212   0.650   2.753   4.447
 7105SOL     OW22213   3.068   2.877   5.279
 7105SOL    HW122214   3.043   2.949   5.214
 7105SOL    HW222215   3.113   2.802   5.231
 7106SOL     OW22216   3.165   4.082   2.558
 7106SOL    HW122217   3.077   4.036   2.544
 7106SOL    HW222218   3.187   4.082   2.656
 7107SOL     OW22219   3.669   1.387   0.474
 7107SOL    HW122220   3.724   1.305   0.485
 7107SOL    HW222221   3.662   1.410   0.377
 7108SOL     OW22222   5.090   5.806   2.729
 7108SOL    HW122223   5.124   5.898   2.750
 7108SOL    HW222224   4.998   5.795   2.764
 7109SOL     OW22225   2.623   0.708   5.575
 7109SOL    HW122226   2.630   0.708   5.475
 7109SOL    HW222227   2.670   0.628   5.612
 7110SOL     OW22228   3.334   6.141   4.736
 7110SOL    HW122229   3.361   6.234   4.712
 7110SOL    HW222230   3.403   6.102   4.798
 7111SOL     OW22231   1.212   1.957   4.120
 7111SOL    HW122232   1.154   1.885   4.159
 7111SOL    HW222233   1.234   2.024   4.190
 7112SOL     OW22234   0.839   5.754   4.489
 7112SOL    HW122235   0.900   5.805   4.549
 7112SOL    HW222236   0.798   5.679   4.540
 7113SOL     OW22237   3.543   4.174   4.779
 7113SOL    HW122238   3.468   4.175   4.713
 7113SOL    HW222239   3.512   4.134   4.865
 7114SOL     OW22240   3.899   6.902   1.700
 7114SOL    HW122241   3.863   6.974   1.640
 7114SOL    HW222242   3.824   6.842   1.728
 7115SOL     OW22243   5.331   3.287   1.573
 7115SOL    HW122244   5.245   3.317   1.530
 7115SOL    HW222245   5.339   3.187   1.565
 7116SOL     OW22246   6.318   4.301   2.883
 7116SOL    HW122247   6.244   4.296   2.817
 7116SOL    HW222248   6.362   4.212   2.892
 7117SOL     OW22249   7.015   6.287   5.000
 7117SOL    HW122250   0.019   6.294   4.903
 7117SOL    HW222251   0.019   6.197   5.035
 7118SOL     OW22252   2.820   3.677   1.248
 7118SOL    HW122253   2.858   3.769   1.252
 7118SOL    HW222254   2.878   3.614   1.300
 7119SOL     OW22255   5.202   2.301   2.746
 7119SOL    HW122256   5.116   2.251   2.738
 7119SOL    HW222257   5.225   2.312   2.843
 7120SOL     OW22258   3.498   1.729   2.491
 7120SOL    HW122259   3.399   1.738   2.494
 7120SOL    HW222260   3.532   1.707   2.583
 7121SOL     OW22261   1.419   6.507   3.029
 7121SOL    HW122262   1.498   6.568   3.033
 7121SOL    HW222263   1.449   6.412   3.030
 7122SOL     OW22264   0.930   0.223   5.699
 7122SOL    HW122265   0.971   0.132   5.697
 7122SOL    HW222266   0.834   0.216   5.727
 7123SOL     OW22267   2.327   4.556   3.065
 7123SOL    HW122268   2.234   4.573   3.096
 7123SOL    HW222269   2.359   4.635   3.012
 7124SOL     OW22270   0.182   2.141   0.805
 7124SOL    HW122271   0.236   2.225   0.802
 7124SOL    HW222272   0.202   2.091   0.889
 7125SOL     OW22273   0.112   6.933   1.089
 7125SOL    HW122274   0.173   6.998   1.134
 7125SOL    HW222275   0.071   6.976   1.009
 7126SOL     OW22276   3.346   5.476   0.253
 7126SOL    HW122277   3.408   5.522   0.189
 7126SOL    HW222278   3.264   5.446   0.205
 7127SOL     OW22279   1.188   5.569   5.345
 7127SOL    HW122280   1.226   5.512   5.418
 7127SOL    HW222281   1.261   5.624   5.305
 7128SOL     OW22282   3.090   4.761   0.692
 7128SOL    HW122283   3.054   4.854   0.699
 7128SOL    HW222284   3.095   4.720   0.783
 7129SOL     OW22285   2.232   1.401   7.006
 7129SOL    HW122286   2.165   1.409   0.059
 7129SOL    HW222287   2.324   1.412   0.023
 7130SOL     OW22288   4.012   5.818   5.322
 7130SOL    HW122289   4.050   5.908   5.344
 7130SOL    HW222290   3.919   5.828   5.287
 7131SOL     OW22291   2.541   0.854   1.178
 7131SOL    HW122292   2.450   0.818   1.201
 7131SOL    HW222293   2.592   0.785   1.126
 7132SOL     OW22294   3.735   4.350   6.947
 7132SOL    HW122295   3.778   4.262   6.927
 7132SOL    HW222296   3.674   4.374   6.872
 7133SOL     OW22297   5.443   5.731   5.642
 7133SOL    HW122298   5.471   5.687   5.557
 7133SOL    HW222299   5.401   5.663   5.703
 7134SOL     OW22300   5.642   6.764   1.632
 7134SOL    HW122301   5.636   6.775   1.731
 7134SOL    HW222302   5.725   6.809   1.599
 7135SOL     OW22303   1.480   3.357   3.194
 7135SOL    HW122304   1.510   3.291   3.126
 7135SOL    HW222305   1.473   3.313   3.284
 7136SOL     OW22306   2.348   2.886   1.052
 7136SOL    HW122307   2.292   2.836   0.986
 7136SOL    HW222308   2.398   2.959   1.005
 7137SOL     OW22309   3.747   6.887   6.930
 7137SOL    HW122310   3.766   6.792   6.956
 7137SOL    HW222311   3.653   6.894   6.898
 7138SOL     OW22312   1.593   2.535   6.952
 7138SOL    HW122313   1.578   2.622   6.999
 7138SOL    HW222314   1.612   2.551   6.856
 7139SOL     OW22315   5.786   3.886   1.533
 7139SOL    HW122316   5.811   3.808   1.474
 7139SOL    HW222317   5.788   3.857   1.628
 7140SOL     OW22318   5.819   4.422   3.674
 7140SOL    HW122319   5.781   4.452   3.762
 7140SOL    HW222320   5.880   4.493   3.638
 7141SOL     OW22321   3.661   6.153   1.773
 7141SOL    HW122322   3.597   6.190   1.841
 7141SOL    HW222323   3.710   6.229   1.729
 7142SOL     OW22324   4.381   0.396   3.619
 7142SOL    HW122325   4.368   0.430   3.712
 7142SOL    HW222326   4.465   0.435   3.581
 7143SOL     OW22327   1.429   2.349   5.826
 7143SOL    HW122328   1.351   2.380   5.881
 7143SOL    HW222329   1.438   2.250   5.834
 7144SOL     OW22330   1.795   2.451   2.153
 7144SOL    HW122331   1.882   2.416   2.189
 7144SOL    HW222332   1.806   2.472   2.055
 7145SOL     OW22333   4.423   6.782   0.267
 7145SOL    HW122334   4.508   6.828   0.294
 7145SOL    HW222335   4.423   6.689   0.304
 7146SOL     OW22336   2.061   0.387   1.474
 7146SOL    HW122337   2.157   0.361   1.480
 7146SOL    HW222338   2.003   0.307   1.488
 7147SOL     OW22339   0.048   0.536   3.462
 7147SOL    HW122340   0.115   0.558   3.532
 7147SOL    HW222341   0.027   0.438   3.465
 7148SOL     OW22342   1.201   5.949   0.668
 7148SOL    HW122343   1.165   5.893   0.593
 7148SOL    HW222344   1.241   5.889   0.738
 7149SOL     OW22345   6.297   6.736   2.860
 7149SOL    HW122346   6.296   6.669   2.785
 7149SOL    HW222347   6.292   6.828   2.822
 7150SOL     OW22348   3.090   2.067   2.328
 7150SOL    HW122349   3.050   1.988   2.282
 7150SOL    HW222350   3.020   2.137   2.341
 7151SOL     OW22351   2.041   6.196   0.842
 7151SOL    HW122352   1.980   6.210   0.764
 7151SOL    HW222353   1.989   6.154   0.916
 7152SOL     OW22354   0.794   0.640   5.102
 7152SOL    HW122355   0.884   0.669   5.135
 7152SOL    HW222356   0.759   0.567   5.161
 7153SOL     OW22357   3.413   5.346   2.006
 7153SOL    HW122358   3.503   5.322   1.971
 7153SOL    HW222359   3.361   5.394   1.934
 7154SOL     OW22360   3.485   0.139   3.563
 7154SOL    HW122361   3.564   0.191   3.533
 7154SOL    HW222362   3.493   0.045   3.530
 7155SOL     OW22363   1.751   3.901   1.302
 7155SOL    HW122364   1.710   3.885   1.212
 7155SOL    HW222365   1.802   3.987   1.300
 7156SOL     OW22366   0.554   3.312   3.795
 7156SOL    HW122367   0.509   3.399   3.777
 7156SOL    HW222368   0.532   3.281   3.888
 7157SOL     OW22369   6.747   4.041   1.646
 7157SOL    HW122370   6.691   4.109   1.599
 7157SOL    HW222371   6.708   3.950   1.633
 7158SOL     OW22372   1.057   6.946   3.645
 7158SOL    HW122373   1.088   0.019   3.663
 7158SOL    HW222374   1.099   6.885   3.712
 7159SOL     OW22375   0.575   5.081   2.913
 7159SOL    HW122376   0.608   5.171   2.884
 7159SOL    HW222377   0.646   5.035   2.965
 7160SOL     OW22378   5.653   6.770   2.799
 7160SOL    HW122379   5.752   6.751   2.804
 7160SOL    HW222380   5.608   6.731   2.880
 7161SOL     OW22381   3.047   3.668   4.242
 7161SOL    HW122382   3.056   3.698   4.337
 7161SOL    HW222383   3.132   3.687   4.193
 7162SOL     OW22384   1.541   5.463   6.325
 7162SOL    HW122385   1.466   5.410   6.364
 7162SOL    HW222386   1.505   5.530   6.260
 7163SOL     OW22387   2.821   6.231   3.332
 7163SOL    HW122388   2.918   6.208   3.338
 7163SOL    HW222389   2.768   6.167   3.387
 7164SOL     OW22390   1.699   0.718   3.572
 7164SOL    HW122391   1.766   0.735   3.499
 7164SOL    HW222392   1.616   0.771   3.553
 7165SOL     OW22393   6.876   1.138   2.034
 7165SOL    HW122394   6.790   1.095   2.061
 7165SOL    HW222395   6.892   1.122   1.936
 7166SOL     OW22396   6.430   2.817   0.231
 7166SOL    HW122397   6.377   2.832   0.314
 7166SOL    HW222398   6.518   2.864   0.238
 7167SOL     OW22399   5.155   3.390   3.733
 7167SOL    HW122400   5.100   3.472   3.749
 7167SOL    HW222401   5.251   3.411   3.753
 7168SOL     OW22402   1.536   2.553   3.462
 7168SOL    HW122403   1.469   2.513   3.399
 7168SOL    HW222404   1.610   2.488   3.477
 7169SOL     OW22405   0.113   2.515   4.772
 7169SOL    HW122406   0.158   2.433   4.736
 7169SOL    HW222407   0.084   2.573   4.696
 7170SOL     OW22408   4.976   6.304   3.900
 7170SOL    HW122409   5.020   6.257   3.976
 7170SOL    HW222410   4.971   6.402   3.919
 7171SOL     OW22411   5.339   3.483   6.847
 7171SOL    HW122412   5.303   3.517   6.760
 7171SOL    HW222413   5.308   3.389   6.861
 7172SOL     OW22414   1.445   0.496   5.213
 7172SOL    HW122415   1.441   0.437   5.133
 7172SOL    HW222416   1.449   0.592   5.184
 7173SOL     OW22417   6.851   4.444   5.884
 7173SOL    HW122418   6.852   4.347   5.910
 7173SOL    HW222419   6.757   4.479   5.890
 7174SOL     OW22420   0.814   4.360   0.165
 7174SOL    HW122421   0.900   4.313   0.143
 7174SOL    HW222422   0.822   4.403   0.254
 7175SOL     OW22423   5.451   2.537   6.756
 7175SOL    HW122424   5.406   2.488   6.682
 7175SOL    HW222425   5.547   2.509   6.762
 7176SOL     OW22426   0.377   0.225   3.065
 7176SOL    HW122427   0.445   0.258   3.130
 7176SOL    HW222428   0.417   0.226   2.973
 7177SOL     OW22429   1.496   5.461   4.702
 7177SOL    HW122430   1.558   5.406   4.646
 7177SOL    HW222431   1.450   5.528   4.644
 7178SOL     OW22432   2.285   2.378   5.536
 7178SOL    HW122433   2.188   2.390   5.516
 7178SOL    HW222434   2.316   2.452   5.596
 7179SOL     OW22435   1.917   3.812   4.735
 7179SOL    HW122436   2.002   3.763   4.716
 7179SOL    HW222437   1.877   3.779   4.821
 7180SOL     OW22438   2.902   5.336   0.492
 7180SOL    HW122439   2.985   5.330   0.546
 7180SOL    HW222440   2.862   5.245   0.481
 7181SOL     OW22441   2.159   6.461   0.258
 7181SOL    HW122442   2.110   6.542   0.225
 7181SOL    HW222443   2.134   6.382   0.202
 7182SOL     OW22444   1.018   2.561   4.896
 7182SOL    HW122445   0.928   2.526   4.923
 7182SOL    HW222446   1.025   2.562   4.796
 7183SOL     OW22447   2.133   6.241   0.461
 7183SOL    HW122448   2.163   6.171   0.395
 7183SOL    HW222449   2.191   6.322   0.451
 7184SOL     OW22450   6.559   1.045   3.309
 7184SOL    HW122451   6.475   1.081   3.348
 7184SOL    HW222452   6.577   0.954   3.346
 7185SOL     OW22453   5.539   0.323   5.302
 7185SOL    HW122454   5.460   0.358   5.252
 7185SOL    HW222455   5.553   0.227   5.278
 7186SOL     OW22456   6.677   1.197   6.818
 7186SOL    HW122457   6.744   1.268   6.841
 7186SOL    HW222458   6.724   1.118   6.780
 7187SOL     OW22459   3.461   5.006   6.325
 7187SOL    HW122460   3.398   4.941   6.282
 7187SOL    HW222461   3.555   4.984   6.298
 7188SOL     OW22462   6.377   0.881   0.742
 7188SOL    HW122463   6.448   0.934   0.695
 7188SOL    HW222464   6.409   0.855   0.832
 7189SOL     OW22465   0.420   1.393   5.765
 7189SOL    HW122466   0.495   1.432   5.817
 7189SOL    HW222467   0.378   1.318   5.817
 7190SOL     OW22468   6.978   3.698   2.928
 7190SOL    HW122469   6.994   3.608   2.967
 7190SOL    HW222470   7.010   3.700   2.833
 7191SOL     OW22471   0.708   4.463   3.006
 7191SOL    HW122472   0.765   4.425   3.079
 7191SOL    HW222473   0.638   4.522   3.046
 7192SOL     OW22474   3.233   4.406   5.682
 7192SOL    HW122475   3.298   4.382   5.754
 7192SOL    HW222476   3.166   4.471   5.718
 7193SOL     OW22477   1.611   2.818   1.873
 7193SOL    HW122478   1.551   2.894   1.850
 7193SOL    HW222479   1.613   2.753   1.797
 7194SOL     OW22480   2.598   2.000   0.367
 7194SOL    HW122481   2.548   1.952   0.295
 7194SOL    HW222482   2.600   2.098   0.347
 7195SOL     OW22483   0.115   4.265   0.017
 7195SOL    HW122484   0.189   4.309   6.986
 7195SOL    HW222485   0.144   4.173   0.045
 7196SOL     OW22486   3.698   4.449   1.033
 7196SOL    HW122487   3.680   4.351   1.026
 7196SOL    HW222488   3.619   4.495   1.072
 7197SOL     OW22489   0.613   2.841   5.640
 7197SOL    HW122490   0.644   2.852   5.735
 7197SOL    HW222491   0.676   2.781   5.591
 7198SOL     OW22492   0.346   0.380   0.376
 7198SOL    HW122493   0.437   0.363   0.340
 7198SOL    HW222494   0.332   0.479   0.386
 7199SOL     OW22495   2.249   0.898   2.548
 7199SOL    HW122496   2.266   0.848   2.633
 7199SOL    HW222497   2.336   0.920   2.505
 7200SOL     OW22498   2.502   2.075   0.013
 7200SOL    HW122499   2.525   2.014   6.958
 7200SOL    HW222500   2.443   2.026   0.078
 7201SOL     OW22501   0.805   5.827   4.224
 7201SOL    HW122502   0.809   5.795   4.319
 7201SOL    HW222503   0.826   5.750   4.163
 7202SOL     OW22504   4.428   0.620   6.003
 7202SOL    HW122505   4.419   0.624   6.103
 7202SOL    HW222506   4.515   0.577   5.979
 7203SOL     OW22507   0.559   1.747   1.088
 7203SOL    HW122508   0.653   1.711   1.087
 7203SOL    HW222509   0.499   1.682   1.134
 7204SOL     OW22510   0.809   6.832   5.492
 7204SOL    HW122511   0.769   6.799   5.406
 7204SOL    HW222512   0.902   6.863   5.474
 7205SOL     OW22513   1.137   5.680   3.991
 7205SOL    HW122514   1.108   5.587   4.014
 7205SOL    HW222515   1.207   5.676   3.919
 7206SOL     OW22516   1.543   0.133   1.435
 7206SOL    HW122517   1.615   0.186   1.480
 7206SOL    HW222518   1.454   0.176   1.453
 7207SOL     OW22519   3.532   0.132   2.670
 7207SOL    HW122520   3.451   0.164   2.720
 7207SOL    HW222521   3.602   0.204   2.671
 7208SOL     OW22522   4.028   6.874   3.132
 7208SOL    HW122523   4.128   6.869   3.138
 7208SOL    HW222524   4.003   6.942   3.063
 7209SOL     OW22525   3.116   3.617   1.918
 7209SOL    HW122526   3.142   3.562   1.998
 7209SOL    HW222527   3.060   3.561   1.857
 7210SOL     OW22528   4.577   0.865   3.871
 7210SOL    HW122529   4.654   0.805   3.850
 7210SOL    HW222530   4.503   0.811   3.910
 7211SOL     OW22531   3.124   5.961   3.970
 7211SOL    HW122532   3.162   6.043   3.928
 7211SOL    HW222533   3.174   5.881   3.936
 7212SOL     OW22534   0.323   6.294   4.896
 7212SOL    HW122535   0.308   6.361   4.969
 7212SOL    HW222536   0.284   6.328   4.810
 7213SOL     OW22537   5.412   6.640   0.763
 7213SOL    HW122538   5.468   6.719   0.786
 7213SOL    HW222539   5.470   6.558   0.763
 7214SOL     OW22540   6.888   5.139   5.178
 7214SOL    HW122541   6.797   5.175   5.198
 7214SOL    HW222542   6.947   5.153   5.257
 7215SOL     OW22543   0.014   3.675   5.107
 7215SOL    HW122544   0.010   3.756   5.165
 7215SOL    HW222545   6.974   3.688   5.028
 7216SOL     OW22546   3.496   6.467   6.956
 7216SOL    HW122547   3.508   6.512   0.024
 7216SOL    HW222548   3.454   6.378   6.970
 7217SOL     OW22549   2.836   4.899   3.205
 7217SOL    HW122550   2.747   4.854   3.202
 7217SOL    HW222551   2.887   4.868   3.284
 7218SOL     OW22552   5.142   2.504   5.383
 7218SOL    HW122553   5.163   2.463   5.294
 7218SOL    HW222554   5.065   2.568   5.372
 7219SOL     OW22555   4.670   0.437   4.400
 7219SOL    HW122556   4.663   0.478   4.309
 7219SOL    HW222557   4.613   0.354   4.405
 7220SOL     OW22558   0.415   5.344   4.879
 7220SOL    HW122559   0.357   5.308   4.805
 7220SOL    HW222560   0.372   5.324   4.967
 7221SOL     OW22561   3.900   5.998   4.542
 7221SOL    HW122562   3.983   5.986   4.489
 7221SOL    HW222563   3.919   6.055   4.622
 7222SOL     OW22564   5.937   0.244   2.961
 7222SOL    HW122565   5.970   0.326   2.914
 7222SOL    HW222566   5.839   0.233   2.945
 7223SOL     OW22567   2.927   1.894   1.686
 7223SOL    HW122568   2.905   1.969   1.748
 7223SOL    HW222569   2.964   1.931   1.601
 7224SOL     OW22570   5.328   2.187   3.714
 7224SOL    HW122571   5.327   2.087   3.719
 7224SOL    HW222572   5.372   2.224   3.797
 7225SOL     OW22573   0.891   5.645   0.481
 7225SOL    HW122574   0.844   5.664   0.394
 7225SOL    HW222575   0.990   5.650   0.467
 7226SOL     OW22576   6.735   1.041   0.904
 7226SOL    HW122577   6.704   1.027   0.810
 7226SOL    HW222578   6.804   0.972   0.926
 7227SOL     OW22579   1.411   1.849   1.020
 7227SOL    HW122580   1.392   1.944   1.043
 7227SOL    HW222581   1.439   1.799   1.102
 7228SOL     OW22582   0.630   1.623   2.617
 7228SOL    HW122583   0.691   1.700   2.595
 7228SOL    HW222584   0.606   1.627   2.714
 7229SOL     OW22585   1.568   5.974   5.780
 7229SOL    HW122586   1.524   5.907   5.721
 7229SOL    HW222587   1.663   5.987   5.751
 7230SOL     OW22588   4.639   5.107   4.288
 7230SOL    HW122589   4.559   5.072   4.239
 7230SOL    HW222590   4.712   5.039   4.285
 7231SOL     OW22591   4.818   0.404   0.221
 7231SOL    HW122592   4.803   0.472   0.293
 7231SOL    HW222593   4.915   0.384   0.213
 7232SOL     OW22594   5.166   5.279   3.056
 7232SOL    HW122595   5.100   5.214   3.092
 7232SOL    HW222596   5.124   5.332   2.982
 7233SOL     OW22597   0.459   2.247   4.278
 7233SOL    HW122598   0.558   2.242   4.286
 7233SOL    HW222599   0.425   2.324   4.332
 7234SOL     OW22600   5.216   3.041   3.386
 7234SOL    HW122601   5.315   3.026   3.387
 7234SOL    HW222602   5.178   3.003   3.302
 7235SOL     OW22603   6.598   4.068   2.054
 7235SOL    HW122604   6.568   4.163   2.041
 7235SOL    HW222605   6.630   4.056   2.147
 7236SOL     OW22606   2.321   2.176   2.187
 7236SOL    HW122607   2.246   2.152   2.126
 7236SOL    HW222608   2.391   2.105   2.183
 7237SOL     OW22609   4.850   1.182   4.553
 7237SOL    HW122610   4.753   1.189   4.577
 7237SOL    HW222611   4.905   1.195   4.635
 7238SOL     OW22612   3.011   1.499   0.888
 7238SOL    HW122613   2.982   1.491   0.983
 7238SOL    HW222614   3.107   1.470   0.880
 7239SOL     OW22615   1.789   2.631   2.345
 7239SOL    HW122616   1.797   2.554   2.281
 7239SOL    HW222617   1.851   2.704   2.316
 7240SOL     OW22618   2.827   4.812   5.997
 7240SOL    HW122619   2.752   4.878   5.992
 7240SOL    HW222620   2.791   4.724   6.028
 7241SOL     OW22621   2.017   0.726   0.265
 7241SOL    HW122622   1.988   0.730   0.361
 7241SOL    HW222623   2.060   0.813   0.240
 7242SOL     OW22624   6.828   5.986   0.450
 7242SOL    HW122625   6.811   6.084   0.455
 7242SOL    HW222626   6.798   5.951   0.361
 7243SOL     OW22627   6.367   4.442   6.008
 7243SOL    HW122628   6.414   4.370   6.059
 7243SOL    HW222629   6.432   4.513   5.983
 7244SOL     OW22630   5.843   0.868   1.400
 7244SOL    HW122631   5.920   0.931   1.402
 7244SOL    HW222632   5.769   0.907   1.345
 7245SOL     OW22633   0.850   1.935   4.975
 7245SOL    HW122634   0.827   1.905   4.882
 7245SOL    HW222635   0.907   2.017   4.971
 7246SOL     OW22636   6.368   0.578   3.994
 7246SOL    HW122637   6.284   0.523   3.993
 7246SOL    HW222638   6.393   0.598   4.089
 7247SOL     OW22639   3.085   6.922   4.160
 7247SOL    HW122640   3.118   6.846   4.105
 7247SOL    HW222641   3.069   7.002   4.101
 7248SOL     OW22642   3.312   1.657   3.775
 7248SOL    HW122643   3.267   1.568   3.781
 7248SOL    HW222644   3.339   1.674   3.681
 7249SOL     OW22645   6.307   4.331   2.047
 7249SOL    HW122646   6.267   4.254   2.097
 7249SOL    HW222647   6.328   4.405   2.111
 7250SOL     OW22648   3.894   6.554   6.636
 7250SOL    HW122649   3.983   6.585   6.669
 7250SOL    HW222650   3.839   6.523   6.713
 7251SOL     OW22651   0.441   7.009   5.463
 7251SOL    HW122652   0.385   0.012   5.384
 7251SOL    HW222653   0.536   0.016   5.447
 7252SOL     OW22654   2.893   3.330   2.747
 7252SOL    HW122655   2.841   3.412   2.726
 7252SOL    HW222656   2.909   3.278   2.664
 7253SOL     OW22657   2.854   6.192   6.160
 7253SOL    HW122658   2.767   6.237   6.179
 7253SOL    HW222659   2.874   6.199   6.062
 7254SOL     OW22660   4.203   5.378   4.357
 7254SOL    HW122661   4.244   5.297   4.315
 7254SOL    HW222662   4.224   5.458   4.301
 7255SOL     OW22663   3.638   3.803   0.960
 7255SOL    HW122664   3.588   3.808   1.046
 7255SOL    HW222665   3.591   3.858   0.891
 7256SOL     OW22666   3.898   5.045   4.402
 7256SOL    HW122667   3.881   5.112   4.330
 7256SOL    HW222668   3.825   5.050   4.470
 7257SOL     OW22669   4.908   3.479   4.047
 7257SOL    HW122670   4.886   3.384   4.069
 7257SOL    HW222671   4.940   3.525   4.130
 7258SOL     OW22672   4.072   0.728   2.697
 7258SOL    HW122673   4.093   0.805   2.758
 7258SOL    HW222674   4.015   0.760   2.621
 7259SOL     OW22675   3.155   3.425   0.971
 7259SOL    HW122676   3.126   3.499   0.910
 7259SOL    HW222677   3.238   3.453   1.019
 7260SOL     OW22678   2.918   1.961   2.786
 7260SOL    HW122679   2.997   1.984   2.843
 7260SOL    HW222680   2.879   2.044   2.747
 7261SOL     OW22681   1.509   3.237   1.367
 7261SOL    HW122682   1.535   3.208   1.459
 7261SOL    HW222683   1.557   3.322   1.344
 7262SOL     OW22684   5.306   1.630   5.151
 7262SOL    HW122685   5.378   1.626   5.081
 7262SOL    HW222686   5.333   1.572   5.229
 7263SOL     OW22687   0.611   6.590   1.749
 7263SOL    HW122688   0.706   6.620   1.755
 7263SOL    HW222689   0.604   6.516   1.682
 7264SOL     OW22690   5.975   1.300   6.672
 7264SOL    HW122691   5.909   1.370   6.644
 7264SOL    HW222692   6.035   1.277   6.595
 7265SOL     OW22693   5.245   5.745   6.236
 7265SOL    HW122694   5.263   5.666   6.295
 7265SOL    HW222695   5.178   5.805   6.279
 7266SOL     OW22696   5.063   0.480   1.356
 7266SOL    HW122697   4.992   0.547   1.374
 7266SOL    HW222698   5.048   0.398   1.411
 7267SOL     OW22699   6.834   6.225   5.555
 7267SOL    HW122700   6.859   6.140   5.510
 7267SOL    HW222701   6.916   6.279   5.573
 7268SOL     OW22702   4.264   4.931   2.832
 7268SOL    HW122703   4.255   4.941   2.733
 7268SOL    HW222704   4.179   4.960   2.877
 7269SOL     OW22705   0.106   6.245   1.165
 7269SOL    HW122706   0.114   6.317   1.234
 7269SOL    HW222707   0.056   6.280   1.086
 7270SOL     OW22708   0.690   3.171   5.119
 7270SOL    HW122709   0.698   3.160   5.020
 7270SOL    HW222710   0.657   3.086   5.160
 7271SOL     OW22711   0.317   5.559   4.385
 7271SOL    HW122712   0.291   5.647   4.346
 7271SOL    HW222713   0.242   5.494   4.372
 7272SOL     OW22714   5.407   4.726   2.202
 7272SOL    HW122715   5.311   4.739   2.226
 7272SOL    HW222716   5.432   4.785   2.126
 7273SOL     OW22717   5.132   4.592   2.105
 7273SOL    HW122718   5.145   4.628   2.013
 7273SOL    HW222719   5.167   4.499   2.110
 7274SOL     OW22720   0.725   6.202   7.009
 7274SOL    HW122721   0.795   6.248   0.044
 7274SOL    HW222722   0.717   6.249   6.921
 7275SOL     OW22723   6.680   1.029   2.648
 7275SOL    HW122724   6.715   1.083   2.725
 7275SOL    HW222725   6.642   1.091   2.579
 7276SOL     OW22726   3.813   1.344   2.989
 7276SOL    HW122727   3.882   1.275   3.007
 7276SOL    HW222728   3.786   1.388   3.075
 7277SOL     OW22729   4.891   1.290   4.319
 7277SOL    HW122730   4.990   1.288   4.332
 7277SOL    HW222731   4.846   1.253   4.400
 7278SOL     OW22732   3.410   2.161   1.828
 7278SOL    HW122733   3.471   2.195   1.900
 7278SOL    HW222734   3.332   2.114   1.870
 7279SOL     OW22735   4.208   2.723   6.191
 7279SOL    HW122736   4.147   2.801   6.177
 7279SOL    HW222737   4.296   2.741   6.146
 7280SOL     OW22738   6.874   2.118   3.972
 7280SOL    HW122739   6.911   2.136   4.063
 7280SOL    HW222740   6.940   2.147   3.903
 7281SOL     OW22741   1.578   0.690   0.371
 7281SOL    HW122742   1.514   0.614   0.379
 7281SOL    HW222743   1.660   0.671   0.426
 7282SOL     OW22744   6.319   6.563   0.829
 7282SOL    HW122745   6.303   6.470   0.796
 7282SOL    HW222746   6.414   6.571   0.861
 7283SOL     OW22747   3.499   6.984   1.927
 7283SOL    HW122748   3.566   7.000   1.854
 7283SOL    HW222749   3.518   0.026   2.003
 7284SOL     OW22750   7.020   2.712   4.596
 7284SOL    HW122751   6.932   2.668   4.582
 7284SOL    HW222752   7.014   2.808   4.567
 7285SOL     OW22753   6.096   3.843   1.956
 7285SOL    HW122754   6.127   3.867   2.047
 7285SOL    HW222755   6.129   3.752   1.932
 7286SOL     OW22756   0.748   0.421   1.411
 7286SOL    HW122757   0.740   0.510   1.455
 7286SOL    HW222758   0.815   0.365   1.459
 7287SOL     OW22759   6.454   2.875   4.887
 7287SOL    HW122760   6.394   2.939   4.838
 7287SOL    HW222761   6.403   2.791   4.908
 7288SOL     OW22762   0.841   1.843   1.815
 7288SOL    HW122763   0.803   1.756   1.847
 7288SOL    HW222764   0.917   1.825   1.753
 7289SOL     OW22765   6.499   1.733   3.257
 7289SOL    HW122766   6.458   1.642   3.247
 7289SOL    HW222767   6.588   1.734   3.212
 7290SOL     OW22768   3.077   1.146   5.830
 7290SOL    HW122769   3.008   1.216   5.812
 7290SOL    HW222770   3.033   1.065   5.868
 7291SOL     OW22771   2.296   0.182   1.479
 7291SOL    HW122772   2.390   0.178   1.445
 7291SOL    HW222773   2.240   0.112   1.434
 7292SOL     OW22774   2.903   6.801   2.575
 7292SOL    HW122775   2.851   6.720   2.548
 7292SOL    HW222776   2.933   6.850   2.494
 7293SOL     OW22777   1.758   1.156   6.077
 7293SOL    HW122778   1.798   1.230   6.023
 7293SOL    HW222779   1.831   1.097   6.112
 7294SOL     OW22780   3.149   3.981   0.375
 7294SOL    HW122781   3.220   3.980   0.446
 7294SOL    HW222782   3.076   3.918   0.400
 7295SOL     OW22783   0.014   4.522   1.171
 7295SOL    HW122784   0.086   4.513   1.102
 7295SOL    HW222785   0.045   4.585   1.243
 7296SOL     OW22786   4.823   5.295   3.006
 7296SOL    HW122787   4.879   5.227   3.053
 7296SOL    HW222788   4.783   5.254   2.924
 7297SOL     OW22789   2.801   6.956   1.817
 7297SOL    HW122790   2.779   6.863   1.848
 7297SOL    HW222791   2.724   6.994   1.766
 7298SOL     OW22792   4.970   5.588   6.845
 7298SOL    HW122793   4.929   5.556   6.760
 7298SOL    HW222794   5.049   5.530   6.867
 7299SOL     OW22795   0.653   1.866   0.577
 7299SOL    HW122796   0.665   1.851   0.479
 7299SOL    HW222797   0.684   1.786   0.627
 7300SOL     OW22798   0.637   5.933   2.571
 7300SOL    HW122799   0.688   5.886   2.499
 7300SOL    HW222800   0.681   6.021   2.591
 7301SOL     OW22801   6.354   2.200   5.854
 7301SOL    HW122802   6.454   2.191   5.846
 7301SOL    HW222803   6.310   2.151   5.780
 7302SOL     OW22804   0.370   2.351   5.830
 7302SOL    HW122805   0.315   2.369   5.748
 7302SOL    HW222806   0.331   2.274   5.880
 7303SOL     OW22807   3.515   0.479   6.956
 7303SOL    HW122808   3.613   0.469   6.976
 7303SOL    HW222809   3.492   0.425   6.875
 7304SOL     OW22810   2.622   5.496   1.782
 7304SOL    HW122811   2.678   5.490   1.865
 7304SOL    HW222812   2.531   5.459   1.801
 7305SOL     OW22813   5.536   1.541   1.149
 7305SOL    HW122814   5.535   1.635   1.184
 7305SOL    HW222815   5.610   1.531   1.082
 7306SOL     OW22816   3.429   1.449   1.729
 7306SOL    HW122817   3.422   1.435   1.631
 7306SOL    HW222818   3.513   1.499   1.750
 7307SOL     OW22819   4.038   0.074   2.652
 7307SOL    HW122820   4.054   0.173   2.659
 7307SOL    HW222821   4.101   0.035   2.585
 7308SOL     OW22822   6.143   1.554   3.812
 7308SOL    HW122823   6.110   1.615   3.884
 7308SOL    HW222824   6.096   1.575   3.726
 7309SOL     OW22825   3.109   6.971   1.505
 7309SOL    HW122826   3.152   6.921   1.431
 7309SOL    HW222827   3.017   6.934   1.523
 7310SOL     OW22828   2.063   3.499   6.996
 7310SOL    HW122829   1.985   3.495   6.934
 7310SOL    HW222830   2.147   3.486   6.944
 7311SOL     OW22831   1.403   0.465   0.387
 7311SOL    HW122832   1.365   0.530   0.454
 7311SOL    HW222833   1.379   0.372   0.414
 7312SOL     OW22834   0.855   1.677   4.663
 7312SOL    HW122835   0.917   1.742   4.708
 7312SOL    HW222836   0.845   1.703   4.566
 7313SOL     OW22837   2.014   1.545   0.853
 7313SOL    HW122838   2.108   1.580   0.860
 7313SOL    HW222839   1.977   1.530   0.944
 7314SOL     OW22840   6.904   4.171   6.014
 7314SOL    HW122841   6.883   4.075   5.993
 7314SOL    HW222842   6.928   4.179   6.110
 7315SOL     OW22843   5.218   5.822   2.084
 7315SOL    HW122844   5.174   5.742   2.043
 7315SOL    HW222845   5.209   5.818   2.183
 7316SOL     OW22846   3.395   2.801   6.655
 7316SOL    HW122847   3.490   2.822   6.677
 7316SOL    HW222848   3.383   2.702   6.646
 7317SOL     OW22849   3.450   1.793   1.989
 7317SOL    HW122850   3.418   1.699   1.992
 7317SOL    HW222851   3.447   1.832   2.081
 7318SOL     OW22852   3.146   6.411   3.326
 7318SOL    HW122853   3.227   6.395   3.270
 7318SOL    HW222854   3.085   6.473   3.278
 7319SOL     OW22855   5.778   3.036   6.611
 7319SOL    HW122856   5.749   2.941   6.623
 7319SOL    HW222857   5.713   3.083   6.551
 7320SOL     OW22858   0.413   3.398   0.277
 7320SOL    HW122859   0.457   3.317   0.316
 7320SOL    HW222860   0.426   3.399   0.178
 7321SOL     OW22861   2.557   0.084   6.292
 7321SOL    HW122862   2.512   0.044   6.372
 7321SOL    HW222863   2.603   0.012   6.240
 7322SOL     OW22864   0.094   2.799   2.685
 7322SOL    HW122865   0.109   2.792   2.587
 7322SOL    HW222866   0.105   2.709   2.727
 7323SOL     OW22867   2.392   3.031   1.632
 7323SOL    HW122868   2.295   3.012   1.648
 7323SOL    HW222869   2.442   2.945   1.625
 7324SOL     OW22870   6.068   4.907   2.508
 7324SOL    HW122871   6.032   4.814   2.515
 7324SOL    HW222872   5.999   4.971   2.541
 7325SOL     OW22873   3.113   6.952   5.238
 7325SOL    HW122874   3.194   6.893   5.249
 7325SOL    HW222875   3.141   0.018   5.198
 7326SOL     OW22876   3.403   7.008   6.102
 7326SOL    HW122877   3.304   7.000   6.116
 7326SOL    HW222878   3.451   6.945   6.162
 7327SOL     OW22879   5.895   2.713   4.062
 7327SOL    HW122880   5.828   2.740   3.994
 7327SOL    HW222881   5.882   2.767   4.146
 7328SOL     OW22882   4.419   6.274   5.577
 7328SOL    HW122883   4.342   6.244   5.634
 7328SOL    HW222884   4.486   6.321   5.634
 7329SOL     OW22885   1.204   3.053   0.486
 7329SOL    HW122886   1.177   3.124   0.551
 7329SOL    HW222887   1.296   3.021   0.508
 7330SOL     OW22888   2.264   3.104   1.201
 7330SOL    HW122889   2.335   3.174   1.212
 7330SOL    HW222890   2.307   3.017   1.179
 7331SOL     OW22891   5.533   6.410   1.830
 7331SOL    HW122892   5.507   6.390   1.735
 7331SOL    HW222893   5.453   6.443   1.880
 7332SOL     OW22894   3.311   4.274   6.736
 7332SOL    HW122895   3.397   4.324   6.749
 7332SOL    HW222896   3.234   4.333   6.762
 7333SOL     OW22897   6.084   3.291   2.338
 7333SOL    HW122898   5.986   3.290   2.356
 7333SOL    HW222899   6.132   3.330   2.417
 7334SOL     OW22900   2.473   5.624   5.854
 7334SOL    HW122901   2.419   5.546   5.822
 7334SOL    HW222902   2.420   5.675   5.922
 7335SOL     OW22903   0.340   2.657   3.286
 7335SOL    HW122904   0.407   2.644   3.213
 7335SOL    HW222905   0.328   2.755   3.304
 7336SOL     OW22906   2.307   6.694   1.366
 7336SOL    HW122907   2.318   6.794   1.363
 7336SOL    HW222908   2.276   6.661   1.277
 7337SOL     OW22909   2.076   3.290   1.291
 7337SOL    HW122910   2.143   3.361   1.312
 7337SOL    HW222911   2.122   3.211   1.251
 7338SOL     OW22912   5.196   1.648   1.456
 7338SOL    HW122913   5.114   1.693   1.420
 7338SOL    HW222914   5.268   1.716   1.468
 7339SOL     OW22915   6.722   0.655   5.072
 7339SOL    HW122916   6.743   0.721   5.144
 7339SOL    HW222917   6.795   0.587   5.067
 7340SOL     OW22918   3.524   2.110   6.869
 7340SOL    HW122919   3.513   2.180   6.939
 7340SOL    HW222920   3.434   2.076   6.841
 7341SOL     OW22921   0.928   5.020   5.253
 7341SOL    HW122922   0.929   5.041   5.155
 7341SOL    HW222923   1.019   5.033   5.291
 7342SOL     OW22924   6.241   6.346   6.755
 7342SOL    HW122925   6.297   6.335   6.673
 7342SOL    HW222926   6.206   6.257   6.784
 7343SOL     OW22927   5.622   3.523   1.836
 7343SOL    HW122928   5.571   3.438   1.824
 7343SOL    HW222929   5.708   3.517   1.785
 7344SOL     OW22930   2.140   0.130   6.282
 7344SOL    HW122931   2.218   0.139   6.220
 7344SOL    HW222932   2.171   0.144   6.376
 7345SOL     OW22933   5.441   5.968   5.390
 7345SOL    HW122934   5.531   5.997   5.424
 7345SOL    HW222935   5.371   5.990   5.458
 7346SOL     OW22936   3.416   4.520   1.146
 7346SOL    HW122937   3.469   4.552   1.224
 7346SOL    HW222938   3.327   4.567   1.144
 7347SOL     OW22939   6.423   2.963   1.357
 7347SOL    HW122940   6.324   2.978   1.352
 7347SOL    HW222941   6.441   2.866   1.373
 7348SOL     OW22942   1.438   3.425   3.757
 7348SOL    HW122943   1.454   3.415   3.856
 7348SOL    HW222944   1.488   3.505   3.724
 7349SOL     OW22945   4.303   1.776   1.240
 7349SOL    HW122946   4.234   1.742   1.305
 7349SOL    HW222947   4.276   1.750   1.147
 7350SOL     OW22948   1.632   3.718   4.277
 7350SOL    HW122949   1.639   3.624   4.310
 7350SOL    HW222950   1.561   3.723   4.206
 7351SOL     OW22951   4.476   5.562   5.628
 7351SOL    HW122952   4.490   5.575   5.726
 7351SOL    HW222953   4.378   5.553   5.609
 7352SOL     OW22954   1.404   3.425   2.845
 7352SOL    HW122955   1.342   3.456   2.917
 7352SOL    HW222956   1.474   3.365   2.884
 7353SOL     OW22957   0.237   0.330   5.712
 7353SOL    HW122958   0.223   0.232   5.729
 7353SOL    HW222959   0.309   0.342   5.645
 7354SOL     OW22960   0.965   1.340   6.351
 7354SOL    HW122961   1.044   1.283   6.327
 7354SOL    HW222962   0.915   1.297   6.426
 7355SOL     OW22963   1.486   1.295   0.643
 7355SOL    HW122964   1.459   1.391   0.629
 7355SOL    HW222965   1.405   1.241   0.668
 7356SOL     OW22966   4.940   2.893   6.633
 7356SOL    HW122967   5.040   2.882   6.637
 7356SOL    HW222968   4.897   2.805   6.654
 7357SOL     OW22969   4.248   1.009   1.628
 7357SOL    HW122970   4.335   1.000   1.581
 7357SOL    HW222971   4.264   1.024   1.726
 7358SOL     OW22972   1.516   2.641   2.049
 7358SOL    HW122973   1.600   2.613   2.094
 7358SOL    HW222974   1.531   2.728   2.002
 7359SOL     OW22975   2.907   2.675   0.745
 7359SOL    HW122976   2.918   2.674   0.845
 7359SOL    HW222977   2.983   2.725   0.704
 7360SOL     OW22978   3.356   2.843   5.658
 7360SOL    HW122979   3.331   2.911   5.590
 7360SOL    HW222980   3.424   2.882   5.721
 7361SOL     OW22981   4.455   0.256   1.573
 7361SOL    HW122982   4.513   0.308   1.636
 7361SOL    HW222983   4.366   0.239   1.616
 7362SOL     OW22984   0.607   6.631   4.846
 7362SOL    HW122985   0.519   6.589   4.826
 7362SOL    HW222986   0.667   6.563   4.889
 7363SOL     OW22987   3.952   1.683   1.024
 7363SOL    HW122988   3.916   1.742   0.952
 7363SOL    HW222989   3.903   1.702   1.109
 7364SOL     OW22990   4.134   0.414   1.486
 7364SOL    HW122991   4.224   0.415   1.441
 7364SOL    HW222992   4.069   0.365   1.428
 7365SOL     OW22993   1.532   5.989   2.112
 7365SOL    HW122994   1.457   5.982   2.046
 7365SOL    HW222995   1.507   6.055   2.183
 7366SOL     OW22996   2.085   5.206   0.596
 7366SOL    HW122997   2.058   5.122   0.644
 7366SOL    HW222998   2.030   5.215   0.513
 7367SOL     OW22999   4.947   4.124   1.193
 7367SOL    HW123000   4.966   4.215   1.231
 7367SOL    HW223001   4.897   4.134   1.107
 7368SOL     OW23002   3.924   3.004   3.481
 7368SOL    HW123003   3.855   2.976   3.547
 7368SOL    HW223004   4.003   3.043   3.529
 7369SOL     OW23005   4.356   3.228   0.691
 7369SOL    HW123006   4.301   3.308   0.714
 7369SOL    HW223007   4.297   3.147   0.684
 7370SOL     OW23008   2.255   0.666   5.081
 7370SOL    HW123009   2.291   0.622   4.999
 7370SOL    HW223010   2.155   0.665   5.079
 7371SOL     OW23011   2.173   6.474   3.966
 7371SOL    HW123012   2.247   6.511   4.022
 7371SOL    HW223013   2.087   6.520   3.987
 7372SOL     OW23014   2.818   1.541   5.772
 7372SOL    HW123015   2.773   1.609   5.714
 7372SOL    HW223016   2.917   1.552   5.765
 7373SOL     OW23017   5.551   1.301   4.413
 7373SOL    HW123018   5.564   1.218   4.468
 7373SOL    HW223019   5.612   1.299   4.334
 7374SOL     OW23020   2.913   2.438   5.292
 7374SOL    HW123021   3.002   2.454   5.249
 7374SOL    HW223022   2.917   2.467   5.388
 7375SOL     OW23023   1.621   3.063   3.100
 7375SOL    HW123024   1.669   2.978   3.079
 7375SOL    HW223025   1.674   3.116   3.167
 7376SOL     OW23026   4.124   1.767   0.063
 7376SOL    HW123027   4.122   1.806   0.155
 7376SOL    HW223028   4.191   1.693   0.060
 7377SOL     OW23029   5.487   5.393   1.832
 7377SOL    HW123030   5.553   5.324   1.862
 7377SOL    HW223031   5.478   5.464   1.901
 7378SOL     OW23032   6.968   1.589   5.332
 7378SOL    HW123033   0.018   1.583   5.262
 7378SOL    HW223034   6.896   1.522   5.313
 7379SOL     OW23035   3.917   2.046   3.007
 7379SOL    HW123036   3.975   2.081   2.934
 7379SOL    HW223037   3.953   2.075   3.096
 7380SOL     OW23038   6.514   2.997   5.127
 7380SOL    HW123039   6.506   2.945   5.042
 7380SOL    HW223040   6.582   2.954   5.186
 7381SOL     OW23041   5.171   4.140   2.066
 7381SOL    HW123042   5.238   4.211   2.088
 7381SOL    HW223043   5.184   4.111   1.971
 7382SOL     OW23044   0.377   5.617   6.018
 7382SOL    HW123045   0.374   5.523   5.982
 7382SOL    HW223046   0.328   5.678   5.956
 7383SOL     OW23047   0.779   6.618   1.385
 7383SOL    HW123048   0.686   6.595   1.356
 7383SOL    HW223049   0.835   6.535   1.388
 7384SOL     OW23050   5.822   0.650   2.156
 7384SOL    HW123051   5.752   0.612   2.217
 7384SOL    HW223052   5.785   0.659   2.064
 7385SOL     OW23053   3.984   5.805   1.998
 7385SOL    HW123054   4.034   5.857   2.067
 7385SOL    HW223055   3.907   5.860   1.963
 7386SOL     OW23056   0.087   2.145   5.511
 7386SOL    HW123057   0.097   2.215   5.440
 7386SOL    HW223058   0.147   2.068   5.489
 7387SOL     OW23059   4.233   6.760   4.404
 7387SOL    HW123060   4.205   6.760   4.308
 7387SOL    HW223061   4.229   6.666   4.440
 7388SOL     OW23062   0.531   5.015   3.212
 7388SOL    HW123063   0.619   4.982   3.246
 7388SOL    HW223064   0.494   5.083   3.274
 7389SOL     OW23065   0.954   4.527   6.619
 7389SOL    HW123066   0.928   4.623   6.604
 7389SOL    HW223067   0.933   4.502   6.714
 7390SOL     OW23068   2.103   1.248   6.811
 7390SOL    HW123069   2.125   1.280   6.719
 7390SOL    HW223070   2.166   1.289   6.877
 7391SOL     OW23071   5.343   4.374   4.901
 7391SOL    HW123072   5.266   4.371   4.838
 7391SOL    HW223073   5.313   4.347   4.993
 7392SOL     OW23074   3.037   6.256   6.926
 7392SOL    HW123075   3.025   6.351   6.895
 7392SOL    HW223076   2.955   6.227   6.975
 7393SOL     OW23077   5.448   4.699   1.419
 7393SOL    HW123078   5.461   4.618   1.477
 7393SOL    HW223079   5.405   4.771   1.473
 7394SOL     OW23080   2.950   2.451   6.193
 7394SOL    HW123081   2.915   2.496   6.111
 7394SOL    HW223082   2.911   2.494   6.274
 7395SOL     OW23083   2.673   1.612   6.957
 7395SOL    HW123084   2.685   1.531   6.900
 7395SOL    HW223085   2.632   1.587   0.023
 7396SOL     OW23086   0.908   0.000   0.588
 7396SOL    HW123087   0.869   0.042   0.506
 7396SOL    HW223088   0.913   6.922   0.576
 7397SOL     OW23089   5.137   5.281   5.316
 7397SOL    HW123090   5.213   5.216   5.323
 7397SOL    HW223091   5.126   5.329   5.403
 7398SOL     OW23092   3.020   5.192   4.274
 7398SOL    HW123093   3.079   5.188   4.354
 7398SOL    HW223094   2.925   5.202   4.302
 7399SOL     OW23095   1.282   3.013   5.816
 7399SOL    HW123096   1.208   2.979   5.873
 7399SOL    HW223097   1.279   3.113   5.813
 7400SOL     OW23098   3.311   3.288   6.168
 7400SOL    HW123099   3.226   3.324   6.129
 7400SOL    HW223100   3.318   3.190   6.149
 7401SOL     OW23101   0.598   0.976   3.736
 7401SOL    HW123102   0.681   1.018   3.700
 7401SOL    HW223103   0.592   0.992   3.835
 7402SOL     OW23104   2.537   5.224   5.685
 7402SOL    HW123105   2.606   5.268   5.742
 7402SOL    HW223106   2.457   5.284   5.677
 7403SOL     OW23107   1.627   4.266   2.901
 7403SOL    HW123108   1.712   4.291   2.856
 7403SOL    HW223109   1.581   4.194   2.849
 7404SOL     OW23110   3.125   5.373   1.214
 7404SOL    HW123111   3.148   5.441   1.145
 7404SOL    HW223112   3.053   5.409   1.274
 7405SOL     OW23113   2.902   4.853   4.583
 7405SOL    HW123114   2.901   4.927   4.651
 7405SOL    HW223115   2.838   4.782   4.611
 7406SOL     OW23116   1.237   3.103   3.601
 7406SOL    HW123117   1.163   3.148   3.651
 7406SOL    HW223118   1.247   3.009   3.634
 7407SOL     OW23119   0.231   6.028   4.880
 7407SOL    HW123120   0.222   5.976   4.965
 7407SOL    HW223121   0.270   6.118   4.900
 7408SOL     OW23122   1.324   3.421   5.872
 7408SOL    HW123123   1.411   3.421   5.823
 7408SOL    HW223124   1.339   3.447   5.967
 7409SOL     OW23125   0.694   1.143   5.069
 7409SOL    HW123126   0.746   1.059   5.053
 7409SOL    HW223127   0.752   1.209   5.118
 7410SOL     OW23128   0.514   4.706   1.538
 7410SOL    HW123129   0.456   4.678   1.614
 7410SOL    HW223130   0.578   4.777   1.568
 7411SOL     OW23131   2.777   6.818   4.134
 7411SOL    HW123132   2.766   6.892   4.068
 7411SOL    HW223133   2.843   6.845   4.204
 7412SOL     OW23134   3.947   0.068   2.961
 7412SOL    HW123135   3.973   0.079   2.865
 7412SOL    HW223136   3.969   0.152   3.010
 7413SOL     OW23137   4.660   5.384   5.047
 7413SOL    HW123138   4.635   5.289   5.063
 7413SOL    HW223139   4.596   5.444   5.094
 7414SOL     OW23140   0.112   6.625   4.056
 7414SOL    HW123141   0.101   6.697   3.988
 7414SOL    HW223142   0.074   6.539   4.021
 7415SOL     OW23143   1.140   3.667   2.865
 7415SOL    HW123144   1.218   3.729   2.866
 7415SOL    HW223145   1.148   3.602   2.940
 7416SOL     OW23146   3.144   0.844   3.544
 7416SOL    HW123147   3.174   0.932   3.507
 7416SOL    HW223148   3.210   0.812   3.611
 7417SOL     OW23149   2.211   0.613   5.806
 7417SOL    HW123150   2.221   0.522   5.847
 7417SOL    HW223151   2.115   0.630   5.784
 7418SOL     OW23152   3.521   5.603   0.466
 7418SOL    HW123153   3.460   5.546   0.411
 7418SOL    HW223154   3.472   5.685   0.497
 7419SOL     OW23155   6.334   2.209   5.365
 7419SOL    HW123156   6.340   2.114   5.335
 7419SOL    HW223157   6.313   2.211   5.463
 7420SOL     OW23158   0.028   6.702   1.840
 7420SOL    HW123159   7.001   6.687   1.926
 7420SOL    HW223160   0.121   6.666   1.846
 7421SOL     OW23161   3.395   3.484   1.094
 7421SOL    HW123162   3.493   3.461   1.097
 7421SOL    HW223163   3.368   3.525   1.181
 7422SOL     OW23164   0.090   3.002   2.317
 7422SOL    HW123165   0.148   2.986   2.237
 7422SOL    HW223166   0.104   3.096   2.350
 7423SOL     OW23167   6.930   4.674   5.632
 7423SOL    HW123168   7.005   4.633   5.581
 7423SOL    HW223169   6.966   4.738   5.699
 7424SOL     OW23170   0.161   0.335   5.113
 7424SOL    HW123171   0.206   0.357   5.026
 7424SOL    HW223172   0.222   0.359   5.189
 7425SOL     OW23173   4.766   5.791   6.487
 7425SOL    HW123174   4.673   5.822   6.504
 7425SOL    HW223175   4.825   5.822   6.562
 7426SOL     OW23176   1.569   1.358   6.708
 7426SOL    HW123177   1.580   1.453   6.680
 7426SOL    HW223178   1.586   1.350   6.806
 7427SOL     OW23179   3.380   6.411   3.932
 7427SOL    HW123180   3.280   6.409   3.930
 7427SOL    HW223181   3.414   6.475   3.863
 7428SOL     OW23182   3.832   1.404   6.059
 7428SOL    HW123183   3.807   1.314   6.024
 7428SOL    HW223184   3.823   1.404   6.159
 7429SOL     OW23185   6.054   6.761   3.472
 7429SOL    HW123186   6.036   6.714   3.559
 7429SOL    HW223187   6.011   6.852   3.475
 7430SOL     OW23188   0.250   3.942   6.200
 7430SOL    HW123189   0.170   3.978   6.247
 7430SOL    HW223190   0.323   4.011   6.200
 7431SOL     OW23191   0.256   3.079   2.740
 7431SOL    HW123192   0.205   2.994   2.723
 7431SOL    HW223193   0.198   3.143   2.790
 7432SOL     OW23194   7.003   0.273   3.488
 7432SOL    HW123195   0.043   0.196   3.507
 7432SOL    HW223196   6.918   0.240   3.448
 7433SOL     OW23197   5.728   5.388   0.044
 7433SOL    HW123198   5.669   5.348   6.995
 7433SOL    HW223199   5.698   5.357   0.135
 7434SOL     OW23200   4.684   0.553   6.142
 7434SOL    HW123201   4.701   0.634   6.197
 7434SOL    HW223202   4.744   0.479   6.173
 7435SOL     OW23203   3.915   5.939   0.818
 7435SOL    HW123204   3.959   5.880   0.886
 7435SOL    HW223205   3.909   6.032   0.854
 7436SOL     OW23206   5.811   3.267   6.298
 7436SOL    HW123207   5.758   3.316   6.368
 7436SOL    HW223208   5.791   3.169   6.303
 7437SOL     OW23209   0.416   6.147   0.430
 7437SOL    HW123210   0.316   6.145   0.428
 7437SOL    HW223211   0.447   6.176   0.521
 7438SOL     OW23212   0.851   5.421   0.647
 7438SOL    HW123213   0.889   5.502   0.603
 7438SOL    HW223214   0.918   5.383   0.710
 7439SOL     OW23215   1.480   6.224   4.928
 7439SOL    HW123216   1.546   6.153   4.902
 7439SOL    HW223217   1.499   6.255   5.021
 7440SOL     OW23218   0.938   3.481   4.273
 7440SOL    HW123219   0.915   3.386   4.298
 7440SOL    HW223220   0.921   3.494   4.175
 7441SOL     OW23221   4.518   5.950   4.686
 7441SOL    HW123222   4.607   5.909   4.706
 7441SOL    HW223223   4.467   5.890   4.624
 7442SOL     OW23224   0.633   0.748   6.343
 7442SOL    HW123225   0.593   0.775   6.430
 7442SOL    HW223226   0.706   0.682   6.358
 7443SOL     OW23227   0.593   0.789   1.934
 7443SOL    HW123228   0.577   0.716   2.001
 7443SOL    HW223229   0.597   0.877   1.982
 7444SOL     OW23230   6.477   3.289   4.542
 7444SOL    HW123231   6.453   3.195   4.567
 7444SOL    HW223232   6.508   3.338   4.624
 7445SOL     OW23233   3.197   1.198   1.219
 7445SOL    HW123234   3.153   1.252   1.148
 7445SOL    HW223235   3.279   1.155   1.182
 7446SOL     OW23236   5.474   3.696   1.060
 7446SOL    HW123237   5.448   3.699   0.964
 7446SOL    HW223238   5.398   3.728   1.116
 7447SOL     OW23239   1.136   3.164   5.545
 7447SOL    HW123240   1.206   3.220   5.500
 7447SOL    HW223241   1.090   3.219   5.614
 7448SOL     OW23242   6.210   6.688   5.229
 7448SOL    HW123243   6.224   6.665   5.326
 7448SOL    HW223244   6.249   6.616   5.172
 7449SOL     OW23245   6.751   2.618   1.950
 7449SOL    HW123246   6.679   2.564   1.908
 7449SOL    HW223247   6.730   2.715   1.941
 7450SOL     OW23248   5.120   1.839   4.478
 7450SOL    HW123249   5.078   1.771   4.538
 7450SOL    HW223250   5.054   1.867   4.408
 7451SOL     OW23251   1.135   6.456   2.969
 7451SOL    HW123252   1.136   6.368   2.921
 7451SOL    HW223253   1.229   6.488   2.979
 7452SOL     OW23254   0.240   6.329   5.379
 7452SOL    HW123255   0.232   6.368   5.287
 7452SOL    HW223256   0.331   6.346   5.416
 7453SOL     OW23257   4.500   6.048   5.452
 7453SOL    HW123258   4.478   6.143   5.474
 7453SOL    HW223259   4.428   6.009   5.394
 7454SOL     OW23260   0.924   2.390   1.677
 7454SOL    HW123261   1.007   2.373   1.624
 7454SOL    HW223262   0.847   2.403   1.614
 7455SOL     OW23263   0.196   1.786   1.950
 7455SOL    HW123264   0.230   1.782   2.044
 7455SOL    HW223265   0.137   1.867   1.940
 7456SOL     OW23266   0.732   2.257   4.262
 7456SOL    HW123267   0.769   2.258   4.169
 7456SOL    HW223268   0.784   2.320   4.319
 7457SOL     OW23269   3.640   0.838   5.334
 7457SOL    HW123270   3.702   0.908   5.369
 7457SOL    HW223271   3.670   0.748   5.366
 7458SOL     OW23272   2.318   0.112   6.664
 7458SOL    HW123273   2.415   0.130   6.684
 7458SOL    HW223274   2.274   0.077   6.746
 7459SOL     OW23275   4.555   0.905   1.216
 7459SOL    HW123276   4.612   0.927   1.137
 7459SOL    HW223277   4.555   0.806   1.230
 7460SOL     OW23278   1.822   4.396   1.149
 7460SOL    HW123279   1.832   4.452   1.067
 7460SOL    HW223280   1.770   4.448   1.218
 7461SOL     OW23281   6.365   1.685   5.876
 7461SOL    HW123282   6.307   1.715   5.951
 7461SOL    HW223283   6.330   1.599   5.839
 7462SOL     OW23284   1.180   4.243   2.935
 7462SOL    HW123285   1.114   4.172   2.912
 7462SOL    HW223286   1.222   4.223   3.023
 7463SOL     OW23287   2.898   5.007   1.069
 7463SOL    HW123288   2.869   5.095   1.108
 7463SOL    HW223289   2.838   4.983   0.993
 7464SOL     OW23290   4.301   0.566   6.574
 7464SOL    HW123291   4.368   0.593   6.644
 7464SOL    HW223292   4.219   0.530   6.620
 7465SOL     OW23293   1.211   6.822   0.237
 7465SOL    HW123294   1.195   6.723   0.234
 7465SOL    HW223295   1.309   6.840   0.237
 7466SOL     OW23296   0.257   0.479   5.976
 7466SOL    HW123297   0.255   0.579   5.976
 7466SOL    HW223298   0.247   0.445   5.883
 7467SOL     OW23299   6.639   1.855   0.458
 7467SOL    HW123300   6.610   1.799   0.380
 7467SOL    HW223301   6.560   1.880   0.514
 7468SOL     OW23302   6.585   2.779   2.780
 7468SOL    HW123303   6.494   2.817   2.767
 7468SOL    HW223304   6.588   2.728   2.866
 7469SOL     OW23305   6.994   0.549   0.243
 7469SOL    HW123306   0.033   0.476   0.274
 7469SOL    HW223307   7.020   0.635   0.288
 7470SOL     OW23308   0.008   2.978   3.722
 7470SOL    HW123309   6.949   3.003   3.777
 7470SOL    HW223310   7.014   2.887   3.683
 7471SOL     OW23311   6.624   6.155   5.714
 7471SOL    HW123312   6.696   6.172   5.647
 7471SOL    HW223313   6.585   6.064   5.698
 7472SOL     OW23314   5.832   7.018   4.214
 7472SOL    HW123315   5.908   6.963   4.249
 7472SOL    HW223316   5.756   7.014   4.279
 7473SOL     OW23317   6.824   4.781   2.743
 7473SOL    HW123318   6.761   4.832   2.801
 7473SOL    HW223319   6.773   4.727   2.677
 7474SOL     OW23320   2.365   1.637   5.251
 7474SOL    HW123321   2.317   1.618   5.336
 7474SOL    HW223322   2.381   1.735   5.243
 7475SOL     OW23323   3.698   0.898   2.449
 7475SOL    HW123324   3.795   0.875   2.449
 7475SOL    HW223325   3.686   0.994   2.425
 7476SOL     OW23326   3.484   5.107   3.916
 7476SOL    HW123327   3.425   5.083   3.839
 7476SOL    HW223328   3.437   5.172   3.975
 7477SOL     OW23329   6.720   1.446   4.558
 7477SOL    HW123330   6.778   1.515   4.603
 7477SOL    HW223331   6.662   1.402   4.626
 7478SOL     OW23332   4.502   5.004   6.625
 7478SOL    HW123333   4.526   4.920   6.673
 7478SOL    HW223334   4.455   4.982   6.540
 7479SOL     OW23335   3.949   2.608   1.682
 7479SOL    HW123336   3.944   2.583   1.585
 7479SOL    HW223337   4.039   2.584   1.718
 7480SOL     OW23338   0.086   3.830   1.860
 7480SOL    HW123339   0.005   3.797   1.811
 7480SOL    HW223340   0.074   3.927   1.880
 7481SOL     OW23341   6.041   5.725   1.767
 7481SOL    HW123342   6.081   5.805   1.813
 7481SOL    HW223343   5.945   5.717   1.791
 7482SOL     OW23344   4.770   2.108   3.438
 7482SOL    HW123345   4.862   2.145   3.450
 7482SOL    HW223346   4.703   2.177   3.464
 7483SOL     OW23347   4.674   2.422   5.068
 7483SOL    HW123348   4.717   2.507   5.098
 7483SOL    HW223349   4.697   2.349   5.132
 7484SOL     OW23350   0.486   1.242   3.792
 7484SOL    HW123351   0.579   1.244   3.829
 7484SOL    HW223352   0.422   1.278   3.860
 7485SOL     OW23353   3.244   0.115   4.220
 7485SOL    HW123354   3.212   0.207   4.200
 7485SOL    HW223355   3.166   0.053   4.224
 7486SOL     OW23356   2.782   0.509   5.671
 7486SOL    HW123357   2.721   0.464   5.736
 7486SOL    HW223358   2.822   0.441   5.610
 7487SOL     OW23359   2.629   5.971   2.735
 7487SOL    HW123360   2.625   6.065   2.769
 7487SOL    HW223361   2.722   5.936   2.745
 7488SOL     OW23362   2.121   6.723   4.300
 7488SOL    HW123363   2.104   6.801   4.360
 7488SOL    HW223364   2.046   6.657   4.310
 7489SOL     OW23365   5.516   2.013   4.883
 7489SOL    HW123366   5.567   2.046   4.962
 7489SOL    HW223367   5.477   2.090   4.833
 7490SOL     OW23368   0.537   1.158   1.240
 7490SOL    HW123369   0.449   1.171   1.193
 7490SOL    HW223370   0.572   1.246   1.272
 7491SOL     OW23371   6.210   3.435   6.089
 7491SOL    HW123372   6.115   3.421   6.117
 7491SOL    HW223373   6.235   3.365   6.022
 7492SOL     OW23374   2.005   0.559   3.918
 7492SOL    HW123375   2.103   0.551   3.898
 7492SOL    HW223376   1.993   0.600   4.009
 7493SOL     OW23377   6.546   3.920   6.983
 7493SOL    HW123378   6.506   3.845   6.930
 7493SOL    HW223379   6.610   3.971   6.926
 7494SOL     OW23380   5.596   0.695   2.891
 7494SOL    HW123381   5.586   0.717   2.794
 7494SOL    HW223382   5.536   0.618   2.914
 7495SOL     OW23383   1.783   0.628   0.581
 7495SOL    HW123384   1.840   0.707   0.603
 7495SOL    HW223385   1.694   0.638   0.625
 7496SOL     OW23386   0.124   3.274   5.875
 7496SOL    HW123387   0.070   3.315   5.948
 7496SOL    HW223388   0.221   3.290   5.893
 7497SOL     OW23389   2.396   4.708   1.016
 7497SOL    HW123390   2.451   4.660   1.085
 7497SOL    HW223391   2.452   4.780   0.975
 7498SOL     OW23392   2.208   1.349   5.560
 7498SOL    HW123393   2.121   1.302   5.548
 7498SOL    HW223394   2.281   1.297   5.516
 7499SOL     OW23395   4.090   2.133   2.825
 7499SOL    HW123396   4.146   2.192   2.883
 7499SOL    HW223397   4.150   2.071   2.773
 7500SOL     OW23398   3.558   5.506   4.392
 7500SOL    HW123399   3.534   5.412   4.368
 7500SOL    HW223400   3.634   5.505   4.457
 7501SOL     OW23401   5.733   3.938   3.651
 7501SOL    HW123402   5.790   4.009   3.610
 7501SOL    HW223403   5.659   3.914   3.588
 7502SOL     OW23404   1.483   7.000   4.734
 7502SOL    HW123405   1.525   0.054   4.682
 7502SOL    HW223406   1.510   6.912   4.694
 7503SOL     OW23407   2.817   1.707   0.821
 7503SOL    HW123408   2.748   1.659   0.767
 7503SOL    HW223409   2.898   1.649   0.830
 7504SOL     OW23410   2.147   0.100   2.940
 7504SOL    HW123411   2.217   0.040   2.901
 7504SOL    HW223412   2.097   0.146   2.866
 7505SOL     OW23413   2.371   2.122   5.596
 7505SOL    HW123414   2.338   2.215   5.579
 7505SOL    HW223415   2.312   2.078   5.664
 7506SOL     OW23416   4.832   0.091   3.070
 7506SOL    HW123417   4.822   0.033   3.150
 7506SOL    HW223418   4.853   0.185   3.099
 7507SOL     OW23419   0.605   0.420   2.599
 7507SOL    HW123420   0.641   0.328   2.581
 7507SOL    HW223421   0.644   0.456   2.684
 7508SOL     OW23422   0.228   6.686   2.027
 7508SOL    HW123423   0.284   6.723   1.954
 7508SOL    HW223424   0.183   6.762   2.076
 7509SOL     OW23425   5.614   4.185   0.543
 7509SOL    HW123426   5.634   4.133   0.460
 7509SOL    HW223427   5.550   4.259   0.521
 7510SOL     OW23428   3.559   4.621   5.361
 7510SOL    HW123429   3.573   4.686   5.286
 7510SOL    HW223430   3.568   4.528   5.327
 7511SOL     OW23431   1.817   6.808   3.825
 7511SOL    HW123432   1.897   6.835   3.771
 7511SOL    HW223433   1.776   6.888   3.867
 7512SOL     OW23434   2.711   5.320   6.957
 7512SOL    HW123435   2.620   5.316   6.915
 7512SOL    HW223436   2.717   5.399   7.017
 7513SOL     OW23437   2.143   1.314   1.836
 7513SOL    HW123438   2.223   1.298   1.894
 7513SOL    HW223439   2.126   1.233   1.780
 7514SOL     OW23440   2.137   5.525   1.524
 7514SOL    HW123441   2.236   5.529   1.524
 7514SOL    HW223442   2.105   5.476   1.606
 7515SOL     OW23443   0.368   4.928   1.904
 7515SOL    HW123444   0.385   4.833   1.877
 7515SOL    HW223445   0.270   4.946   1.902
 7516SOL     OW23446   6.446   5.905   5.263
 7516SOL    HW123447   6.497   5.968   5.321
 7516SOL    HW223448   6.507   5.833   5.231
 7517SOL     OW23449   0.061   3.129   0.608
 7517SOL    HW123450   0.070   3.080   0.521
 7517SOL    HW223451   0.092   3.070   0.682
 7518SOL     OW23452   4.399   5.259   3.254
 7518SOL    HW123453   4.322   5.322   3.255
 7518SOL    HW223454   4.474   5.297   3.310
 7519SOL     OW23455   6.269   6.725   4.337
 7519SOL    HW123456   6.300   6.803   4.392
 7519SOL    HW223457   6.303   6.734   4.244
 7520SOL     OW23458   3.528   0.117   2.151
 7520SOL    HW123459   3.479   0.132   2.237
 7520SOL    HW223460   3.575   0.201   2.124
 7521SOL     OW23461   4.632   4.435   5.976
 7521SOL    HW123462   4.691   4.446   5.896
 7521SOL    HW223463   4.536   4.445   5.949
 7522SOL     OW23464   2.177   0.293   6.503
 7522SOL    HW123465   2.098   0.345   6.534
 7522SOL    HW223466   2.236   0.272   6.581
 7523SOL     OW23467   5.427   0.124   5.558
 7523SOL    HW123468   5.402   0.111   5.463
 7523SOL    HW223469   5.349   0.103   5.617
 7524SOL     OW23470   1.828   1.888   6.081
 7524SOL    HW123471   1.877   1.803   6.064
 7524SOL    HW223472   1.890   1.966   6.070
 7525SOL     OW23473   3.134   0.896   6.340
 7525SOL    HW123474   3.227   0.860   6.336
 7525SOL    HW223475   3.107   0.910   6.435
 7526SOL     OW23476   3.141   3.268   1.588
 7526SOL    HW123477   3.186   3.301   1.505
 7526SOL    HW223478   3.130   3.169   1.583
 7527SOL     OW23479   4.589   5.940   3.011
 7527SOL    HW123480   4.502   5.921   2.964
 7527SOL    HW223481   4.641   6.008   2.960
 7528SOL     OW23482   5.412   1.812   0.250
 7528SOL    HW123483   5.495   1.796   0.195
 7528SOL    HW223484   5.352   1.732   0.242
 7529SOL     OW23485   5.676   0.267   3.986
 7529SOL    HW123486   5.659   0.232   3.894
 7529SOL    HW223487   5.606   0.233   4.048
 7530SOL     OW23488   0.328   3.861   2.239
 7530SOL    HW123489   0.291   3.775   2.203
 7530SOL    HW223490   0.299   3.937   2.180
 7531SOL     OW23491   4.622   2.435   4.215
 7531SOL    HW123492   4.717   2.416   4.189
 7531SOL    HW223493   4.569   2.460   4.134
 7532SOL     OW23494   5.536   4.482   1.555
 7532SOL    HW123495   5.554   4.421   1.478
 7532SOL    HW223496   5.620   4.495   1.607
 7533SOL     OW23497   2.147   2.185   2.494
 7533SOL    HW123498   2.199   2.118   2.440
 7533SOL    HW223499   2.064   2.143   2.529
 7534SOL     OW23500   4.318   5.987   5.270
 7534SOL    HW123501   4.342   6.031   5.184
 7534SOL    HW223502   4.286   5.894   5.252
 7535SOL     OW23503   2.699   0.215   5.817
 7535SOL    HW123504   2.667   0.291   5.874
 7535SOL    HW223505   2.675   0.128   5.859
 7536SOL     OW23506   4.895   4.493   4.746
 7536SOL    HW123507   4.919   4.518   4.840
 7536SOL    HW223508   4.832   4.560   4.708
 7537SOL     OW23509   3.141   5.108   2.985
 7537SOL    HW123510   3.049   5.080   2.959
 7537SOL    HW223511   3.198   5.027   3.000
 7538SOL     OW23512   2.835   3.179   1.786
 7538SOL    HW123513   2.887   3.094   1.781
 7538SOL    HW223514   2.754   3.173   1.728
 7539SOL     OW23515   1.227   2.747   4.080
 7539SOL    HW123516   1.267   2.809   4.012
 7539SOL    HW223517   1.268   2.656   4.071
 7540SOL     OW23518   4.141   6.934   5.342
 7540SOL    HW123519   4.190   6.923   5.429
 7540SOL    HW223520   4.175   7.016   5.295
 7541SOL     OW23521   6.802   4.285   4.066
 7541SOL    HW123522   6.850   4.255   3.984
 7541SOL    HW223523   6.707   4.306   4.044
 7542SOL     OW23524   0.808   5.832   6.847
 7542SOL    HW123525   0.877   5.889   6.892
 7542SOL    HW223526   0.845   5.740   6.833
 7543SOL     OW23527   3.421   2.078   0.524
 7543SOL    HW123528   3.347   2.145   0.526
 7543SOL    HW223529   3.440   2.051   0.430
 7544SOL     OW23530   0.244   2.257   2.974
 7544SOL    HW123531   0.148   2.233   2.990
 7544SOL    HW223532   0.288   2.279   3.061
 7545SOL     OW23533   6.432   5.679   1.579
 7545SOL    HW123534   6.489   5.676   1.497
 7545SOL    HW223535   6.456   5.759   1.634
 7546SOL     OW23536   3.268   1.467   2.197
 7546SOL    HW123537   3.246   1.452   2.101
 7546SOL    HW223538   3.323   1.550   2.206
 7547SOL     OW23539   4.752   1.114   0.213
 7547SOL    HW123540   4.758   1.037   0.277
 7547SOL    HW223541   4.780   1.198   0.259
 7548SOL     OW23542   3.827   2.432   0.456
 7548SOL    HW123543   3.797   2.527   0.453
 7548SOL    HW223544   3.776   2.383   0.528
 7549SOL     OW23545   6.117   2.011   1.237
 7549SOL    HW123546   6.148   1.954   1.313
 7549SOL    HW223547   6.021   2.034   1.250
 7550SOL     OW23548   2.584   4.544   2.637
 7550SOL    HW123549   2.618   4.574   2.548
 7550SOL    HW223550   2.653   4.563   2.707
 7551SOL     OW23551   4.991   3.970   6.798
 7551SOL    HW123552   5.016   4.047   6.738
 7551SOL    HW223553   5.040   3.888   6.769
 7552SOL     OW23554   1.196   5.262   3.455
 7552SOL    HW123555   1.224   5.315   3.534
 7552SOL    HW223556   1.160   5.174   3.484
 7553SOL     OW23557   4.489   5.578   5.155
 7553SOL    HW123558   4.408   5.634   5.169
 7553SOL    HW223559   4.554   5.593   5.229
 7554SOL     OW23560   4.407   1.699   1.509
 7554SOL    HW123561   4.330   1.762   1.500
 7554SOL    HW223562   4.417   1.645   1.426
 7555SOL     OW23563   1.597   4.847   5.459
 7555SOL    HW123564   1.654   4.807   5.387
 7555SOL    HW223565   1.515   4.887   5.418
 7556SOL     OW23566   0.664   2.913   6.267
 7556SOL    HW123567   0.631   2.979   6.199
 7556SOL    HW223568   0.699   2.962   6.347
 7557SOL     OW23569   5.292   2.027   6.340
 7557SOL    HW123570   5.219   2.089   6.312
 7557SOL    HW223571   5.327   1.978   6.259
 7558SOL     OW23572   1.551   2.421   4.599
 7558SOL    HW123573   1.521   2.387   4.688
 7558SOL    HW223574   1.631   2.370   4.569
 7559SOL     OW23575   5.880   4.795   6.851
 7559SOL    HW123576   5.808   4.737   6.812
 7559SOL    HW223577   5.935   4.834   6.777
 7560SOL     OW23578   4.985   6.748   1.201
 7560SOL    HW123579   4.912   6.738   1.268
 7560SOL    HW223580   5.066   6.787   1.245
 7561SOL     OW23581   1.296   3.134   6.978
 7561SOL    HW123582   1.242   3.213   6.951
 7561SOL    HW223583   1.318   3.079   6.898
 7562SOL     OW23584   6.321   6.008   4.464
 7562SOL    HW123585   6.378   5.960   4.530
 7562SOL    HW223586   6.228   6.015   4.500
 7563SOL     OW23587   2.151   6.450   0.845
 7563SOL    HW123588   2.061   6.493   0.849
 7563SOL    HW223589   2.140   6.350   0.844
 7564SOL     OW23590   4.871   1.582   3.172
 7564SOL    HW123591   4.863   1.503   3.110
 7564SOL    HW223592   4.965   1.615   3.172
 7565SOL     OW23593   5.986   3.269   0.844
 7565SOL    HW123594   5.919   3.250   0.772
 7565SOL    HW223595   6.043   3.189   0.859
 7566SOL     OW23596   6.884   4.824   3.098
 7566SOL    HW123597   6.908   4.920   3.112
 7566SOL    HW223598   6.959   4.778   3.050
 7567SOL     OW23599   1.536   2.119   5.022
 7567SOL    HW123600   1.602   2.165   4.963
 7567SOL    HW223601   1.452   2.173   5.027
 7568SOL     OW23602   5.489   6.658   2.986
 7568SOL    HW123603   5.501   6.573   3.038
 7568SOL    HW223604   5.406   6.652   2.931
 7569SOL     OW23605   3.599   6.248   6.444
 7569SOL    HW123606   3.530   6.320   6.443
 7569SOL    HW223607   3.678   6.277   6.390
 7570SOL     OW23608   5.589   4.410   4.997
 7570SOL    HW123609   5.562   4.457   5.082
 7570SOL    HW223610   5.507   4.383   4.947
 7571SOL     OW23611   5.341   5.301   3.766
 7571SOL    HW123612   5.381   5.353   3.690
 7571SOL    HW223613   5.363   5.204   3.755
 7572SOL     OW23614   4.089   0.803   2.039
 7572SOL    HW123615   4.188   0.797   2.026
 7572SOL    HW223616   4.047   0.715   2.015
 7573SOL     OW23617   0.127   6.437   4.740
 7573SOL    HW123618   0.032   6.453   4.716
 7573SOL    HW223619   0.181   6.422   4.657
 7574SOL     OW23620   6.258   1.012   4.857
 7574SOL    HW123621   6.355   0.990   4.866
 7574SOL    HW223622   6.248   1.092   4.798
 7575SOL     OW23623   4.027   0.338   5.838
 7575SOL    HW123624   4.118   0.320   5.876
 7575SOL    HW223625   3.963   0.359   5.912
 7576SOL     OW23626   5.118   4.394   6.788
 7576SOL    HW123627   5.080   4.478   6.750
 7576SOL    HW223628   5.202   4.370   6.739
 7577SOL     OW23629   6.863   6.945   6.277
 7577SOL    HW123630   6.901   0.010   6.313
 7577SOL    HW223631   6.859   6.878   6.351
 7578SOL     OW23632   2.316   6.372   2.032
 7578SOL    HW123633   2.246   6.316   2.075
 7578SOL    HW223634   2.293   6.387   1.935
 7579SOL     OW23635   6.493   1.460   2.076
 7579SOL    HW123636   6.410   1.425   2.033
 7579SOL    HW223637   6.494   1.435   2.173
 7580SOL     OW23638   1.139   4.234   4.026
 7580SOL    HW123639   1.066   4.280   4.076
 7580SOL    HW223640   1.171   4.294   3.952
 7581SOL     OW23641   6.720   0.851   1.246
 7581SOL    HW123642   6.785   0.861   1.170
 7581SOL    HW223643   6.635   0.810   1.211
 7582SOL     OW23644   2.947   0.799   0.856
 7582SOL    HW123645   2.894   0.880   0.880
 7582SOL    HW223646   2.920   0.766   0.765
 7583SOL     OW23647   6.559   3.034   0.796
 7583SOL    HW123648   6.645   3.067   0.758
 7583SOL    HW223649   6.521   3.103   0.858
 7584SOL     OW23650   2.601   0.074   1.682
 7584SOL    HW123651   2.567   0.069   1.588
 7584SOL    HW223652   2.657   0.156   1.693
 7585SOL     OW23653   1.856   2.263   6.257
 7585SOL    HW123654   1.831   2.359   6.256
 7585SOL    HW223655   1.802   2.215   6.326
 7586SOL     OW23656   3.392   1.202   3.731
 7586SOL    HW123657   3.378   1.258   3.650
 7586SOL    HW223658   3.479   1.227   3.774
 7587SOL     OW23659   2.635   1.857   6.855
 7587SOL    HW123660   2.682   1.866   6.767
 7587SOL    HW223661   2.656   1.768   6.895
 7588SOL     OW23662   1.531   3.239   2.607
 7588SOL    HW123663   1.469   3.270   2.535
 7588SOL    HW223664   1.491   3.257   2.696
 7589SOL     OW23665   0.712   6.927   2.120
 7589SOL    HW123666   0.797   6.903   2.073
 7589SOL    HW223667   0.712   6.887   2.211
 7590SOL     OW23668   4.662   1.812   6.798
 7590SOL    HW123669   4.741   1.874   6.799
 7590SOL    HW223670   4.579   1.863   6.818
 7591SOL     OW23671   0.123   3.743   0.264
 7591SOL    HW123672   0.132   3.826   0.209
 7591SOL    HW223673   0.079   3.672   0.210
 7592SOL     OW23674   6.820   3.915   5.951
 7592SOL    HW123675   6.754   3.843   5.928
 7592SOL    HW223676   6.883   3.928   5.874
 7593SOL     OW23677   5.872   2.909   1.289
 7593SOL    HW123678   5.846   2.812   1.282
 7593SOL    HW223679   5.805   2.965   1.240
 7594SOL     OW23680   0.959   5.129   2.478
 7594SOL    HW123681   1.033   5.159   2.539
 7594SOL    HW223682   0.963   5.030   2.467
 7595SOL     OW23683   0.190   2.410   5.637
 7595SOL    HW123684   0.154   2.318   5.623
 7595SOL    HW223685   0.144   2.453   5.714
 7596SOL     OW23686   4.712   5.608   4.135
 7596SOL    HW123687   4.690   5.524   4.185
 7596SOL    HW223688   4.632   5.640   4.085
 7597SOL     OW23689   3.772   6.113   3.005
 7597SOL    HW123690   3.848   6.052   2.986
 7597SOL    HW223691   3.797   6.176   3.078
 7598SOL     OW23692   6.720   1.764   3.084
 7598SOL    HW123693   6.748   1.823   3.008
 7598SOL    HW223694   6.716   1.669   3.052
 7599SOL     OW23695   5.504   1.596   2.470
 7599SOL    HW123696   5.541   1.660   2.537
 7599SOL    HW223697   5.552   1.509   2.476
 7600SOL     OW23698   2.224   1.543   2.563
 7600SOL    HW123699   2.209   1.572   2.469
 7600SOL    HW223700   2.149   1.575   2.621
 7601SOL     OW23701   2.260   5.242   3.301
 7601SOL    HW123702   2.228   5.148   3.310
 7601SOL    HW223703   2.201   5.291   3.236
 7602SOL     OW23704   0.442   4.594   6.391
 7602SOL    HW123705   0.416   4.567   6.298
 7602SOL    HW223706   0.399   4.682   6.414
 7603SOL     OW23707   2.041   5.038   6.115
 7603SOL    HW123708   2.008   5.131   6.134
 7603SOL    HW223709   1.973   4.972   6.146
 7604SOL     OW23710   1.457   4.593   4.256
 7604SOL    HW123711   1.364   4.565   4.280
 7604SOL    HW223712   1.464   4.601   4.156
 7605SOL     OW23713   0.616   6.978   1.231
 7605SOL    HW123714   0.711   7.007   1.228
 7605SOL    HW223715   0.584   6.979   1.326
 7606SOL     OW23716   6.118   3.413   4.387
 7606SOL    HW123717   6.072   3.486   4.335
 7606SOL    HW223718   6.176   3.360   4.325
 7607SOL     OW23719   3.881   4.856   0.267
 7607SOL    HW123720   3.923   4.832   0.179
 7607SOL    HW223721   3.782   4.864   0.255
 7608SOL     OW23722   3.854   3.653   2.551
 7608SOL    HW123723   3.950   3.641   2.528
 7608SOL    HW223724   3.813   3.720   2.490
 7609SOL     OW23725   0.950   3.401   4.006
 7609SOL    HW123726   0.941   3.487   3.955
 7609SOL    HW223727   1.046   3.377   4.014
 7610SOL     OW23728   5.527   5.996   6.959
 7610SOL    HW123729   5.578   5.916   6.929
 7610SOL    HW223730   5.583   6.051   0.000
 7611SOL     OW23731   0.314   2.059   0.501
 7611SOL    HW123732   0.216   2.045   0.487
 7611SOL    HW223733   0.336   2.045   0.597
 7612SOL     OW23734   5.238   3.280   4.320
 7612SOL    HW123735   5.284   3.337   4.387
 7612SOL    HW223736   5.141   3.273   4.343
 7613SOL     OW23737   6.511   3.369   1.601
 7613SOL    HW123738   6.485   3.369   1.504
 7613SOL    HW223739   6.483   3.455   1.643
 7614SOL     OW23740   5.018   3.462   0.816
 7614SOL    HW123741   4.940   3.400   0.813
 7614SOL    HW223742   5.026   3.510   0.729
 7615SOL     OW23743   3.161   4.502   6.752
 7615SOL    HW123744   3.220   4.575   6.788
 7615SOL    HW223745   3.091   4.479   6.820
 7616SOL     OW23746   6.075   5.188   5.319
 7616SOL    HW123747   5.984   5.152   5.300
 7616SOL    HW223748   6.111   5.232   5.237
 7617SOL     OW23749   3.562   5.063   2.877
 7617SOL    HW123750   3.626   5.085   2.951
 7617SOL    HW223751   3.561   5.137   2.810
 7618SOL     OW23752   0.517   1.340   5.501
 7618SOL    HW123753   0.480   1.414   5.445
 7618SOL    HW223754   0.487   1.352   5.595
 7619SOL     OW23755   5.555   2.481   5.108
 7619SOL    HW123756   5.523   2.511   5.198
 7619SOL    HW223757   5.536   2.553   5.041
 7620SOL     OW23758   4.343   5.587   0.632
 7620SOL    HW123759   4.248   5.616   0.646
 7620SOL    HW223760   4.360   5.576   0.534
 7621SOL     OW23761   0.059   1.843   0.910
 7621SOL    HW123762   0.046   1.904   0.988
 7621SOL    HW223763   0.151   1.802   0.914
 7622SOL     OW23764   4.921   5.577   1.244
 7622SOL    HW123765   4.964   5.658   1.283
 7622SOL    HW223766   4.951   5.495   1.293
 7623SOL     OW23767   4.561   4.510   6.727
 7623SOL    HW123768   4.639   4.449   6.711
 7623SOL    HW223769   4.506   4.475   6.802
 7624SOL     OW23770   0.332   3.154   5.191
 7624SOL    HW123771   0.380   3.173   5.277
 7624SOL    HW223772   0.268   3.078   5.205
 7625SOL     OW23773   4.576   0.925   1.922
 7625SOL    HW123774   4.632   0.921   1.840
 7625SOL    HW223775   4.511   1.001   1.915
 7626SOL     OW23776   5.800   6.968   3.946
 7626SOL    HW123777   5.805   6.995   4.042
 7626SOL    HW223778   5.884   6.919   3.921
 7627SOL     OW23779   5.353   2.518   0.129
 7627SOL    HW123780   5.313   2.522   0.221
 7627SOL    HW223781   5.451   2.536   0.135
 7628SOL     OW23782   3.592   1.340   2.545
 7628SOL    HW123783   3.499   1.356   2.578
 7628SOL    HW223784   3.623   1.418   2.492
 7629SOL     OW23785   6.656   6.346   3.193
 7629SOL    HW123786   6.717   6.421   3.169
 7629SOL    HW223787   6.607   6.369   3.277
 7630SOL     OW23788   6.695   6.530   1.368
 7630SOL    HW123789   6.750   6.612   1.347
 7630SOL    HW223790   6.700   6.467   1.290
 7631SOL     OW23791   1.107   1.180   6.086
 7631SOL    HW123792   1.165   1.261   6.081
 7631SOL    HW223793   1.127   1.120   6.008
 7632SOL     OW23794   3.210   2.831   1.779
 7632SOL    HW123795   3.285   2.802   1.719
 7632SOL    HW223796   3.129   2.774   1.761
 7633SOL     OW23797   5.102   1.148   1.317
 7633SOL    HW123798   5.160   1.097   1.381
 7633SOL    HW223799   5.141   1.239   1.303
 7634SOL     OW23800   1.217   1.896   2.764
 7634SOL    HW123801   1.254   1.825   2.704
 7634SOL    HW223802   1.127   1.924   2.732
 7635SOL     OW23803   3.920   5.157   4.841
 7635SOL    HW123804   3.928   5.247   4.798
 7635SOL    HW223805   3.882   5.092   4.775
 7636SOL     OW23806   1.172   2.366   3.948
 7636SOL    HW123807   1.166   2.314   3.862
 7636SOL    HW223808   1.247   2.330   4.003
 7637SOL     OW23809   2.563   5.336   2.502
 7637SOL    HW123810   2.621   5.259   2.529
 7637SOL    HW223811   2.509   5.366   2.581
 7638SOL     OW23812   2.887   6.035   0.691
 7638SOL    HW123813   2.968   5.986   0.722
 7638SOL    HW223814   2.816   6.031   0.762
 7639SOL     OW23815   1.323   2.066   0.633
 7639SOL    HW123816   1.365   2.101   0.717
 7639SOL    HW223817   1.279   1.978   0.651
 7640SOL     OW23818   3.135   1.956   6.413
 7640SOL    HW123819   3.234   1.970   6.422
 7640SOL    HW223820   3.094   2.037   6.371
 7641SOL     OW23821   1.438   4.850   2.218
 7641SOL    HW123822   1.479   4.862   2.309
 7641SOL    HW223823   1.485   4.909   2.152
 7642SOL     OW23824   3.713   0.345   2.658
 7642SOL    HW123825   3.804   0.349   2.700
 7642SOL    HW223826   3.709   0.409   2.581
 7643SOL     OW23827   5.015   3.576   4.302
 7643SOL    HW123828   4.961   3.654   4.334
 7643SOL    HW223829   5.029   3.512   4.378
 7644SOL     OW23830   5.913   2.498   2.217
 7644SOL    HW123831   5.840   2.449   2.168
 7644SOL    HW223832   5.963   2.555   2.152
 7645SOL     OW23833   4.061   4.077   5.554
 7645SOL    HW123834   4.067   3.981   5.528
 7645SOL    HW223835   4.017   4.129   5.481
 7646SOL     OW23836   1.423   4.035   3.210
 7646SOL    HW123837   1.457   4.054   3.302
 7646SOL    HW223838   1.323   4.025   3.213
 7647SOL     OW23839   6.399   3.728   3.105
 7647SOL    HW123840   6.380   3.791   3.181
 7647SOL    HW223841   6.481   3.676   3.126
 7648SOL     OW23842   2.277   1.631   3.026
 7648SOL    HW123843   2.295   1.693   3.102
 7648SOL    HW223844   2.353   1.566   3.018
 7649SOL     OW23845   0.857   0.660   3.026
 7649SOL    HW123846   0.776   0.602   3.035
 7649SOL    HW223847   0.850   0.713   2.941
 7650SOL     OW23848   4.974   2.074   1.042
 7650SOL    HW123849   4.970   2.172   1.061
 7650SOL    HW223850   4.894   2.047   0.988
 7651SOL     OW23851   2.470   1.180   3.965
 7651SOL    HW123852   2.378   1.177   4.002
 7651SOL    HW223853   2.534   1.211   4.036
 7652SOL     OW23854   5.912   3.413   4.555
 7652SOL    HW123855   5.828   3.406   4.501
 7652SOL    HW223856   5.992   3.409   4.495
 7653SOL     OW23857   1.530   2.120   6.845
 7653SOL    HW123858   1.438   2.106   6.808
 7653SOL    HW223859   1.523   2.158   6.937
 7654SOL     OW23860   4.806   3.102   3.533
 7654SOL    HW123861   4.723   3.138   3.577
 7654SOL    HW223862   4.886   3.148   3.571
 7655SOL     OW23863   4.600   0.188   2.910
 7655SOL    HW123864   4.669   0.161   2.977
 7655SOL    HW223865   4.620   0.144   2.823
 7656SOL     OW23866   2.179   4.317   6.018
 7656SOL    HW123867   2.247   4.382   6.052
 7656SOL    HW223868   2.158   4.337   5.923
 7657SOL     OW23869   1.775   3.078   4.335
 7657SOL    HW123870   1.864   3.053   4.373
 7657SOL    HW223871   1.787   3.146   4.262
 7658SOL     OW23872   3.706   6.816   5.823
 7658SOL    HW123873   3.754   6.898   5.856
 7658SOL    HW223874   3.620   6.843   5.780
 7659SOL     OW23875   5.470   5.631   6.517
 7659SOL    HW123876   5.405   5.706   6.521
 7659SOL    HW223877   5.479   5.598   6.423
 7660SOL     OW23878   0.465   5.946   3.919
 7660SOL    HW123879   0.561   5.957   3.947
 7660SOL    HW223880   0.457   5.868   3.858
 7661SOL     OW23881   6.188   2.546   4.430
 7661SOL    HW123882   6.173   2.608   4.354
 7661SOL    HW223883   6.242   2.468   4.399
 7662SOL     OW23884   1.371   3.314   2.388
 7662SOL    HW123885   1.373   3.414   2.383
 7662SOL    HW223886   1.276   3.282   2.381
 7663SOL     OW23887   1.176   5.594   6.150
 7663SOL    HW123888   1.122   5.594   6.235
 7663SOL    HW223889   1.117   5.618   6.073
 7664SOL     OW23890   3.545   0.162   1.437
 7664SOL    HW123891   3.594   0.084   1.399
 7664SOL    HW223892   3.509   0.218   1.363
 7665SOL     OW23893   5.327   0.017   5.290
 7665SOL    HW123894   5.290   0.048   5.203
 7665SOL    HW223895   5.255   0.015   5.359
 7666SOL     OW23896   0.398   5.816   1.588
 7666SOL    HW123897   0.395   5.840   1.685
 7666SOL    HW223898   0.479   5.857   1.546
 7667SOL     OW23899   5.189   6.212   2.595
 7667SOL    HW123900   5.149   6.141   2.537
 7667SOL    HW223901   5.284   6.189   2.614
 7668SOL     OW23902   3.304   4.760   0.349
 7668SOL    HW123903   3.348   4.671   0.333
 7668SOL    HW223904   3.211   4.746   0.381
 7669SOL     OW23905   4.987   1.695   5.705
 7669SOL    HW123906   4.894   1.660   5.713
 7669SOL    HW223907   4.985   1.794   5.695
 7670SOL     OW23908   0.842   5.177   6.683
 7670SOL    HW123909   0.814   5.249   6.747
 7670SOL    HW223910   0.822   5.088   6.723
 7671SOL     OW23911   4.410   0.990   3.042
 7671SOL    HW123912   4.470   0.986   2.962
 7671SOL    HW223913   4.466   1.002   3.124
 7672SOL     OW23914   0.408   0.058   2.797
 7672SOL    HW123915   0.410   7.016   2.875
 7672SOL    HW223916   0.487   0.040   2.738
 7673SOL     OW23917   1.677   5.791   6.965
 7673SOL    HW123918   1.577   5.788   6.959
 7673SOL    HW223919   1.712   5.865   6.908
 7674SOL     OW23920   5.494   1.488   3.248
 7674SOL    HW123921   5.589   1.467   3.267
 7674SOL    HW223922   5.482   1.506   3.150
 7675SOL     OW23923   6.095   6.834   2.184
 7675SOL    HW123924   6.049   6.799   2.265
 7675SOL    HW223925   6.119   6.758   2.124
 7676SOL     OW23926   1.812   1.707   0.741
 7676SOL    HW123927   1.787   1.610   0.745
 7676SOL    HW223928   1.818   1.744   0.834
 7677SOL     OW23929   0.407   5.026   2.161
 7677SOL    HW123930   0.397   5.123   2.142
 7677SOL    HW223931   0.415   4.976   2.074
 7678SOL     OW23932   1.745   2.213   4.482
 7678SOL    HW123933   1.808   2.172   4.417
 7678SOL    HW223934   1.789   2.222   4.571
 7679SOL     OW23935   2.640   5.603   6.866
 7679SOL    HW123936   2.567   5.602   6.797
 7679SOL    HW223937   2.616   5.541   6.941
 7680SOL     OW23938   1.930   1.508   0.547
 7680SOL    HW123939   1.981   1.586   0.511
 7680SOL    HW223940   1.932   1.510   0.647
 7681SOL     OW23941   1.944   0.110   1.463
 7681SOL    HW123942   1.885   0.044   1.417
 7681SOL    HW223943   2.026   0.125   1.408
 7682SOL     OW23944   3.413   6.942   2.409
 7682SOL    HW123945   3.399   6.902   2.318
 7682SOL    HW223946   3.483   6.889   2.458
 7683SOL     OW23947   5.556   1.487   3.598
 7683SOL    HW123948   5.530   1.422   3.526
 7683SOL    HW223949   5.649   1.467   3.629
 7684SOL     OW23950   3.684   2.113   1.719
 7684SOL    HW123951   3.723   2.187   1.773
 7684SOL    HW223952   3.608   2.072   1.769
 7685SOL     OW23953   3.284   2.241   6.571
 7685SOL    HW123954   3.333   2.260   6.656
 7685SOL    HW223955   3.316   2.154   6.533
 7686SOL     OW23956   6.858   6.600   3.113
 7686SOL    HW123957   6.779   6.661   3.110
 7686SOL    HW223958   6.940   6.653   3.134
 7687SOL     OW23959   5.891   4.981   4.164
 7687SOL    HW123960   5.948   4.969   4.246
 7687SOL    HW223961   5.828   5.057   4.178
 7688SOL     OW23962   1.511   6.039   6.226
 7688SOL    HW123963   1.462   6.112   6.179
 7688SOL    HW223964   1.581   6.001   6.165
 7689SOL     OW23965   6.064   6.550   2.994
 7689SOL    HW123966   6.011   6.630   2.964
 7689SOL    HW223967   6.140   6.535   2.930
 7690SOL     OW23968   5.497   4.710   0.712
 7690SOL    HW123969   5.429   4.695   0.782
 7690SOL    HW223970   5.452   4.721   0.623
 7691SOL     OW23971   5.175   2.372   5.150
 7691SOL    HW123972   5.184   2.442   5.080
 7691SOL    HW223973   5.249   2.305   5.140
 7692SOL     OW23974   0.318   6.403   1.802
 7692SOL    HW123975   0.251   6.389   1.875
 7692SOL    HW223976   0.282   6.469   1.736
 7693SOL     OW23977   3.945   0.373   1.253
 7693SOL    HW123978   3.968   0.277   1.269
 7693SOL    HW223979   3.965   0.397   1.158
 7694SOL     OW23980   0.143   4.514   5.056
 7694SOL    HW123981   0.093   4.554   4.979
 7694SOL    HW223982   0.078   4.492   5.129
 7695SOL     OW23983   4.675   0.450   0.734
 7695SOL    HW123984   4.656   0.405   0.647
 7695SOL    HW223985   4.650   0.547   0.728
 7696SOL     OW23986   6.834   0.896   4.801
 7696SOL    HW123987   6.772   0.818   4.793
 7696SOL    HW223988   6.928   0.864   4.807
 7697SOL     OW23989   3.068   6.612   2.303
 7697SOL    HW123990   3.034   6.559   2.225
 7697SOL    HW223991   3.168   6.608   2.306
 7698SOL     OW23992   6.606   1.800   3.799
 7698SOL    HW123993   6.525   1.813   3.741
 7698SOL    HW223994   6.674   1.869   3.775
 7699SOL     OW23995   3.547   6.111   0.144
 7699SOL    HW123996   3.643   6.121   0.117
 7699SOL    HW223997   3.531   6.016   0.173
 7700SOL     OW23998   5.339   6.003   4.120
 7700SOL    HW123999   5.371   5.921   4.073
 7700SOL    HW224000   5.286   5.977   4.201
 7701SOL     OW24001   6.516   1.303   6.634
 7701SOL    HW124002   6.573   1.324   6.555
 7701SOL    HW224003   6.571   1.260   6.706
 7702SOL     OW24004   3.675   6.778   5.351
 7702SOL    HW124005   3.679   6.732   5.439
 7702SOL    HW224006   3.674   6.710   5.278
 7703SOL     OW24007   6.046   0.307   6.419
 7703SOL    HW124008   5.986   0.364   6.475
 7703SOL    HW224009   6.132   0.355   6.403
 7704SOL     OW24010   5.843   5.461   5.118
 7704SOL    HW124011   5.839   5.370   5.077
 7704SOL    HW224012   5.834   5.452   5.218
 7705SOL     OW24013   3.471   5.514   6.589
 7705SOL    HW124014   3.513   5.481   6.674
 7705SOL    HW224015   3.443   5.436   6.533
 7706SOL     OW24016   4.242   3.338   5.266
 7706SOL    HW124017   4.332   3.295   5.256
 7706SOL    HW224018   4.226   3.360   5.362
 7707SOL     OW24019   0.344   5.617   6.393
 7707SOL    HW124020   0.434   5.644   6.426
 7707SOL    HW224021   0.354   5.541   6.329
 7708SOL     OW24022   0.431   0.184   5.134
 7708SOL    HW124023   0.367   0.220   5.201
 7708SOL    HW224024   0.390   0.189   5.043
 7709SOL     OW24025   6.278   4.648   1.774
 7709SOL    HW124026   6.341   4.664   1.850
 7709SOL    HW224027   6.330   4.627   1.691
 7710SOL     OW24028   2.586   0.861   0.319
 7710SOL    HW124029   2.608   0.877   0.416
 7710SOL    HW224030   2.670   0.840   0.269
 7711SOL     OW24031   6.441   6.549   5.763
 7711SOL    HW124032   6.463   6.592   5.850
 7711SOL    HW224033   6.349   6.578   5.734
 7712SOL     OW24034   6.058   5.711   2.126
 7712SOL    HW124035   6.126   5.785   2.122
 7712SOL    HW224036   5.981   5.734   2.067
 7713SOL     OW24037   1.396   4.401   0.336
 7713SOL    HW124038   1.477   4.418   0.392
 7713SOL    HW224039   1.364   4.308   0.350
 7714SOL     OW24040   5.945   4.202   5.868
 7714SOL    HW124041   6.016   4.200   5.798
 7714SOL    HW224042   5.902   4.112   5.875
 7715SOL     OW24043   4.198   2.011   0.601
 7715SOL    HW124044   4.265   2.045   0.667
 7715SOL    HW224045   4.170   2.085   0.539
 7716SOL     OW24046   6.022   4.556   2.779
 7716SOL    HW124047   6.057   4.489   2.713
 7716SOL    HW224048   6.066   4.644   2.764
 7717SOL     OW24049   1.826   0.923   4.707
 7717SOL    HW124050   1.821   1.021   4.725
 7717SOL    HW224051   1.762   0.899   4.634
 7718SOL     OW24052   1.441   2.826   3.403
 7718SOL    HW124053   1.488   2.738   3.402
 7718SOL    HW224054   1.436   2.863   3.311
 7719SOL     OW24055   6.524   4.599   5.049
 7719SOL    HW124056   6.482   4.551   4.972
 7719SOL    HW224057   6.486   4.691   5.055
 7720SOL     OW24058   0.574   1.105   7.000
 7720SOL    HW124059   0.503   1.155   6.950
 7720SOL    HW224060   0.534   1.026   0.023
 7721SOL     OW24061   0.461   5.509   2.973
 7721SOL    HW124062   0.393   5.572   2.934
 7721SOL    HW224063   0.413   5.432   3.016
 7722SOL     OW24064   1.212   5.129   3.709
 7722SOL    HW124065   1.276   5.155   3.781
 7722SOL    HW224066   1.188   5.032   3.719
 7723SOL     OW24067   4.813   3.304   0.037
 7723SOL    HW124068   4.824   3.260   0.126
 7723SOL    HW224069   4.717   3.327   0.023
 7724SOL     OW24070   2.823   4.092   0.933
 7724SOL    HW124071   2.783   4.019   0.988
 7724SOL    HW224072   2.918   4.105   0.959
 7725SOL     OW24073   6.748   1.965   3.489
 7725SOL    HW124074   6.788   1.967   3.581
 7725SOL    HW224075   6.649   1.970   3.495
 7726SOL     OW24076   1.853   5.641   5.404
 7726SOL    HW124077   1.822   5.546   5.409
 7726SOL    HW224078   1.775   5.701   5.387
 7727SOL     OW24079   0.072   0.889   2.794
 7727SOL    HW124080   0.102   0.804   2.751
 7727SOL    HW224081   6.994   0.888   2.805
 7728SOL     OW24082   1.525   4.838   3.727
 7728SOL    HW124083   1.447   4.862   3.785
 7728SOL    HW224084   1.608   4.879   3.765
 7729SOL     OW24085   5.522   2.849   1.180
 7729SOL    HW124086   5.563   2.770   1.136
 7729SOL    HW224087   5.578   2.930   1.162
 7730SOL     OW24088   5.999   5.837   1.065
 7730SOL    HW124089   5.986   5.936   1.067
 7730SOL    HW224090   5.926   5.793   1.117
 7731SOL     OW24091   6.488   0.911   0.096
 7731SOL    HW124092   6.549   0.834   0.075
 7731SOL    HW224093   6.518   0.992   0.047
 7732SOL     OW24094   4.611   6.605   0.672
 7732SOL    HW124095   4.670   6.526   0.661
 7732SOL    HW224096   4.594   6.621   0.770
 7733SOL     OW24097   4.765   6.384   2.225
 7733SOL    HW124098   4.802   6.475   2.204
 7733SOL    HW224099   4.813   6.345   2.303
 7734SOL     OW24100   2.672   5.322   3.411
 7734SOL    HW124101   2.687   5.419   3.390
 7734SOL    HW224102   2.740   5.266   3.365
 7735SOL     OW24103   4.594   6.909   6.638
 7735SOL    HW124104   4.504   6.930   6.599
 7735SOL    HW224105   4.606   6.959   6.723
 7736SOL     OW24106   3.412   3.340   0.149
 7736SOL    HW124107   3.348   3.383   0.085
 7736SOL    HW224108   3.449   3.257   0.107
 7737SOL     OW24109   3.229   0.115   2.535
 7737SOL    HW124110   3.285   0.037   2.506
 7737SOL    HW224111   3.164   0.137   2.462
 7738SOL     OW24112   2.647   6.113   6.771
 7738SOL    HW124113   2.677   6.208   6.784
 7738SOL    HW224114   2.702   6.070   6.699
 7739SOL     OW24115   0.593   2.585   1.144
 7739SOL    HW124116   0.520   2.560   1.208
 7739SOL    HW224117   0.681   2.560   1.183
 7740SOL     OW24118   2.250   1.303   2.695
 7740SOL    HW124119   2.275   1.390   2.654
 7740SOL    HW224120   2.160   1.274   2.662
 7741SOL     OW24121   1.149   4.957   6.081
 7741SOL    HW124122   1.245   4.959   6.053
 7741SOL    HW224123   1.109   4.869   6.055
 7742SOL     OW24124   4.444   2.262   3.725
 7742SOL    HW124125   4.434   2.236   3.629
 7742SOL    HW224126   4.529   2.314   3.736
 7743SOL     OW24127   5.997   1.135   6.943
 7743SOL    HW124128   6.019   1.159   6.849
 7743SOL    HW224129   6.067   1.073   6.979
 7744SOL     OW24130   1.031   6.445   3.989
 7744SOL    HW124131   1.078   6.477   3.907
 7744SOL    HW224132   0.986   6.522   4.033
 7745SOL     OW24133   3.794   1.258   6.808
 7745SOL    HW124134   3.738   1.324   6.858
 7745SOL    HW224135   3.886   1.296   6.794
 7746SOL     OW24136   1.980   6.953   0.419
 7746SOL    HW124137   1.909   6.884   0.408
 7746SOL    HW224138   2.041   6.952   0.340
 7747SOL     OW24139   5.621   5.373   1.361
 7747SOL    HW124140   5.602   5.419   1.448
 7747SOL    HW224141   5.687   5.299   1.375
 7748SOL     OW24142   3.141   4.036   4.773
 7748SOL    HW124143   3.101   3.960   4.721
 7748SOL    HW224144   3.069   4.089   4.817
 7749SOL     OW24145   2.523   2.483   5.951
 7749SOL    HW124146   2.581   2.563   5.932
 7749SOL    HW224147   2.572   2.400   5.925
 7750SOL     OW24148   0.194   6.141   1.709
 7750SOL    HW124149   0.141   6.061   1.741
 7750SOL    HW224150   0.258   6.169   1.781
 7751SOL     OW24151   1.072   2.635   1.948
 7751SOL    HW124152   1.111   2.605   1.861
 7751SOL    HW224153   0.977   2.603   1.956
 7752SOL     OW24154   5.584   6.849   5.691
 7752SOL    HW124155   5.673   6.802   5.690
 7752SOL    HW224156   5.599   6.947   5.702
 7753SOL     OW24157   2.714   1.454   3.862
 7753SOL    HW124158   2.715   1.359   3.830
 7753SOL    HW224159   2.799   1.474   3.910
 7754SOL     OW24160   3.383   6.285   1.267
 7754SOL    HW124161   3.468   6.245   1.302
 7754SOL    HW224162   3.380   6.274   1.168
 7755SOL     OW24163   2.296   2.568   5.168
 7755SOL    HW124164   2.320   2.476   5.198
 7755SOL    HW224165   2.354   2.595   5.091
 7756SOL     OW24166   2.868   5.850   2.732
 7756SOL    HW124167   2.882   5.862   2.634
 7756SOL    HW224168   2.955   5.860   2.780
 7757SOL     OW24169   5.443   4.815   0.368
 7757SOL    HW124170   5.414   4.720   0.374
 7757SOL    HW224171   5.377   4.867   0.316
 7758SOL     OW24172   2.379   0.389   5.544
 7758SOL    HW124173   2.296   0.334   5.532
 7758SOL    HW224174   2.356   0.486   5.538
 7759SOL     OW24175   1.678   2.307   5.659
 7759SOL    HW124176   1.653   2.229   5.717
 7759SOL    HW224177   1.703   2.274   5.568
 7760SOL     OW24178   5.898   3.631   2.606
 7760SOL    HW124179   5.858   3.676   2.685
 7760SOL    HW224180   5.977   3.576   2.634
 7761SOL     OW24181   6.323   0.113   4.651
 7761SOL    HW124182   6.401   0.108   4.714
 7761SOL    HW224183   6.239   0.121   4.705
 7762SOL     OW24184   2.300   0.474   4.140
 7762SOL    HW124185   2.395   0.465   4.112
 7762SOL    HW224186   2.274   0.570   4.141
 7763SOL     OW24187   2.116   0.114   0.146
 7763SOL    HW124188   2.163   0.055   0.212
 7763SOL    HW224189   2.090   0.199   0.192
 7764SOL     OW24190   3.536   3.443   5.063
 7764SOL    HW124191   3.583   3.358   5.086
 7764SOL    HW224192   3.576   3.482   4.980
 7765SOL     OW24193   5.880   3.899   4.835
 7765SOL    HW124194   5.942   3.858   4.902
 7765SOL    HW224195   5.925   3.976   4.791
 7766SOL     OW24196   6.655   4.128   6.829
 7766SOL    HW124197   6.608   4.201   6.780
 7766SOL    HW224198   6.709   4.167   6.903
 7767SOL     OW24199   4.859   5.988   2.267
 7767SOL    HW124200   4.780   5.997   2.206
 7767SOL    HW224201   4.939   6.031   2.226
 7768SOL     OW24202   4.441   4.551   3.313
 7768SOL    HW124203   4.363   4.614   3.312
 7768SOL    HW224204   4.526   4.602   3.308
 7769SOL     OW24205   4.461   1.533   3.510
 7769SOL    HW124206   4.451   1.445   3.555
 7769SOL    HW224207   4.443   1.606   3.575
 7770SOL     OW24208   1.745   3.939   4.572
 7770SOL    HW124209   1.658   3.889   4.562
 7770SOL    HW224210   1.810   3.881   4.622
 7771SOL     OW24211   3.513   1.674   5.332
 7771SOL    HW124212   3.420   1.657   5.299
 7771SOL    HW224213   3.513   1.672   5.432
 7772SOL     OW24214   4.649   0.321   1.819
 7772SOL    HW124215   4.590   0.240   1.824
 7772SOL    HW224216   4.667   0.354   1.912
 7773SOL     OW24217   2.346   4.836   5.204
 7773SOL    HW124218   2.339   4.798   5.296
 7773SOL    HW224219   2.429   4.803   5.160
 7774SOL     OW24220   5.063   2.139   4.854
 7774SOL    HW124221   5.124   2.078   4.905
 7774SOL    HW224222   5.118   2.211   4.810
 7775SOL     OW24223   4.477   6.311   0.544
 7775SOL    HW124224   4.547   6.247   0.512
 7775SOL    HW224225   4.457   6.293   0.640
 7776SOL     OW24226   0.420   5.996   6.751
 7776SOL    HW124227   0.327   6.034   6.757
 7776SOL    HW224228   0.430   5.923   6.819
 7777SOL     OW24229   6.068   5.741   3.991
 7777SOL    HW124230   6.044   5.644   3.988
 7777SOL    HW224231   5.986   5.796   3.973
 7778SOL     OW24232   5.685   3.522   0.710
 7778SOL    HW124233   5.696   3.561   0.802
 7778SOL    HW224234   5.636   3.587   0.652
 7779SOL     OW24235   2.557   1.984   1.513
 7779SOL    HW124236   2.595   1.904   1.560
 7779SOL    HW224237   2.480   2.020   1.566
 7780SOL     OW24238   0.597   4.965   5.896
 7780SOL    HW124239   0.693   4.945   5.914
 7780SOL    HW224240   0.548   4.880   5.877
 7781SOL     OW24241   2.185   4.559   1.466
 7781SOL    HW124242   2.103   4.503   1.477
 7781SOL    HW224243   2.167   4.633   1.401
 7782SOL     OW24244   5.504   5.011   4.676
 7782SOL    HW124245   5.493   5.110   4.682
 7782SOL    HW224246   5.543   4.976   4.761
 7783SOL     OW24247   0.638   6.679   5.661
 7783SOL    HW124248   0.554   6.705   5.613
 7783SOL    HW224249   0.715   6.682   5.597
 7784SOL     OW24250   3.595   2.799   1.820
 7784SOL    HW124251   3.668   2.733   1.804
 7784SOL    HW224252   3.621   2.858   1.897
 7785SOL     OW24253   2.027   6.059   4.811
 7785SOL    HW124254   2.123   6.043   4.834
 7785SOL    HW224255   1.983   6.113   4.884
 7786SOL     OW24256   3.415   0.112   0.628
 7786SOL    HW124257   3.365   0.056   0.694
 7786SOL    HW224258   3.378   0.204   0.627
 7787SOL     OW24259   2.318   3.083   0.098
 7787SOL    HW124260   2.291   3.005   0.154
 7787SOL    HW224261   2.329   3.164   0.157
 7788SOL     OW24262   2.007   5.145   1.191
 7788SOL    HW124263   1.955   5.130   1.275
 7788SOL    HW224264   2.038   5.240   1.187
 7789SOL     OW24265   2.713   0.259   6.793
 7789SOL    HW124266   2.669   0.314   6.722
 7789SOL    HW224267   2.673   0.168   6.795
 7790SOL     OW24268   5.424   5.702   2.594
 7790SOL    HW124269   5.462   5.793   2.578
 7790SOL    HW224270   5.498   5.635   2.598
 7791SOL     OW24271   2.203   5.254   2.774
 7791SOL    HW124272   2.162   5.327   2.718
 7791SOL    HW224273   2.132   5.192   2.805
 7792SOL     OW24274   1.897   5.519   4.689
 7792SOL    HW124275   1.907   5.614   4.717
 7792SOL    HW224276   1.817   5.509   4.631
 7793SOL     OW24277   4.023   0.942   0.221
 7793SOL    HW124278   4.094   0.918   0.286
 7793SOL    HW224279   3.966   0.862   0.203
 7794SOL     OW24280   6.813   4.014   2.527
 7794SOL    HW124281   6.773   3.986   2.614
 7794SOL    HW224282   6.844   4.109   2.534
 7795SOL     OW24283   2.010   4.492   5.477
 7795SOL    HW124284   1.932   4.444   5.435
 7795SOL    HW224285   1.979   4.581   5.512
 7796SOL     OW24286   3.883   2.972   4.904
 7796SOL    HW124287   3.838   3.027   4.833
 7796SOL    HW224288   3.963   2.926   4.864
 7797SOL     OW24289   1.163   6.208   1.629
 7797SOL    HW124290   1.145   6.172   1.537
 7797SOL    HW224291   1.254   6.179   1.658
 7798SOL     OW24292   1.137   3.093   3.343
 7798SOL    HW124293   1.118   2.995   3.348
 7798SOL    HW224294   1.179   3.123   3.428
 7799SOL     OW24295   1.684   5.244   2.371
 7799SOL    HW124296   1.621   5.170   2.393
 7799SOL    HW224297   1.649   5.330   2.410
 7800SOL     OW24298   0.968   5.631   2.950
 7800SOL    HW124299   0.871   5.619   2.970
 7800SOL    HW224300   0.982   5.625   2.851
 7801SOL     OW24301   2.085   2.104   2.067
 7801SOL    HW124302   2.009   2.158   2.029
 7801SOL    HW224303   2.048   2.023   2.114
 7802SOL     OW24304   6.694   2.760   0.746
 7802SOL    HW124305   6.612   2.713   0.779
 7802SOL    HW224306   6.684   2.780   0.649
 7803SOL     OW24307   4.255   2.334   6.957
 7803SOL    HW124308   4.350   2.336   6.925
 7803SOL    HW224309   4.247   2.387   0.020
 7804SOL     OW24310   4.650   2.002   5.289
 7804SOL    HW124311   4.641   2.102   5.294
 7804SOL    HW224312   4.559   1.961   5.279
 7805SOL     OW24313   5.251   3.128   1.958
 7805SOL    HW124314   5.328   3.096   2.013
 7805SOL    HW224315   5.171   3.143   2.017
 7806SOL     OW24316   6.039   1.577   5.962
 7806SOL    HW124317   6.042   1.676   5.974
 7806SOL    HW224318   6.070   1.553   5.871
 7807SOL     OW24319   1.093   4.528   6.263
 7807SOL    HW124320   1.132   4.603   6.317
 7807SOL    HW224321   1.041   4.467   6.323
 7808SOL     OW24322   5.788   3.213   3.950
 7808SOL    HW124323   5.762   3.310   3.957
 7808SOL    HW224324   5.836   3.198   3.863
 7809SOL     OW24325   5.219   4.985   5.159
 7809SOL    HW124326   5.242   4.888   5.149
 7809SOL    HW224327   5.219   5.029   5.070
 7810SOL     OW24328   3.472   6.678   5.118
 7810SOL    HW124329   3.455   6.580   5.130
 7810SOL    HW224330   3.515   6.693   5.029
 7811SOL     OW24331   1.318   5.264   1.760
 7811SOL    HW124332   1.321   5.334   1.831
 7811SOL    HW224333   1.239   5.204   1.776
 7812SOL     OW24334   0.918   2.458   4.193
 7812SOL    HW124335   0.880   2.418   4.109
 7812SOL    HW224336   0.907   2.558   4.189
 7813SOL     OW24337   4.170   2.004   1.113
 7813SOL    HW124338   4.230   1.948   1.171
 7813SOL    HW224339   4.206   2.006   1.020
 7814SOL     OW24340   6.650   3.303   3.293
 7814SOL    HW124341   6.716   3.282   3.365
 7814SOL    HW224342   6.558   3.280   3.323
 7815SOL     OW24343   5.664   2.120   3.916
 7815SOL    HW124344   5.588   2.186   3.917
 7815SOL    HW224345   5.717   2.128   4.001
 7816SOL     OW24346   1.390   2.209   6.493
 7816SOL    HW124347   1.347   2.138   6.437
 7816SOL    HW224348   1.361   2.198   6.588
 7817SOL     OW24349   4.539   4.418   4.539
 7817SOL    HW124350   4.536   4.517   4.540
 7817SOL    HW224351   4.454   4.381   4.577
 7818SOL     OW24352   4.972   0.314   2.809
 7818SOL    HW124353   4.937   0.338   2.900
 7818SOL    HW224354   4.992   0.216   2.807
 7819SOL     OW24355   0.337   3.661   3.993
 7819SOL    HW124356   0.429   3.701   3.998
 7819SOL    HW224357   0.325   3.618   3.904
 7820SOL     OW24358   1.642   1.410   5.497
 7820SOL    HW124359   1.714   1.363   5.547
 7820SOL    HW224360   1.619   1.359   5.414
 7821SOL     OW24361   5.636   5.714   0.062
 7821SOL    HW124362   5.624   5.729   0.160
 7821SOL    HW224363   5.644   5.616   0.044
 7822SOL     OW24364   1.122   1.037   6.881
 7822SOL    HW124365   1.205   1.065   6.929
 7822SOL    HW224366   1.133   0.942   6.849
 7823SOL     OW24367   2.937   3.504   6.265
 7823SOL    HW124368   2.913   3.566   6.191
 7823SOL    HW224369   2.997   3.550   6.329
 7824SOL     OW24370   6.005   0.863   3.641
 7824SOL    HW124371   5.924   0.828   3.688
 7824SOL    HW224372   6.084   0.859   3.703
 7825SOL     OW24373   1.022   3.074   0.803
 7825SOL    HW124374   1.065   3.012   0.868
 7825SOL    HW224375   0.930   3.098   0.835
 7826SOL     OW24376   6.127   1.620   6.602
 7826SOL    HW124377   6.220   1.587   6.586
 7826SOL    HW224378   6.104   1.611   6.699
 7827SOL     OW24379   2.750   4.378   1.102
 7827SOL    HW124380   2.722   4.286   1.074
 7827SOL    HW224381   2.678   4.419   1.158
 7828SOL     OW24382   0.674   5.191   0.874
 7828SOL    HW124383   0.755   5.163   0.926
 7828SOL    HW224384   0.698   5.197   0.777
 7829SOL     OW24385   2.095   2.877   0.455
 7829SOL    HW124386   2.054   2.786   0.444
 7829SOL    HW224387   2.023   2.943   0.477
 7830SOL     OW24388   4.207   3.664   5.828
 7830SOL    HW124389   4.141   3.640   5.757
 7830SOL    HW224390   4.233   3.761   5.818
 7831SOL     OW24391   1.160   5.431   1.065
 7831SOL    HW124392   1.065   5.400   1.061
 7831SOL    HW224393   1.197   5.416   1.157
 7832SOL     OW24394   3.370   1.134   4.610
 7832SOL    HW124395   3.464   1.121   4.580
 7832SOL    HW224396   3.324   1.046   4.620
 7833SOL     OW24397   0.721   0.523   6.899
 7833SOL    HW124398   0.709   0.583   6.978
 7833SOL    HW224399   0.634   0.513   6.851
 7834SOL     OW24400   0.153   1.401   3.745
 7834SOL    HW124401   0.145   1.496   3.717
 7834SOL    HW224402   0.181   1.345   3.666
 7835SOL     OW24403   2.406   2.108   4.486
 7835SOL    HW124404   2.376   2.198   4.455
 7835SOL    HW224405   2.488   2.118   4.543
 7836SOL     OW24406   3.424   2.844   5.320
 7836SOL    HW124407   3.371   2.759   5.311
 7836SOL    HW224408   3.368   2.914   5.363
 7837SOL     OW24409   6.870   5.367   1.411
 7837SOL    HW124410   6.903   5.285   1.458
 7837SOL    HW224411   6.947   5.418   1.374
 7838SOL     OW24412   4.110   6.326   0.807
 7838SOL    HW124413   4.090   6.290   0.716
 7838SOL    HW224414   4.041   6.294   0.872
 7839SOL     OW24415   5.946   4.359   5.285
 7839SOL    HW124416   5.876   4.299   5.246
 7839SOL    HW224417   5.996   4.311   5.357
 7840SOL     OW24418   4.997   3.277   4.439
 7840SOL    HW124419   5.048   3.239   4.516
 7840SOL    HW224420   4.933   3.209   4.405
 7841SOL     OW24421   4.639   1.293   6.864
 7841SOL    HW124422   4.699   1.228   6.817
 7841SOL    HW224423   4.677   1.316   6.953
 7842SOL     OW24424   1.930   1.502   2.366
 7842SOL    HW124425   1.866   1.570   2.401
 7842SOL    HW224426   2.024   1.538   2.373
 7843SOL     OW24427   4.669   4.602   2.021
 7843SOL    HW124428   4.666   4.502   2.022
 7843SOL    HW224429   4.667   4.636   2.116
 7844SOL     OW24430   4.543   6.883   3.615
 7844SOL    HW124431   4.504   6.873   3.706
 7844SOL    HW224432   4.471   6.914   3.552
 7845SOL     OW24433   5.688   1.327   4.166
 7845SOL    HW124434   5.661   1.234   4.140
 7845SOL    HW224435   5.616   1.391   4.141
 7846SOL     OW24436   1.168   1.402   2.069
 7846SOL    HW124437   1.263   1.403   2.097
 7846SOL    HW224438   1.155   1.335   1.996
 7847SOL     OW24439   6.641   1.937   2.245
 7847SOL    HW124440   6.597   1.930   2.334
 7847SOL    HW224441   6.726   1.988   2.254
 7848SOL     OW24442   3.118   3.131   0.921
 7848SOL    HW124443   3.125   3.230   0.906
 7848SOL    HW224444   3.076   3.113   1.009
 7849SOL     OW24445   4.862   3.812   3.011
 7849SOL    HW124446   4.822   3.729   3.050
 7849SOL    HW224447   4.960   3.799   2.998
 7850SOL     OW24448   0.670   1.499   3.918
 7850SOL    HW124449   0.625   1.529   3.834
 7850SOL    HW224450   0.613   1.524   3.997
 7851SOL     OW24451   6.749   6.788   1.237
 7851SOL    HW124452   6.812   6.764   1.164
 7851SOL    HW224453   6.777   6.874   1.279
 7852SOL     OW24454   2.525   0.211   5.258
 7852SOL    HW124455   2.503   0.302   5.225
 7852SOL    HW224456   2.553   0.215   5.354
 7853SOL     OW24457   3.948   1.299   1.840
 7853SOL    HW124458   3.949   1.203   1.866
 7853SOL    HW224459   4.003   1.352   1.904
 7854SOL     OW24460   2.522   3.031   0.410
 7854SOL    HW124461   2.473   3.111   0.377
 7854SOL    HW224462   2.516   2.958   0.343
 7855SOL     OW24463   2.893   5.672   5.588
 7855SOL    HW124464   2.859   5.686   5.681
 7855SOL    HW224465   2.824   5.622   5.535
 7856SOL     OW24466   5.771   5.230   4.983
 7856SOL    HW124467   5.766   5.244   4.884
 7856SOL    HW224468   5.789   5.133   5.001
 7857SOL     OW24469   6.178   2.640   5.469
 7857SOL    HW124470   6.198   2.569   5.401
 7857SOL    HW224471   6.201   2.730   5.431
 7858SOL     OW24472   5.176   5.061   3.509
 7858SOL    HW124473   5.226   5.091   3.428
 7858SOL    HW224474   5.106   5.129   3.533
 7859SOL     OW24475   6.343   3.506   5.437
 7859SOL    HW124476   6.315   3.418   5.399
 7859SOL    HW224477   6.405   3.552   5.373
 7860SOL     OW24478   4.372   0.070   2.636
 7860SOL    HW124479   4.310   0.035   2.567
 7860SOL    HW224480   4.465   0.038   2.617
 7861SOL     OW24481   4.070   5.166   1.640
 7861SOL    HW124482   4.050   5.205   1.550
 7861SOL    HW224483   4.110   5.237   1.698
 7862SOL     OW24484   2.965   4.682   1.634
 7862SOL    HW124485   2.961   4.610   1.703
 7862SOL    HW224486   2.873   4.705   1.604
 7863SOL     OW24487   6.875   5.945   3.886
 7863SOL    HW124488   6.795   5.912   3.936
 7863SOL    HW224489   6.848   6.022   3.828
 7864SOL     OW24490   0.029   6.784   5.387
 7864SOL    HW124491   7.015   6.864   5.339
 7864SOL    HW224492   6.975   6.719   5.404
 7865SOL     OW24493   5.325   6.735   4.505
 7865SOL    HW124494   5.416   6.703   4.479
 7865SOL    HW224495   5.306   6.823   4.462
 7866SOL     OW24496   1.973   2.508   0.149
 7866SOL    HW124497   1.938   2.433   0.205
 7866SOL    HW224498   1.937   2.500   0.056
 7867SOL     OW24499   5.381   6.643   2.601
 7867SOL    HW124500   5.346   6.679   2.687
 7867SOL    HW224501   5.310   6.587   2.558
 7868SOL     OW24502   5.634   6.339   2.288
 7868SOL    HW124503   5.619   6.313   2.193
 7868SOL    HW224504   5.695   6.273   2.332
 7869SOL     OW24505   5.240   3.422   6.561
 7869SOL    HW124506   5.307   3.350   6.542
 7869SOL    HW224507   5.149   3.392   6.530
 7870SOL     OW24508   4.461   4.923   4.496
 7870SOL    HW124509   4.501   5.007   4.532
 7870SOL    HW224510   4.363   4.921   4.515
 7871SOL     OW24511   5.428   3.886   2.466
 7871SOL    HW124512   5.357   3.898   2.397
 7871SOL    HW224513   5.436   3.789   2.489
 7872SOL     OW24514   2.208   4.228   2.928
 7872SOL    HW124515   2.282   4.279   2.884
 7872SOL    HW224516   2.224   4.226   3.027
 7873SOL     OW24517   5.497   0.752   5.489
 7873SOL    HW124518   5.479   0.825   5.423
 7873SOL    HW224519   5.595   0.731   5.490
 7874SOL     OW24520   4.989   1.504   0.900
 7874SOL    HW124521   4.992   1.442   0.978
 7874SOL    HW224522   5.008   1.597   0.930
 7875SOL     OW24523   4.598   2.316   6.890
 7875SOL    HW124524   4.623   2.388   6.825
 7875SOL    HW224525   4.545   2.245   6.843
 7876SOL     OW24526   6.865   6.993   5.344
 7876SOL    HW124527   6.804   6.941   5.285
 7876SOL    HW224528   6.917   0.039   5.290
 7877SOL     OW24529   6.779   3.031   2.682
 7877SOL    HW124530   6.795   2.994   2.773
 7877SOL    HW224531   6.687   3.004   2.651
 7878SOL     OW24532   5.033   5.068   4.195
 7878SOL    HW124533   4.945   5.028   4.220
 7878SOL    HW224534   5.107   5.013   4.233
 7879SOL     OW24535   4.690   5.611   3.441
 7879SOL    HW124536   4.632   5.689   3.417
 7879SOL    HW224537   4.768   5.607   3.379
 7880SOL     OW24538   1.604   5.431   0.944
 7880SOL    HW124539   1.555   5.418   1.030
 7880SOL    HW224540   1.644   5.345   0.915
 7881SOL     OW24541   5.578   3.596   4.683
 7881SOL    HW124542   5.669   3.581   4.723
 7881SOL    HW224543   5.531   3.508   4.676
 7882SOL     OW24544   1.468   3.655   2.692
 7882SOL    HW124545   1.554   3.697   2.721
 7882SOL    HW224546   1.439   3.587   2.759
 7883SOL     OW24547   1.479   6.895   1.156
 7883SOL    HW124548   1.429   6.981   1.158
 7883SOL    HW224549   1.448   6.837   1.231
 7884SOL     OW24550   2.102   3.469   4.040
 7884SOL    HW124551   2.116   3.513   4.129
 7884SOL    HW224552   2.149   3.522   3.970
 7885SOL     OW24553   6.110   6.492   1.499
 7885SOL    HW124554   6.059   6.430   1.440
 7885SOL    HW224555   6.066   6.496   1.589
 7886SOL     OW24556   4.017   5.157   0.880
 7886SOL    HW124557   4.050   5.075   0.927
 7886SOL    HW224558   4.047   5.239   0.930
 7887SOL     OW24559   3.277   2.613   5.311
 7887SOL    HW124560   3.238   2.633   5.401
 7887SOL    HW224561   3.233   2.532   5.273
 7888SOL     OW24562   6.907   0.470   5.088
 7888SOL    HW124563   6.993   0.454   5.040
 7888SOL    HW224564   6.914   0.436   5.182
 7889SOL     OW24565   0.658   4.752   6.998
 7889SOL    HW124566   0.590   4.711   0.038
 7889SOL    HW224567   0.740   4.776   0.030
 7890SOL     OW24568   0.463   3.162   3.599
 7890SOL    HW124569   0.380   3.114   3.628
 7890SOL    HW224570   0.500   3.214   3.676
 7891SOL     OW24571   1.911   4.060   5.036
 7891SOL    HW124572   1.886   4.085   5.130
 7891SOL    HW224573   1.842   4.095   4.973
 7892SOL     OW24574   1.974   1.791   3.813
 7892SOL    HW124575   2.047   1.854   3.786
 7892SOL    HW224576   1.968   1.789   3.913
 7893SOL     OW24577   6.266   0.048   1.850
 7893SOL    HW124578   6.185   0.106   1.858
 7893SOL    HW224579   6.239   6.976   1.826
 7894SOL     OW24580   3.367   0.855   0.983
 7894SOL    HW124581   3.415   0.780   1.029
 7894SOL    HW224582   3.432   0.925   0.955
 7895SOL     OW24583   4.951   0.435   4.278
 7895SOL    HW124584   4.985   0.524   4.308
 7895SOL    HW224585   4.882   0.403   4.343
 7896SOL     OW24586   4.327   2.562   1.192
 7896SOL    HW124587   4.295   2.652   1.162
 7896SOL    HW224588   4.269   2.491   1.152
 7897SOL     OW24589   3.365   2.076   1.541
 7897SOL    HW124590   3.403   2.060   1.632
 7897SOL    HW224591   3.322   2.166   1.537
 7898SOL     OW24592   4.047   0.141   3.811
 7898SOL    HW124593   4.089   0.226   3.845
 7898SOL    HW224594   4.016   0.155   3.717
 7899SOL     OW24595   5.680   6.687   1.095
 7899SOL    HW124596   5.624   6.613   1.130
 7899SOL    HW224597   5.629   6.738   1.026
 7900SOL     OW24598   1.014   5.335   1.582
 7900SOL    HW124599   0.940   5.291   1.634
 7900SOL    HW224600   0.975   5.382   1.502
 7901SOL     OW24601   4.333   0.819   6.985
 7901SOL    HW124602   4.294   0.905   7.019
 7901SOL    HW224603   4.426   0.836   6.952
 7902SOL     OW24604   6.275   6.249   2.006
 7902SOL    HW124605   6.186   6.204   2.021
 7902SOL    HW224606   6.307   6.289   2.092
 7903SOL     OW24607   4.921   1.660   2.823
 7903SOL    HW124608   5.005   1.650   2.876
 7903SOL    HW224609   4.940   1.717   2.743
 7904SOL     OW24610   5.624   6.518   2.526
 7904SOL    HW124611   5.586   6.456   2.458
 7904SOL    HW224612   5.550   6.567   2.572
 7905SOL     OW24613   6.024   2.574   0.755
 7905SOL    HW124614   6.104   2.551   0.699
 7905SOL    HW224615   5.975   2.490   0.779
 7906SOL     OW24616   0.654   4.821   0.917
 7906SOL    HW124617   0.691   4.799   0.827
 7906SOL    HW224618   0.572   4.878   0.907
 7907SOL     OW24619   6.081   1.985   3.612
 7907SOL    HW124620   6.084   1.893   3.574
 7907SOL    HW224621   6.153   1.996   3.681
 7908SOL     OW24622   1.792   0.522   5.800
 7908SOL    HW124623   1.844   0.542   5.882
 7908SOL    HW224624   1.742   0.436   5.812
 7909SOL     OW24625   5.141   4.182   3.912
 7909SOL    HW124626   5.175   4.142   3.997
 7909SOL    HW224627   5.180   4.273   3.900
 7910SOL     OW24628   2.354   2.866   0.564
 7910SOL    HW124629   2.418   2.919   0.508
 7910SOL    HW224630   2.266   2.861   0.517
 7911SOL     OW24631   1.104   4.591   0.532
 7911SOL    HW124632   1.083   4.516   0.595
 7911SOL    HW224633   1.078   4.678   0.575
 7912SOL     OW24634   5.806   4.377   1.098
 7912SOL    HW124635   5.871   4.312   1.058
 7912SOL    HW224636   5.847   4.422   1.176
 7913SOL     OW24637   1.281   4.075   1.760
 7913SOL    HW124638   1.228   4.065   1.845
 7913SOL    HW224639   1.246   4.011   1.692
 7914SOL     OW24640   0.119   4.513   0.462
 7914SOL    HW124641   0.102   4.453   0.541
 7914SOL    HW224642   0.050   4.584   0.459
 7915SOL     OW24643   5.173   2.557   2.172
 7915SOL    HW124644   5.267   2.590   2.169
 7915SOL    HW224645   5.113   2.630   2.204
 7916SOL     OW24646   6.876   6.594   5.483
 7916SOL    HW124647   6.929   6.510   5.495
 7916SOL    HW224648   6.806   6.600   5.554
 7917SOL     OW24649   3.683   2.844   5.214
 7917SOL    HW124650   3.595   2.810   5.248
 7917SOL    HW224651   3.667   2.920   5.150
 7918SOL     OW24652   6.450   1.176   4.583
 7918SOL    HW124653   6.497   1.155   4.497
 7918SOL    HW224654   6.518   1.199   4.653
 7919SOL     OW24655   1.505   4.835   3.352
 7919SOL    HW124656   1.552   4.775   3.417
 7919SOL    HW224657   1.497   4.927   3.391
 7920SOL     OW24658   6.406   0.340   0.421
 7920SOL    HW124659   6.474   0.298   0.480
 7920SOL    HW224660   6.373   0.425   0.462
 7921SOL     OW24661   6.188   6.310   1.744
 7921SOL    HW124662   6.242   6.284   1.663
 7921SOL    HW224663   6.243   6.297   1.826
 7922SOL     OW24664   0.647   5.929   0.548
 7922SOL    HW124665   0.583   5.988   0.499
 7922SOL    HW224666   0.612   5.836   0.552
 7923SOL     OW24667   4.038   0.707   6.430
 7923SOL    HW124668   4.020   0.663   6.518
 7923SOL    HW224669   4.014   0.644   6.356
 7924SOL     OW24670   5.203   0.199   2.176
 7924SOL    HW124671   5.162   0.166   2.261
 7924SOL    HW224672   5.133   0.245   2.121
 7925SOL     OW24673   0.865   6.731   0.614
 7925SOL    HW124674   0.861   6.713   0.515
 7925SOL    HW224675   0.778   6.770   0.644
 7926SOL     OW24676   4.050   1.959   6.672
 7926SOL    HW124677   4.053   2.043   6.727
 7926SOL    HW224678   3.978   1.967   6.603
 7927SOL     OW24679   4.348   5.903   2.776
 7927SOL    HW124680   4.287   5.824   2.781
 7927SOL    HW224681   4.294   5.987   2.765
 7928SOL     OW24682   1.337   1.557   3.766
 7928SOL    HW124683   1.281   1.612   3.826
 7928SOL    HW224684   1.333   1.593   3.673
 7929SOL     OW24685   4.003   3.580   5.365
 7929SOL    HW124686   4.074   3.554   5.299
 7929SOL    HW224687   3.914   3.578   5.321
 7930SOL     OW24688   4.383   5.112   5.631
 7930SOL    HW124689   4.434   5.143   5.551
 7930SOL    HW224690   4.402   5.172   5.708
 7931SOL     OW24691   3.032   3.095   0.120
 7931SOL    HW124692   2.960   3.129   0.060
 7931SOL    HW224693   3.120   3.133   0.090
 7932SOL     OW24694   1.240   6.476   6.491
 7932SOL    HW124695   1.224   6.435   6.581
 7932SOL    HW224696   1.240   6.575   6.499
 7933SOL     OW24697   6.623   6.960   6.121
 7933SOL    HW124698   6.619   6.964   6.021
 7933SOL    HW224699   6.716   6.937   6.149
 7934SOL     OW24700   1.595   5.152   6.427
 7934SOL    HW124701   1.555   5.076   6.376
 7934SOL    HW224702   1.561   5.239   6.391
 7935SOL     OW24703   5.947   6.097   1.061
 7935SOL    HW124704   5.892   6.170   1.021
 7935SOL    HW224705   5.947   6.106   1.160
 7936SOL     OW24706   2.917   6.085   2.219
 7936SOL    HW124707   2.822   6.076   2.190
 7936SOL    HW224708   2.962   5.997   2.211
 7937SOL     OW24709   6.708   5.584   3.959
 7937SOL    HW124710   6.663   5.654   3.905
 7937SOL    HW224711   6.656   5.567   4.043
 7938SOL     OW24712   6.467   6.093   4.235
 7938SOL    HW124713   6.495   6.024   4.168
 7938SOL    HW224714   6.413   6.050   4.307
 7939SOL     OW24715   1.848   2.244   4.738
 7939SOL    HW124716   1.801   2.293   4.811
 7939SOL    HW224717   1.947   2.245   4.754
 7940SOL     OW24718   1.711   3.345   1.866
 7940SOL    HW124719   1.669   3.330   1.955
 7940SOL    HW224720   1.808   3.366   1.878
 7941SOL     OW24721   6.169   6.249   1.381
 7941SOL    HW124722   6.209   6.263   1.290
 7941SOL    HW224723   6.241   6.226   1.446
 7942SOL     OW24724   0.139   5.098   2.446
 7942SOL    HW124725   0.060   5.060   2.494
 7942SOL    HW224726   0.223   5.068   2.492
 7943SOL     OW24727   0.707   4.133   6.411
 7943SOL    HW124728   0.615   4.096   6.400
 7943SOL    HW224729   0.718   4.170   6.504
 7944SOL     OW24730   0.623   2.634   0.702
 7944SOL    HW124731   0.661   2.721   0.672
 7944SOL    HW224732   0.562   2.649   0.780
 7945SOL     OW24733   6.696   5.297   1.172
 7945SOL    HW124734   6.608   5.253   1.192
 7945SOL    HW224735   6.729   5.345   1.253
 7946SOL     OW24736   3.776   0.094   5.372
 7946SOL    HW124737   3.796   0.152   5.452
 7946SOL    HW224738   3.705   0.138   5.317
 7947SOL     OW24739   3.106   1.557   5.710
 7947SOL    HW124740   3.158   1.548   5.795
 7947SOL    HW224741   3.144   1.495   5.641
 7948SOL     OW24742   1.195   6.142   1.074
 7948SOL    HW124743   1.287   6.114   1.046
 7948SOL    HW224744   1.129   6.073   1.045
 7949SOL     OW24745   4.891   4.048   5.428
 7949SOL    HW124746   4.937   3.963   5.405
 7949SOL    HW224747   4.835   4.035   5.510
 7950SOL     OW24748   4.938   5.481   4.282
 7950SOL    HW124749   4.847   5.444   4.300
 7950SOL    HW224750   4.959   5.471   4.185
 7951SOL     OW24751   2.272   5.000   2.401
 7951SOL    HW124752   2.294   5.087   2.359
 7951SOL    HW224753   2.354   4.963   2.445
 7952SOL     OW24754   6.860   3.273   6.586
 7952SOL    HW124755   6.794   3.281   6.511
 7952SOL    HW224756   6.891   3.364   6.613
 7953SOL     OW24757   3.691   2.150   2.922
 7953SOL    HW124758   3.642   2.073   2.882
 7953SOL    HW224759   3.787   2.126   2.936
 7954SOL     OW24760   3.262   4.555   5.940
 7954SOL    HW124761   3.196   4.595   6.003
 7954SOL    HW224762   3.240   4.584   5.846
 7955SOL     OW24763   2.856   0.774   6.475
 7955SOL    HW124764   2.923   0.708   6.441
 7955SOL    HW224765   2.896   0.827   6.550
 7956SOL     OW24766   4.694   6.543   2.005
 7956SOL    HW124767   4.635   6.476   2.050
 7956SOL    HW224768   4.644   6.590   1.933
 7957SOL     OW24769   0.948   0.634   1.176
 7957SOL    HW124770   0.885   0.657   1.250
 7957SOL    HW224771   1.007   0.713   1.157
 7958SOL     OW24772   4.104   5.121   5.688
 7958SOL    HW124773   4.201   5.147   5.694
 7958SOL    HW224774   4.096   5.022   5.680
 7959SOL     OW24775   5.294   5.789   0.931
 7959SOL    HW124776   5.388   5.778   0.899
 7959SOL    HW224777   5.285   5.749   1.023
 7960SOL     OW24778   2.255   1.264   5.879
 7960SOL    HW124779   2.228   1.253   5.974
 7960SOL    HW224780   2.196   1.332   5.835
 7961SOL     OW24781   6.813   1.104   0.282
 7961SOL    HW124782   6.845   1.155   0.363
 7961SOL    HW224783   6.735   1.048   0.307
 7962SOL     OW24784   1.474   0.719   6.030
 7962SOL    HW124785   1.514   0.721   5.939
 7962SOL    HW224786   1.505   0.798   6.083
 7963SOL     OW24787   6.560   6.445   4.320
 7963SOL    HW124788   6.638   6.383   4.330
 7963SOL    HW224789   6.577   6.528   4.373
 7964SOL     OW24790   6.973   4.184   3.219
 7964SOL    HW124791   6.966   4.269   3.166
 7964SOL    HW224792   0.024   4.127   3.179
 7965SOL     OW24793   4.497   2.384   6.027
 7965SOL    HW124794   4.408   2.429   6.035
 7965SOL    HW224795   4.519   2.338   6.113
 7966SOL     OW24796   2.363   2.576   5.743
 7966SOL    HW124797   2.418   2.612   5.667
 7966SOL    HW224798   2.423   2.560   5.822
 7967SOL     OW24799   3.569   6.492   2.418
 7967SOL    HW124800   3.593   6.586   2.445
 7967SOL    HW224801   3.515   6.495   2.333
 7968SOL     OW24802   1.178   2.201   3.727
 7968SOL    HW124803   1.265   2.163   3.697
 7968SOL    HW224804   1.119   2.217   3.647
 7969SOL     OW24805   5.116   5.781   0.724
 7969SOL    HW124806   5.134   5.726   0.642
 7969SOL    HW224807   5.203   5.803   0.768
 7970SOL     OW24808   6.893   2.957   2.170
 7970SOL    HW124809   6.811   2.908   2.199
 7970SOL    HW224810   6.962   2.954   2.243
 7971SOL     OW24811   3.364   1.994   0.949
 7971SOL    HW124812   3.400   1.998   1.042
 7971SOL    HW224813   3.329   1.902   0.931
 7972SOL     OW24814   2.148   2.720   0.104
 7972SOL    HW124815   2.094   2.643   0.138
 7972SOL    HW224816   2.087   2.794   0.076
 7973SOL     OW24817   4.119   4.805   4.673
 7973SOL    HW124818   4.202   4.753   4.694
 7973SOL    HW224819   4.143   4.901   4.657
 7974SOL     OW24820   5.936   0.707   5.278
 7974SOL    HW124821   6.002   0.643   5.239
 7974SOL    HW224822   5.876   0.659   5.341
 7975SOL     OW24823   6.565   1.110   1.735
 7975SOL    HW124824   6.572   1.180   1.806
 7975SOL    HW224825   6.635   1.127   1.665
 7976SOL     OW24826   0.731   0.329   6.056
 7976SOL    HW124827   0.813   0.370   6.097
 7976SOL    HW224828   0.751   0.235   6.030
 7977SOL     OW24829   4.788   5.753   2.859
 7977SOL    HW124830   4.705   5.752   2.915
 7977SOL    HW224831   4.810   5.659   2.831
 7978SOL     OW24832   6.265   2.685   6.292
 7978SOL    HW124833   6.362   2.687   6.317
 7978SOL    HW224834   6.211   2.723   6.367
 7979SOL     OW24835   3.727   5.848   5.895
 7979SOL    HW124836   3.738   5.856   5.796
 7979SOL    HW224837   3.735   5.939   5.937
 7980SOL     OW24838   3.071   5.822   6.975
 7980SOL    HW124839   3.054   5.825   0.052
 7980SOL    HW224840   3.132   5.745   6.954
 7981SOL     OW24841   0.723   4.921   2.138
 7981SOL    HW124842   0.666   4.999   2.113
 7981SOL    HW224843   0.676   4.836   2.113
 7982SOL     OW24844   2.066   1.423   0.207
 7982SOL    HW124845   2.045   1.517   0.178
 7982SOL    HW224846   1.999   1.394   0.275
 7983SOL     OW24847   6.751   2.096   0.947
 7983SOL    HW124848   6.660   2.082   0.907
 7983SOL    HW224849   6.807   2.149   0.884
 7984SOL     OW24850   1.301   1.195   0.950
 7984SOL    HW124851   1.204   1.181   0.971
 7984SOL    HW224852   1.350   1.109   0.960
 7985SOL     OW24853   2.980   0.830   4.317
 7985SOL    HW124854   2.944   0.883   4.393
 7985SOL    HW224855   3.068   0.869   4.288
 7986SOL     OW24856   2.967   1.058   6.203
 7986SOL    HW124857   2.924   1.102   6.282
 7986SOL    HW224858   3.047   1.005   6.233
 7987SOL     OW24859   1.998   2.227   6.744
 7987SOL    HW124860   2.077   2.262   6.793
 7987SOL    HW224861   2.012   2.237   6.646
 7988SOL     OW24862   0.409   2.292   3.196
 7988SOL    HW124863   0.459   2.359   3.251
 7988SOL    HW224864   0.419   2.201   3.235
 7989SOL     OW24865   2.872   3.280   6.801
 7989SOL    HW124866   2.785   3.239   6.829
 7989SOL    HW224867   2.855   3.354   6.737
 7990SOL     OW24868   1.198   4.548   4.109
 7990SOL    HW124869   1.107   4.509   4.121
 7990SOL    HW224870   1.255   4.485   4.056
 7991SOL     OW24871   5.414   0.266   3.097
 7991SOL    HW124872   5.352   0.195   3.063
 7991SOL    HW224873   5.472   0.227   3.168
 7992SOL     OW24874   0.959   0.458   0.803
 7992SOL    HW124875   0.967   0.535   0.740
 7992SOL    HW224876   0.863   0.428   0.807
 7993SOL     OW24877   0.284   6.851   0.667
 7993SOL    HW124878   0.330   6.804   0.592
 7993SOL    HW224879   0.344   6.922   0.704
 7994SOL     OW24880   3.905   6.875   3.716
 7994SOL    HW124881   3.950   6.956   3.678
 7994SOL    HW224882   3.826   6.852   3.661
 7995SOL     OW24883   5.948   5.792   3.531
 7995SOL    HW124884   5.894   5.731   3.589
 7995SOL    HW224885   6.038   5.751   3.514
 7996SOL     OW24886   2.872   0.062   4.820
 7996SOL    HW124887   2.958   0.031   4.861
 7996SOL    HW224888   2.844   0.148   4.864
 7997SOL     OW24889   0.164   1.307   1.352
 7997SOL    HW124890   0.164   1.354   1.440
 7997SOL    HW224891   0.084   1.246   1.348
 7998SOL     OW24892   2.720   0.133   0.049
 7998SOL    HW124893   2.780   0.166   6.997
 7998SOL    HW224894   2.710   0.034   0.043
 7999SOL     OW24895   1.125   0.771   5.993
 7999SOL    HW124896   1.138   0.767   6.092
 7999SOL    HW224897   1.169   0.692   5.951
 8000SOL     OW24898   4.950   6.888   6.891
 8000SOL    HW124899   4.953   6.792   6.918
 8000SOL    HW224900   4.855   6.918   6.886
 8001SOL     OW24901   4.565   6.075   1.610
 8001SOL    HW124902   4.467   6.059   1.623
 8001SOL    HW224903   4.615   5.989   1.622
 8002SOL     OW24904   2.129   0.710   6.192
 8002SOL    HW124905   2.181   0.626   6.207
 8002SOL    HW224906   2.043   0.689   6.146
 8003SOL     OW24907   2.765   5.514   2.074
 8003SOL    HW124908   2.698   5.440   2.073
 8003SOL    HW224909   2.753   5.568   2.157
 8004SOL     OW24910   2.121   2.893   2.700
 8004SOL    HW124911   2.023   2.896   2.714
 8004SOL    HW224912   2.142   2.913   2.604
 8005SOL     OW24913   3.143   1.536   3.170
 8005SOL    HW124914   3.139   1.438   3.151
 8005SOL    HW224915   3.143   1.587   3.085
 8006SOL     OW24916   2.000   6.264   5.764
 8006SOL    HW124917   2.004   6.337   5.833
 8006SOL    HW224918   2.086   6.213   5.766
 8007SOL     OW24919   6.420   0.910   5.709
 8007SOL    HW124920   6.508   0.955   5.720
 8007SOL    HW224921   6.374   0.945   5.627
 8008SOL     OW24922   4.568   5.963   6.527
 8008SOL    HW124923   4.580   6.018   6.609
 8008SOL    HW224924   4.611   6.010   6.449
 8009SOL     OW24925   5.548   0.804   1.665
 8009SOL    HW124926   5.622   0.859   1.628
 8009SOL    HW224927   5.512   0.744   1.594
 8010SOL     OW24928   1.883   1.198   5.179
 8010SOL    HW124929   1.870   1.130   5.107
 8010SOL    HW224930   1.835   1.170   5.262
 8011SOL     OW24931   3.503   2.208   0.847
 8011SOL    HW124932   3.440   2.131   0.851
 8011SOL    HW224933   3.550   2.208   0.759
 8012SOL     OW24934   2.235   3.741   0.092
 8012SOL    HW124935   2.200   3.672   0.029
 8012SOL    HW224936   2.159   3.777   0.147
 8013SOL     OW24937   1.675   5.217   3.379
 8013SOL    HW124938   1.740   5.213   3.454
 8013SOL    HW224939   1.586   5.182   3.410
 8014SOL     OW24940   1.245   6.379   4.990
 8014SOL    HW124941   1.327   6.326   4.968
 8014SOL    HW224942   1.272   6.467   5.030
 8015SOL     OW24943   3.402   0.727   6.034
 8015SOL    HW124944   3.357   0.646   5.996
 8015SOL    HW224945   3.358   0.752   6.120
 8016SOL     OW24946   4.770   0.316   5.684
 8016SOL    HW124947   4.843   0.368   5.728
 8016SOL    HW224948   4.801   0.222   5.667
 8017SOL     OW24949   5.843   0.088   0.835
 8017SOL    HW124950   5.823   0.026   0.759
 8017SOL    HW224951   5.867   0.178   0.799
 8018SOL     OW24952   3.320   1.991   6.757
 8018SOL    HW124953   3.324   2.014   6.660
 8018SOL    HW224954   3.269   2.060   6.807
 8019SOL     OW24955   2.391   4.849   0.617
 8019SOL    HW124956   2.361   4.917   0.685
 8019SOL    HW224957   2.483   4.818   0.639
 8020SOL     OW24958   5.884   0.502   0.208
 8020SOL    HW124959   5.882   0.404   0.227
 8020SOL    HW224960   5.959   0.522   0.146
 8021SOL     OW24961   1.273   2.338   0.861
 8021SOL    HW124962   1.301   2.381   0.776
 8021SOL    HW224963   1.182   2.297   0.850
 8022SOL     OW24964   5.759   7.001   2.691
 8022SOL    HW124965   5.855   6.989   2.716
 8022SOL    HW224966   5.706   6.921   2.720
 8023SOL     OW24967   5.479   5.445   2.848
 8023SOL    HW124968   5.557   5.508   2.851
 8023SOL    HW224969   5.418   5.463   2.924
 8024SOL     OW24970   1.147   4.598   5.992
 8024SOL    HW124971   1.181   4.513   5.954
 8024SOL    HW224972   1.105   4.580   6.081
 8025SOL     OW24973   2.161   5.705   6.913
 8025SOL    HW124974   2.130   5.797   6.937
 8025SOL    HW224975   2.213   5.666   6.989
 8026SOL     OW24976   6.854   4.276   6.959
 8026SOL    HW124977   6.830   4.373   6.954
 8026SOL    HW224978   6.953   4.266   6.965
 8027SOL     OW24979   4.722   0.352   4.900
 8027SOL    HW124980   4.728   0.397   4.989
 8027SOL    HW224981   4.629   0.363   4.864
 8028SOL     OW24982   3.989   6.025   5.574
 8028SOL    HW124983   4.007   6.075   5.489
 8028SOL    HW224984   3.957   6.090   5.644
 8029SOL     OW24985   4.835   3.011   1.021
 8029SOL    HW124986   4.909   2.957   0.981
 8029SOL    HW224987   4.747   2.967   1.004
 8030SOL     OW24988   4.571   4.804   0.104
 8030SOL    HW124989   4.506   4.830   0.032
 8030SOL    HW224990   4.525   4.747   0.172
 8031SOL     OW24991   6.410   6.329   2.231
 8031SOL    HW124992   6.351   6.369   2.302
 8031SOL    HW224993   6.480   6.395   2.205
 8032SOL     OW24994   6.331   4.090   1.663
 8032SOL    HW124995   6.234   4.075   1.683
 8032SOL    HW224996   6.363   4.171   1.712
 8033SOL     OW24997   4.975   1.876   6.319
 8033SOL    HW124998   5.073   1.896   6.328
 8033SOL    HW224999   4.949   1.807   6.387
 8034SOL     OW25000   4.754   1.003   4.759
 8034SOL    HW125001   4.691   1.077   4.781
 8034SOL    HW225002   4.705   0.916   4.763
 8035SOL     OW25003   5.240   1.723   4.166
 8035SOL    HW125004   5.227   1.776   4.250
 8035SOL    HW225005   5.172   1.751   4.098
 8036SOL     OW25006   6.485   3.994   3.729
 8036SOL    HW125007   6.547   4.069   3.705
 8036SOL    HW225008   6.516   3.909   3.687
 8037SOL     OW25009   1.593   3.259   6.963
 8037SOL    HW125010   1.688   3.245   6.993
 8037SOL    HW225011   1.581   3.221   6.872
 8038SOL     OW25012   4.690   0.279   2.456
 8038SOL    HW125013   4.612   0.242   2.405
 8038SOL    HW225014   4.664   0.366   2.498
 8039SOL     OW25015   1.052   1.730   5.395
 8039SOL    HW125016   0.986   1.679   5.449
 8039SOL    HW225017   1.006   1.805   5.348
 8040SOL     OW25018   1.131   5.580   0.079
 8040SOL    HW125019   1.168   5.644   0.147
 8040SOL    HW225020   1.203   5.557   0.013
 8041SOL     OW25021   2.739   1.292   2.791
 8041SOL    HW125022   2.660   1.263   2.738
 8041SOL    HW225023   2.798   1.213   2.808
 8042SOL     OW25024   3.369   3.094   4.412
 8042SOL    HW125025   3.427   3.054   4.483
 8042SOL    HW225026   3.287   3.133   4.453
 8043SOL     OW25027   3.495   6.474   0.911
 8043SOL    HW125028   3.459   6.546   0.970
 8043SOL    HW225029   3.564   6.421   0.962
 8044SOL     OW25030   4.230   2.402   1.512
 8044SOL    HW125031   4.266   2.367   1.598
 8044SOL    HW225032   4.301   2.453   1.464
 8045SOL     OW25033   5.681   2.665   2.914
 8045SOL    HW125034   5.635   2.587   2.872
 8045SOL    HW225035   5.621   2.708   2.981
 8046SOL     OW25036   0.999   4.354   1.872
 8046SOL    HW125037   0.942   4.421   1.921
 8046SOL    HW225038   0.993   4.266   1.919
 8047SOL     OW25039   4.051   5.566   5.379
 8047SOL    HW125040   4.047   5.529   5.286
 8047SOL    HW225041   4.037   5.665   5.375
 8048SOL     OW25042   4.757   2.034   6.473
 8048SOL    HW125043   4.785   1.940   6.455
 8048SOL    HW225044   4.838   2.091   6.488
 8049SOL     OW25045   0.623   0.265   0.313
 8049SOL    HW125046   0.668   0.353   0.328
 8049SOL    HW225047   0.681   0.192   0.348
 8050SOL     OW25048   2.126   3.402   3.571
 8050SOL    HW125049   2.158   3.307   3.581
 8050SOL    HW225050   2.107   3.420   3.475
 8051SOL     OW25051   4.357   5.733   4.482
 8051SOL    HW125052   4.426   5.673   4.522
 8051SOL    HW225053   4.281   5.746   4.546
 8052SOL     OW25054   3.408   1.384   0.578
 8052SOL    HW125055   3.499   1.399   0.539
 8052SOL    HW225056   3.341   1.440   0.529
 8053SOL     OW25057   3.291   3.178   4.024
 8053SOL    HW125058   3.269   3.274   4.004
 8053SOL    HW225059   3.391   3.167   4.027
 8054SOL     OW25060   6.319   4.828   5.080
 8054SOL    HW125061   6.235   4.875   5.052
 8054SOL    HW225062   6.337   4.848   5.177
 8055SOL     OW25063   0.661   0.024   5.180
 8055SOL    HW125064   0.648   6.952   5.145
 8055SOL    HW225065   0.580   0.079   5.161
 8056SOL     OW25066   2.203   0.938   3.387
 8056SOL    HW125067   2.201   0.857   3.328
 8056SOL    HW225068   2.208   1.020   3.330
 8057SOL     OW25069   3.071   2.195   2.970
 8057SOL    HW125070   3.033   2.239   2.889
 8057SOL    HW225071   3.000   2.184   3.039
 8058SOL     OW25072   3.708   0.002   3.388
 8058SOL    HW125073   3.610   7.008   3.398
 8058SOL    HW225074   3.733   0.000   3.291
 8059SOL     OW25075   2.825   1.975   4.649
 8059SOL    HW125076   2.808   1.895   4.592
 8059SOL    HW225077   2.854   1.946   4.740
 8060SOL     OW25078   6.531   2.036   6.210
 8060SOL    HW125079   6.520   2.112   6.274
 8060SOL    HW225080   6.619   2.043   6.164
 8061SOL     OW25081   0.011   0.357   2.721
 8061SOL    HW125082   0.009   0.281   2.656
 8061SOL    HW225083   0.105   0.391   2.729
 8062SOL     OW25084   3.358   4.983   4.604
 8062SOL    HW125085   3.289   4.931   4.654
 8062SOL    HW225086   3.332   5.079   4.602
 8063SOL     OW25087   1.775   2.184   2.620
 8063SOL    HW125088   1.810   2.273   2.649
 8063SOL    HW225089   1.727   2.194   2.533
 8064SOL     OW25090   6.378   2.490   1.155
 8064SOL    HW125091   6.435   2.500   1.074
 8064SOL    HW225092   6.364   2.393   1.174
 8065SOL     OW25093   2.692   5.827   4.297
 8065SOL    HW125094   2.718   5.742   4.252
 8065SOL    HW225095   2.592   5.832   4.303
 8066SOL     OW25096   0.761   1.511   5.357
 8066SOL    HW125097   0.761   1.569   5.275
 8066SOL    HW225098   0.676   1.458   5.360
 8067SOL     OW25099   5.176   2.558   2.659
 8067SOL    HW125100   5.082   2.578   2.633
 8067SOL    HW225101   5.184   2.462   2.686
 8068SOL     OW25102   6.832   4.324   1.707
 8068SOL    HW125103   6.749   4.292   1.661
 8068SOL    HW225104   6.911   4.278   1.667
 8069SOL     OW25105   2.434   5.975   0.807
 8069SOL    HW125106   2.346   6.021   0.820
 8069SOL    HW225107   2.436   5.933   0.717
 8070SOL     OW25108   3.997   3.506   1.095
 8070SOL    HW125109   3.963   3.422   1.052
 8070SOL    HW225110   3.945   3.584   1.059
 8071SOL     OW25111   3.478   6.435   4.630
 8071SOL    HW125112   3.498   6.410   4.725
 8071SOL    HW225113   3.529   6.519   4.607
 8072SOL     OW25114   4.416   1.667   0.986
 8072SOL    HW125115   4.420   1.574   1.020
 8072SOL    HW225116   4.351   1.673   0.910
 8073SOL     OW25117   2.960   5.143   5.229
 8073SOL    HW125118   2.992   5.154   5.323
 8073SOL    HW225119   3.036   5.116   5.171
 8074SOL     OW25120   3.152   2.461   0.737
 8074SOL    HW125121   3.192   2.541   0.782
 8074SOL    HW225122   3.143   2.387   0.803
 8075SOL     OW25123   6.738   6.762   0.437
 8075SOL    HW125124   6.704   6.760   0.531
 8075SOL    HW225125   6.696   6.688   0.384
 8076SOL     OW25126   6.308   0.899   5.433
 8076SOL    HW125127   6.220   0.948   5.430
 8076SOL    HW225128   6.326   0.858   5.344
 8077SOL     OW25129   3.272   6.278   2.836
 8077SOL    HW125130   3.236   6.341   2.768
 8077SOL    HW225131   3.334   6.213   2.791
 8078SOL     OW25132   6.913   2.125   0.297
 8078SOL    HW125133   6.970   2.183   0.355
 8078SOL    HW225134   6.858   2.181   0.236
 8079SOL     OW25135   5.915   1.624   3.643
 8079SOL    HW125136   5.863   1.539   3.637
 8079SOL    HW225137   5.863   1.691   3.697
 8080SOL     OW25138   1.015   3.048   1.849
 8080SOL    HW125139   1.084   2.999   1.795
 8080SOL    HW225140   1.049   3.139   1.871
 8081SOL     OW25141   6.344   5.505   5.627
 8081SOL    HW125142   6.374   5.417   5.664
 8081SOL    HW225143   6.395   5.524   5.543
 8082SOL     OW25144   4.196   6.721   2.441
 8082SOL    HW125145   4.106   6.689   2.410
 8082SOL    HW225146   4.199   6.716   2.541
 8083SOL     OW25147   4.931   2.680   3.064
 8083SOL    HW125148   5.017   2.714   3.026
 8083SOL    HW225149   4.904   2.597   3.016
 8084SOL     OW25150   3.836   6.540   0.374
 8084SOL    HW125151   3.894   6.539   0.455
 8084SOL    HW225152   3.858   6.619   0.317
 8085SOL     OW25153   6.571   6.386   1.999
 8085SOL    HW125154   6.635   6.343   1.934
 8085SOL    HW225155   6.504   6.318   2.028
 8086SOL     OW25156   6.122   0.948   2.492
 8086SOL    HW125157   6.196   0.999   2.450
 8086SOL    HW225158   6.069   0.900   2.421
 8087SOL     OW25159   2.094   0.592   0.071
 8087SOL    HW125160   2.169   0.537   0.107
 8087SOL    HW225161   2.059   0.651   0.143
 8088SOL     OW25162   5.938   1.573   1.489
 8088SOL    HW125163   5.915   1.490   1.439
 8088SOL    HW225164   5.877   1.647   1.462
 8089SOL     OW25165   6.013   2.841   0.707
 8089SOL    HW125166   5.920   2.879   0.711
 8089SOL    HW225167   6.012   2.749   0.747
 8090SOL     OW25168   4.750   2.080   0.185
 8090SOL    HW125169   4.772   2.142   0.110
 8090SOL    HW225170   4.770   1.986   0.156
 8091SOL     OW25171   2.176   4.078   4.823
 8091SOL    HW125172   2.082   4.049   4.836
 8091SOL    HW225173   2.225   4.072   4.910
 8092SOL     OW25174   5.424   2.226   5.110
 8092SOL    HW125175   5.480   2.308   5.103
 8092SOL    HW225176   5.482   2.148   5.132
 8093SOL     OW25177   4.165   4.678   2.942
 8093SOL    HW125178   4.157   4.661   3.040
 8093SOL    HW225179   4.237   4.746   2.926
 8094SOL     OW25180   1.063   3.418   4.699
 8094SOL    HW125181   1.001   3.473   4.643
 8094SOL    HW225182   1.015   3.337   4.733
 8095SOL     OW25183   0.417   4.880   4.431
 8095SOL    HW125184   0.474   4.924   4.500
 8095SOL    HW225185   0.466   4.878   4.344
 8096SOL     OW25186   1.777   0.043   3.283
 8096SOL    HW125187   1.820   0.105   3.350
 8096SOL    HW225188   1.840   0.029   3.206
 8097SOL     OW25189   4.145   0.035   4.267
 8097SOL    HW125190   4.092   0.112   4.302
 8097SOL    HW225191   4.087   7.003   4.205
 8098SOL     OW25192   1.929   6.282   3.196
 8098SOL    HW125193   1.890   6.224   3.268
 8098SOL    HW225194   1.977   6.359   3.239
 8099SOL     OW25195   3.849   6.117   4.894
 8099SOL    HW125196   3.933   6.162   4.865
 8099SOL    HW225197   3.779   6.187   4.912
 8100SOL     OW25198   0.066   0.750   0.386
 8100SOL    HW125199   0.039   0.828   0.443
 8100SOL    HW225200   0.164   0.733   0.399
 8101SOL     OW25201   1.881   6.155   2.293
 8101SOL    HW125202   1.869   6.082   2.361
 8101SOL    HW225203   1.866   6.244   2.337
 8102SOL     OW25204   0.870   4.311   3.820
 8102SOL    HW125205   0.819   4.296   3.905
 8102SOL    HW225206   0.894   4.408   3.812
 8103SOL     OW25207   2.846   6.877   1.526
 8103SOL    HW125208   2.818   6.859   1.620
 8103SOL    HW225209   2.797   6.957   1.491
 8104SOL     OW25210   2.428   0.777   5.749
 8104SOL    HW125211   2.501   0.759   5.683
 8104SOL    HW225212   2.358   0.707   5.742
 8105SOL     OW25213   0.646   2.891   3.220
 8105SOL    HW125214   0.672   2.952   3.295
 8105SOL    HW225215   0.696   2.916   3.138
 8106SOL     OW25216   2.719   6.134   3.096
 8106SOL    HW125217   2.814   6.126   3.068
 8106SOL    HW225218   2.715   6.155   3.194
 8107SOL     OW25219   1.014   5.046   4.461
 8107SOL    HW125220   0.972   4.990   4.533
 8107SOL    HW225221   0.942   5.084   4.402
 8108SOL     OW25222   5.961   3.131   5.919
 8108SOL    HW125223   6.006   3.131   5.829
 8108SOL    HW225224   5.956   3.038   5.954
 8109SOL     OW25225   0.672   3.738   4.565
 8109SOL    HW125226   0.693   3.735   4.663
 8109SOL    HW225227   0.595   3.679   4.545
 8110SOL     OW25228   3.891   5.784   1.633
 8110SOL    HW125229   3.864   5.735   1.550
 8110SOL    HW225230   3.985   5.818   1.622
 8111SOL     OW25231   5.259   1.347   5.191
 8111SOL    HW125232   5.275   1.384   5.100
 8111SOL    HW225233   5.201   1.266   5.184
 8112SOL     OW25234   2.787   1.980   4.024
 8112SOL    HW125235   2.795   1.978   4.123
 8112SOL    HW225236   2.717   1.914   3.994
 8113SOL     OW25237   1.743   3.835   0.290
 8113SOL    HW125238   1.682   3.780   0.234
 8113SOL    HW225239   1.749   3.795   0.382
 8114SOL     OW25240   1.527   4.305   3.175
 8114SOL    HW125241   1.607   4.343   3.130
 8114SOL    HW225242   1.506   4.216   3.136
 8115SOL     OW25243   3.821   0.315   0.281
 8115SOL    HW125244   3.811   0.356   0.191
 8115SOL    HW225245   3.834   0.386   0.350
 8116SOL     OW25246   4.189   4.900   6.127
 8116SOL    HW125247   4.165   4.852   6.043
 8116SOL    HW225248   4.283   4.934   6.120
 8117SOL     OW25249   1.946   0.182   3.452
 8117SOL    HW125250   1.931   0.280   3.439
 8117SOL    HW225251   2.040   0.166   3.481
 8118SOL     OW25252   5.276   4.725   6.222
 8118SOL    HW125253   5.213   4.691   6.292
 8118SOL    HW225254   5.232   4.798   6.169
 8119SOL     OW25255   4.964   5.828   6.277
 8119SOL    HW125256   4.880   5.841   6.330
 8119SOL    HW225257   4.981   5.909   6.221
 8120SOL     OW25258   3.320   4.954   0.574
 8120SOL    HW125259   3.286   5.045   0.551
 8120SOL    HW225260   3.307   4.893   0.496
 8121SOL     OW25261   0.013   4.946   2.221
 8121SOL    HW125262   0.033   5.032   2.267
 8121SOL    HW225263   0.092   4.885   2.227
 8122SOL     OW25264   0.505   5.640   3.363
 8122SOL    HW125265   0.598   5.611   3.341
 8122SOL    HW225266   0.469   5.697   3.289
 8123SOL     OW25267   0.135   1.654   6.517
 8123SOL    HW125268   0.147   1.595   6.597
 8123SOL    HW225269   0.042   1.646   6.483
 8124SOL     OW25270   5.783   6.343   1.314
 8124SOL    HW125271   5.832   6.401   1.249
 8124SOL    HW225272   5.806   6.370   1.407
 8125SOL     OW25273   1.519   1.260   3.048
 8125SOL    HW125274   1.598   1.305   3.006
 8125SOL    HW225275   1.509   1.168   3.008
 8126SOL     OW25276   4.405   4.501   2.434
 8126SOL    HW125277   4.503   4.517   2.444
 8126SOL    HW225278   4.369   4.461   2.518
 8127SOL     OW25279   2.807   4.225   6.372
 8127SOL    HW125280   2.754   4.198   6.453
 8127SOL    HW225281   2.890   4.273   6.401
 8128SOL     OW25282   2.507   1.347   1.725
 8128SOL    HW125283   2.475   1.433   1.688
 8128SOL    HW225284   2.588   1.363   1.782
 8129SOL     OW25285   4.449   0.192   6.488
 8129SOL    HW125286   4.387   0.217   6.562
 8129SOL    HW225287   4.427   0.101   6.456
 8130SOL     OW25288   0.198   3.268   6.590
 8130SOL    HW125289   0.157   3.177   6.599
 8130SOL    HW225290   0.293   3.265   6.620
 8131SOL     OW25291   2.950   1.853   0.999
 8131SOL    HW125292   2.982   1.936   0.953
 8131SOL    HW225293   2.890   1.801   0.938
 8132SOL     OW25294   6.091   6.672   6.286
 8132SOL    HW125295   6.144   6.636   6.209
 8132SOL    HW225296   6.116   6.767   6.301
 8133SOL     OW25297   3.039   5.436   1.774
 8133SOL    HW125298   2.996   5.524   1.751
 8133SOL    HW225299   2.970   5.376   1.815
 8134SOL     OW25300   6.611   2.797   5.992
 8134SOL    HW125301   6.620   2.895   5.977
 8134SOL    HW225302   6.601   2.751   5.904
 8135SOL     OW25303   2.743   6.663   1.366
 8135SOL    HW125304   2.811   6.654   1.294
 8135SOL    HW225305   2.773   6.732   1.433
 8136SOL     OW25306   4.313   5.485   3.411
 8136SOL    HW125307   4.401   5.440   3.422
 8136SOL    HW225308   4.280   5.516   3.500
 8137SOL     OW25309   3.116   1.942   5.143
 8137SOL    HW125310   3.201   1.903   5.106
 8137SOL    HW225311   3.101   2.032   5.103
 8138SOL     OW25312   5.531   1.412   0.365
 8138SOL    HW125313   5.475   1.468   0.305
 8138SOL    HW225314   5.504   1.316   0.357
 8139SOL     OW25315   0.043   1.512   2.181
 8139SOL    HW125316   0.034   1.609   2.204
 8139SOL    HW225317   7.009   1.458   2.245
 8140SOL     OW25318   5.022   0.511   0.695
 8140SOL    HW125319   5.112   0.555   0.693
 8140SOL    HW225320   5.033   0.414   0.716
 8141SOL     OW25321   4.778   5.888   5.139
 8141SOL    HW125322   4.824   5.816   5.191
 8141SOL    HW225323   4.772   5.970   5.195
 8142SOL     OW25324   0.921   5.583   6.918
 8142SOL    HW125325   0.977   5.583   7.000
 8142SOL    HW225326   0.974   5.550   6.840
 8143SOL     OW25327   6.067   4.126   1.282
 8143SOL    HW125328   6.142   4.081   1.331
 8143SOL    HW225329   6.084   4.225   1.280
 8144SOL     OW25330   6.204   6.039   6.161
 8144SOL    HW125331   6.270   6.072   6.227
 8144SOL    HW225332   6.149   6.116   6.128
 8145SOL     OW25333   5.802   5.500   1.556
 8145SOL    HW125334   5.775   5.530   1.648
 8145SOL    HW225335   5.807   5.401   1.554
 8146SOL     OW25336   4.882   0.447   4.654
 8146SOL    HW125337   4.803   0.472   4.597
 8146SOL    HW225338   4.864   0.472   4.749
 8147SOL     OW25339   6.276   1.754   1.091
 8147SOL    HW125340   6.207   1.774   1.022
 8147SOL    HW225341   6.234   1.703   1.166
 8148SOL     OW25342   4.961   4.363   1.324
 8148SOL    HW125343   4.876   4.411   1.304
 8148SOL    HW225344   5.038   4.428   1.319
 8149SOL     OW25345   3.281   6.301   2.153
 8149SOL    HW125346   3.203   6.305   2.216
 8149SOL    HW225347   3.323   6.391   2.146
 8150SOL     OW25348   1.555   3.932   0.745
 8150SOL    HW125349   1.470   3.891   0.710
 8150SOL    HW225350   1.601   3.981   0.671
 8151SOL     OW25351   5.537   2.561   1.501
 8151SOL    HW125352   5.462   2.602   1.448
 8151SOL    HW225353   5.624   2.595   1.467
 8152SOL     OW25354   6.937   2.339   2.375
 8152SOL    HW125355   6.903   2.413   2.317
 8152SOL    HW225356   7.016   2.372   2.428
 8153SOL     OW25357   2.368   0.407   3.408
 8153SOL    HW125358   2.376   0.411   3.309
 8153SOL    HW225359   2.280   0.367   3.433
 8154SOL     OW25360   3.279   5.155   2.135
 8154SOL    HW125361   3.326   5.234   2.095
 8154SOL    HW225362   3.323   5.070   2.103
 8155SOL     OW25363   1.613   3.853   1.838
 8155SOL    HW125364   1.603   3.762   1.877
 8155SOL    HW225365   1.710   3.879   1.839
 8156SOL     OW25366   5.031   0.139   1.319
 8156SOL    HW125367   5.088   0.058   1.306
 8156SOL    HW225368   5.085   0.222   1.304
 8157SOL     OW25369   0.122   5.424   6.230
 8157SOL    HW125370   0.038   5.475   6.243
 8157SOL    HW225371   0.164   5.451   6.143
 8158SOL     OW25372   4.719   5.019   0.552
 8158SOL    HW125373   4.684   4.929   0.579
 8158SOL    HW225374   4.695   5.037   0.457
 8159SOL     OW25375   2.915   5.869   2.459
 8159SOL    HW125376   2.844   5.920   2.411
 8159SOL    HW225377   2.987   5.844   2.396
 8160SOL     OW25378   5.395   0.774   3.715
 8160SOL    HW125379   5.401   0.675   3.724
 8160SOL    HW225380   5.310   0.799   3.668
 8161SOL     OW25381   5.348   1.590   6.708
 8161SOL    HW125382   5.286   1.525   6.665
 8161SOL    HW225383   5.346   1.677   6.658
 8162SOL     OW25384   6.059   5.913   5.807
 8162SOL    HW125385   6.104   5.934   5.720
 8162SOL    HW225386   6.127   5.886   5.875
 8163SOL     OW25387   2.744   3.949   5.219
 8163SOL    HW125388   2.762   3.863   5.267
 8163SOL    HW225389   2.647   3.954   5.197
 8164SOL     OW25390   5.115   3.289   0.507
 8164SOL    HW125391   5.174   3.341   0.569
 8164SOL    HW225392   5.026   3.335   0.501
 8165SOL     OW25393   0.984   4.041   6.429
 8165SOL    HW125394   0.890   4.061   6.457
 8165SOL    HW225395   1.047   4.086   6.492
 8166SOL     OW25396   1.406   0.291   2.491
 8166SOL    HW125397   1.352   0.281   2.574
 8166SOL    HW225398   1.369   0.365   2.435
 8167SOL     OW25399   5.953   6.886   4.861
 8167SOL    HW125400   5.868   6.861   4.906
 8167SOL    HW225401   5.957   6.841   4.771
 8168SOL     OW25402   2.270   1.531   3.519
 8168SOL    HW125403   2.230   1.588   3.447
 8168SOL    HW225404   2.208   1.529   3.597
 8169SOL     OW25405   5.399   2.267   0.962
 8169SOL    HW125406   5.346   2.348   0.988
 8169SOL    HW225407   5.376   2.241   0.868
 8170SOL     OW25408   1.363   5.391   2.851
 8170SOL    HW125409   1.436   5.447   2.811
 8170SOL    HW225410   1.328   5.329   2.781
 8171SOL     OW25411   1.327   1.674   6.700
 8171SOL    HW125412   1.392   1.637   6.634
 8171SOL    HW225413   1.240   1.691   6.655
 8172SOL     OW25414   0.705   2.077   1.839
 8172SOL    HW125415   0.630   2.031   1.887
 8172SOL    HW225416   0.775   2.009   1.814
 8173SOL     OW25417   4.994   1.213   2.410
 8173SOL    HW125418   4.949   1.137   2.364
 8173SOL    HW225419   4.961   1.220   2.504
 8174SOL     OW25420   6.251   3.346   0.937
 8174SOL    HW125421   6.275   3.272   1.000
 8174SOL    HW225422   6.161   3.328   0.897
 8175SOL     OW25423   0.003   3.081   6.189
 8175SOL    HW125424   0.014   3.180   6.205
 8175SOL    HW225425   6.953   3.046   6.250
 8176SOL     OW25426   3.032   5.321   2.075
 8176SOL    HW125427   3.080   5.234   2.065
 8176SOL    HW225428   2.945   5.306   2.123
 8177SOL     OW25429   2.747   6.188   4.012
 8177SOL    HW125430   2.810   6.231   4.076
 8177SOL    HW225431   2.656   6.228   4.023
 8178SOL     OW25432   2.838   5.770   6.789
 8178SOL    HW125433   2.762   5.721   6.830
 8178SOL    HW225434   2.917   5.765   6.850
 8179SOL     OW25435   4.799   2.067   5.860
 8179SOL    HW125436   4.704   2.036   5.862
 8179SOL    HW225437   4.818   2.123   5.940
 8180SOL     OW25438   6.177   0.275   5.026
 8180SOL    HW125439   6.141   0.204   4.966
 8180SOL    HW225440   6.202   0.356   4.972
 8181SOL     OW25441   2.107   1.442   1.463
 8181SOL    HW125442   2.112   1.497   1.379
 8181SOL    HW225443   2.199   1.417   1.492
 8182SOL     OW25444   4.038   2.946   6.243
 8182SOL    HW125445   4.005   2.868   6.295
 8182SOL    HW225446   3.963   2.987   6.191
 8183SOL     OW25447   0.315   2.682   4.543
 8183SOL    HW125448   0.251   2.638   4.481
 8183SOL    HW225449   0.265   2.742   4.605
 8184SOL     OW25450   5.288   1.886   5.970
 8184SOL    HW125451   5.193   1.916   5.983
 8184SOL    HW225452   5.289   1.792   5.936
 8185SOL     OW25453   2.410   6.441   0.332
 8185SOL    HW125454   2.437   6.520   0.387
 8185SOL    HW225455   2.315   6.451   0.304
 8186SOL     OW25456   3.327   6.000   6.235
 8186SOL    HW125457   3.339   5.966   6.328
 8186SOL    HW225458   3.379   5.942   6.171
 8187SOL     OW25459   1.429   2.420   5.521
 8187SOL    HW125460   1.500   2.413   5.591
 8187SOL    HW225461   1.450   2.496   5.459
 8188SOL     OW25462   5.756   2.776   2.098
 8188SOL    HW125463   5.702   2.772   2.014
 8188SOL    HW225464   5.697   2.799   2.175
 8189SOL     OW25465   4.534   4.988   2.924
 8189SOL    HW125466   4.448   4.951   2.889
 8189SOL    HW225467   4.524   5.085   2.943
 8190SOL     OW25468   3.921   5.055   4.027
 8190SOL    HW125469   3.883   5.145   4.006
 8190SOL    HW225470   4.012   5.065   4.068
 8191SOL     OW25471   3.489   6.507   2.947
 8191SOL    HW125472   3.536   6.537   2.864
 8191SOL    HW225473   3.472   6.409   2.943
 8192SOL     OW25474   3.759   5.677   1.003
 8192SOL    HW125475   3.801   5.724   1.081
 8192SOL    HW225476   3.828   5.620   0.958
 8193SOL     OW25477   6.579   6.668   4.459
 8193SOL    HW125478   6.510   6.728   4.500
 8193SOL    HW225479   6.650   6.724   4.417
 8194SOL     OW25480   5.937   2.369   1.108
 8194SOL    HW125481   5.952   2.467   1.100
 8194SOL    HW225482   5.946   2.341   1.204
 8195SOL     OW25483   1.036   0.541   1.425
 8195SOL    HW125484   0.953   0.591   1.399
 8195SOL    HW225485   1.050   0.465   1.362
 8196SOL     OW25486   3.580   0.324   5.468
 8196SOL    HW125487   3.574   0.297   5.372
 8196SOL    HW225488   3.489   0.352   5.499
 8197SOL     OW25489   4.155   1.242   6.294
 8197SOL    HW125490   4.160   1.270   6.198
 8197SOL    HW225491   4.228   1.176   6.313
 8198SOL     OW25492   3.300   5.958   3.531
 8198SOL    HW125493   3.395   5.987   3.516
 8198SOL    HW225494   3.271   5.899   3.455
 8199SOL     OW25495   6.192   3.188   6.423
 8199SOL    HW125496   6.291   3.176   6.422
 8199SOL    HW225497   6.157   3.165   6.514
 8200SOL     OW25498   4.445   3.732   1.649
 8200SOL    HW125499   4.412   3.824   1.671
 8200SOL    HW225500   4.375   3.683   1.598
 8201SOL     OW25501   5.891   0.992   4.234
 8201SOL    HW125502   5.856   0.994   4.140
 8201SOL    HW225503   5.874   0.902   4.274
 8202SOL     OW25504   0.551   5.480   4.277
 8202SOL    HW125505   0.599   5.532   4.206
 8202SOL    HW225506   0.462   5.521   4.294
 8203SOL     OW25507   4.805   2.592   0.973
 8203SOL    HW125508   4.803   2.512   0.913
 8203SOL    HW225509   4.728   2.587   1.037
 8204SOL     OW25510   3.318   5.388   0.781
 8204SOL    HW125511   3.415   5.377   0.762
 8204SOL    HW225512   3.297   5.348   0.870
 8205SOL     OW25513   0.458   4.729   1.098
 8205SOL    HW125514   0.530   4.745   1.030
 8205SOL    HW225515   0.388   4.800   1.090
 8206SOL     OW25516   4.466   2.711   6.057
 8206SOL    HW125517   4.446   2.704   5.959
 8206SOL    HW225518   4.493   2.805   6.078
 8207SOL     OW25519   3.764   4.184   5.221
 8207SOL    HW125520   3.751   4.087   5.240
 8207SOL    HW225521   3.720   4.207   5.135
 8208SOL     OW25522   1.900   6.894   1.624
 8208SOL    HW125523   1.925   6.981   1.582
 8208SOL    HW225524   1.978   6.858   1.675
 8209SOL     OW25525   1.235   1.427   6.154
 8209SOL    HW125526   1.143   1.466   6.147
 8209SOL    HW225527   1.303   1.499   6.142
 8210SOL     OW25528   2.738   0.861   1.378
 8210SOL    HW125529   2.730   0.845   1.477
 8210SOL    HW225530   2.647   0.861   1.337
 8211SOL     OW25531   3.410   3.826   3.124
 8211SOL    HW125532   3.477   3.846   3.195
 8211SOL    HW225533   3.362   3.910   3.099
 8212SOL     OW25534   3.464   1.621   0.951
 8212SOL    HW125535   3.375   1.667   0.943
 8212SOL    HW225536   3.493   1.589   0.861
 8213SOL     OW25537   5.161   4.762   2.325
 8213SOL    HW125538   5.121   4.711   2.249
 8213SOL    HW225539   5.132   4.720   2.411
 8214SOL     OW25540   1.307   5.572   4.305
 8214SOL    HW125541   1.270   5.661   4.280
 8214SOL    HW225542   1.233   5.511   4.332
 8215SOL     OW25543   3.638   5.740   6.593
 8215SOL    HW125544   3.656   5.786   6.680
 8215SOL    HW225545   3.612   5.645   6.610
 8216SOL     OW25546   5.043   6.325   3.310
 8216SOL    HW125547   5.079   6.360   3.397
 8216SOL    HW225548   4.975   6.389   3.275
 8217SOL     OW25549   2.149   3.965   2.480
 8217SOL    HW125550   2.176   3.928   2.391
 8217SOL    HW225551   2.143   3.892   2.547
 8218SOL     OW25552   1.206   6.665   4.412
 8218SOL    HW125553   1.229   6.572   4.444
 8218SOL    HW225554   1.107   6.677   4.414
 8219SOL     OW25555   3.541   3.736   1.576
 8219SOL    HW125556   3.631   3.770   1.549
 8219SOL    HW225557   3.547   3.638   1.595
 8220SOL     OW25558   3.373   3.967   5.396
 8220SOL    HW125559   3.283   4.009   5.407
 8220SOL    HW225560   3.369   3.872   5.428
 8221SOL     OW25561   6.184   5.463   3.523
 8221SOL    HW125562   6.178   5.554   3.563
 8221SOL    HW225563   6.278   5.444   3.496
 8222SOL     OW25564   5.023   2.124   1.539
 8222SOL    HW125565   5.053   2.217   1.561
 8222SOL    HW225566   5.097   2.060   1.555
 8223SOL     OW25567   0.370   4.503   5.727
 8223SOL    HW125568   0.382   4.410   5.761
 8223SOL    HW225569   0.285   4.541   5.762
 8224SOL     OW25570   5.368   2.185   1.486
 8224SOL    HW125571   5.343   2.202   1.390
 8224SOL    HW225572   5.400   2.270   1.528
 8225SOL     OW25573   3.406   1.354   1.428
 8225SOL    HW125574   3.420   1.380   1.332
 8225SOL    HW225575   3.465   1.276   1.451
 8226SOL     OW25576   3.342   0.358   0.610
 8226SOL    HW125577   3.314   0.434   0.668
 8226SOL    HW225578   3.277   0.347   0.535
 8227SOL     OW25579   0.338   1.546   2.233
 8227SOL    HW125580   0.337   1.646   2.244
 8227SOL    HW225581   0.248   1.514   2.204
 8228SOL     OW25582   1.207   1.510   5.683
 8228SOL    HW125583   1.132   1.473   5.738
 8228SOL    HW225584   1.230   1.602   5.715
 8229SOL     OW25585   3.822   4.611   1.262
 8229SOL    HW125586   3.812   4.585   1.166
 8229SOL    HW225587   3.733   4.604   1.307
 8230SOL     OW25588   3.866   0.015   5.905
 8230SOL    HW125589   3.810   0.085   5.862
 8230SOL    HW225590   3.943   0.057   5.953
 8231SOL     OW25591   3.432   2.417   1.691
 8231SOL    HW125592   3.528   2.439   1.709
 8231SOL    HW225593   3.413   2.324   1.720
 8232SOL     OW25594   5.827   2.001   2.009
 8232SOL    HW125595   5.926   1.986   2.009
 8232SOL    HW225596   5.781   1.915   2.031
 8233SOL     OW25597   1.339   6.938   6.312
 8233SOL    HW125598   1.405   6.907   6.244
 8233SOL    HW225599   1.247   6.940   6.271
 8234SOL     OW25600   2.770   3.755   0.248
 8234SOL    HW125601   2.785   3.670   0.298
 8234SOL    HW225602   2.825   3.755   0.165
 8235SOL     OW25603   0.181   3.475   6.895
 8235SOL    HW125604   0.206   3.571   6.879
 8235SOL    HW225605   0.089   3.458   6.858
 8236SOL     OW25606   0.061   4.996   6.248
 8236SOL    HW125607   6.987   5.008   6.217
 8236SOL    HW225608   0.110   4.939   6.182
 8237SOL     OW25609   4.806   6.328   6.544
 8237SOL    HW125610   4.846   6.239   6.523
 8237SOL    HW225611   4.774   6.371   6.459
 8238SOL     OW25612   0.204   6.177   6.928
 8238SOL    HW125613   0.235   6.088   6.962
 8238SOL    HW225614   0.235   6.190   6.834
 8239SOL     OW25615   1.098   0.732   4.808
 8239SOL    HW125616   1.055   0.643   4.823
 8239SOL    HW225617   1.188   0.733   4.852
 8240SOL     OW25618   3.015   3.896   3.484
 8240SOL    HW125619   3.072   3.844   3.548
 8240SOL    HW225620   3.044   3.992   3.483
 8241SOL     OW25621   2.409   4.437   6.101
 8241SOL    HW125622   2.430   4.487   6.017
 8241SOL    HW225623   2.458   4.478   6.178
 8242SOL     OW25624   0.384   3.444   4.718
 8242SOL    HW125625   0.305   3.494   4.753
 8242SOL    HW225626   0.433   3.401   4.794
 8243SOL     OW25627   6.778   3.352   1.212
 8243SOL    HW125628   6.723   3.416   1.158
 8243SOL    HW225629   6.734   3.262   1.212
 8244SOL     OW25630   0.526   0.413   4.527
 8244SOL    HW125631   0.509   0.319   4.557
 8244SOL    HW225632   0.450   0.471   4.555
 8245SOL     OW25633   3.773   1.615   2.920
 8245SOL    HW125634   3.760   1.661   3.008
 8245SOL    HW225635   3.796   1.519   2.935
 8246SOL     OW25636   0.281   4.802   6.426
 8246SOL    HW125637   0.205   4.759   6.378
 8246SOL    HW225638   0.270   4.902   6.424
 8247SOL     OW25639   2.025   6.421   3.618
 8247SOL    HW125640   1.945   6.402   3.676
 8247SOL    HW225641   2.064   6.509   3.643
 8248SOL     OW25642   0.623   4.957   5.019
 8248SOL    HW125643   0.669   5.046   5.008
 8248SOL    HW225644   0.691   4.884   5.019
 8249SOL     OW25645   2.104   1.475   5.773
 8249SOL    HW125646   2.150   1.437   5.692
 8249SOL    HW225647   2.073   1.568   5.753
 8250SOL     OW25648   3.178   2.277   0.988
 8250SOL    HW125649   3.263   2.228   1.009
 8250SOL    HW225650   3.122   2.221   0.927
 8251SOL     OW25651   5.296   1.186   4.756
 8251SOL    HW125652   5.259   1.138   4.677
 8251SOL    HW225653   5.396   1.184   4.751
 8252SOL     OW25654   4.100   2.055   0.312
 8252SOL    HW125655   4.028   2.124   0.310
 8252SOL    HW225656   4.060   1.964   0.317
 8253SOL     OW25657   3.790   5.696   0.023
 8253SOL    HW125658   3.727   5.766   7.008
 8253SOL    HW225659   3.853   5.668   6.972
 8254SOL     OW25660   4.999   4.517   5.599
 8254SOL    HW125661   5.084   4.471   5.574
 8254SOL    HW225662   4.962   4.565   5.519
 8255SOL     OW25663   1.380   0.076   5.574
 8255SOL    HW125664   1.417   0.169   5.574
 8255SOL    HW225665   1.444   0.015   5.622
 8256SOL     OW25666   6.912   6.429   2.919
 8256SOL    HW125667   6.817   6.426   2.887
 8256SOL    HW225668   6.921   6.498   2.991
 8257SOL     OW25669   5.437   4.119   4.002
 8257SOL    HW125670   5.515   4.059   3.992
 8257SOL    HW225671   5.468   4.211   4.026
 8258SOL     OW25672   4.862   3.157   1.752
 8258SOL    HW125673   4.792   3.099   1.794
 8258SOL    HW225674   4.946   3.104   1.741
 8259SOL     OW25675   3.720   2.447   5.338
 8259SOL    HW125676   3.779   2.382   5.291
 8259SOL    HW225677   3.650   2.397   5.389
 8260SOL     OW25678   1.822   6.357   1.751
 8260SOL    HW125679   1.824   6.258   1.760
 8260SOL    HW225680   1.731   6.391   1.776
 8261SOL     OW25681   5.585   6.301   3.503
 8261SOL    HW125682   5.523   6.250   3.444
 8261SOL    HW225683   5.537   6.328   3.587
 8262SOL     OW25684   0.703   4.763   0.650
 8262SOL    HW125685   0.793   4.805   0.632
 8262SOL    HW225686   0.707   4.666   0.628
 8263SOL     OW25687   6.668   3.105   6.699
 8263SOL    HW125688   6.731   3.180   6.682
 8263SOL    HW225689   6.704   3.021   6.659
 8264SOL     OW25690   0.921   6.782   1.602
 8264SOL    HW125691   0.879   6.722   1.533
 8264SOL    HW225692   0.916   6.737   1.691
 8265SOL     OW25693   5.081   0.344   1.990
 8265SOL    HW125694   5.048   0.422   2.042
 8265SOL    HW225695   5.036   0.341   1.901
 8266SOL     OW25696   2.534   0.979   4.584
 8266SOL    HW125697   2.493   0.888   4.576
 8266SOL    HW225698   2.579   1.003   4.498
 8267SOL     OW25699   1.636   4.437   1.402
 8267SOL    HW125700   1.536   4.436   1.401
 8267SOL    HW225701   1.668   4.519   1.450
 8268SOL     OW25702   3.518   5.476   6.145
 8268SOL    HW125703   3.546   5.492   6.051
 8268SOL    HW225704   3.491   5.562   6.188
 8269SOL     OW25705   4.252   2.324   2.439
 8269SOL    HW125706   4.255   2.388   2.516
 8269SOL    HW225707   4.171   2.266   2.448
 8270SOL     OW25708   3.144   5.756   5.642
 8270SOL    HW125709   3.159   5.851   5.614
 8270SOL    HW225710   3.061   5.721   5.598
 8271SOL     OW25711   6.388   6.205   3.567
 8271SOL    HW125712   6.293   6.176   3.583
 8271SOL    HW225713   6.441   6.193   3.651
 8272SOL     OW25714   6.689   1.450   2.694
 8272SOL    HW125715   6.779   1.425   2.659
 8272SOL    HW225716   6.696   1.471   2.792
 8273SOL     OW25717   2.821   0.889   0.139
 8273SOL    HW125718   2.771   0.889   0.053
 8273SOL    HW225719   2.912   0.849   0.124
 8274SOL     OW25720   4.120   4.839   5.629
 8274SOL    HW125721   4.218   4.825   5.621
 8274SOL    HW225722   4.073   4.800   5.550
 8275SOL     OW25723   5.860   0.450   4.389
 8275SOL    HW125724   5.899   0.527   4.339
 8275SOL    HW225725   5.912   0.367   4.368
 8276SOL     OW25726   6.598   2.131   5.768
 8276SOL    HW125727   6.615   2.160   5.674
 8276SOL    HW225728   6.624   2.035   5.779
 8277SOL     OW25729   1.770   5.947   5.150
 8277SOL    HW125730   1.777   5.863   5.095
 8277SOL    HW225731   1.715   5.928   5.231
 8278SOL     OW25732   3.404   1.746   6.808
 8278SOL    HW125733   3.363   1.836   6.788
 8278SOL    HW225734   3.479   1.757   6.872
 8279SOL     OW25735   6.338   6.302   5.127
 8279SOL    HW125736   6.305   6.384   5.080
 8279SOL    HW225737   6.418   6.326   5.183
 8280SOL     OW25738   3.960   2.676   0.761
 8280SOL    HW125739   3.878   2.706   0.713
 8280SOL    HW225740   4.008   2.756   0.797
 8281SOL     OW25741   2.265   4.308   2.252
 8281SOL    HW125742   2.308   4.327   2.341
 8281SOL    HW225743   2.217   4.390   2.220
 8282SOL     OW25744   2.718   3.673   6.802
 8282SOL    HW125745   2.694   3.754   6.856
 8282SOL    HW225746   2.813   3.680   6.773
 8283SOL     OW25747   1.359   5.089   4.287
 8283SOL    HW125748   1.410   5.048   4.211
 8283SOL    HW225749   1.302   5.018   4.331
 8284SOL     OW25750   1.768   3.994   2.206
 8284SOL    HW125751   1.822   4.058   2.261
 8284SOL    HW225752   1.827   3.920   2.175
 8285SOL     OW25753   3.997   3.403   5.579
 8285SOL    HW125754   4.085   3.355   5.583
 8285SOL    HW225755   4.007   3.485   5.521
 8286SOL     OW25756   5.540   1.820   4.707
 8286SOL    HW125757   5.535   1.882   4.786
 8286SOL    HW225758   5.531   1.872   4.623
 8287SOL     OW25759   1.327   6.265   3.627
 8287SOL    HW125760   1.305   6.340   3.565
 8287SOL    HW225761   1.243   6.232   3.670
 8288SOL     OW25762   0.856   2.539   2.498
 8288SOL    HW125763   0.952   2.568   2.502
 8288SOL    HW225764   0.800   2.614   2.463
 8289SOL     OW25765   5.821   0.616   6.461
 8289SOL    HW125766   5.851   0.559   6.536
 8289SOL    HW225767   5.726   0.595   6.439
 8290SOL     OW25768   4.861   1.855   1.633
 8290SOL    HW125769   4.925   1.922   1.596
 8290SOL    HW225770   4.771   1.897   1.643
 8291SOL     OW25771   5.971   5.517   6.350
 8291SOL    HW125772   5.895   5.550   6.405
 8291SOL    HW225773   6.011   5.593   6.299
 8292SOL     OW25774   2.740   5.836   6.366
 8292SOL    HW125775   2.807   5.850   6.294
 8292SOL    HW225776   2.695   5.747   6.354
 8293SOL     OW25777   1.541   4.062   1.693
 8293SOL    HW125778   1.446   4.077   1.720
 8293SOL    HW225779   1.574   3.977   1.734
 8294SOL     OW25780   6.201   3.256   4.643
 8294SOL    HW125781   6.264   3.311   4.589
 8294SOL    HW225782   6.108   3.269   4.609
 8295SOL     OW25783   5.147   3.144   2.801
 8295SOL    HW125784   5.098   3.226   2.829
 8295SOL    HW225785   5.229   3.169   2.750
 8296SOL     OW25786   3.346   5.151   0.038
 8296SOL    HW125787   3.342   5.214   0.115
 8296SOL    HW225788   3.384   5.064   0.068
 8297SOL     OW25789   6.538   3.036   2.542
 8297SOL    HW125790   6.466   2.983   2.588
 8297SOL    HW225791   6.513   3.050   2.447
 8298SOL     OW25792   6.971   0.329   0.510
 8298SOL    HW125793   0.027   0.338   0.447
 8298SOL    HW225794   6.908   0.259   0.477
 8299SOL     OW25795   0.446   2.634   0.932
 8299SOL    HW125796   0.523   2.604   0.988
 8299SOL    HW225797   0.395   2.705   0.981
 8300SOL     OW25798   6.568   6.932   4.797
 8300SOL    HW125799   6.664   6.907   4.799
 8300SOL    HW225800   6.522   6.896   4.878
 8301SOL     OW25801   4.767   0.473   6.803
 8301SOL    HW125802   4.796   0.377   6.806
 8301SOL    HW225803   4.769   0.506   6.709
 8302SOL     OW25804   4.898   0.059   5.696
 8302SOL    HW125805   4.894   0.054   5.796
 8302SOL    HW225806   4.985   0.100   5.668
 8303SOL     OW25807   6.872   0.628   3.042
 8303SOL    HW125808   6.952   0.596   2.991
 8303SOL    HW225809   6.858   0.725   3.025
 8304SOL     OW25810   5.699   4.787   1.717
 8304SOL    HW125811   5.675   4.879   1.688
 8304SOL    HW225812   5.720   4.786   1.815
 8305SOL     OW25813   4.069   4.830   4.385
 8305SOL    HW125814   3.997   4.899   4.376
 8305SOL    HW225815   4.067   4.790   4.476
 8306SOL     OW25816   6.715   1.170   3.132
 8306SOL    HW125817   6.749   1.253   3.175
 8306SOL    HW225818   6.647   1.127   3.190
 8307SOL     OW25819   3.325   5.553   1.831
 8307SOL    HW125820   3.308   5.637   1.883
 8307SOL    HW225821   3.260   5.548   1.755
 8308SOL     OW25822   2.093   4.563   0.302
 8308SOL    HW125823   2.153   4.508   0.243
 8308SOL    HW225824   2.149   4.617   0.365
 8309SOL     OW25825   5.658   5.192   2.785
 8309SOL    HW125826   5.712   5.139   2.850
 8309SOL    HW225827   5.611   5.266   2.833
 8310SOL     OW25828   1.083   5.288   0.766
 8310SOL    HW125829   1.118   5.217   0.704
 8310SOL    HW225830   1.136   5.372   0.754
 8311SOL     OW25831   5.664   0.733   4.589
 8311SOL    HW125832   5.641   0.810   4.648
 8311SOL    HW225833   5.581   0.696   4.548
 8312SOL     OW25834   5.496   1.261   6.868
 8312SOL    HW125835   5.443   1.278   6.784
 8312SOL    HW225836   5.560   1.187   6.851
 8313SOL     OW25837   4.955   0.475   5.808
 8313SOL    HW125838   4.994   0.477   5.900
 8313SOL    HW225839   5.026   0.494   5.740
 8314SOL     OW25840   5.997   6.504   6.471
 8314SOL    HW125841   6.035   6.556   6.394
 8314SOL    HW225842   5.943   6.565   6.529
 8315SOL     OW25843   3.927   3.151   2.853
 8315SOL    HW125844   4.002   3.162   2.917
 8315SOL    HW225845   3.859   3.088   2.891
 8316SOL     OW25846   1.975   3.415   0.786
 8316SOL    HW125847   1.934   3.372   0.867
 8316SOL    HW225848   2.074   3.399   0.788
 8317SOL     OW25849   2.192   2.001   3.224
 8317SOL    HW125850   2.185   2.100   3.235
 8317SOL    HW225851   2.100   1.961   3.223
 8318SOL     OW25852   4.092   1.692   5.599
 8318SOL    HW125853   4.142   1.676   5.684
 8318SOL    HW225854   4.075   1.790   5.588
 8319SOL     OW25855   1.540   0.311   7.016
 8319SOL    HW125856   1.597   0.344   6.941
 8319SOL    HW225857   1.513   0.388   0.053
 8320SOL     OW25858   3.378   4.091   3.333
 8320SOL    HW125859   3.350   4.105   3.428
 8320SOL    HW225860   3.466   4.044   3.331
 8321SOL     OW25861   0.034   0.142   6.380
 8321SOL    HW125862   0.092   0.115   6.457
 8321SOL    HW225863   0.086   0.200   6.317
 8322SOL     OW25864   0.038   1.695   0.235
 8322SOL    HW125865   6.981   1.758   0.224
 8322SOL    HW225866   0.114   1.743   0.279
 8323SOL     OW25867   3.374   5.043   1.412
 8323SOL    HW125868   3.435   4.992   1.472
 8323SOL    HW225869   3.296   4.986   1.388
 8324SOL     OW25870   5.124   0.289   0.497
 8324SOL    HW125871   5.045   0.231   0.478
 8324SOL    HW225872   5.136   0.355   0.424
 8325SOL     OW25873   0.514   4.041   5.407
 8325SOL    HW125874   0.507   3.941   5.413
 8325SOL    HW225875   0.531   4.068   5.312
 8326SOL     OW25876   4.291   4.263   6.713
 8326SOL    HW125877   4.268   4.170   6.687
 8326SOL    HW225878   4.243   4.327   6.653
 8327SOL     OW25879   0.866   0.610   5.829
 8327SOL    HW125880   0.780   0.560   5.829
 8327SOL    HW225881   0.866   0.677   5.902
 8328SOL     OW25882   2.451   6.846   6.426
 8328SOL    HW125883   2.410   6.789   6.355
 8328SOL    HW225884   2.550   6.849   6.414
 8329SOL     OW25885   0.287   2.072   5.145
 8329SOL    HW125886   0.222   2.002   5.115
 8329SOL    HW225887   0.318   2.125   5.066
 8330SOL     OW25888   3.603   1.484   6.849
 8330SOL    HW125889   3.613   1.486   6.750
 8330SOL    HW225890   3.598   1.577   6.884
 8331SOL     OW25891   3.449   0.793   0.635
 8331SOL    HW125892   3.508   0.845   0.574
 8331SOL    HW225893   3.361   0.839   0.644
 8332SOL     OW25894   5.641   5.216   1.955
 8332SOL    HW125895   5.721   5.247   2.007
 8332SOL    HW225896   5.595   5.143   2.005
 8333SOL     OW25897   1.711   4.699   6.735
 8333SOL    HW125898   1.781   4.670   6.670
 8333SOL    HW225899   1.634   4.740   6.686
 8334SOL     OW25900   2.782   2.596   5.598
 8334SOL    HW125901   2.772   2.618   5.696
 8334SOL    HW225902   2.834   2.511   5.588
 8335SOL     OW25903   3.731   2.101   0.138
 8335SOL    HW125904   3.773   2.188   0.162
 8335SOL    HW225905   3.777   2.062   0.059
 8336SOL     OW25906   0.983   4.076   2.895
 8336SOL    HW125907   0.961   4.023   2.977
 8336SOL    HW225908   0.956   4.023   2.814
 8337SOL     OW25909   7.019   0.120   4.053
 8337SOL    HW125910   6.955   0.045   4.035
 8337SOL    HW225911   6.978   0.184   4.118
 8338SOL     OW25912   3.729   5.630   1.941
 8338SOL    HW125913   3.813   5.582   1.917
 8338SOL    HW225914   3.742   5.728   1.927
 8339SOL     OW25915   0.304   0.889   1.506
 8339SOL    HW125916   0.259   0.843   1.429
 8339SOL    HW225917   0.359   0.823   1.557
 8340SOL     OW25918   5.331   4.017   0.637
 8340SOL    HW125919   5.246   4.065   0.615
 8340SOL    HW225920   5.409   4.074   0.611
 8341SOL     OW25921   3.810   0.350   0.006
 8341SOL    HW125922   3.910   0.352   0.014
 8341SOL    HW225923   3.776   0.260   0.032
 8342SOL     OW25924   4.080   6.848   0.696
 8342SOL    HW125925   4.108   6.774   0.757
 8342SOL    HW225926   3.981   6.842   0.679
 8343SOL     OW25927   6.867   5.373   3.631
 8343SOL    HW125928   6.830   5.308   3.565
 8343SOL    HW225929   6.815   5.458   3.629
 8344SOL     OW25930   6.703   4.507   4.789
 8344SOL    HW125931   6.737   4.472   4.701
 8344SOL    HW225932   6.617   4.461   4.812
 8345SOL     OW25933   4.394   2.247   3.458
 8345SOL    HW125934   4.447   2.319   3.414
 8345SOL    HW225935   4.382   2.171   3.394
 8346SOL     OW25936   3.831   3.792   6.260
 8346SOL    HW125937   3.850   3.802   6.162
 8346SOL    HW225938   3.912   3.756   6.306
 8347SOL     OW25939   3.299   6.717   6.048
 8347SOL    HW125940   3.294   6.635   5.992
 8347SOL    HW225941   3.392   6.728   6.082
 8348SOL     OW25942   2.174   0.857   1.493
 8348SOL    HW125943   2.145   0.764   1.517
 8348SOL    HW225944   2.094   0.915   1.480
 8349SOL     OW25945   1.252   6.496   1.930
 8349SOL    HW125946   1.259   6.549   2.014
 8349SOL    HW225947   1.221   6.555   1.856
 8350SOL     OW25948   3.204   6.763   6.420
 8350SOL    HW125949   3.170   6.836   6.360
 8350SOL    HW225950   3.169   6.675   6.389
 8351SOL     OW25951   5.778   5.328   4.460
 8351SOL    HW125952   5.735   5.267   4.393
 8351SOL    HW225953   5.808   5.412   4.415
 8352SOL     OW25954   1.549   6.915   2.843
 8352SOL    HW125955   1.601   6.995   2.815
 8352SOL    HW225956   1.454   6.940   2.857
 8353SOL     OW25957   0.414   3.822   0.741
 8353SOL    HW125958   0.479   3.754   0.777
 8353SOL    HW225959   0.435   3.911   0.780
 8354SOL     OW25960   3.430   0.073   4.001
 8354SOL    HW125961   3.392   0.122   3.923
 8354SOL    HW225962   3.368   0.082   4.079
 8355SOL     OW25963   1.794   1.165   4.812
 8355SOL    HW125964   1.829   1.220   4.736
 8355SOL    HW225965   1.741   1.223   4.874
 8356SOL     OW25966   1.303   5.721   1.382
 8356SOL    HW125967   1.378   5.784   1.401
 8356SOL    HW225968   1.217   5.759   1.417
 8357SOL     OW25969   3.921   6.921   5.641
 8357SOL    HW125970   3.992   6.871   5.691
 8357SOL    HW225971   3.859   6.965   5.706
 8358SOL     OW25972   1.191   2.802   4.341
 8358SOL    HW125973   1.196   2.802   4.241
 8358SOL    HW225974   1.238   2.883   4.376
 8359SOL     OW25975   2.712   1.815   5.114
 8359SOL    HW125976   2.725   1.722   5.146
 8359SOL    HW225977   2.711   1.816   5.014
 8360SOL     OW25978   4.794   0.249   1.176
 8360SOL    HW125979   4.802   0.302   1.092
 8360SOL    HW225980   4.882   0.205   1.196
 8361SOL     OW25981   3.753   0.551   0.481
 8361SOL    HW125982   3.850   0.572   0.463
 8361SOL    HW225983   3.746   0.489   0.558
 8362SOL     OW25984   5.689   2.010   0.789
 8362SOL    HW125985   5.642   2.054   0.713
 8362SOL    HW225986   5.635   2.021   0.873
 8363SOL     OW25987   5.196   2.094   0.519
 8363SOL    HW125988   5.137   2.089   0.438
 8363SOL    HW225989   5.173   2.019   0.581
 8364SOL     OW25990   0.067   2.864   4.061
 8364SOL    HW125991   0.028   2.826   3.978
 8364SOL    HW225992   0.006   2.935   4.098
 8365SOL     OW25993   1.415   2.241   2.649
 8365SOL    HW125994   1.361   2.160   2.627
 8365SOL    HW225995   1.448   2.283   2.565
 8366SOL     OW25996   3.550   5.538   1.099
 8366SOL    HW125997   3.597   5.456   1.132
 8366SOL    HW225998   3.618   5.602   1.061
 8367SOL     OW25999   3.462   5.617   5.062
 8367SOL    HW126000   3.528   5.583   5.130
 8367SOL    HW226001   3.381   5.651   5.109
 8368SOL     OW26002   0.931   5.869   0.210
 8368SOL    HW126003   0.834   5.878   0.187
 8368SOL    HW226004   0.986   5.869   0.125
 8369SOL     OW26005   0.766   0.727   6.648
 8369SOL    HW126006   0.818   0.685   6.722
 8369SOL    HW226007   0.670   0.701   6.656
 8370SOL     OW26008   2.509   1.233   6.030
 8370SOL    HW126009   2.562   1.317   6.016
 8370SOL    HW226010   2.422   1.239   5.981
 8371SOL     OW26011   2.576   3.483   6.938
 8371SOL    HW126012   2.635   3.544   6.885
 8371SOL    HW226013   2.624   3.454   0.000
 8372SOL     OW26014   1.567   5.833   1.666
 8372SOL    HW126015   1.536   5.800   1.755
 8372SOL    HW226016   1.652   5.883   1.677
 8373SOL     OW26017   1.899   0.117   4.559
 8373SOL    HW126018   1.914   0.021   4.586
 8373SOL    HW226019   1.883   0.172   4.641
 8374SOL     OW26020   0.300   0.133   4.871
 8374SOL    HW126021   0.319   0.229   4.849
 8374SOL    HW226022   0.207   0.110   4.842
 8375SOL     OW26023   3.364   6.527   5.875
 8375SOL    HW126024   3.371   6.562   5.781
 8375SOL    HW226025   3.453   6.491   5.903
 8376SOL     OW26026   1.542   1.019   3.855
 8376SOL    HW126027   1.641   1.034   3.856
 8376SOL    HW226028   1.513   0.990   3.763
 8377SOL     OW26029   5.736   6.011   0.134
 8377SOL    HW126030   5.721   5.927   0.187
 8377SOL    HW226031   5.769   6.083   0.194
 8378SOL     OW26032   3.891   5.226   3.524
 8378SOL    HW126033   3.854   5.319   3.533
 8378SOL    HW226034   3.827   5.161   3.565
 8379SOL     OW26035   4.883   2.790   1.971
 8379SOL    HW126036   4.964   2.819   2.023
 8379SOL    HW226037   4.832   2.871   1.941
 8380SOL     OW26038   0.209   6.972   0.106
 8380SOL    HW126039   0.270   6.896   0.128
 8380SOL    HW226040   0.240   7.017   0.022
 8381SOL     OW26041   0.086   2.529   3.373
 8381SOL    HW126042   0.047   2.521   3.281
 8381SOL    HW226043   0.161   2.594   3.372
 8382SOL     OW26044   2.203   6.545   1.590
 8382SOL    HW126045   2.221   6.479   1.517
 8382SOL    HW226046   2.186   6.635   1.550
 8383SOL     OW26047   2.971   6.667   5.683
 8383SOL    HW126048   2.981   6.757   5.641
 8383SOL    HW226049   3.025   6.663   5.767
 8384SOL     OW26050   6.793   1.651   0.823
 8384SOL    HW126051   6.721   1.697   0.875
 8384SOL    HW226052   6.851   1.719   0.779
 8385SOL     OW26053   4.496   2.131   0.559
 8385SOL    HW126054   4.468   2.177   0.475
 8385SOL    HW226055   4.445   2.170   0.637
 8386SOL     OW26056   2.003   5.808   1.190
 8386SOL    HW126057   1.986   5.787   1.286
 8386SOL    HW226058   2.085   5.760   1.159
 8387SOL     OW26059   1.596   2.212   1.495
 8387SOL    HW126060   1.527   2.145   1.522
 8387SOL    HW226061   1.562   2.266   1.418
 8388SOL     OW26062   1.504   6.450   1.268
 8388SOL    HW126063   1.575   6.435   1.199
 8388SOL    HW226064   1.543   6.501   1.345
 8389SOL     OW26065   0.179   3.278   4.311
 8389SOL    HW126066   0.186   3.180   4.292
 8389SOL    HW226067   0.115   3.321   4.247
 8390SOL     OW26068   3.814   6.654   0.036
 8390SOL    HW126069   3.856   6.573   7.016
 8390SOL    HW226070   3.734   6.626   0.090
 8391SOL     OW26071   4.606   4.895   1.036
 8391SOL    HW126072   4.516   4.865   1.005
 8391SOL    HW226073   4.647   4.825   1.094
 8392SOL     OW26074   6.709   5.316   5.285
 8392SOL    HW126075   6.630   5.287   5.340
 8392SOL    HW226076   6.686   5.309   5.188
 8393SOL     OW26077   0.132   0.031   3.764
 8393SOL    HW126078   0.127   0.127   3.792
 8393SOL    HW226079   0.144   0.026   3.665
 8394SOL     OW26080   6.973   2.893   1.746
 8394SOL    HW126081   0.029   2.844   1.706
 8394SOL    HW226082   6.891   2.878   1.690
 8395SOL     OW26083   1.496   5.885   4.066
 8395SOL    HW126084   1.425   5.828   4.108
 8395SOL    HW226085   1.585   5.845   4.084
 8396SOL     OW26086   4.307   4.650   2.219
 8396SOL    HW126087   4.328   4.601   2.304
 8396SOL    HW226088   4.214   4.684   2.222
 8397SOL     OW26089   2.527   1.020   3.355
 8397SOL    HW126090   2.434   1.055   3.366
 8397SOL    HW226091   2.592   1.096   3.357
 8398SOL     OW26092   4.102   2.497   6.524
 8398SOL    HW126093   4.190   2.521   6.483
 8398SOL    HW226094   4.028   2.534   6.467
 8399SOL     OW26095   5.986   0.054   0.171
 8399SOL    HW126096   5.949   0.066   0.079
 8399SOL    HW226097   6.044   6.993   0.172
 8400SOL     OW26098   1.123   0.324   4.242
 8400SOL    HW126099   1.117   0.402   4.179
 8400SOL    HW226100   1.216   0.287   4.241
 8401SOL     OW26101   3.391   2.015   6.431
 8401SOL    HW126102   3.413   2.005   6.334
 8401SOL    HW226103   3.474   2.036   6.482
 8402SOL     OW26104   4.035   1.945   5.528
 8402SOL    HW126105   3.991   1.965   5.440
 8402SOL    HW226106   4.131   1.971   5.524
 8403SOL     OW26107   0.830   1.787   2.936
 8403SOL    HW126108   0.926   1.758   2.937
 8403SOL    HW226109   0.787   1.763   3.023
 8404SOL     OW26110   4.362   5.796   6.527
 8404SOL    HW126111   4.431   5.868   6.525
 8404SOL    HW226112   4.377   5.737   6.607
 8405SOL     OW26113   2.520   1.173   5.693
 8405SOL    HW126114   2.481   1.202   5.606
 8405SOL    HW226115   2.536   1.253   5.751
 8406SOL     OW26116   4.739   6.913   0.813
 8406SOL    HW126117   4.773   6.876   0.726
 8406SOL    HW226118   4.695   7.001   0.796
 8407SOL     OW26119   4.713   6.394   4.234
 8407SOL    HW126120   4.745   6.480   4.273
 8407SOL    HW226121   4.771   6.319   4.265
 8408SOL     OW26122   5.064   2.976   2.425
 8408SOL    HW126123   5.016   2.975   2.513
 8408SOL    HW226124   5.065   3.069   2.388
 8409SOL     OW26125   6.072   3.181   3.488
 8409SOL    HW126126   6.125   3.238   3.425
 8409SOL    HW226127   6.035   3.102   3.438
 8410SOL     OW26128   4.903   0.722   1.484
 8410SOL    HW126129   4.988   0.756   1.525
 8410SOL    HW226130   4.866   0.791   1.423
 8411SOL     OW26131   1.191   5.272   6.074
 8411SOL    HW126132   1.142   5.188   6.052
 8411SOL    HW226133   1.124   5.345   6.092
 8412SOL     OW26134   4.132   1.932   2.284
 8412SOL    HW126135   4.091   1.922   2.193
 8412SOL    HW226136   4.231   1.944   2.274
 8413SOL     OW26137   4.386   4.907   6.971
 8413SOL    HW126138   4.304   4.850   6.979
 8413SOL    HW226139   4.371   4.995   7.016
 8414SOL     OW26140   4.558   5.376   3.445
 8414SOL    HW126141   4.623   5.452   3.444
 8414SOL    HW226142   4.571   5.323   3.530
 8415SOL     OW26143   6.484   5.233   3.845
 8415SOL    HW126144   6.438   5.301   3.788
 8415SOL    HW226145   6.418   5.190   3.906
 8416SOL     OW26146   5.142   4.115   2.883
 8416SOL    HW126147   5.160   4.081   2.790
 8416SOL    HW226148   5.227   4.112   2.936
 8417SOL     OW26149   1.513   4.989   6.216
 8417SOL    HW126150   1.598   4.947   6.185
 8417SOL    HW226151   1.437   4.925   6.202
 8418SOL     OW26152   6.359   5.348   1.202
 8418SOL    HW126153   6.295   5.364   1.277
 8418SOL    HW226154   6.396   5.256   1.208
 8419SOL     OW26155   5.564   1.292   2.768
 8419SOL    HW126156   5.592   1.349   2.845
 8419SOL    HW226157   5.471   1.260   2.782
 8420SOL     OW26158   4.121   0.134   1.020
 8420SOL    HW126159   4.131   0.058   0.956
 8420SOL    HW226160   4.206   0.148   1.070
 8421SOL     OW26161   3.107   5.865   0.761
 8421SOL    HW126162   3.186   5.896   0.814
 8421SOL    HW226163   3.135   5.792   0.698
 8422SOL     OW26164   4.031   0.924   1.348
 8422SOL    HW126165   4.071   0.845   1.302
 8422SOL    HW226166   4.086   1.005   1.328
 8423SOL     OW26167   3.578   4.734   5.690
 8423SOL    HW126168   3.517   4.788   5.749
 8423SOL    HW226169   3.571   4.766   5.596
 8424SOL     OW26170   2.517   2.519   2.694
 8424SOL    HW126171   2.564   2.576   2.762
 8424SOL    HW226172   2.488   2.576   2.618
 8425SOL     OW26173   5.758   5.815   0.632
 8425SOL    HW126174   5.835   5.753   0.648
 8425SOL    HW226175   5.782   5.907   0.662
 8426SOL     OW26176   2.998   3.225   4.296
 8426SOL    HW126177   3.061   3.158   4.255
 8426SOL    HW226178   2.976   3.296   4.229
 8427SOL     OW26179   2.557   3.650   5.579
 8427SOL    HW126180   2.647   3.690   5.561
 8427SOL    HW226181   2.546   3.635   5.678
 8428SOL     OW26182   0.347   4.058   1.987
 8428SOL    HW126183   0.376   4.035   1.894
 8428SOL    HW226184   0.397   4.139   2.019
 8429SOL     OW26185   2.233   4.198   3.527
 8429SOL    HW126186   2.301   4.270   3.512
 8429SOL    HW226187   2.195   4.207   3.619
 8430SOL     OW26188   3.674   5.990   4.407
 8430SOL    HW126189   3.601   5.982   4.474
 8430SOL    HW226190   3.759   6.018   4.453
 8431SOL     OW26191   2.943   5.295   0.857
 8431SOL    HW126192   2.880   5.301   0.934
 8431SOL    HW226193   2.939   5.380   0.804
 8432SOL     OW26194   5.370   6.680   6.184
 8432SOL    HW126195   5.429   6.758   6.162
 8432SOL    HW226196   5.422   6.596   6.179
 8433SOL     OW26197   6.349   2.371   0.526
 8433SOL    HW126198   6.439   2.332   0.544
 8433SOL    HW226199   6.336   2.454   0.580
 8434SOL     OW26200   3.305   6.773   5.307
 8434SOL    HW126201   3.384   6.749   5.250
 8434SOL    HW226202   3.246   6.693   5.317
 8435SOL     OW26203   5.616   0.648   1.146
 8435SOL    HW126204   5.576   0.574   1.092
 8435SOL    HW226205   5.692   0.689   1.095
 8436SOL     OW26206   3.363   6.900   4.355
 8436SOL    HW126207   3.325   6.983   4.314
 8436SOL    HW226208   3.312   6.820   4.322
 8437SOL     OW26209   1.459   0.095   3.569
 8437SOL    HW126210   1.428   0.100   3.664
 8437SOL    HW226211   1.475   7.020   3.544
 8438SOL     OW26212   2.648   5.013   2.285
 8438SOL    HW126213   2.598   4.990   2.368
 8438SOL    HW226214   2.625   4.949   2.213
 8439SOL     OW26215   6.635   5.206   1.666
 8439SOL    HW126216   6.598   5.225   1.756
 8439SOL    HW226217   6.638   5.291   1.612
 8440SOL     OW26218   0.804   1.687   3.704
 8440SOL    HW126219   0.810   1.625   3.626
 8440SOL    HW226220   0.894   1.726   3.723
 8441SOL     OW26221   5.617   6.273   0.020
 8441SOL    HW126222   5.570   6.314   6.963
 8441SOL    HW226223   5.677   6.199   7.009
 8442SOL     OW26224   3.175   2.686   5.552
 8442SOL    HW126225   3.093   2.740   5.572
 8442SOL    HW226226   3.252   2.722   5.605
 8443SOL     OW26227   1.558   6.311   3.775
 8443SOL    HW126228   1.620   6.336   3.701
 8443SOL    HW226229   1.467   6.292   3.737
 8444SOL     OW26230   3.455   5.858   4.064
 8444SOL    HW126231   3.401   5.847   4.147
 8444SOL    HW226232   3.395   5.861   3.984
 8445SOL     OW26233   3.555   5.609   1.678
 8445SOL    HW126234   3.618   5.686   1.682
 8445SOL    HW226235   3.488   5.617   1.752
 8446SOL     OW26236   4.530   5.160   6.873
 8446SOL    HW126237   4.624   5.193   6.885
 8446SOL    HW226238   4.523   5.112   6.785
 8447SOL     OW26239   5.577   2.472   2.165
 8447SOL    HW126240   5.530   2.506   2.247
 8447SOL    HW226241   5.596   2.374   2.175
 8448SOL     OW26242   5.659   5.165   4.265
 8448SOL    HW126243   5.587   5.123   4.209
 8448SOL    HW226244   5.663   5.120   4.354
 8449SOL     OW26245   6.418   2.837   4.047
 8449SOL    HW126246   6.391   2.920   3.999
 8449SOL    HW226247   6.400   2.758   3.990
 8450SOL     OW26248   1.269   5.568   2.310
 8450SOL    HW126249   1.279   5.667   2.310
 8450SOL    HW226250   1.178   5.543   2.342
 8451SOL     OW26251   4.725   2.908   0.777
 8451SOL    HW126252   4.627   2.927   0.768
 8451SOL    HW226253   4.739   2.812   0.802
 8452SOL     OW26254   6.600   1.228   2.480
 8452SOL    HW126255   6.549   1.260   2.401
 8452SOL    HW226256   6.605   1.300   2.548
 8453SOL     OW26257   6.865   3.927   6.568
 8453SOL    HW126258   6.927   3.990   6.615
 8453SOL    HW226259   6.790   3.979   6.527
 8454SOL     OW26260   0.302   6.215   0.885
 8454SOL    HW126261   0.371   6.220   0.814
 8454SOL    HW226262   0.273   6.308   0.911
 8455SOL     OW26263   5.495   2.081   1.733
 8455SOL    HW126264   5.585   2.116   1.759
 8455SOL    HW226265   5.453   2.144   1.667
 8456SOL     OW26266   4.521   5.231   3.017
 8456SOL    HW126267   4.604   5.287   3.024
 8456SOL    HW226268   4.474   5.231   3.105
 8457SOL     OW26269   0.014   6.555   5.058
 8457SOL    HW126270   0.080   6.617   5.101
 8457SOL    HW226271   0.058   6.469   5.036
 8458SOL     OW26272   2.535   1.114   6.815
 8458SOL    HW126273   2.597   1.037   6.828
 8458SOL    HW226274   2.442   1.080   6.798
 8459SOL     OW26275   3.410   6.242   1.890
 8459SOL    HW126276   3.367   6.273   1.975
 8459SOL    HW226277   3.410   6.316   1.824
 8460SOL     OW26278   4.653   2.632   5.571
 8460SOL    HW126279   4.596   2.552   5.588
 8460SOL    HW226280   4.735   2.628   5.628
 8461SOL     OW26281   0.437   4.187   3.226
 8461SOL    HW126282   0.415   4.189   3.129
 8461SOL    HW226283   0.355   4.206   3.280
 8462SOL     OW26284   3.694   2.388   0.695
 8462SOL    HW126285   3.764   2.402   0.764
 8462SOL    HW226286   3.701   2.295   0.658
 8463SOL     OW26287   5.937   0.213   0.393
 8463SOL    HW126288   5.941   0.137   0.329
 8463SOL    HW226289   6.018   0.212   0.452
 8464SOL     OW26290   5.688   3.300   5.887
 8464SOL    HW126291   5.730   3.214   5.857
 8464SOL    HW226292   5.595   3.306   5.853
 8465SOL     OW26293   1.786   2.686   0.936
 8465SOL    HW126294   1.802   2.603   0.989
 8465SOL    HW226295   1.784   2.765   0.998
 8466SOL     OW26296   0.300   6.975   5.226
 8466SOL    HW126297   0.346   0.028   5.178
 8466SOL    HW226298   0.204   7.000   5.243
 8467SOL     OW26299   3.793   0.527   1.470
 8467SOL    HW126300   3.741   0.474   1.537
 8467SOL    HW226301   3.829   0.466   1.400
 8468SOL     OW26302   4.787   2.610   0.662
 8468SOL    HW126303   4.717   2.543   0.690
 8468SOL    HW226304   4.840   2.572   0.586
 8469SOL     OW26305   2.993   1.585   5.456
 8469SOL    HW126306   3.025   1.593   5.551
 8469SOL    HW226307   3.060   1.627   5.395
 8470SOL     OW26308   0.447   4.791   0.175
 8470SOL    HW126309   0.397   4.756   0.254
 8470SOL    HW226310   0.383   4.814   0.102
 8471SOL     OW26311   4.227   0.601   4.546
 8471SOL    HW126312   4.262   0.603   4.640
 8471SOL    HW226313   4.192   0.509   4.526
 8472SOL     OW26314   6.560   0.772   5.452
 8472SOL    HW126315   6.480   0.832   5.447
 8472SOL    HW226316   6.543   0.690   5.398
 8473SOL     OW26317   6.644   5.925   1.041
 8473SOL    HW126318   6.650   5.881   0.951
 8473SOL    HW226319   6.703   5.878   1.106
 8474SOL     OW26320   3.546   3.654   2.365
 8474SOL    HW126321   3.552   3.564   2.321
 8474SOL    HW226322   3.636   3.681   2.398
 8475SOL     OW26323   6.990   2.532   3.127
 8475SOL    HW126324   7.011   2.621   3.087
 8475SOL    HW226325   6.987   2.463   3.056
 8476SOL     OW26326   6.462   1.965   0.639
 8476SOL    HW126327   6.365   1.944   0.643
 8476SOL    HW226328   6.503   1.955   0.729
 8477SOL     OW26329   4.685   6.693   2.559
 8477SOL    HW126330   4.654   6.733   2.646
 8477SOL    HW226331   4.612   6.698   2.492
 8478SOL     OW26332   1.746   6.941   6.177
 8478SOL    HW126333   1.711   6.996   6.252
 8478SOL    HW226334   1.757   6.998   6.095
 8479SOL     OW26335   0.726   2.431   0.855
 8479SOL    HW126336   0.686   2.515   0.818
 8479SOL    HW226337   0.661   2.355   0.842
 8480SOL     OW26338   5.071   2.744   0.302
 8480SOL    HW126339   4.985   2.715   0.343
 8480SOL    HW226340   5.068   2.730   0.203
 8481SOL     OW26341   5.259   2.851   5.028
 8481SOL    HW126342   5.215   2.761   5.037
 8481SOL    HW226343   5.212   2.917   5.087
 8482SOL     OW26344   4.909   6.545   2.440
 8482SOL    HW126345   4.953   6.565   2.352
 8482SOL    HW226346   4.853   6.624   2.467
 8483SOL     OW26347   3.967   6.455   1.781
 8483SOL    HW126348   4.022   6.380   1.819
 8483SOL    HW226349   3.935   6.514   1.855
 8484SOL     OW26350   0.103   6.067   3.645
 8484SOL    HW126351   0.064   6.045   3.556
 8484SOL    HW226352   0.194   6.108   3.632
 8485SOL     OW26353   3.442   2.539   0.323
 8485SOL    HW126354   3.381   2.480   0.271
 8485SOL    HW226355   3.412   2.634   0.315
 8486SOL     OW26356   2.454   1.929   2.176
 8486SOL    HW126357   2.410   1.852   2.130
 8486SOL    HW226358   2.547   1.940   2.143
 8487SOL     OW26359   5.693   1.373   5.531
 8487SOL    HW126360   5.680   1.372   5.432
 8487SOL    HW226361   5.679   1.466   5.566
 8488SOL     OW26362   5.120   6.368   1.066
 8488SOL    HW126363   5.071   6.312   1.000
 8488SOL    HW226364   5.057   6.400   1.137
 8489SOL     OW26365   6.430   1.738   1.715
 8489SOL    HW126366   6.358   1.681   1.674
 8489SOL    HW226367   6.514   1.685   1.721
 8490SOL     OW26368   4.172   6.813   4.908
 8490SOL    HW126369   4.229   6.743   4.866
 8490SOL    HW226370   4.079   6.779   4.919
 8491SOL     OW26371   2.410   5.557   1.577
 8491SOL    HW126372   2.413   5.489   1.503
 8491SOL    HW226373   2.496   5.554   1.628
 8492SOL     OW26374   5.808   3.669   5.194
 8492SOL    HW126375   5.838   3.685   5.100
 8492SOL    HW226376   5.883   3.631   5.247
 8493SOL     OW26377   1.994   2.347   5.941
 8493SOL    HW126378   2.031   2.327   5.850
 8493SOL    HW226379   2.065   2.389   5.997
 8494SOL     OW26380   4.065   5.154   1.314
 8494SOL    HW126381   3.999   5.227   1.296
 8494SOL    HW226382   4.155   5.181   1.280
 8495SOL     OW26383   6.956   4.628   2.035
 8495SOL    HW126384   6.902   4.674   1.965
 8495SOL    HW226385   6.919   4.650   2.125
 8496SOL     OW26386   1.483   2.011   2.462
 8496SOL    HW126387   1.392   2.038   2.430
 8496SOL    HW226388   1.547   2.086   2.446
 8497SOL     OW26389   6.814   0.675   3.717
 8497SOL    HW126390   6.837   0.578   3.726
 8497SOL    HW226391   6.887   0.723   3.669
 8498SOL     OW26392   6.042   6.019   2.935
 8498SOL    HW126393   6.075   6.038   2.843
 8498SOL    HW226394   6.110   6.050   3.002
 8499SOL     OW26395   2.236   3.997   6.765
 8499SOL    HW126396   2.163   4.064   6.776
 8499SOL    HW226397   2.219   3.942   6.683
 8500SOL     OW26398   1.453   5.825   5.527
 8500SOL    HW126399   1.362   5.845   5.492
 8500SOL    HW226400   1.452   5.738   5.576
 8501SOL     OW26401   0.443   2.297   6.923
 8501SOL    HW126402   0.424   2.201   6.900
 8501SOL    HW226403   0.489   2.300   7.012
 8502SOL     OW26404   0.620   3.546   1.143
 8502SOL    HW126405   0.719   3.555   1.155
 8502SOL    HW226406   0.601   3.478   1.073
 8503SOL     OW26407   0.353   6.156   4.285
 8503SOL    HW126408   0.410   6.225   4.240
 8503SOL    HW226409   0.384   6.065   4.258
 8504SOL     OW26410   2.591   4.673   2.917
 8504SOL    HW126411   2.633   4.693   3.006
 8504SOL    HW226412   2.496   4.701   2.917
 8505SOL     OW26413   6.390   3.337   3.468
 8505SOL    HW126414   6.456   3.411   3.456
 8505SOL    HW226415   6.404   3.295   3.558
 8506SOL     OW26416   0.971   0.635   6.837
 8506SOL    HW126417   0.885   0.605   6.878
 8506SOL    HW226418   1.044   0.572   6.863
 8507SOL     OW26419   3.887   0.637   4.447
 8507SOL    HW126420   3.967   0.594   4.405
 8507SOL    HW226421   3.905   0.733   4.464
 8508SOL     OW26422   5.264   1.942   4.970
 8508SOL    HW126423   5.279   1.904   5.062
 8508SOL    HW226424   5.351   1.954   4.924
 8509SOL     OW26425   4.475   0.945   4.344
 8509SOL    HW126426   4.395   0.886   4.339
 8509SOL    HW226427   4.557   0.889   4.353
 8510SOL     OW26428   5.807   4.746   2.542
 8510SOL    HW126429   5.721   4.779   2.501
 8510SOL    HW226430   5.793   4.733   2.640
 8511SOL     OW26431   6.231   4.611   2.453
 8511SOL    HW126432   6.275   4.523   2.471
 8511SOL    HW226433   6.134   4.596   2.432
 8512SOL     OW26434   2.666   1.557   2.726
 8512SOL    HW126435   2.680   1.468   2.769
 8512SOL    HW226436   2.715   1.560   2.639
 8513SOL     OW26437   6.738   5.317   0.720
 8513SOL    HW126438   6.836   5.326   0.707
 8513SOL    HW226439   6.718   5.229   0.763
 8514SOL     OW26440   1.994   2.091   4.061
 8514SOL    HW126441   1.971   1.993   4.055
 8514SOL    HW226442   2.040   2.120   3.977
 8515SOL     OW26443   4.830   2.242   1.333
 8515SOL    HW126444   4.799   2.326   1.377
 8515SOL    HW226445   4.889   2.191   1.396
 8516SOL     OW26446   6.814   1.877   2.008
 8516SOL    HW126447   6.772   1.868   1.918
 8516SOL    HW226448   6.743   1.872   2.078
 8517SOL     OW26449   0.547   2.654   6.255
 8517SOL    HW126450   0.617   2.593   6.292
 8517SOL    HW226451   0.574   2.749   6.272
 8518SOL     OW26452   4.133   4.271   0.046
 8518SOL    HW126453   4.039   4.273   0.079
 8518SOL    HW226454   4.151   4.182   0.004
 8519SOL     OW26455   1.848   4.642   2.412
 8519SOL    HW126456   1.853   4.676   2.506
 8519SOL    HW226457   1.909   4.563   2.402
 8520SOL     OW26458   3.701   2.137   0.598
 8520SOL    HW126459   3.774   2.073   0.620
 8520SOL    HW226460   3.632   2.090   0.543
 8521SOL     OW26461   1.639   4.931   5.740
 8521SOL    HW126462   1.669   4.866   5.810
 8521SOL    HW226463   1.632   4.884   5.652
 8522SOL     OW26464   1.265   5.288   1.498
 8522SOL    HW126465   1.307   5.307   1.587
 8522SOL    HW226466   1.166   5.282   1.509
 8523SOL     OW26467   3.186   0.163   6.407
 8523SOL    HW126468   3.129   0.191   6.484
 8523SOL    HW226469   3.195   0.239   6.343
 8524SOL     OW26470   1.244   1.860   5.140
 8524SOL    HW126471   1.213   1.867   5.234
 8524SOL    HW226472   1.341   1.883   5.135
 8525SOL     OW26473   6.539   4.407   2.749
 8525SOL    HW126474   6.617   4.425   2.809
 8525SOL    HW226475   6.458   4.387   2.805
 8526SOL     OW26476   3.414   4.913   0.148
 8526SOL    HW126477   3.354   4.877   0.220
 8526SOL    HW226478   3.509   4.910   0.178
 8527SOL     OW26479   3.127   0.388   4.941
 8527SOL    HW126480   3.090   0.377   4.849
 8527SOL    HW226481   3.067   0.449   4.993
 8528SOL     OW26482   4.929   2.610   6.279
 8528SOL    HW126483   4.857   2.654   6.225
 8528SOL    HW226484   4.889   2.541   6.339
 8529SOL     OW26485   0.599   6.787   0.558
 8529SOL    HW126486   0.513   6.766   0.511
 8529SOL    HW226487   0.587   6.870   0.612
 8530SOL     OW26488   2.438   4.067   5.420
 8530SOL    HW126489   2.462   4.011   5.341
 8530SOL    HW226490   2.372   4.137   5.393
 8531SOL     OW26491   6.595   4.257   1.592
 8531SOL    HW126492   6.582   4.292   1.499
 8531SOL    HW226493   6.517   4.285   1.649
 8532SOL     OW26494   4.179   5.038   4.565
 8532SOL    HW126495   4.128   5.033   4.479
 8532SOL    HW226496   4.176   5.131   4.600
 8533SOL     OW26497   1.844   0.026   5.923
 8533SOL    HW126498   1.872   0.103   5.980
 8533SOL    HW226499   1.845   0.054   5.827
 8534SOL     OW26500   6.621   3.566   4.036
 8534SOL    HW126501   6.721   3.561   4.035
 8534SOL    HW226502   6.590   3.583   4.130
 8535SOL     OW26503   0.517   2.148   5.282
 8535SOL    HW126504   0.449   2.081   5.252
 8535SOL    HW226505   0.488   2.240   5.256
 8536SOL     OW26506   6.309   1.711   5.175
 8536SOL    HW126507   6.343   1.644   5.240
 8536SOL    HW226508   6.358   1.702   5.088
 8537SOL     OW26509   5.670   1.380   2.529
 8537SOL    HW126510   5.598   1.336   2.584
 8537SOL    HW226511   5.749   1.320   2.524
 8538SOL     OW26512   0.982   1.407   5.810
 8538SOL    HW126513   0.929   1.331   5.773
 8538SOL    HW226514   0.998   1.391   5.908
 8539SOL     OW26515   6.509   1.371   1.523
 8539SOL    HW126516   6.449   1.291   1.519
 8539SOL    HW226517   6.455   1.453   1.504
 8540SOL     OW26518   3.916   1.778   0.363
 8540SOL    HW126519   3.992   1.725   0.400
 8540SOL    HW226520   3.835   1.720   0.358
 8541SOL     OW26521   3.212   2.059   4.479
 8541SOL    HW126522   3.122   2.102   4.474
 8541SOL    HW226523   3.241   2.030   4.387
 8542SOL     OW26524   2.364   4.401   5.773
 8542SOL    HW126525   2.397   4.307   5.768
 8542SOL    HW226526   2.435   4.463   5.738
 8543SOL     OW26527   3.218   1.109   6.629
 8543SOL    HW126528   3.280   1.090   6.553
 8543SOL    HW226529   3.239   1.199   6.667
 8544SOL     OW26530   5.385   2.848   4.537
 8544SOL    HW126531   5.431   2.912   4.476
 8544SOL    HW226532   5.293   2.829   4.503
 8545SOL     OW26533   4.486   0.169   5.363
 8545SOL    HW126534   4.474   0.162   5.462
 8545SOL    HW226535   4.582   0.154   5.339
 8546SOL     OW26536   0.727   0.181   2.478
 8546SOL    HW126537   0.815   0.228   2.471
 8546SOL    HW226538   0.740   0.092   2.521
 8547SOL     OW26539   0.749   6.994   6.673
 8547SOL    HW126540   0.738   6.919   6.739
 8547SOL    HW226541   0.766   0.058   6.723
 8548SOL     OW26542   6.616   3.072   5.930
 8548SOL    HW126543   6.572   3.125   5.857
 8548SOL    HW226544   6.642   3.133   6.004
 8549SOL     OW26545   0.809   2.280   3.991
 8549SOL    HW126546   0.800   2.330   3.905
 8549SOL    HW226547   0.879   2.210   3.982
 8550SOL     OW26548   1.447   4.950   0.300
 8550SOL    HW126549   1.402   4.941   0.388
 8550SOL    HW226550   1.391   5.006   0.239
 8551SOL     OW26551   2.582   2.639   0.111
 8551SOL    HW126552   2.630   2.674   0.031
 8551SOL    HW226553   2.499   2.591   0.082
 8552SOL     OW26554   2.096   0.594   2.794
 8552SOL    HW126555   2.099   0.516   2.855
 8552SOL    HW226556   2.071   0.564   2.702
 8553SOL     OW26557   3.997   4.635   6.538
 8553SOL    HW126558   3.929   4.680   6.595
 8553SOL    HW226559   3.986   4.666   6.443
 8554SOL     OW26560   0.617   5.641   0.606
 8554SOL    HW126561   0.702   5.589   0.618
 8554SOL    HW226562   0.586   5.675   0.695
 8555SOL     OW26563   3.514   0.939   3.472
 8555SOL    HW126564   3.537   1.029   3.434
 8555SOL    HW226565   3.540   0.936   3.568
 8556SOL     OW26566   2.163   6.245   5.070
 8556SOL    HW126567   2.073   6.285   5.052
 8556SOL    HW226568   2.163   6.203   5.161
 8557SOL     OW26569   6.336   6.974   2.221
 8557SOL    HW126570   6.362   0.030   2.161
 8557SOL    HW226571   6.249   6.936   2.190
 8558SOL     OW26572   2.298   5.819   3.606
 8558SOL    HW126573   2.344   5.741   3.649
 8558SOL    HW226574   2.273   5.795   3.511
 8559SOL     OW26575   2.024   6.959   2.565
 8559SOL    HW126576   2.090   6.883   2.564
 8559SOL    HW226577   1.941   6.931   2.516
 8560SOL     OW26578   1.524   5.497   2.404
 8560SOL    HW126579   1.590   5.562   2.366
 8560SOL    HW226580   1.431   5.526   2.380
 8561SOL     OW26581   3.281   0.183   2.788
 8561SOL    HW126582   3.259   0.141   2.700
 8561SOL    HW226583   3.279   0.114   2.860
 8562SOL     OW26584   3.688   6.444   6.782
 8562SOL    HW126585   3.658   6.404   6.695
 8562SOL    HW226586   3.613   6.441   6.848
 8563SOL     OW26587   1.138   5.003   1.821
 8563SOL    HW126588   1.207   4.932   1.810
 8563SOL    HW226589   1.084   4.985   1.904
 8564SOL     OW26590   3.202   0.196   5.134
 8564SOL    HW126591   3.299   0.176   5.121
 8564SOL    HW226592   3.173   0.264   5.067
 8565SOL     OW26593   3.649   5.089   1.002
 8565SOL    HW126594   3.692   5.029   0.934
 8565SOL    HW226595   3.554   5.061   1.016
 8566SOL     OW26596   0.821   0.018   1.634
 8566SOL    HW126597   0.723   0.005   1.648
 8566SOL    HW226598   0.866   6.949   1.629
 8567SOL     OW26599   0.211   2.035   2.233
 8567SOL    HW126600   0.133   1.973   2.242
 8567SOL    HW226601   0.294   1.982   2.219
 8568SOL     OW26602   5.464   2.197   6.952
 8568SOL    HW126603   5.420   2.181   0.020
 8568SOL    HW226604   5.478   2.109   6.905
 8569SOL     OW26605   5.092   1.407   5.456
 8569SOL    HW126606   5.030   1.485   5.444
 8569SOL    HW226607   5.147   1.395   5.373
 8570SOL     OW26608   0.793   1.277   3.889
 8570SOL    HW126609   0.883   1.298   3.851
 8570SOL    HW226610   0.740   1.361   3.897
 8571SOL     OW26611   0.330   6.132   5.890
 8571SOL    HW126612   0.304   6.061   5.955
 8571SOL    HW226613   0.428   6.151   5.898
 8572SOL     OW26614   1.780   4.148   5.789
 8572SOL    HW126615   1.849   4.108   5.849
 8572SOL    HW226616   1.817   4.156   5.697
 8573SOL     OW26617   3.074   5.761   6.459
 8573SOL    HW126618   3.171   5.770   6.482
 8573SOL    HW226619   3.057   5.805   6.371
 8574SOL     OW26620   6.125   6.860   6.562
 8574SOL    HW126621   6.137   6.943   6.506
 8574SOL    HW226622   6.053   6.876   6.629
 8575SOL     OW26623   2.237   2.265   3.281
 8575SOL    HW126624   2.209   2.275   3.376
 8575SOL    HW226625   2.335   2.283   3.273
 8576SOL     OW26626   1.490   4.767   4.533
 8576SOL    HW126627   1.419   4.759   4.462
 8576SOL    HW226628   1.577   4.789   4.490
 8577SOL     OW26629   1.362   6.935   5.344
 8577SOL    HW126630   1.351   6.842   5.378
 8577SOL    HW226631   1.353   7.000   5.420
 8578SOL     OW26632   6.386   5.645   4.828
 8578SOL    HW126633   6.474   5.623   4.787
 8578SOL    HW226634   6.398   5.717   4.896
 8579SOL     OW26635   1.527   6.486   1.714
 8579SOL    HW126636   1.434   6.450   1.713
 8579SOL    HW226637   1.548   6.522   1.804
 8580SOL     OW26638   1.691   5.562   0.531
 8580SOL    HW126639   1.606   5.533   0.575
 8580SOL    HW226640   1.768   5.512   0.572
 8581SOL     OW26641   3.334   4.164   1.667
 8581SOL    HW126642   3.250   4.206   1.702
 8581SOL    HW226643   3.343   4.072   1.705
 8582SOL     OW26644   4.725   4.316   5.200
 8582SOL    HW126645   4.802   4.377   5.185
 8582SOL    HW226646   4.754   4.221   5.189
 8583SOL     OW26647   3.958   0.250   4.353
 8583SOL    HW126648   3.881   0.308   4.381
 8583SOL    HW226649   4.002   0.290   4.273
 8584SOL     OW26650   0.608   6.155   5.923
 8584SOL    HW126651   0.630   6.181   6.017
 8584SOL    HW226652   0.688   6.170   5.865
 8585SOL     OW26653   6.027   1.514   0.229
 8585SOL    HW126654   6.090   1.460   0.173
 8585SOL    HW226655   6.052   1.611   0.224
 8586SOL     OW26656   3.426   6.497   1.709
 8586SOL    HW126657   3.373   6.507   1.625
 8586SOL    HW226658   3.417   6.580   1.764
 8587SOL     OW26659   0.610   0.733   4.655
 8587SOL    HW126660   0.641   0.767   4.566
 8587SOL    HW226661   0.644   0.793   4.727
 8588SOL     OW26662   4.317   1.213   6.954
 8588SOL    HW126663   4.388   1.162   7.002
 8588SOL    HW226664   4.352   1.303   6.928
 8589SOL     OW26665   5.713   2.573   5.502
 8589SOL    HW126666   5.628   2.539   5.463
 8589SOL    HW226667   5.788   2.511   5.478
 8590SOL     OW26668   0.356   0.545   2.594
 8590SOL    HW126669   0.324   0.503   2.679
 8590SOL    HW226670   0.439   0.499   2.562
 8591SOL     OW26671   0.290   4.090   6.815
 8591SOL    HW126672   0.320   4.185   6.823
 8591SOL    HW226673   0.364   4.029   6.843
 8592SOL     OW26674   5.740   2.155   6.694
 8592SOL    HW126675   5.713   2.230   6.755
 8592SOL    HW226676   5.826   2.116   6.726
 8593SOL     OW26677   3.468   0.901   7.018
 8593SOL    HW126678   3.515   0.847   0.067
 8593SOL    HW226679   3.413   0.840   6.960
 8594SOL     OW26680   5.324   2.105   5.507
 8594SOL    HW126681   5.314   2.019   5.558
 8594SOL    HW226682   5.234   2.135   5.475
 8595SOL     OW26683   0.071   1.083   3.717
 8595SOL    HW126684   0.051   1.181   3.714
 8595SOL    HW226685   0.121   1.062   3.801
 8596SOL     OW26686   1.233   4.854   3.267
 8596SOL    HW126687   1.325   4.819   3.286
 8596SOL    HW226688   1.237   4.916   3.188
 8597SOL     OW26689   5.063   1.659   1.929
 8597SOL    HW126690   4.998   1.626   1.861
 8597SOL    HW226691   5.014   1.689   2.011
 8598SOL     OW26692   5.909   0.038   6.920
 8598SOL    HW126693   5.957   0.120   6.887
 8598SOL    HW226694   5.956   6.977   6.888
 8599SOL     OW26695   1.584   1.870   4.300
 8599SOL    HW126696   1.504   1.822   4.264
 8599SOL    HW226697   1.557   1.922   4.381
 8600SOL     OW26698   5.198   3.913   6.424
 8600SOL    HW126699   5.226   3.819   6.446
 8600SOL    HW226700   5.191   3.923   6.325
 8601SOL     OW26701   1.026   1.392   3.746
 8601SOL    HW126702   0.994   1.415   3.654
 8601SOL    HW226703   1.088   1.463   3.778
 8602SOL     OW26704   3.212   6.596   2.847
 8602SOL    HW126705   3.275   6.600   2.769
 8602SOL    HW226706   3.257   6.550   2.924
 8603SOL     OW26707   5.142   6.296   1.357
 8603SOL    HW126708   5.189   6.208   1.345
 8603SOL    HW226709   5.043   6.282   1.354
 8604SOL     OW26710   1.058   2.500   5.397
 8604SOL    HW126711   1.026   2.550   5.316
 8604SOL    HW226712   1.141   2.449   5.374
 8605SOL     OW26713   2.578   5.365   4.320
 8605SOL    HW126714   2.494   5.321   4.352
 8605SOL    HW226715   2.655   5.304   4.336
 8606SOL     OW26716   2.073   2.723   6.725
 8606SOL    HW126717   2.151   2.662   6.715
 8606SOL    HW226718   2.058   2.743   6.821
 8607SOL     OW26719   3.065   4.692   6.074
 8607SOL    HW126720   3.036   4.614   6.130
 8607SOL    HW226721   2.985   4.749   6.054
 8608SOL     OW26722   2.788   4.784   2.767
 8608SOL    HW126723   2.861   4.789   2.836
 8608SOL    HW226724   2.701   4.764   2.812
 8609SOL     OW26725   4.916   0.557   3.239
 8609SOL    HW126726   4.883   0.527   3.329
 8609SOL    HW226727   4.860   0.514   3.167
 8610SOL     OW26728   1.251   1.293   2.753
 8610SOL    HW126729   1.166   1.280   2.806
 8610SOL    HW226730   1.240   1.371   2.691
 8611SOL     OW26731   3.013   1.715   4.452
 8611SOL    HW126732   3.071   1.650   4.403
 8611SOL    HW226733   2.927   1.670   4.477
 8612SOL     OW26734   2.615   3.053   1.200
 8612SOL    HW126735   2.670   3.092   1.274
 8612SOL    HW226736   2.601   3.122   1.129
 8613SOL     OW26737   2.697   1.874   2.060
 8613SOL    HW126738   2.724   1.849   1.967
 8613SOL    HW226739   2.699   1.973   2.070
 8614SOL     OW26740   1.002   2.862   3.885
 8614SOL    HW126741   1.010   2.763   3.897
 8614SOL    HW226742   0.915   2.894   3.921
 8615SOL     OW26743   4.374   2.142   5.031
 8615SOL    HW126744   4.366   2.162   4.934
 8615SOL    HW226745   4.395   2.045   5.044
 8616SOL     OW26746   3.113   4.799   1.901
 8616SOL    HW126747   3.088   4.866   1.971
 8616SOL    HW226748   3.062   4.714   1.915
 8617SOL     OW26749   5.804   1.258   5.107
 8617SOL    HW126750   5.873   1.208   5.054
 8617SOL    HW226751   5.771   1.201   5.182
 8618SOL     OW26752   6.510   4.734   1.074
 8618SOL    HW126753   6.441   4.807   1.082
 8618SOL    HW226754   6.466   4.650   1.043
 8619SOL     OW26755   4.044   5.239   2.017
 8619SOL    HW126756   4.103   5.202   1.946
 8619SOL    HW226757   4.091   5.234   2.105
 8620SOL     OW26758   2.037   6.570   2.869
 8620SOL    HW126759   2.024   6.622   2.954
 8620SOL    HW226760   2.124   6.596   2.827
 8621SOL     OW26761   5.664   2.103   2.399
 8621SOL    HW126762   5.756   2.069   2.415
 8621SOL    HW226763   5.624   2.135   2.485
 8622SOL     OW26764   5.043   3.906   1.309
 8622SOL    HW126765   5.020   3.993   1.266
 8622SOL    HW226766   4.981   3.890   1.386
 8623SOL     OW26767   1.044   3.934   5.006
 8623SOL    HW126768   1.130   3.896   4.972
 8623SOL    HW226769   1.006   3.873   5.076
 8624SOL     OW26770   2.122   3.966   4.593
 8624SOL    HW126771   2.024   3.964   4.617
 8624SOL    HW226772   2.174   3.999   4.671
 8625SOL     OW26773   4.463   1.100   5.964
 8625SOL    HW126774   4.532   1.161   6.002
 8625SOL    HW226775   4.496   1.006   5.966
 8626SOL     OW26776   3.963   2.653   6.781
 8626SOL    HW126777   4.029   2.696   6.842
 8626SOL    HW226778   3.993   2.561   6.759
 8627SOL     OW26779   1.408   1.662   2.229
 8627SOL    HW126780   1.309   1.663   2.216
 8627SOL    HW226781   1.429   1.673   2.326
 8628SOL     OW26782   5.999   6.317   0.252
 8628SOL    HW126783   6.054   6.245   0.210
 8628SOL    HW226784   5.975   6.385   0.183
 8629SOL     OW26785   1.796   6.528   4.943
 8629SOL    HW126786   1.857   6.586   4.998
 8629SOL    HW226787   1.712   6.578   4.921
 8630SOL     OW26788   4.973   3.247   3.900
 8630SOL    HW126789   5.031   3.304   3.840
 8630SOL    HW226790   5.030   3.181   3.948
 8631SOL     OW26791   0.676   5.261   6.488
 8631SOL    HW126792   0.744   5.211   6.543
 8631SOL    HW226793   0.617   5.314   6.549
 8632SOL     OW26794   3.616   4.842   5.219
 8632SOL    HW126795   3.581   4.904   5.290
 8632SOL    HW226796   3.648   4.896   5.141
 8633SOL     OW26797   5.794   2.276   5.982
 8633SOL    HW126798   5.780   2.295   5.885
 8633SOL    HW226799   5.891   2.284   6.004
 8634SOL     OW26800   5.273   4.165   0.174
 8634SOL    HW126801   5.260   4.253   0.219
 8634SOL    HW226802   5.357   4.122   0.208
 8635SOL     OW26803   4.947   3.141   6.361
 8635SOL    HW126804   5.034   3.107   6.396
 8635SOL    HW226805   4.928   3.232   6.398
 8636SOL     OW26806   5.583   5.983   1.021
 8636SOL    HW126807   5.610   6.035   1.102
 8636SOL    HW226808   5.569   6.046   0.945
 8637SOL     OW26809   2.747   0.907   6.871
 8637SOL    HW126810   2.712   0.817   6.843
 8637SOL    HW226811   2.832   0.927   6.822
 8638SOL     OW26812   3.435   2.099   5.028
 8638SOL    HW126813   3.407   2.009   4.997
 8638SOL    HW226814   3.358   2.163   5.019
 8639SOL     OW26815   5.592   2.681   0.286
 8639SOL    HW126816   5.568   2.777   0.301
 8639SOL    HW226817   5.657   2.652   0.357
 8640SOL     OW26818   4.049   3.453   0.059
 8640SOL    HW126819   4.029   3.458   0.157
 8640SOL    HW226820   4.136   3.498   0.040
 8641SOL     OW26821   4.168   4.840   4.142
 8641SOL    HW126822   4.136   4.829   4.236
 8641SOL    HW226823   4.235   4.770   4.121
 8642SOL     OW26824   1.099   6.322   4.746
 8642SOL    HW126825   1.101   6.394   4.676
 8642SOL    HW226826   1.165   6.342   4.818
 8643SOL     OW26827   2.459   0.877   6.025
 8643SOL    HW126828   2.535   0.943   6.027
 8643SOL    HW226829   2.438   0.855   5.930
 8644SOL     OW26830   5.484   2.302   5.798
 8644SOL    HW126831   5.408   2.247   5.834
 8644SOL    HW226832   5.500   2.276   5.702
 8645SOL     OW26833   4.370   4.422   0.986
 8645SOL    HW126834   4.336   4.367   1.063
 8645SOL    HW226835   4.322   4.509   0.982
 8646SOL     OW26836   0.425   1.652   0.186
 8646SOL    HW126837   0.421   1.562   0.143
 8646SOL    HW226838   0.430   1.642   0.285
 8647SOL     OW26839   2.361   4.648   0.099
 8647SOL    HW126840   2.454   4.686   0.104
 8647SOL    HW226841   2.295   4.722   0.093
 8648SOL     OW26842   6.767   0.095   2.591
 8648SOL    HW126843   6.861   0.119   2.567
 8648SOL    HW226844   6.706   0.170   2.567
 8649SOL     OW26845   5.540   5.949   6.633
 8649SOL    HW126846   5.443   5.937   6.609
 8649SOL    HW226847   5.589   5.864   6.612
 8650SOL     OW26848   1.171   5.548   5.025
 8650SOL    HW126849   1.166   5.549   5.125
 8650SOL    HW226850   1.245   5.609   4.995
 8651SOL     OW26851   4.372   1.295   0.583
 8651SOL    HW126852   4.321   1.298   0.497
 8651SOL    HW226853   4.371   1.202   0.620
 8652SOL     OW26854   2.051   5.035   3.388
 8652SOL    HW126855   2.047   4.953   3.445
 8652SOL    HW226856   2.049   5.116   3.446
 8653SOL     OW26857   6.587   0.825   6.249
 8653SOL    HW126858   6.686   0.814   6.241
 8653SOL    HW226859   6.559   0.907   6.199
 8654SOL     OW26860   0.864   4.883   2.380
 8654SOL    HW126861   0.797   4.908   2.309
 8654SOL    HW226862   0.824   4.813   2.440
 8655SOL     OW26863   6.111   0.449   3.993
 8655SOL    HW126864   6.077   0.503   4.069
 8655SOL    HW226865   6.066   0.360   3.991
 8656SOL     OW26866   6.373   0.673   1.909
 8656SOL    HW126867   6.379   0.745   1.978
 8656SOL    HW226868   6.398   0.710   1.819
 8657SOL     OW26869   5.298   6.179   6.943
 8657SOL    HW126870   5.367   6.107   6.936
 8657SOL    HW226871   5.248   6.169   0.009
 8658SOL     OW26872   6.158   6.134   0.153
 8658SOL    HW126873   6.144   6.071   0.077
 8658SOL    HW226874   6.153   6.084   0.239
 8659SOL     OW26875   4.886   2.447   2.280
 8659SOL    HW126876   4.984   2.459   2.268
 8659SOL    HW226877   4.838   2.493   2.205
 8660SOL     OW26878   0.150   3.677   2.084
 8660SOL    HW126879   0.128   3.584   2.055
 8660SOL    HW226880   0.134   3.740   2.007
 8661SOL     OW26881   0.007   4.133   1.562
 8661SOL    HW126882   6.950   4.070   1.561
 8661SOL    HW226883   0.040   4.147   1.469
 8662SOL     OW26884   4.500   5.379   1.715
 8662SOL    HW126885   4.569   5.324   1.763
 8662SOL    HW226886   4.545   5.451   1.663
 8663SOL     OW26887   2.937   5.404   2.504
 8663SOL    HW126888   2.991   5.406   2.420
 8663SOL    HW226889   2.896   5.493   2.520
 8664SOL     OW26890   1.947   5.715   1.443
 8664SOL    HW126891   2.021   5.654   1.471
 8664SOL    HW226892   1.860   5.680   1.478
 8665SOL     OW26893   5.514   5.310   5.085
 8665SOL    HW126894   5.602   5.323   5.039
 8665SOL    HW226895   5.444   5.365   5.040
 8666SOL     OW26896   5.617   0.928   3.710
 8666SOL    HW126897   5.535   0.869   3.709
 8666SOL    HW226898   5.604   1.004   3.646
 8667SOL     OW26899   4.107   1.789   3.890
 8667SOL    HW126900   4.174   1.748   3.952
 8667SOL    HW226901   4.053   1.716   3.847
 8668SOL     OW26902   5.132   3.753   2.997
 8668SOL    HW126903   5.169   3.661   3.014
 8668SOL    HW226904   5.195   3.821   3.034
 8669SOL     OW26905   0.770   6.726   6.550
 8669SOL    HW126906   0.791   6.816   6.588
 8669SOL    HW226907   0.845   6.697   6.491
 8670SOL     OW26908   3.867   5.212   5.877
 8670SOL    HW126909   3.883   5.169   5.966
 8670SOL    HW226910   3.945   5.195   5.817
 8671SOL     OW26911   6.099   1.722   3.479
 8671SOL    HW126912   6.048   1.667   3.545
 8671SOL    HW226913   6.128   1.664   3.403
 8672SOL     OW26914   0.803   5.623   3.676
 8672SOL    HW126915   0.806   5.707   3.622
 8672SOL    HW226916   0.713   5.581   3.669
 8673SOL     OW26917   5.789   2.357   0.145
 8673SOL    HW126918   5.788   2.448   0.104
 8673SOL    HW226919   5.881   2.318   0.136
 8674SOL     OW26920   5.611   5.922   2.652
 8674SOL    HW126921   5.661   5.919   2.565
 8674SOL    HW226922   5.676   5.919   2.728
 8675SOL     OW26923   4.385   1.919   4.606
 8675SOL    HW126924   4.477   1.906   4.643
 8675SOL    HW226925   4.319   1.918   4.680
 8676SOL     OW26926   5.776   6.593   3.289
 8676SOL    HW126927   5.800   6.684   3.255
 8676SOL    HW226928   5.749   6.599   3.385
 8677SOL     OW26929   2.189   5.353   6.466
 8677SOL    HW126930   2.104   5.342   6.519
 8677SOL    HW226931   2.237   5.265   6.462
 8678SOL     OW26932   0.681   0.543   1.034
 8678SOL    HW126933   0.771   0.564   1.071
 8678SOL    HW226934   0.686   0.462   0.977
 8679SOL     OW26935   0.956   1.263   3.307
 8679SOL    HW126936   1.050   1.229   3.307
 8679SOL    HW226937   0.954   1.354   3.348
 8680SOL     OW26938   6.327   3.798   0.328
 8680SOL    HW126939   6.296   3.851   0.249
 8680SOL    HW226940   6.281   3.831   0.410
 8681SOL     OW26941   4.884   5.327   1.352
 8681SOL    HW126942   4.881   5.248   1.291
 8681SOL    HW226943   4.843   5.303   1.440
 8682SOL     OW26944   6.097   0.234   2.565
 8682SOL    HW126945   6.158   0.288   2.624
 8682SOL    HW226946   6.068   0.152   2.614
 8683SOL     OW26947   1.668   2.465   5.186
 8683SOL    HW126948   1.593   2.493   5.246
 8683SOL    HW226949   1.754   2.503   5.220
 8684SOL     OW26950   6.156   2.704   4.208
 8684SOL    HW126951   6.229   2.764   4.241
 8684SOL    HW226952   6.104   2.750   4.136
 8685SOL     OW26953   5.831   2.003   6.085
 8685SOL    HW126954   5.842   2.099   6.062
 8685SOL    HW226955   5.914   1.953   6.060
 8686SOL     OW26956   6.766   0.662   2.347
 8686SOL    HW126957   6.863   0.641   2.362
 8686SOL    HW226958   6.730   0.601   2.276
 8687SOL     OW26959   4.943   5.322   2.449
 8687SOL    HW126960   5.005   5.267   2.505
 8687SOL    HW226961   4.897   5.263   2.383
 8688SOL     OW26962   1.341   5.318   6.389
 8688SOL    HW126963   1.321   5.282   6.297
 8688SOL    HW226964   1.258   5.314   6.445
 8689SOL     OW26965   3.990   2.178   1.215
 8689SOL    HW126966   4.066   2.123   1.181
 8689SOL    HW226967   3.903   2.136   1.187
 8690SOL     OW26968   1.145   3.791   4.054
 8690SOL    HW126969   1.159   3.714   3.992
 8690SOL    HW226970   1.116   3.871   4.002
 8691SOL     OW26971   3.898   1.623   6.657
 8691SOL    HW126972   3.805   1.612   6.623
 8691SOL    HW226973   3.924   1.720   6.653
 8692SOL     OW26974   3.379   1.528   4.402
 8692SOL    HW126975   3.407   1.596   4.470
 8692SOL    HW226976   3.460   1.492   4.355
 8693SOL     OW26977   5.750   6.945   0.239
 8693SOL    HW126978   5.842   6.971   0.211
 8693SOL    HW226979   5.688   6.953   0.161
 8694SOL     OW26980   5.333   1.440   4.917
 8694SOL    HW126981   5.351   1.351   4.875
 8694SOL    HW226982   5.271   1.492   4.857
 8695SOL     OW26983   4.577   3.719   6.027
 8695SOL    HW126984   4.527   3.643   5.986
 8695SOL    HW226985   4.562   3.802   5.974
 8696SOL     OW26986   2.755   5.308   5.140
 8696SOL    HW126987   2.723   5.340   5.229
 8696SOL    HW226988   2.839   5.255   5.153
 8697SOL     OW26989   0.407   4.202   6.402
 8697SOL    HW126990   0.330   4.186   6.464
 8697SOL    HW226991   0.467   4.272   6.441
 8698SOL     OW26992   5.173   6.083   4.853
 8698SOL    HW126993   5.095   6.028   4.823
 8698SOL    HW226994   5.229   6.028   4.915
 8699SOL     OW26995   1.327   3.042   4.374
 8699SOL    HW126996   1.414   2.994   4.381
 8699SOL    HW226997   1.290   3.032   4.282
 8700SOL     OW26998   0.885   0.337   5.060
 8700SOL    HW126999   0.938   0.256   5.033
 8700SOL    HW227000   0.942   0.396   5.117
 8701SOL     OW27001   1.448   1.340   0.029
 8701SOL    HW127002   1.477   1.415   6.992
 8701SOL    HW227003   1.451   1.369   0.125
 8702SOL     OW27004   5.415   4.912   1.927
 8702SOL    HW127005   5.441   4.928   1.832
 8702SOL    HW227006   5.351   4.983   1.956
 8703SOL     OW27007   2.678   5.101   0.123
 8703SOL    HW127008   2.647   5.129   0.214
 8703SOL    HW227009   2.679   5.181   0.063
 8704SOL     OW27010   0.922   4.180   3.592
 8704SOL    HW127011   0.856   4.220   3.529
 8704SOL    HW227012   0.904   4.213   3.684
 8705SOL     OW27013   5.155   1.530   6.295
 8705SOL    HW127014   5.232   1.594   6.297
 8705SOL    HW227015   5.106   1.539   6.208
 8706SOL     OW27016   4.930   2.339   0.184
 8706SOL    HW127017   4.863   2.390   0.239
 8706SOL    HW227018   4.882   2.286   0.115
 8707SOL     OW27019   0.870   1.293   5.212
 8707SOL    HW127020   0.847   1.360   5.282
 8707SOL    HW227021   0.916   1.339   5.136
 8708SOL     OW27022   4.419   1.266   3.593
 8708SOL    HW127023   4.446   1.242   3.686
 8708SOL    HW227024   4.499   1.258   3.533
 8709SOL     OW27025   6.347   6.903   6.884
 8709SOL    HW127026   6.339   6.935   6.978
 8709SOL    HW227027   6.362   6.804   6.884
 8710SOL     OW27028   1.411   2.867   3.141
 8710SOL    HW127029   1.422   2.833   3.048
 8710SOL    HW227030   1.472   2.944   3.156
 8711SOL     OW27031   1.801   6.584   2.688
 8711SOL    HW127032   1.807   6.530   2.604
 8711SOL    HW227033   1.885   6.574   2.741
 8712SOL     OW27034   3.684   1.673   4.120
 8712SOL    HW127035   3.744   1.722   4.183
 8712SOL    HW227036   3.628   1.740   4.070
 8713SOL     OW27037   6.897   3.294   2.245
 8713SOL    HW127038   6.879   3.266   2.339
 8713SOL    HW227039   6.813   3.291   2.192
 8714SOL     OW27040   1.277   0.386   5.796
 8714SOL    HW127041   1.182   0.405   5.817
 8714SOL    HW227042   1.294   0.405   5.699
 8715SOL     OW27043   4.161   0.644   0.721
 8715SOL    HW127044   4.239   0.612   0.668
 8715SOL    HW227045   4.170   0.612   0.816
 8716SOL     OW27046   0.057   6.737   0.577
 8716SOL    HW127047   0.015   6.790   0.503
 8716SOL    HW227048   0.137   6.785   0.612
 8717SOL     OW27049   2.846   3.667   5.269
 8717SOL    HW127050   2.882   3.591   5.322
 8717SOL    HW227051   2.897   3.676   5.183
 8718SOL     OW27052   1.459   2.614   5.351
 8718SOL    HW127053   1.371   2.660   5.341
 8718SOL    HW227054   1.529   2.680   5.375
 8719SOL     OW27055   3.977   0.059   0.299
 8719SOL    HW127056   4.005   0.061   0.395
 8719SOL    HW227057   3.943   0.149   0.272
 8720SOL     OW27058   1.136   6.465   6.241
 8720SOL    HW127059   1.210   6.484   6.178
 8720SOL    HW227060   1.173   6.449   6.333
 8721SOL     OW27061   6.796   2.227   1.183
 8721SOL    HW127062   6.750   2.219   1.271
 8721SOL    HW227063   6.740   2.183   1.112
 8722SOL     OW27064   3.510   1.367   1.083
 8722SOL    HW127065   3.604   1.342   1.104
 8722SOL    HW227066   3.503   1.466   1.069
 8723SOL     OW27067   4.874   7.019   1.811
 8723SOL    HW127068   4.924   0.085   1.805
 8723SOL    HW227069   4.836   7.009   1.902
 8724SOL     OW27070   5.240   6.623   4.161
 8724SOL    HW127071   5.150   6.579   4.161
 8724SOL    HW227072   5.231   6.719   4.189
 8725SOL     OW27073   2.123   5.310   5.612
 8725SOL    HW127074   2.072   5.366   5.547
 8725SOL    HW227075   2.068   5.230   5.637
 8726SOL     OW27076   0.129   0.498   3.062
 8726SOL    HW127077   0.180   0.497   3.148
 8726SOL    HW227078   0.107   0.404   3.035
 8727SOL     OW27079   6.382   0.134   1.579
 8727SOL    HW127080   6.366   0.067   1.506
 8727SOL    HW227081   6.347   0.098   1.665
 8728SOL     OW27082   5.952   0.754   1.779
 8728SOL    HW127083   5.902   0.831   1.817
 8728SOL    HW227084   5.995   0.781   1.692
 8729SOL     OW27085   3.438   4.891   5.428
 8729SOL    HW127086   3.354   4.920   5.381
 8729SOL    HW227087   3.454   4.794   5.409
 8730SOL     OW27088   5.010   4.076   2.470
 8730SOL    HW127089   5.082   4.052   2.536
 8730SOL    HW227090   5.022   4.171   2.440
 8731SOL     OW27091   0.644   3.722   3.020
 8731SOL    HW127092   0.685   3.656   3.082
 8731SOL    HW227093   0.714   3.758   2.958
 8732SOL     OW27094   5.192   4.702   1.873
 8732SOL    HW127095   5.260   4.769   1.904
 8732SOL    HW227096   5.235   4.638   1.809
 8733SOL     OW27097   1.423   5.723   1.109
 8733SOL    HW127098   1.362   5.674   1.172
 8733SOL    HW227099   1.420   5.821   1.128
 8734SOL     OW27100   0.950   3.319   2.920
 8734SOL    HW127101   0.973   3.322   2.823
 8734SOL    HW227102   1.030   3.346   2.973
 8735SOL     OW27103   0.754   2.904   6.528
 8735SOL    HW127104   0.756   2.807   6.552
 8735SOL    HW227105   0.690   2.952   6.589
 8736SOL     OW27106   0.270   5.198   1.927
 8736SOL    HW127107   0.242   5.272   1.865
 8736SOL    HW227108   0.200   5.127   1.928
 8737SOL     OW27109   1.835   6.751   0.209
 8737SOL    HW127110   1.790   6.695   0.140
 8737SOL    HW227111   1.865   6.692   0.284
 8738SOL     OW27112   2.677   5.930   4.009
 8738SOL    HW127113   2.734   6.012   4.014
 8738SOL    HW227114   2.667   5.891   4.101
 8739SOL     OW27115   5.951   5.507   5.949
 8739SOL    HW127116   5.999   5.557   5.876
 8739SOL    HW227117   5.865   5.554   5.971
 8740SOL     OW27118   4.283   1.094   3.935
 8740SOL    HW127119   4.366   1.087   3.881
 8740SOL    HW227120   4.293   1.167   4.002
 8741SOL     OW27121   2.365   0.931   2.897
 8741SOL    HW127122   2.406   0.918   2.987
 8741SOL    HW227123   2.361   1.029   2.876
 8742SOL     OW27124   4.760   0.511   1.604
 8742SOL    HW127125   4.808   0.586   1.558
 8742SOL    HW227126   4.727   0.446   1.536
 8743SOL     OW27127   1.230   0.069   1.580
 8743SOL    HW127128   1.248   0.166   1.569
 8743SOL    HW227129   1.286   0.032   1.654
 8744SOL     OW27130   4.452   2.873   0.661
 8744SOL    HW127131   4.364   2.915   0.641
 8744SOL    HW227132   4.523   2.920   0.608
 8745SOL     OW27133   6.018   1.545   6.363
 8745SOL    HW127134   6.058   1.548   6.455
 8745SOL    HW227135   6.028   1.453   6.325
 8746SOL     OW27136   5.026   5.533   4.600
 8746SOL    HW127137   5.081   5.452   4.581
 8746SOL    HW227138   4.962   5.513   4.674
 8747SOL     OW27139   7.000   1.682   2.543
 8747SOL    HW127140   6.968   1.588   2.547
 8747SOL    HW227141   0.079   1.683   2.548
 8748SOL     OW27142   0.621   1.910   5.114
 8748SOL    HW127143   0.622   1.992   5.171
 8748SOL    HW227144   0.708   1.902   5.065
 8749SOL     OW27145   2.138   0.579   5.417
 8749SOL    HW127146   2.149   0.502   5.354
 8749SOL    HW227147   2.183   0.659   5.379
 8750SOL     OW27148   3.682   3.925   6.053
 8750SOL    HW127149   3.633   3.881   6.129
 8750SOL    HW227150   3.728   4.007   6.085
 8751SOL     OW27151   6.419   2.001   1.848
 8751SOL    HW127152   6.413   2.010   1.947
 8751SOL    HW227153   6.400   1.907   1.822
 8752SOL     OW27154   3.294   2.967   6.450
 8752SOL    HW127155   3.212   2.928   6.408
 8752SOL    HW227156   3.320   2.911   6.529
 8753SOL     OW27157   2.945   1.771   6.486
 8753SOL    HW127158   2.907   1.727   6.404
 8753SOL    HW227159   3.007   1.845   6.458
 8754SOL     OW27160   1.289   4.305   5.045
 8754SOL    HW127161   1.301   4.300   5.144
 8754SOL    HW227162   1.325   4.222   5.003
 8755SOL     OW27163   2.220   1.154   1.116
 8755SOL    HW127164   2.236   1.178   1.020
 8755SOL    HW227165   2.158   1.076   1.121
 8756SOL     OW27166   2.209   3.037   3.406
 8756SOL    HW127167   2.211   2.937   3.404
 8756SOL    HW227168   2.218   3.069   3.500
 8757SOL     OW27169   4.217   5.338   6.646
 8757SOL    HW127170   4.245   5.337   6.742
 8757SOL    HW227171   4.121   5.362   6.639
 8758SOL     OW27172   4.505   6.183   2.778
 8758SOL    HW127173   4.408   6.193   2.756
 8758SOL    HW227174   4.542   6.104   2.730
 8759SOL     OW27175   5.050   3.313   6.906
 8759SOL    HW127176   5.087   3.232   6.861
 8759SOL    HW227177   4.976   3.287   6.967
 8760SOL     OW27178   2.723   0.867   4.874
 8760SOL    HW127179   2.700   0.962   4.850
 8760SOL    HW227180   2.821   0.853   4.865
 8761SOL     OW27181   6.312   2.240   1.268
 8761SOL    HW127182   6.280   2.189   1.188
 8761SOL    HW227183   6.386   2.189   1.312
 8762SOL     OW27184   0.760   5.063   4.332
 8762SOL    HW127185   0.746   4.966   4.315
 8762SOL    HW227186   0.720   5.089   4.419
 8763SOL     OW27187   6.263   6.927   6.264
 8763SOL    HW127188   6.343   6.904   6.319
 8763SOL    HW227189   6.289   6.933   6.168
 8764SOL     OW27190   4.426   0.058   5.637
 8764SOL    HW127191   4.412   0.087   5.732
 8764SOL    HW227192   4.509   0.003   5.630
 8765SOL     OW27193   5.040   0.438   3.756
 8765SOL    HW127194   5.066   0.342   3.772
 8765SOL    HW227195   5.021   0.482   3.843
 8766SOL     OW27196   4.482   4.298   5.324
 8766SOL    HW127197   4.397   4.300   5.271
 8766SOL    HW227198   4.559   4.324   5.266
 8767SOL     OW27199   6.040   6.716   2.568
 8767SOL    HW127200   6.058   6.813   2.550
 8767SOL    HW227201   5.998   6.674   2.488
 8768SOL     OW27202   1.337   2.699   0.084
 8768SOL    HW127203   1.299   2.790   0.101
 8768SOL    HW227204   1.382   2.666   0.167
 8769SOL     OW27205   6.818   0.912   3.068
 8769SOL    HW127206   6.764   0.994   3.089
 8769SOL    HW227207   6.830   0.905   2.969
 8770SOL     OW27208   4.683   4.361   2.235
 8770SOL    HW127209   4.615   4.341   2.165
 8770SOL    HW227210   4.702   4.279   2.288
 8771SOL     OW27211   1.252   2.032   6.352
 8771SOL    HW127212   1.241   1.984   6.265
 8771SOL    HW227213   1.304   1.975   6.415
 8772SOL     OW27214   4.326   0.410   6.362
 8772SOL    HW127215   4.389   0.335   6.384
 8772SOL    HW227216   4.318   0.471   6.441
 8773SOL     OW27217   5.448   2.710   3.476
 8773SOL    HW127218   5.411   2.654   3.403
 8773SOL    HW227219   5.422   2.671   3.565
 8774SOL     OW27220   1.372   0.876   0.392
 8774SOL    HW127221   1.463   0.836   0.378
 8774SOL    HW227222   1.353   0.941   0.319
 8775SOL     OW27223   5.254   1.272   6.177
 8775SOL    HW127224   5.225   1.328   6.254
 8775SOL    HW227225   5.352   1.255   6.182
 8776SOL     OW27226   4.415   3.621   0.791
 8776SOL    HW127227   4.468   3.589   0.870
 8776SOL    HW227228   4.335   3.563   0.780
 8777SOL     OW27229   6.064   4.402   3.054
 8777SOL    HW127230   6.006   4.344   3.111
 8777SOL    HW227231   6.079   4.357   2.966
 8778SOL     OW27232   4.948   2.800   5.762
 8778SOL    HW127233   4.959   2.844   5.851
 8778SOL    HW227234   5.023   2.826   5.702
 8779SOL     OW27235   2.417   5.589   2.272
 8779SOL    HW127236   2.382   5.637   2.352
 8779SOL    HW227237   2.514   5.569   2.284
 8780SOL     OW27238   6.935   0.211   2.936
 8780SOL    HW127239   7.003   0.203   3.008
 8780SOL    HW227240   6.973   0.264   2.860
 8781SOL     OW27241   5.028   0.657   3.947
 8781SOL    HW127242   5.046   0.755   3.946
 8781SOL    HW227243   5.088   0.612   4.013
 8782SOL     OW27244   6.858   0.564   1.705
 8782SOL    HW127245   6.857   0.468   1.678
 8782SOL    HW227246   6.814   0.619   1.634
 8783SOL     OW27247   6.570   4.335   3.307
 8783SOL    HW127248   6.593   4.238   3.311
 8783SOL    HW227249   6.478   4.347   3.271
 8784SOL     OW27250   0.282   6.822   6.278
 8784SOL    HW127251   0.285   6.921   6.266
 8784SOL    HW227252   0.243   6.780   6.196
 8785SOL     OW27253   5.848   5.171   6.816
 8785SOL    HW127254   5.933   5.204   6.774
 8785SOL    HW227255   5.869   5.130   6.905
 8786SOL     OW27256   2.661   0.902   0.624
 8786SOL    HW127257   2.723   0.828   0.650
 8786SOL    HW227258   2.715   0.982   0.598
 8787SOL     OW27259   2.947   1.512   2.260
 8787SOL    HW127260   2.975   1.419   2.284
 8787SOL    HW227261   3.010   1.548   2.191
 8788SOL     OW27262   0.189   0.805   5.173
 8788SOL    HW127263   0.096   0.843   5.177
 8788SOL    HW227264   0.218   0.779   5.265
 8789SOL     OW27265   6.533   5.170   5.467
 8789SOL    HW127266   6.447   5.123   5.446
 8789SOL    HW227267   6.538   5.187   5.566
 8790SOL     OW27268   6.303   0.455   6.811
 8790SOL    HW127269   6.288   0.543   6.855
 8790SOL    HW227270   6.347   0.469   6.722
 8791SOL     OW27271   5.522   6.722   5.406
 8791SOL    HW127272   5.586   6.796   5.429
 8791SOL    HW227273   5.572   6.637   5.392
 8792SOL     OW27274   3.374   4.947   3.061
 8792SOL    HW127275   3.436   4.890   3.115
 8792SOL    HW227276   3.425   5.021   3.018
 8793SOL     OW27277   0.747   4.634   2.498
 8793SOL    HW127278   0.709   4.671   2.583
 8793SOL    HW227279   0.818   4.568   2.519
 8794SOL     OW27280   5.379   0.521   2.978
 8794SOL    HW127281   5.291   0.551   3.015
 8794SOL    HW227282   5.398   0.428   3.009
 8795SOL     OW27283   1.029   4.707   5.486
 8795SOL    HW127284   1.062   4.796   5.520
 8795SOL    HW227285   0.942   4.685   5.530
 8796SOL     OW27286   4.943   2.424   3.275
 8796SOL    HW127287   4.956   2.457   3.182
 8796SOL    HW227288   4.998   2.342   3.289
 8797SOL     OW27289   0.271   0.044   6.080
 8797SOL    HW127290   0.185   7.015   6.066
 8797SOL    HW227291   0.251   0.136   6.114
 8798SOL     OW27292   4.570   6.146   6.713
 8798SOL    HW127293   4.494   6.207   6.736
 8798SOL    HW227294   4.651   6.201   6.693
 8799SOL     OW27295   2.286   5.107   3.981
 8799SOL    HW127296   2.286   5.202   3.950
 8799SOL    HW227297   2.345   5.098   4.061
 8800SOL     OW27298   5.727   4.585   6.090
 8800SOL    HW127299   5.690   4.544   6.006
 8800SOL    HW227300   5.778   4.515   6.141
 8801SOL     OW27301   6.512   1.779   4.527
 8801SOL    HW127302   6.601   1.813   4.556
 8801SOL    HW227303   6.477   1.714   4.595
 8802SOL     OW27304   1.678   6.036   6.430
 8802SOL    HW127305   1.631   6.089   6.501
 8802SOL    HW227306   1.618   6.026   6.351
 8803SOL     OW27307   6.658   0.215   0.234
 8803SOL    HW127308   6.592   0.146   0.207
 8803SOL    HW227309   6.679   0.205   0.332
 8804SOL     OW27310   2.204   6.401   1.341
 8804SOL    HW127311   2.156   6.313   1.347
 8804SOL    HW227312   2.303   6.385   1.341
 8805SOL     OW27313   3.501   6.252   3.414
 8805SOL    HW127314   3.549   6.207   3.489
 8805SOL    HW227315   3.491   6.188   3.338
 8806SOL     OW27316   3.030   4.627   0.942
 8806SOL    HW127317   3.059   4.564   1.014
 8806SOL    HW227318   2.941   4.598   0.906
 8807SOL     OW27319   4.858   1.571   0.661
 8807SOL    HW127320   4.760   1.583   0.678
 8807SOL    HW227321   4.907   1.573   0.748
 8808SOL     OW27322   6.429   2.371   6.133
 8808SOL    HW127323   6.455   2.412   6.045
 8808SOL    HW227324   6.380   2.285   6.116
 8809SOL     OW27325   3.218   4.919   4.123
 8809SOL    HW127326   3.271   4.954   4.200
 8809SOL    HW227327   3.163   4.841   4.152
 8810SOL     OW27328   6.017   0.304   5.259
 8810SOL    HW127329   5.940   0.363   5.281
 8810SOL    HW227330   5.999   0.255   5.174
 8811SOL     OW27331   3.487   1.048   2.962
 8811SOL    HW127332   3.547   1.022   3.037
 8811SOL    HW227333   3.532   1.029   2.874
 8812SOL     OW27334   2.014   0.418   0.602
 8812SOL    HW127335   1.984   0.336   0.555
 8812SOL    HW227336   1.954   0.495   0.578
 8813SOL     OW27337   2.088   5.977   3.709
 8813SOL    HW127338   2.110   6.062   3.756
 8813SOL    HW227339   2.170   5.942   3.662
 8814SOL     OW27340   6.220   6.897   0.429
 8814SOL    HW127341   6.314   6.908   0.460
 8814SOL    HW227342   6.160   6.955   0.483
 8815SOL     OW27343   5.339   0.109   1.530
 8815SOL    HW127344   5.307   0.185   1.474
 8815SOL    HW227345   5.433   0.086   1.506
 8816SOL     OW27346   0.899   6.786   0.009
 8816SOL    HW127347   0.982   6.838   0.031
 8816SOL    HW227348   0.921   6.688   0.008
 8817SOL     OW27349   7.000   3.824   3.689
 8817SOL    HW127350   6.940   3.867   3.758
 8817SOL    HW227351   0.060   3.881   3.675
 8818SOL     OW27352   1.324   5.806   3.666
 8818SOL    HW127353   1.310   5.857   3.751
 8818SOL    HW227354   1.275   5.851   3.592
 8819SOL     OW27355   5.601   5.097   5.398
 8819SOL    HW127356   5.579   5.194   5.402
 8819SOL    HW227357   5.587   5.056   5.488
 8820SOL     OW27358   2.708   0.975   5.647
 8820SOL    HW127359   2.681   0.879   5.637
 8820SOL    HW227360   2.627   1.030   5.669
 8821SOL     OW27361   1.658   6.036   0.564
 8821SOL    HW127362   1.661   5.978   0.645
 8821SOL    HW227363   1.570   6.023   0.518
 8822SOL     OW27364   0.783   1.103   3.602
 8822SOL    HW127365   0.871   1.056   3.601
 8822SOL    HW227366   0.783   1.173   3.530
 8823SOL     OW27367   2.457   1.073   2.385
 8823SOL    HW127368   2.533   1.008   2.386
 8823SOL    HW227369   2.482   1.152   2.329
 8824SOL     OW27370   1.536   1.281   0.340
 8824SOL    HW127371   1.622   1.314   0.302
 8824SOL    HW227372   1.543   1.276   0.440
 8825SOL     OW27373   1.431   1.031   2.133
 8825SOL    HW127374   1.467   1.124   2.143
 8825SOL    HW227375   1.416   1.011   2.036
 8826SOL     OW27376   1.045   3.723   0.663
 8826SOL    HW127377   1.034   3.785   0.740
 8826SOL    HW227378   1.061   3.775   0.579
 8827SOL     OW27379   4.358   7.010   2.916
 8827SOL    HW127380   4.350   0.078   2.962
 8827SOL    HW227381   4.387   0.004   2.821
 8828SOL     OW27382   3.838   5.024   6.502
 8828SOL    HW127383   3.930   5.007   6.536
 8828SOL    HW227384   3.803   5.109   6.541
 8829SOL     OW27385   5.497   1.985   1.006
 8829SOL    HW127386   5.456   2.076   1.000
 8829SOL    HW227387   5.435   1.918   0.966
 8830SOL     OW27388   2.281   1.956   2.397
 8830SOL    HW127389   2.329   1.933   2.482
 8830SOL    HW227390   2.348   1.977   2.326
 8831SOL     OW27391   5.316   2.553   3.306
 8831SOL    HW127392   5.340   2.477   3.367
 8831SOL    HW227393   5.302   2.518   3.213
 8832SOL     OW27394   6.731   6.199   3.438
 8832SOL    HW127395   6.641   6.232   3.464
 8832SOL    HW227396   6.756   6.235   3.348
 8833SOL     OW27397   2.948   4.855   6.589
 8833SOL    HW127398   2.877   4.915   6.550
 8833SOL    HW227399   2.908   4.765   6.607
 8834SOL     OW27400   5.892   3.554   4.240
 8834SOL    HW127401   5.795   3.535   4.252
 8834SOL    HW227402   5.906   3.608   4.157
 8835SOL     OW27403   5.300   0.908   5.751
 8835SOL    HW127404   5.287   0.868   5.841
 8835SOL    HW227405   5.233   0.869   5.687
 8836SOL     OW27406   5.338   1.792   0.936
 8836SOL    HW127407   5.382   1.729   0.872
 8836SOL    HW227408   5.253   1.753   0.969
 8837SOL     OW27409   0.171   6.768   2.800
 8837SOL    HW127410   0.128   6.740   2.714
 8837SOL    HW227411   0.245   6.831   2.781
 8838SOL     OW27412   1.940   4.534   3.665
 8838SOL    HW127413   1.858   4.541   3.721
 8838SOL    HW227414   2.020   4.527   3.725
 8839SOL     OW27415   4.415   5.871   1.952
 8839SOL    HW127416   4.490   5.809   1.974
 8839SOL    HW227417   4.332   5.818   1.936
 8840SOL     OW27418   6.584   0.870   2.459
 8840SOL    HW127419   6.637   0.918   2.529
 8840SOL    HW227420   6.634   0.789   2.428
 8841SOL     OW27421   6.989   1.591   4.638
 8841SOL    HW127422   0.043   1.532   4.609
 8841SOL    HW227423   7.020   1.685   4.645
 8842SOL     OW27424   3.373   3.118   3.319
 8842SOL    HW127425   3.460   3.158   3.349
 8842SOL    HW227426   3.349   3.154   3.229
 8843SOL     OW27427   2.249   3.078   4.415
 8843SOL    HW127428   2.193   3.109   4.338
 8843SOL    HW227429   2.268   3.156   4.475
 8844SOL     OW27430   6.729   1.887   4.648
 8844SOL    HW127431   6.809   1.838   4.614
 8844SOL    HW227432   6.741   1.985   4.633
 8845SOL     OW27433   2.584   3.751   1.347
 8845SOL    HW127434   2.673   3.716   1.318
 8845SOL    HW227435   2.575   3.847   1.320
 8846SOL     OW27436   3.638   4.974   4.534
 8846SOL    HW127437   3.541   4.966   4.554
 8846SOL    HW227438   3.691   4.957   4.618
 8847SOL     OW27439   2.656   0.957   2.910
 8847SOL    HW127440   2.745   1.001   2.902
 8847SOL    HW227441   2.600   0.981   2.831
 8848SOL     OW27442   2.872   2.277   2.310
 8848SOL    HW127443   2.909   2.358   2.357
 8848SOL    HW227444   2.836   2.304   2.221
 8849SOL     OW27445   3.737   5.638   3.353
 8849SOL    HW127446   3.790   5.707   3.303
 8849SOL    HW227447   3.680   5.587   3.289
 8850SOL     OW27448   2.200   0.792   6.904
 8850SOL    HW127449   2.181   0.696   6.929
 8850SOL    HW227450   2.166   0.852   6.977
 8851SOL     OW27451   1.028   4.930   2.102
 8851SOL    HW127452   1.076   4.886   2.178
 8851SOL    HW227453   0.929   4.922   2.116
 8852SOL     OW27454   4.233   4.156   5.815
 8852SOL    HW127455   4.137   4.184   5.816
 8852SOL    HW227456   4.287   4.223   5.764
 8853SOL     OW27457   3.666   0.718   6.373
 8853SOL    HW127458   3.673   0.657   6.452
 8853SOL    HW227459   3.707   0.806   6.395
 8854SOL     OW27460   3.102   1.673   6.222
 8854SOL    HW127461   3.062   1.756   6.262
 8854SOL    HW227462   3.200   1.672   6.238
 8855SOL     OW27463   0.021   6.111   0.198
 8855SOL    HW127464   0.023   6.012   0.187
 8855SOL    HW227465   6.961   6.148   0.152
 8856SOL     OW27466   6.043   0.709   6.284
 8856SOL    HW127467   6.108   0.633   6.285
 8856SOL    HW227468   5.999   0.716   6.374
 8857SOL     OW27469   6.654   2.456   3.947
 8857SOL    HW127470   6.557   2.482   3.947
 8857SOL    HW227471   6.680   2.426   4.038
 8858SOL     OW27472   1.325   2.825   5.079
 8858SOL    HW127473   1.292   2.855   4.989
 8858SOL    HW227474   1.301   2.893   5.148
 8859SOL     OW27475   6.168   0.930   4.225
 8859SOL    HW127476   6.176   0.851   4.286
 8859SOL    HW227477   6.072   0.956   4.216
 8860SOL     OW27478   0.840   3.518   3.052
 8860SOL    HW127479   0.829   3.587   2.980
 8860SOL    HW227480   0.859   3.429   3.010
 8861SOL     OW27481   3.812   1.711   6.315
 8861SOL    HW127482   3.763   1.703   6.228
 8861SOL    HW227483   3.831   1.620   6.351
 8862SOL     OW27484   6.222   0.341   3.214
 8862SOL    HW127485   6.167   0.262   3.185
 8862SOL    HW227486   6.163   0.422   3.220
 8863SOL     OW27487   1.558   5.576   4.104
 8863SOL    HW127488   1.483   5.548   4.164
 8863SOL    HW227489   1.560   5.517   4.024
 8864SOL     OW27490   3.086   2.842   6.130
 8864SOL    HW127491   3.159   2.910   6.136
 8864SOL    HW227492   3.077   2.811   6.035
 8865SOL     OW27493   2.870   1.854   5.847
 8865SOL    HW127494   2.798   1.832   5.781
 8865SOL    HW227495   2.839   1.832   5.940
 8866SOL     OW27496   5.429   6.883   3.465
 8866SOL    HW127497   5.515   6.875   3.414
 8866SOL    HW227498   5.438   6.836   3.553
 8867SOL     OW27499   5.198   3.501   2.014
 8867SOL    HW127500   5.252   3.570   1.965
 8867SOL    HW227501   5.101   3.519   2.000
 8868SOL     OW27502   6.638   3.005   0.230
 8868SOL    HW127503   6.721   3.046   0.269
 8868SOL    HW227504   6.608   3.059   0.152
 8869SOL     OW27505   4.081   6.275   4.466
 8869SOL    HW127506   4.018   6.254   4.392
 8869SOL    HW227507   4.143   6.348   4.437
 8870SOL     OW27508   4.468   0.189   0.140
 8870SOL    HW127509   4.416   0.121   0.191
 8870SOL    HW227510   4.461   0.170   0.042
 8871SOL     OW27511   1.341   0.322   3.771
 8871SOL    HW127512   1.336   0.375   3.856
 8871SOL    HW227513   1.314   0.380   3.694
 8872SOL     OW27514   1.367   4.901   5.325
 8872SOL    HW127515   1.353   4.807   5.356
 8872SOL    HW227516   1.388   4.901   5.227
 8873SOL     OW27517   0.820   5.693   2.396
 8873SOL    HW127518   0.841   5.751   2.476
 8873SOL    HW227519   0.801   5.752   2.317
 8874SOL     OW27520   3.024   6.132   1.613
 8874SOL    HW127521   3.099   6.194   1.632
 8874SOL    HW227522   2.946   6.154   1.671
 8875SOL     OW27523   6.125   3.834   4.597
 8875SOL    HW127524   6.049   3.836   4.531
 8875SOL    HW227525   6.206   3.875   4.555
 8876SOL     OW27526   1.618   0.182   4.603
 8876SOL    HW127527   1.545   0.232   4.557
 8876SOL    HW227528   1.700   0.183   4.547
 8877SOL     OW27529   2.999   1.156   3.881
 8877SOL    HW127530   3.033   1.235   3.831
 8877SOL    HW227531   3.077   1.098   3.908
 8878SOL     OW27532   0.024   5.226   0.106
 8878SOL    HW127533   6.983   5.264   0.175
 8878SOL    HW227534   0.080   5.299   0.067
 8879SOL     OW27535   5.032   4.368   1.771
 8879SOL    HW127536   5.061   4.299   1.705
 8879SOL    HW227537   4.983   4.324   1.847
 8880SOL     OW27538   5.918   5.530   4.698
 8880SOL    HW127539   5.869   5.589   4.633
 8880SOL    HW227540   5.857   5.457   4.728
 8881SOL     OW27541   6.357   6.965   4.448
 8881SOL    HW127542   6.346   7.015   4.534
 8881SOL    HW227543   6.423   7.013   4.390
 8882SOL     OW27544   5.679   1.184   0.872
 8882SOL    HW127545   5.716   1.264   0.824
 8882SOL    HW227546   5.621   1.214   0.947
 8883SOL     OW27547   2.149   6.667   5.760
 8883SOL    HW127548   2.184   6.713   5.842
 8883SOL    HW227549   2.088   6.730   5.710
 8884SOL     OW27550   5.844   4.174   6.950
 8884SOL    HW127551   5.846   4.090   6.895
 8884SOL    HW227552   5.764   4.173   7.009
 8885SOL     OW27553   0.595   3.437   0.609
 8885SOL    HW127554   0.508   3.435   0.559
 8885SOL    HW227555   0.577   3.460   0.705
 8886SOL     OW27556   3.496   6.236   5.140
 8886SOL    HW127557   3.427   6.255   5.210
 8886SOL    HW227558   3.587   6.249   5.178
 8887SOL     OW27559   3.250   1.687   1.543
 8887SOL    HW127560   3.205   1.599   1.529
 8887SOL    HW227561   3.184   1.761   1.527
 8888SOL     OW27562   1.499   1.593   6.919
 8888SOL    HW127563   1.592   1.623   6.896
 8888SOL    HW227564   1.438   1.614   6.843
 8889SOL     OW27565   5.787   0.451   5.404
 8889SOL    HW127566   5.774   0.469   5.501
 8889SOL    HW227567   5.711   0.395   5.370
 8890SOL     OW27568   6.496   5.391   4.255
 8890SOL    HW127569   6.591   5.363   4.267
 8890SOL    HW227570   6.436   5.315   4.278
 8891SOL     OW27571   5.104   3.219   5.662
 8891SOL    HW127572   5.165   3.263   5.728
 8891SOL    HW227573   5.021   3.189   5.708
 8892SOL     OW27574   3.890   5.822   3.239
 8892SOL    HW127575   3.825   5.897   3.255
 8892SOL    HW227576   3.967   5.831   3.302
 8893SOL     OW27577   1.144   6.547   3.719
 8893SOL    HW127578   1.153   6.507   3.627
 8893SOL    HW227579   1.235   6.560   3.759
 8894SOL     OW27580   4.468   2.740   5.768
 8894SOL    HW127581   4.394   2.807   5.755
 8894SOL    HW227582   4.522   2.732   5.684
 8895SOL     OW27583   6.900   2.098   2.251
 8895SOL    HW127584   6.904   2.181   2.307
 8895SOL    HW227585   6.988   2.084   2.206
 8896SOL     OW27586   1.629   3.580   5.506
 8896SOL    HW127587   1.690   3.553   5.432
 8896SOL    HW227588   1.663   3.664   5.549
 8897SOL     OW27589   2.053   3.214   3.255
 8897SOL    HW127590   2.115   3.153   3.306
 8897SOL    HW227591   1.966   3.167   3.238
 8898SOL     OW27592   5.241   3.837   3.428
 8898SOL    HW127593   5.340   3.843   3.417
 8898SOL    HW227594   5.197   3.910   3.375
 8899SOL     OW27595   2.123   4.900   0.842
 8899SOL    HW127596   2.095   4.815   0.886
 8899SOL    HW227597   2.222   4.899   0.827
 8900SOL     OW27598   6.064   3.049   2.163
 8900SOL    HW127599   6.097   3.125   2.218
 8900SOL    HW227600   6.026   2.978   2.224
 8901SOL     OW27601   1.597   1.218   4.577
 8901SOL    HW127602   1.685   1.264   4.574
 8901SOL    HW227603   1.534   1.270   4.635
 8902SOL     OW27604   2.291   6.907   1.112
 8902SOL    HW127605   2.379   6.954   1.105
 8902SOL    HW227606   2.302   6.811   1.089
 8903SOL     OW27607   0.859   1.182   4.449
 8903SOL    HW127608   0.934   1.199   4.512
 8903SOL    HW227609   0.790   1.125   4.493
 8904SOL     OW27610   6.012   5.968   3.752
 8904SOL    HW127611   6.001   5.915   3.668
 8904SOL    HW227612   5.944   5.938   3.819
 8905SOL     OW27613   1.747   4.619   3.877
 8905SOL    HW127614   1.748   4.522   3.901
 8905SOL    HW227615   1.800   4.670   3.944
 8906SOL     OW27616   6.972   6.485   7.017
 8906SOL    HW127617   6.978   6.441   6.927
 8906SOL    HW227618   0.023   6.449   0.055
 8907SOL     OW27619   2.968   2.228   4.640
 8907SOL    HW127620   2.982   2.279   4.555
 8907SOL    HW227621   2.928   2.139   4.619
 8908SOL     OW27622   0.924   3.501   6.790
 8908SOL    HW127623   1.001   3.527   6.732
 8908SOL    HW227624   0.922   3.401   6.799
 8909SOL     OW27625   2.179   0.942   5.260
 8909SOL    HW127626   2.195   0.843   5.256
 8909SOL    HW227627   2.147   0.967   5.351
 8910SOL     OW27628   0.242   2.850   6.041
 8910SOL    HW127629   0.192   2.890   5.964
 8910SOL    HW227630   0.258   2.753   6.024
 8911SOL     OW27631   4.450   2.477   4.900
 8911SOL    HW127632   4.510   2.447   4.974
 8911SOL    HW227633   4.355   2.463   4.926
 8912SOL     OW27634   4.007   3.013   0.473
 8912SOL    HW127635   4.036   3.052   0.385
 8912SOL    HW227636   3.915   2.975   0.463
 8913SOL     OW27637   4.711   5.117   5.977
 8913SOL    HW127638   4.720   5.055   6.056
 8913SOL    HW227639   4.725   5.211   6.007
 8914SOL     OW27640   3.692   0.023   4.131
 8914SOL    HW127641   3.608   0.022   4.078
 8914SOL    HW227642   3.743   0.107   4.112
 8915SOL     OW27643   0.527   2.885   3.814
 8915SOL    HW127644   0.505   2.789   3.830
 8915SOL    HW227645   0.443   2.939   3.810
 8916SOL     OW27646   0.104   3.562   0.480
 8916SOL    HW127647   0.116   3.473   0.438
 8916SOL    HW227648   0.104   3.633   0.409
 8917SOL     OW27649   6.715   3.698   6.638
 8917SOL    HW127650   6.735   3.757   6.716
 8917SOL    HW227651   6.772   3.725   6.560
 8918SOL     OW27652   6.678   3.798   1.562
 8918SOL    HW127653   6.686   3.723   1.496
 8918SOL    HW227654   6.584   3.804   1.595
 8919SOL     OW27655   3.887   4.243   0.416
 8919SOL    HW127656   3.905   4.338   0.390
 8919SOL    HW227657   3.974   4.198   0.439
 8920SOL     OW27658   0.832   0.089   0.342
 8920SOL    HW127659   0.884   0.164   0.300
 8920SOL    HW227660   0.838   0.007   0.285
 8921SOL     OW27661   2.047   1.941   2.733
 8921SOL    HW127662   2.059   2.040   2.742
 8921SOL    HW227663   2.120   1.894   2.782
 8922SOL     OW27664   3.562   5.215   1.308
 8922SOL    HW127665   3.558   5.175   1.217
 8922SOL    HW227666   3.500   5.165   1.369
 8923SOL     OW27667   1.577   3.125   6.258
 8923SOL    HW127668   1.560   3.128   6.160
 8923SOL    HW227669   1.559   3.032   6.292
 8924SOL     OW27670   2.919   5.771   6.129
 8924SOL    HW127671   2.974   5.834   6.183
 8924SOL    HW227672   2.961   5.681   6.127
 8925SOL     OW27673   0.710   1.032   2.790
 8925SOL    HW127674   0.652   0.996   2.717
 8925SOL    HW227675   0.791   1.075   2.750
 8926SOL     OW27676   6.057   3.784   5.902
 8926SOL    HW127677   6.010   3.702   5.934
 8926SOL    HW227678   6.145   3.793   5.949
 8927SOL     OW27679   0.821   1.746   4.385
 8927SOL    HW127680   0.767   1.664   4.367
 8927SOL    HW227681   0.788   1.822   4.329
 8928SOL     OW27682   6.963   0.631   5.878
 8928SOL    HW127683   6.989   0.721   5.912
 8928SOL    HW227684   7.005   0.561   5.936
 8929SOL     OW27685   6.421   3.354   4.261
 8929SOL    HW127686   6.458   3.441   4.229
 8929SOL    HW227687   6.430   3.349   4.360
 8930SOL     OW27688   1.451   4.226   4.270
 8930SOL    HW127689   1.401   4.174   4.201
 8930SOL    HW227690   1.532   4.175   4.299
 8931SOL     OW27691   3.027   3.118   1.282
 8931SOL    HW127692   2.963   3.091   1.210
 8931SOL    HW227693   3.023   3.053   1.358
 8932SOL     OW27694   5.611   0.312   0.787
 8932SOL    HW127695   5.655   0.349   0.705
 8932SOL    HW227696   5.591   0.387   0.851
 8933SOL     OW27697   1.893   2.970   6.110
 8933SOL    HW127698   1.932   2.907   6.043
 8933SOL    HW227699   1.894   2.928   6.201
 8934SOL     OW27700   3.117   5.206   4.689
 8934SOL    HW127701   3.125   5.256   4.602
 8934SOL    HW227702   3.117   5.271   4.765
 8935SOL     OW27703   6.135   3.672   1.468
 8935SOL    HW127704   6.035   3.679   1.475
 8935SOL    HW227705   6.173   3.762   1.446
 8936SOL     OW27706   1.245   3.220   1.462
 8936SOL    HW127707   1.338   3.217   1.424
 8936SOL    HW227708   1.227   3.311   1.498
 8937SOL     OW27709   0.220   6.868   4.649
 8937SOL    HW127710   0.306   6.916   4.669
 8937SOL    HW227711   0.198   6.879   4.552
 8938SOL     OW27712   0.331   1.282   0.274
 8938SOL    HW127713   0.290   1.367   0.307
 8938SOL    HW227714   0.315   1.209   0.342
 8939SOL     OW27715   5.715   4.013   4.313
 8939SOL    HW127716   5.650   4.081   4.278
 8939SOL    HW227717   5.675   3.965   4.391
 8940SOL     OW27718   5.491   0.998   1.420
 8940SOL    HW127719   5.401   0.967   1.451
 8940SOL    HW227720   5.523   1.072   1.480
 8941SOL     OW27721   6.258   2.687   3.215
 8941SOL    HW127722   6.192   2.615   3.193
 8941SOL    HW227723   6.281   2.683   3.312
 8942SOL     OW27724   0.733   5.392   5.847
 8942SOL    HW127725   0.789   5.326   5.797
 8942SOL    HW227726   0.679   5.445   5.783
 8943SOL     OW27727   3.709   5.577   0.244
 8943SOL    HW127728   3.735   5.626   0.160
 8943SOL    HW227729   3.637   5.628   0.291
 8944SOL     OW27730   5.331   6.112   4.561
 8944SOL    HW127731   5.318   6.203   4.601
 8944SOL    HW227732   5.358   6.047   4.633
 8945SOL     OW27733   0.199   2.016   4.245
 8945SOL    HW127734   0.248   2.024   4.158
 8945SOL    HW227735   0.114   2.069   4.240
 8946SOL     OW27736   3.887   0.615   4.099
 8946SOL    HW127737   3.790   0.636   4.103
 8946SOL    HW227738   3.938   0.682   4.152
 8947SOL     OW27739   2.092   2.893   5.903
 8947SOL    HW127740   2.100   2.988   5.934
 8947SOL    HW227741   2.131   2.885   5.811
 8948SOL     OW27742   5.883   5.942   3.302
 8948SOL    HW127743   5.808   6.004   3.282
 8948SOL    HW227744   5.878   5.911   3.397
 8949SOL     OW27745   3.854   6.242   0.902
 8949SOL    HW127746   3.845   6.326   0.849
 8949SOL    HW227747   3.777   6.181   0.883
 8950SOL     OW27748   3.833   3.026   0.896
 8950SOL    HW127749   3.749   2.997   0.943
 8950SOL    HW227750   3.877   3.099   0.947
 8951SOL     OW27751   2.158   1.220   5.170
 8951SOL    HW127752   2.058   1.231   5.166
 8951SOL    HW227753   2.179   1.127   5.200
 8952SOL     OW27754   0.658   4.996   3.657
 8952SOL    HW127755   0.598   5.045   3.721
 8952SOL    HW227756   0.613   4.912   3.627
 8953SOL     OW27757   0.448   4.383   0.866
 8953SOL    HW127758   0.491   4.462   0.823
 8953SOL    HW227759   0.380   4.414   0.933
 8954SOL     OW27760   6.810   0.334   4.545
 8954SOL    HW127761   6.885   0.278   4.509
 8954SOL    HW227762   6.848   0.414   4.591
 8955SOL     OW27763   6.662   5.026   3.237
 8955SOL    HW127764   6.754   5.041   3.274
 8955SOL    HW227765   6.667   5.013   3.138
 8956SOL     OW27766   1.872   1.398   5.931
 8956SOL    HW127767   1.954   1.415   5.876
 8956SOL    HW227768   1.803   1.351   5.875
 8957SOL     OW27769   1.838   4.571   0.937
 8957SOL    HW127770   1.936   4.571   0.918
 8957SOL    HW227771   1.797   4.655   0.902
 8958SOL     OW27772   0.890   2.291   5.458
 8958SOL    HW127773   0.921   2.385   5.450
 8958SOL    HW227774   0.857   2.259   5.370
 8959SOL     OW27775   1.972   4.058   3.280
 8959SOL    HW127776   1.939   4.081   3.372
 8959SOL    HW227777   2.061   4.013   3.287
 8960SOL     OW27778   5.529   5.541   4.101
 8960SOL    HW127779   5.559   5.469   4.038
 8960SOL    HW227780   5.454   5.506   4.158
 8961SOL     OW27781   3.780   1.260   3.593
 8961SOL    HW127782   3.841   1.258   3.672
 8961SOL    HW227783   3.825   1.215   3.515
 8962SOL     OW27784   6.391   5.266   2.108
 8962SOL    HW127785   6.441   5.257   2.194
 8962SOL    HW227786   6.345   5.354   2.106
 8963SOL     OW27787   3.894   0.025   4.788
 8963SOL    HW127788   3.892   6.962   4.734
 8963SOL    HW227789   3.982   0.034   4.833
 8964SOL     OW27790   5.969   2.891   3.042
 8964SOL    HW127791   6.063   2.920   3.025
 8964SOL    HW227792   5.969   2.812   3.104
 8965SOL     OW27793   2.647   5.506   0.159
 8965SOL    HW127794   2.698   5.522   0.244
 8965SOL    HW227795   2.626   5.594   0.116
 8966SOL     OW27796   6.628   4.227   0.400
 8966SOL    HW127797   6.664   4.136   0.382
 8966SOL    HW227798   6.699   4.284   0.441
 8967SOL     OW27799   3.725   0.770   1.918
 8967SOL    HW127800   3.816   0.727   1.911
 8967SOL    HW227801   3.731   0.865   1.889
 8968SOL     OW27802   4.235   5.653   2.509
 8968SOL    HW127803   4.169   5.707   2.457
 8968SOL    HW227804   4.205   5.645   2.604
 8969SOL     OW27805   0.208   0.325   4.049
 8969SOL    HW127806   0.135   0.260   4.027
 8969SOL    HW227807   0.260   0.344   3.966
 8970SOL     OW27808   2.329   2.427   6.562
 8970SOL    HW127809   2.347   2.488   6.484
 8970SOL    HW227810   2.297   2.482   6.640
 8971SOL     OW27811   5.415   5.295   1.056
 8971SOL    HW127812   5.351   5.313   1.131
 8971SOL    HW227813   5.468   5.377   1.037
 8972SOL     OW27814   4.507   3.962   0.862
 8972SOL    HW127815   4.532   3.873   0.822
 8972SOL    HW227816   4.474   4.023   0.789
 8973SOL     OW27817   6.617   3.564   3.213
 8973SOL    HW127818   6.668   3.632   3.266
 8973SOL    HW227819   6.631   3.473   3.253
 8974SOL     OW27820   1.525   3.060   4.114
 8974SOL    HW127821   1.429   3.081   4.097
 8974SOL    HW227822   1.532   2.989   4.184
 8975SOL     OW27823   0.739   6.291   6.749
 8975SOL    HW127824   0.833   6.259   6.741
 8975SOL    HW227825   0.683   6.249   6.677
 8976SOL     OW27826   6.524   5.409   0.324
 8976SOL    HW127827   6.534   5.342   0.397
 8976SOL    HW227828   6.427   5.434   0.316
 8977SOL     OW27829   6.305   3.521   6.721
 8977SOL    HW127830   6.230   3.457   6.706
 8977SOL    HW227831   6.362   3.526   6.639
 8978SOL     OW27832   5.605   6.668   4.349
 8978SOL    HW127833   5.645   6.595   4.405
 8978SOL    HW227834   5.555   6.627   4.273
 8979SOL     OW27835   1.370   4.763   6.038
 8979SOL    HW127836   1.449   4.714   6.001
 8979SOL    HW227837   1.286   4.721   6.005
 8980SOL     OW27838   4.811   2.657   5.348
 8980SOL    HW127839   4.884   2.726   5.351
 8980SOL    HW227840   4.767   2.651   5.437
 8981SOL     OW27841   4.688   1.895   5.552
 8981SOL    HW127842   4.679   1.921   5.456
 8981SOL    HW227843   4.785   1.895   5.578
 8982SOL     OW27844   0.503   1.580   1.446
 8982SOL    HW127845   0.505   1.679   1.434
 8982SOL    HW227846   0.452   1.557   1.528
 8983SOL     OW27847   0.524   5.477   0.413
 8983SOL    HW127848   0.582   5.485   0.332
 8983SOL    HW227849   0.557   5.539   0.484
 8984SOL     OW27850   6.228   5.992   3.938
 8984SOL    HW127851   6.159   5.958   3.874
 8984SOL    HW227852   6.183   6.022   4.022
 8985SOL     OW27853   2.280   1.623   0.928
 8985SOL    HW127854   2.288   1.720   0.950
 8985SOL    HW227855   2.310   1.568   1.006
 8986SOL     OW27856   4.059   5.185   2.505
 8986SOL    HW127857   4.108   5.248   2.565
 8986SOL    HW227858   3.989   5.137   2.558
 8987SOL     OW27859   2.944   0.396   1.304
 8987SOL    HW127860   3.022   0.343   1.336
 8987SOL    HW227861   2.967   0.493   1.303
 8988SOL     OW27862   2.045   4.602   0.694
 8988SOL    HW127863   1.966   4.602   0.632
 8988SOL    HW227864   2.127   4.629   0.643
 8989SOL     OW27865   4.880   4.092   2.052
 8989SOL    HW127866   4.849   4.180   2.016
 8989SOL    HW227867   4.964   4.105   2.105
 8990SOL     OW27868   2.179   5.275   1.778
 8990SOL    HW127869   2.127   5.358   1.797
 8990SOL    HW227870   2.117   5.203   1.747
 8991SOL     OW27871   2.376   1.245   0.570
 8991SOL    HW127872   2.444   1.270   0.501
 8991SOL    HW227873   2.414   1.176   0.631
 8992SOL     OW27874   6.964   2.357   6.470
 8992SOL    HW127875   7.015   2.284   6.516
 8992SOL    HW227876   6.962   2.438   6.528
 8993SOL     OW27877   4.536   2.544   2.570
 8993SOL    HW127878   4.543   2.479   2.494
 8993SOL    HW227879   4.581   2.630   2.544
 8994SOL     OW27880   0.916   6.098   4.542
 8994SOL    HW127881   0.903   6.192   4.573
 8994SOL    HW227882   0.891   6.035   4.616
 8995SOL     OW27883   1.021   2.699   5.834
 8995SOL    HW127884   0.989   2.634   5.903
 8995SOL    HW227885   1.073   2.650   5.763
 8996SOL     OW27886   0.046   4.486   2.345
 8996SOL    HW127887   0.135   4.472   2.389
 8996SOL    HW227888   0.019   4.401   2.298
 8997SOL     OW27889   4.131   1.491   6.429
 8997SOL    HW127890   4.162   1.397   6.414
 8997SOL    HW227891   4.171   1.551   6.359
 8998SOL     OW27892   0.529   2.925   4.169
 8998SOL    HW127893   0.552   2.877   4.254
 8998SOL    HW227894   0.612   2.940   4.115
 8999SOL     OW27895   4.680   0.159   6.736
 8999SOL    HW127896   4.716   0.164   6.643
 8999SOL    HW227897   4.754   0.175   6.801
 9000SOL     OW27898   2.436   4.115   6.300
 9000SOL    HW127899   2.498   4.066   6.361
 9000SOL    HW227900   2.465   4.210   6.291
 9001SOL     OW27901   1.340   5.350   3.115
 9001SOL    HW127902   1.331   5.352   3.016
 9001SOL    HW227903   1.279   5.418   3.156
 9002SOL     OW27904   0.112   5.073   5.012
 9002SOL    HW127905   0.192   5.016   4.991
 9002SOL    HW227906   0.048   5.020   5.067
 9003SOL     OW27907   5.233   2.509   1.012
 9003SOL    HW127908   5.295   2.582   0.983
 9003SOL    HW227909   5.157   2.548   1.064
 9004SOL     OW27910   4.547   6.895   1.830
 9004SOL    HW127911   4.534   6.847   1.743
 9004SOL    HW227912   4.500   6.984   1.826
 9005SOL     OW27913   5.857   1.623   4.461
 9005SOL    HW127914   5.848   1.631   4.560
 9005SOL    HW227915   5.770   1.645   4.417
 9006SOL     OW27916   1.901   5.733   0.669
 9006SOL    HW127917   1.805   5.709   0.659
 9006SOL    HW227918   1.953   5.693   0.593
 9007SOL     OW27919   3.727   6.406   4.230
 9007SOL    HW127920   3.698   6.493   4.269
 9007SOL    HW227921   3.646   6.352   4.206
 9008SOL     OW27922   6.291   5.072   2.768
 9008SOL    HW127923   6.356   5.146   2.749
 9008SOL    HW227924   6.328   5.014   2.840
 9009SOL     OW27925   2.313   6.975   0.511
 9009SOL    HW127926   2.334   6.907   0.581
 9009SOL    HW227927   2.214   6.977   0.496
 9010SOL     OW27928   1.214   0.007   4.763
 9010SOL    HW127929   1.313   0.010   4.750
 9010SOL    HW227930   1.175   0.098   4.746
 9011SOL     OW27931   4.148   1.850   2.010
 9011SOL    HW127932   4.138   1.755   2.039
 9011SOL    HW227933   4.084   1.868   1.935
 9012SOL     OW27934   3.010   4.378   1.061
 9012SOL    HW127935   3.055   4.289   1.060
 9012SOL    HW227936   2.918   4.368   1.099
 9013SOL     OW27937   6.698   6.192   4.348
 9013SOL    HW127938   6.668   6.190   4.444
 9013SOL    HW227939   6.631   6.143   4.292
 9014SOL     OW27940   1.026   0.848   0.375
 9014SOL    HW127941   1.074   0.881   0.457
 9014SOL    HW227942   1.091   0.841   0.300
 9015SOL     OW27943   6.396   1.264   0.673
 9015SOL    HW127944   6.335   1.260   0.753
 9015SOL    HW227945   6.354   1.215   0.597
 9016SOL     OW27946   0.288   6.427   6.611
 9016SOL    HW127947   0.190   6.438   6.630
 9016SOL    HW227948   0.325   6.514   6.580
 9017SOL     OW27949   4.986   2.752   2.282
 9017SOL    HW127950   4.886   2.761   2.286
 9017SOL    HW227951   5.028   2.817   2.345
 9018SOL     OW27952   4.114   1.265   5.117
 9018SOL    HW127953   4.034   1.295   5.065
 9018SOL    HW227954   4.148   1.340   5.173
 9019SOL     OW27955   0.404   0.408   1.000
 9019SOL    HW127956   0.452   0.369   1.078
 9019SOL    HW227957   0.467   0.418   0.923
 9020SOL     OW27958   1.324   3.655   1.648
 9020SOL    HW127959   1.406   3.702   1.615
 9020SOL    HW227960   1.286   3.705   1.726
 9021SOL     OW27961   6.463   0.663   3.680
 9021SOL    HW127962   6.373   0.618   3.685
 9021SOL    HW227963   6.524   0.607   3.624
 9022SOL     OW27964   2.905   1.066   1.258
 9022SOL    HW127965   2.992   1.058   1.306
 9022SOL    HW227966   2.841   0.998   1.295
 9023SOL     OW27967   3.196   2.964   2.658
 9023SOL    HW127968   3.139   2.993   2.735
 9023SOL    HW227969   3.157   2.997   2.572
 9024SOL     OW27970   0.946   5.686   5.999
 9024SOL    HW127971   0.963   5.685   5.900
 9024SOL    HW227972   0.880   5.759   6.020
 9025SOL     OW27973   0.275   5.585   0.791
 9025SOL    HW127974   0.256   5.589   0.693
 9025SOL    HW227975   0.206   5.638   0.841
 9026SOL     OW27976   3.534   3.375   2.258
 9026SOL    HW127977   3.526   3.288   2.307
 9026SOL    HW227978   3.481   3.371   2.173
 9027SOL     OW27979   1.951   1.806   3.181
 9027SOL    HW127980   1.941   1.761   3.093
 9027SOL    HW227981   1.886   1.766   3.247
 9028SOL     OW27982   2.705   3.241   6.184
 9028SOL    HW127983   2.746   3.152   6.199
 9028SOL    HW227984   2.658   3.243   6.096
 9029SOL     OW27985   3.400   5.636   5.460
 9029SOL    HW127986   3.391   5.548   5.412
 9029SOL    HW227987   3.327   5.645   5.527
 9030SOL     OW27988   1.953   0.866   3.135
 9030SOL    HW127989   1.883   0.938   3.137
 9030SOL    HW227990   1.999   0.867   3.047
 9031SOL     OW27991   4.860   5.436   5.262
 9031SOL    HW127992   4.915   5.353   5.272
 9031SOL    HW227993   4.781   5.417   5.204
 9032SOL     OW27994   3.515   3.280   0.780
 9032SOL    HW127995   3.612   3.284   0.759
 9032SOL    HW227996   3.501   3.238   0.870
 9033SOL     OW27997   2.408   4.390   3.506
 9033SOL    HW127998   2.433   4.463   3.570
 9033SOL    HW227999   2.473   4.389   3.430
 9034SOL     OW28000   3.116   0.508   4.452
 9034SOL    HW128001   3.151   0.425   4.497
 9034SOL    HW228002   3.189   0.576   4.446
 9035SOL     OW28003   1.382   6.528   5.757
 9035SOL    HW128004   1.388   6.539   5.856
 9035SOL    HW228005   1.472   6.542   5.716
 9036SOL     OW28006   1.548   0.740   5.123
 9036SOL    HW128007   1.583   0.752   5.030
 9036SOL    HW228008   1.620   0.765   5.188
 9037SOL     OW28009   1.355   4.250   5.842
 9037SOL    HW128010   1.291   4.211   5.908
 9037SOL    HW228011   1.446   4.254   5.883
 9038SOL     OW28012   4.156   0.816   5.273
 9038SOL    HW128013   4.074   0.873   5.282
 9038SOL    HW228014   4.209   0.821   5.357
 9039SOL     OW28015   1.750   4.361   4.726
 9039SOL    HW128016   1.712   4.399   4.641
 9039SOL    HW228017   1.849   4.356   4.719
 9040SOL     OW28018   2.927   1.842   3.068
 9040SOL    HW128019   2.919   1.873   2.973
 9040SOL    HW228020   2.891   1.748   3.075
 9041SOL     OW28021   0.544   2.359   2.070
 9041SOL    HW128022   0.469   2.409   2.114
 9041SOL    HW228023   0.627   2.369   2.123
 9042SOL     OW28024   3.046   6.935   3.868
 9042SOL    HW128025   3.112   6.914   3.795
 9042SOL    HW228026   3.005   6.850   3.901
 9043SOL     OW28027   2.216   1.245   6.157
 9043SOL    HW128028   2.196   1.291   6.244
 9043SOL    HW228029   2.203   1.147   6.167
 9044SOL     OW28030   6.177   1.372   1.830
 9044SOL    HW128031   6.174   1.462   1.786
 9044SOL    HW228032   6.143   1.303   1.766
 9045SOL     OW28033   3.560   1.646   2.756
 9045SOL    HW128034   3.493   1.597   2.812
 9045SOL    HW228035   3.651   1.637   2.797
 9046SOL     OW28036   3.195   3.431   3.978
 9046SOL    HW128037   3.099   3.419   3.952
 9046SOL    HW228038   3.202   3.435   4.078
 9047SOL     OW28039   1.568   3.341   5.188
 9047SOL    HW128040   1.660   3.379   5.199
 9047SOL    HW228041   1.555   3.267   5.254
 9048SOL     OW28042   5.825   2.461   6.210
 9048SOL    HW128043   5.913   2.508   6.200
 9048SOL    HW228044   5.800   2.419   6.123
 9049SOL     OW28045   4.004   6.967   6.884
 9049SOL    HW128046   4.008   6.953   6.785
 9049SOL    HW228047   3.910   6.952   6.915
 9050SOL     OW28048   0.317   4.823   5.658
 9050SOL    HW128049   0.271   4.735   5.643
 9050SOL    HW228050   0.413   4.807   5.681
 9051SOL     OW28051   4.702   5.877   0.902
 9051SOL    HW128052   4.769   5.922   0.845
 9051SOL    HW228053   4.652   5.809   0.848
 9052SOL     OW28054   1.910   2.891   3.329
 9052SOL    HW128055   1.890   2.942   3.413
 9052SOL    HW228056   1.917   2.794   3.351
 9053SOL     OW28057   1.794   1.297   2.958
 9053SOL    HW128058   1.886   1.317   2.992
 9053SOL    HW228059   1.800   1.236   2.880
 9054SOL     OW28060   1.773   6.906   2.434
 9054SOL    HW128061   1.762   7.003   2.411
 9054SOL    HW228062   1.691   6.855   2.406
 9055SOL     OW28063   6.605   3.812   3.560
 9055SOL    HW128064   6.586   3.723   3.519
 9055SOL    HW228065   6.677   3.858   3.507
 9056SOL     OW28066   6.348   6.895   1.451
 9056SOL    HW128067   6.411   6.822   1.426
 9056SOL    HW228068   6.258   6.856   1.471
 9057SOL     OW28069   6.172   4.911   6.262
 9057SOL    HW128070   6.080   4.917   6.301
 9057SOL    HW228071   6.175   4.961   6.176
 9058SOL     OW28072   1.869   2.045   3.464
 9058SOL    HW128073   1.872   1.947   3.446
 9058SOL    HW228074   1.847   2.094   3.379
 9059SOL     OW28075   0.761   1.453   4.372
 9059SOL    HW128076   0.665   1.462   4.346
 9059SOL    HW228077   0.781   1.358   4.393
 9060SOL     OW28078   0.264   2.995   2.063
 9060SOL    HW128079   0.318   2.915   2.038
 9060SOL    HW228080   0.283   3.069   1.998
 9061SOL     OW28081   3.290   5.766   2.287
 9061SOL    HW128082   3.280   5.676   2.245
 9061SOL    HW228083   3.347   5.758   2.369
 9062SOL     OW28084   1.863   5.338   1.956
 9062SOL    HW128085   1.902   5.326   2.047
 9062SOL    HW228086   1.785   5.275   1.945
 9063SOL     OW28087   2.178   6.720   2.573
 9063SOL    HW128088   2.204   6.683   2.483
 9063SOL    HW228089   2.231   6.672   2.644
 9064SOL     OW28090   5.663   3.439   4.404
 9064SOL    HW128091   5.649   3.348   4.444
 9064SOL    HW228092   5.584   3.497   4.425
 9065SOL     OW28093   3.352   5.794   6.853
 9065SOL    HW128094   3.307   5.881   6.832
 9065SOL    HW228095   3.302   5.719   6.808
 9066SOL     OW28096   5.881   0.682   0.399
 9066SOL    HW128097   5.794   0.728   0.418
 9066SOL    HW228098   5.867   0.616   0.325
 9067SOL     OW28099   6.089   0.098   4.799
 9067SOL    HW128100   6.051   0.014   4.840
 9067SOL    HW228101   6.058   0.106   4.705
 9068SOL     OW28102   3.019   0.607   5.050
 9068SOL    HW128103   2.931   0.655   5.055
 9068SOL    HW228104   3.049   0.584   5.143
 9069SOL     OW28105   3.147   2.319   1.633
 9069SOL    HW128106   3.060   2.325   1.584
 9069SOL    HW228107   3.136   2.356   1.725
 9070SOL     OW28108   0.726   3.683   5.530
 9070SOL    HW128109   0.763   3.754   5.469
 9070SOL    HW228110   0.776   3.686   5.617
 9071SOL     OW28111   4.954   6.658   0.714
 9071SOL    HW128112   5.038   6.630   0.759
 9071SOL    HW228113   4.901   6.578   0.688
 9072SOL     OW28114   6.053   1.043   1.456
 9072SOL    HW128115   6.100   1.036   1.369
 9072SOL    HW228116   6.085   0.972   1.518
 9073SOL     OW28117   3.510   6.422   0.642
 9073SOL    HW128118   3.510   6.461   0.734
 9073SOL    HW228119   3.526   6.493   0.574
 9074SOL     OW28120   1.975   0.612   1.947
 9074SOL    HW128121   1.915   0.614   1.867
 9074SOL    HW228122   2.003   0.705   1.970
 9075SOL     OW28123   0.792   0.731   1.368
 9075SOL    HW128124   0.811   0.829   1.361
 9075SOL    HW228125   0.693   0.717   1.379
 9076SOL     OW28126   5.796   1.540   4.967
 9076SOL    HW128127   5.779   1.453   5.013
 9076SOL    HW228128   5.895   1.555   4.961
 9077SOL     OW28129   5.991   0.958   6.693
 9077SOL    HW128130   5.923   0.885   6.682
 9077SOL    HW228131   6.041   0.970   6.608
 9078SOL     OW28132   4.881   3.764   0.280
 9078SOL    HW128133   4.980   3.769   0.269
 9078SOL    HW228134   4.837   3.823   0.212
 9079SOL     OW28135   2.226   5.979   4.552
 9079SOL    HW128136   2.205   5.906   4.617
 9079SOL    HW228137   2.141   6.010   4.509
 9080SOL     OW28138   5.902   2.341   0.537
 9080SOL    HW128139   5.865   2.273   0.474
 9080SOL    HW228140   5.872   2.320   0.630
 9081SOL     OW28141   3.468   6.885   2.720
 9081SOL    HW128142   3.512   6.975   2.714
 9081SOL    HW228143   3.388   6.891   2.780
 9082SOL     OW28144   2.660   6.959   5.568
 9082SOL    HW128145   2.700   6.945   5.477
 9082SOL    HW228146   2.599   0.017   5.565
 9083SOL     OW28147   4.025   4.375   6.031
 9083SOL    HW128148   4.121   4.380   6.061
 9083SOL    HW228149   4.017   4.306   5.959
 9084SOL     OW28150   3.058   3.282   6.070
 9084SOL    HW128151   2.997   3.300   6.147
 9084SOL    HW228152   3.007   3.287   5.984
 9085SOL     OW28153   1.303   4.812   0.509
 9085SOL    HW128154   1.276   4.719   0.484
 9085SOL    HW228155   1.370   4.809   0.582
 9086SOL     OW28156   0.284   4.636   0.768
 9086SOL    HW128157   0.199   4.651   0.718
 9086SOL    HW228158   0.360   4.679   0.719
 9087SOL     OW28159   4.740   2.580   2.090
 9087SOL    HW128160   4.803   2.636   2.037
 9087SOL    HW228161   4.678   2.531   2.028
 9088SOL     OW28162   6.320   5.854   0.935
 9088SOL    HW128163   6.399   5.880   0.879
 9088SOL    HW228164   6.310   5.754   0.933
 9089SOL     OW28165   5.034   6.166   5.083
 9089SOL    HW128166   5.087   6.105   5.142
 9089SOL    HW228167   5.035   6.131   4.989
 9090SOL     OW28168   6.434   6.217   3.862
 9090SOL    HW128169   6.393   6.142   3.915
 9090SOL    HW228170   6.364   6.286   3.843
 9091SOL     OW28171   2.609   3.576   1.072
 9091SOL    HW128172   2.677   3.600   1.142
 9091SOL    HW228173   2.646   3.597   0.981
 9092SOL     OW28174   6.946   1.810   0.669
 9092SOL    HW128175   6.982   1.835   0.759
 9092SOL    HW228176   7.002   1.852   0.598
 9093SOL     OW28177   1.447   6.347   6.174
 9093SOL    HW128178   1.389   6.279   6.128
 9093SOL    HW228179   1.543   6.327   6.156
 9094SOL     OW28180   5.948   5.341   2.697
 9094SOL    HW128181   5.922   5.369   2.789
 9094SOL    HW228182   5.948   5.242   2.690
 9095SOL     OW28183   4.663   3.951   6.618
 9095SOL    HW128184   4.701   3.961   6.709
 9095SOL    HW228185   4.737   3.940   6.551
 9096SOL     OW28186   5.747   4.088   1.941
 9096SOL    HW128187   5.808   4.160   1.907
 9096SOL    HW228188   5.693   4.052   1.865
 9097SOL     OW28189   1.275   2.154   6.754
 9097SOL    HW128190   1.229   2.241   6.771
 9097SOL    HW228191   1.207   2.080   6.755
 9098SOL     OW28192   3.508   2.442   6.655
 9098SOL    HW128193   3.434   2.476   6.597
 9098SOL    HW228194   3.517   2.500   6.735
 9099SOL     OW28195   2.740   3.097   0.104
 9099SOL    HW128196   2.767   3.047   0.187
 9099SOL    HW228197   2.663   3.050   0.061
 9100SOL     OW28198   0.816   3.925   4.326
 9100SOL    HW128199   0.899   3.869   4.316
 9100SOL    HW228200   0.758   3.887   4.397
 9101SOL     OW28201   2.656   2.224   2.931
 9101SOL    HW128202   2.624   2.160   2.861
 9101SOL    HW228203   2.590   2.299   2.939
 9102SOL     OW28204   3.009   0.445   1.966
 9102SOL    HW128205   3.032   0.370   1.903
 9102SOL    HW228206   2.910   0.452   1.975
 9103SOL     OW28207   6.042   3.415   6.370
 9103SOL    HW128208   5.958   3.372   6.339
 9103SOL    HW228209   6.103   3.345   6.408
 9104SOL     OW28210   6.178   6.627   2.051
 9104SOL    HW128211   6.276   6.636   2.037
 9104SOL    HW228212   6.136   6.582   1.972
 9105SOL     OW28213   1.791   1.649   6.944
 9105SOL    HW128214   1.868   1.660   6.881
 9105SOL    HW228215   1.764   1.738   6.980
 9106SOL     OW28216   6.854   3.947   6.845
 9106SOL    HW128217   6.940   3.975   6.802
 9106SOL    HW228218   6.778   3.993   6.799
 9107SOL     OW28219   3.521   0.981   6.216
 9107SOL    HW128220   3.539   0.920   6.138
 9107SOL    HW228221   3.600   1.040   6.231
 9108SOL     OW28222   4.503   3.789   5.279
 9108SOL    HW128223   4.550   3.877   5.284
 9108SOL    HW228224   4.557   3.726   5.223
 9109SOL     OW28225   0.537   2.886   2.575
 9109SOL    HW128226   0.550   2.985   2.563
 9109SOL    HW228227   0.497   2.869   2.665
 9110SOL     OW28228   2.163   3.581   3.792
 9110SOL    HW128229   2.148   3.511   3.721
 9110SOL    HW228230   2.241   3.638   3.766
 9111SOL     OW28231   4.684   1.569   1.066
 9111SOL    HW128232   4.590   1.600   1.081
 9111SOL    HW228233   4.734   1.639   1.015
 9112SOL     OW28234   0.212   4.917   3.757
 9112SOL    HW128235   0.244   4.914   3.852
 9112SOL    HW228236   0.115   4.940   3.755
 9113SOL     OW28237   5.299   1.301   2.816
 9113SOL    HW128238   5.227   1.247   2.858
 9113SOL    HW228239   5.294   1.291   2.716
 9114SOL     OW28240   0.686   4.372   2.254
 9114SOL    HW128241   0.634   4.453   2.280
 9114SOL    HW228242   0.756   4.354   2.323
 9115SOL     OW28243   6.987   5.285   4.914
 9115SOL    HW128244   0.023   5.231   4.977
 9115SOL    HW228245   6.934   5.222   4.856
 9116SOL     OW28246   6.644   0.972   2.062
 9116SOL    HW128247   6.717   0.948   2.126
 9116SOL    HW228248   6.636   0.901   1.992
 9117SOL     OW28249   6.010   2.759   0.286
 9117SOL    HW128250   6.046   2.852   0.294
 9117SOL    HW228251   6.051   2.701   0.356
 9118SOL     OW28252   6.606   3.789   0.416
 9118SOL    HW128253   6.515   3.793   0.374
 9118SOL    HW228254   6.600   3.744   0.505
 9119SOL     OW28255   4.719   0.442   2.064
 9119SOL    HW128256   4.709   0.540   2.084
 9119SOL    HW228257   4.816   0.420   2.053
 9120SOL     OW28258   6.563   1.862   5.809
 9120SOL    HW128259   6.545   1.863   5.711
 9120SOL    HW228260   6.491   1.810   5.856
 9121SOL     OW28261   3.664   1.052   4.874
 9121SOL    HW128262   3.656   0.975   4.810
 9121SOL    HW228263   3.655   1.019   4.967
 9122SOL     OW28264   1.968   4.133   2.330
 9122SOL    HW128265   2.056   4.091   2.349
 9122SOL    HW228266   1.970   4.172   2.238
 9123SOL     OW28267   2.852   0.882   3.547
 9123SOL    HW128268   2.800   0.877   3.633
 9123SOL    HW228269   2.950   0.875   3.567
 9124SOL     OW28270   5.422   6.245   0.216
 9124SOL    HW128271   5.473   6.240   0.130
 9124SOL    HW228272   5.360   6.167   0.223
 9125SOL     OW28273   4.767   3.797   0.773
 9125SOL    HW128274   4.765   3.697   0.782
 9125SOL    HW228275   4.839   3.833   0.832
 9126SOL     OW28276   6.180   3.509   1.255
 9126SOL    HW128277   6.164   3.572   1.179
 9126SOL    HW228278   6.175   3.558   1.341
 9127SOL     OW28279   6.853   1.951   6.329
 9127SOL    HW128280   6.919   2.010   6.377
 9127SOL    HW228281   6.831   1.991   6.240
 9128SOL     OW28282   5.757   1.609   5.378
 9128SOL    HW128283   5.812   1.535   5.339
 9128SOL    HW228284   5.787   1.626   5.472
 9129SOL     OW28285   0.429   2.468   0.344
 9129SOL    HW128286   0.341   2.454   0.299
 9129SOL    HW228287   0.448   2.390   0.404
 9130SOL     OW28288   0.384   3.308   5.986
 9130SOL    HW128289   0.358   3.282   6.078
 9130SOL    HW228290   0.433   3.395   5.988
 9131SOL     OW28291   5.920   2.832   5.328
 9131SOL    HW128292   5.914   2.753   5.267
 9131SOL    HW228293   5.936   2.800   5.422
 9132SOL     OW28294   0.487   5.903   4.241
 9132SOL    HW128295   0.547   5.941   4.171
 9132SOL    HW228296   0.540   5.890   4.326
 9133SOL     OW28297   3.635   6.502   1.549
 9133SOL    HW128298   3.578   6.504   1.631
 9133SOL    HW228299   3.580   6.523   1.469
 9134SOL     OW28300   4.272   5.666   1.010
 9134SOL    HW128301   4.173   5.678   1.013
 9134SOL    HW228302   4.295   5.596   0.941
 9135SOL     OW28303   6.658   6.938   1.593
 9135SOL    HW128304   6.588   6.895   1.650
 9135SOL    HW228305   6.719   6.868   1.556
 9136SOL     OW28306   4.902   6.577   6.941
 9136SOL    HW128307   4.863   6.550   6.853
 9136SOL    HW228308   4.830   6.584   7.009
 9137SOL     OW28309   5.487   0.970   0.294
 9137SOL    HW128310   5.431   0.903   0.246
 9137SOL    HW228311   5.485   1.057   0.244
 9138SOL     OW28312   6.942   6.114   6.595
 9138SOL    HW128313   0.021   6.111   6.599
 9138SOL    HW228314   6.905   6.132   6.686
 9139SOL     OW28315   2.162   1.698   3.338
 9139SOL    HW128316   2.256   1.730   3.324
 9139SOL    HW228317   2.104   1.736   3.266
 9140SOL     OW28318   6.967   3.451   2.767
 9140SOL    HW128319   6.885   3.435   2.821
 9140SOL    HW228320   6.944   3.507   2.688
 9141SOL     OW28321   5.248   0.717   0.592
 9141SOL    HW128322   5.319   0.742   0.657
 9141SOL    HW228323   5.209   0.800   0.552
 9142SOL     OW28324   0.764   2.960   0.904
 9142SOL    HW128325   0.712   3.018   0.841
 9142SOL    HW228326   0.723   2.965   0.995
 9143SOL     OW28327   6.406   3.539   0.231
 9143SOL    HW128328   6.350   3.455   0.232
 9143SOL    HW228329   6.349   3.616   0.257
 9144SOL     OW28330   2.303   4.919   4.679
 9144SOL    HW128331   2.385   4.915   4.623
 9144SOL    HW228332   2.311   4.855   4.756
 9145SOL     OW28333   0.545   5.761   6.783
 9145SOL    HW128334   0.516   5.752   6.688
 9145SOL    HW228335   0.643   5.778   6.786
 9146SOL     OW28336   5.598   3.275   3.654
 9146SOL    HW128337   5.688   3.241   3.626
 9146SOL    HW228338   5.568   3.346   3.591
 9147SOL     OW28339   6.004   6.973   5.680
 9147SOL    HW128340   6.018   7.019   5.592
 9147SOL    HW228341   5.927   7.015   5.728
 9148SOL     OW28342   5.567   6.189   1.584
 9148SOL    HW128343   5.659   6.173   1.621
 9148SOL    HW228344   5.560   6.145   1.494
 9149SOL     OW28345   5.417   4.259   2.555
 9149SOL    HW128346   5.504   4.238   2.510
 9149SOL    HW228347   5.434   4.286   2.650
 9150SOL     OW28348   3.629   5.447   1.465
 9150SOL    HW128349   3.579   5.478   1.546
 9150SOL    HW228350   3.570   5.389   1.409
 9151SOL     OW28351   2.318   4.832   3.548
 9151SOL    HW128352   2.351   4.902   3.611
 9151SOL    HW228353   2.358   4.744   3.571
 9152SOL     OW28354   2.179   4.325   4.962
 9152SOL    HW128355   2.258   4.290   4.911
 9152SOL    HW228356   2.172   4.277   5.049
 9153SOL     OW28357   0.266   2.856   0.065
 9153SOL    HW128358   0.345   2.889   0.117
 9153SOL    HW228359   0.182   2.889   0.107
 9154SOL     OW28360   5.015   4.596   6.684
 9154SOL    HW128361   4.966   4.578   6.599
 9154SOL    HW228362   5.006   4.692   6.709
 9155SOL     OW28363   1.520   3.875   2.277
 9155SOL    HW128364   1.585   3.949   2.296
 9155SOL    HW228365   1.558   3.788   2.309
 9156SOL     OW28366   0.930   2.269   0.361
 9156SOL    HW128367   0.960   2.203   0.429
 9156SOL    HW228368   0.878   2.342   0.406
 9157SOL     OW28369   1.598   3.671   6.594
 9157SOL    HW128370   1.610   3.603   6.521
 9157SOL    HW228371   1.679   3.730   6.597
 9158SOL     OW28372   6.129   3.449   4.083
 9158SOL    HW128373   6.044   3.463   4.134
 9158SOL    HW228374   6.180   3.535   4.081
 9159SOL     OW28375   1.418   1.365   2.218
 9159SOL    HW128376   1.423   1.465   2.206
 9159SOL    HW228377   1.503   1.332   2.257
 9160SOL     OW28378   6.889   6.538   5.825
 9160SOL    HW128379   6.806   6.558   5.772
 9160SOL    HW228380   6.951   6.616   5.820
 9161SOL     OW28381   5.413   5.132   4.122
 9161SOL    HW128382   5.450   5.131   4.029
 9161SOL    HW228383   5.379   5.223   4.143
 9162SOL     OW28384   4.352   0.907   3.424
 9162SOL    HW128385   4.423   0.950   3.369
 9162SOL    HW228386   4.351   0.948   3.515
 9163SOL     OW28387   0.738   2.390   4.557
 9163SOL    HW128388   0.810   2.458   4.569
 9163SOL    HW228389   0.778   2.298   4.562
 9164SOL     OW28390   2.320   0.465   0.163
 9164SOL    HW128391   2.276   0.402   0.227
 9164SOL    HW228392   2.408   0.427   0.134
 9165SOL     OW28393   6.249   1.199   5.566
 9165SOL    HW128394   6.314   1.274   5.549
 9165SOL    HW228395   6.234   1.149   5.481
 9166SOL     OW28396   4.447   5.870   1.026
 9166SOL    HW128397   4.402   5.781   1.030
 9166SOL    HW228398   4.541   5.859   0.992
 9167SOL     OW28399   2.310   1.810   6.260
 9167SOL    HW128400   2.339   1.903   6.281
 9167SOL    HW228401   2.253   1.775   6.335
 9168SOL     OW28402   6.529   5.856   5.958
 9168SOL    HW128403   6.542   5.805   6.043
 9168SOL    HW228404   6.571   5.806   5.882
 9169SOL     OW28405   6.571   0.166   6.267
 9169SOL    HW128406   6.576   0.168   6.367
 9169SOL    HW228407   6.571   0.071   6.236
 9170SOL     OW28408   1.682   0.141   6.813
 9170SOL    HW128409   1.716   0.234   6.799
 9170SOL    HW228410   1.627   0.139   6.897
 9171SOL     OW28411   3.741   5.887   0.629
 9171SOL    HW128412   3.816   5.899   0.695
 9171SOL    HW228413   3.772   5.916   0.538
 9172SOL     OW28414   5.167   1.348   3.116
 9172SOL    HW128415   5.241   1.414   3.132
 9172SOL    HW228416   5.172   1.276   3.184
 9173SOL     OW28417   5.714   4.203   6.247
 9173SOL    HW128418   5.621   4.182   6.279
 9173SOL    HW228419   5.768   4.237   6.324
 9174SOL     OW28420   6.785   4.409   0.546
 9174SOL    HW128421   6.873   4.380   0.582
 9174SOL    HW228422   6.749   4.485   0.600
 9175SOL     OW28423   1.466   6.119   6.590
 9175SOL    HW128424   1.381   6.073   6.568
 9175SOL    HW228425   1.469   6.208   6.545
 9176SOL     OW28426   2.357   1.234   2.946
 9176SOL    HW128427   2.387   1.315   2.995
 9176SOL    HW228428   2.319   1.260   2.858
 9177SOL     OW28429   0.628   4.689   4.138
 9177SOL    HW128430   0.667   4.701   4.046
 9177SOL    HW228431   0.653   4.768   4.195
 9178SOL     OW28432   1.836   5.397   0.678
 9178SOL    HW128433   1.895   5.325   0.642
 9178SOL    HW228434   1.877   5.435   0.761
 9179SOL     OW28435   2.107   5.409   4.006
 9179SOL    HW128436   2.188   5.392   3.950
 9179SOL    HW228437   2.122   5.492   4.061
 9180SOL     OW28438   6.484   2.378   3.240
 9180SOL    HW128439   6.580   2.369   3.268
 9180SOL    HW228440   6.436   2.436   3.305
 9181SOL     OW28441   5.752   2.190   4.436
 9181SOL    HW128442   5.844   2.204   4.473
 9181SOL    HW228443   5.732   2.264   4.371
 9182SOL     OW28444   3.005   0.064   3.174
 9182SOL    HW128445   2.953   0.150   3.177
 9182SOL    HW228446   3.045   0.053   3.083
 9183SOL     OW28447   4.449   4.331   6.913
 9183SOL    HW128448   4.522   4.261   6.914
 9183SOL    HW228449   4.374   4.300   6.855
 9184SOL     OW28450   4.648   2.110   1.177
 9184SOL    HW128451   4.662   2.125   1.079
 9184SOL    HW228452   4.724   2.151   1.228
 9185SOL     OW28453   6.013   6.412   5.258
 9185SOL    HW128454   5.991   6.508   5.238
 9185SOL    HW228455   5.976   6.354   5.185
 9186SOL     OW28456   5.644   6.944   4.389
 9186SOL    HW128457   5.613   6.854   4.357
 9186SOL    HW228458   5.608   6.960   4.481
 9187SOL     OW28459   3.284   1.995   0.280
 9187SOL    HW128460   3.380   1.964   0.282
 9187SOL    HW228461   3.258   2.016   0.186
 9188SOL     OW28462   2.340   0.366   1.801
 9188SOL    HW128463   2.412   0.312   1.843
 9188SOL    HW228464   2.374   0.459   1.783
 9189SOL     OW28465   3.037   5.858   2.200
 9189SOL    HW128466   3.133   5.845   2.225
 9189SOL    HW228467   3.015   5.803   2.120
 9190SOL     OW28468   1.316   3.297   5.379
 9190SOL    HW128469   1.345   3.388   5.350
 9190SOL    HW228470   1.395   3.238   5.391
 9191SOL     OW28471   5.858   0.886   0.052
 9191SOL    HW128472   5.939   0.842   0.090
 9191SOL    HW228473   5.879   0.980   0.026
 9192SOL     OW28474   0.094   2.330   6.209
 9192SOL    HW128475   0.058   2.343   6.301
 9192SOL    HW228476   0.190   2.359   6.206
 9193SOL     OW28477   4.006   3.505   4.925
 9193SOL    HW128478   4.026   3.595   4.965
 9193SOL    HW228479   4.018   3.510   4.826
 9194SOL     OW28480   3.197   0.919   2.633
 9194SOL    HW128481   3.182   0.855   2.709
 9194SOL    HW228482   3.287   0.901   2.593
 9195SOL     OW28483   1.218   3.471   3.063
 9195SOL    HW128484   1.224   3.376   3.093
 9195SOL    HW228485   1.257   3.531   3.133
 9196SOL     OW28486   5.859   6.282   3.667
 9196SOL    HW128487   5.809   6.302   3.583
 9196SOL    HW228488   5.895   6.189   3.663
 9197SOL     OW28489   3.131   4.873   1.037
 9197SOL    HW128490   3.048   4.914   1.075
 9197SOL    HW228491   3.107   4.790   0.986
 9198SOL     OW28492   6.565   4.317   6.331
 9198SOL    HW128493   6.656   4.276   6.335
 9198SOL    HW228494   6.505   4.261   6.275
 9199SOL     OW28495   6.710   2.936   5.570
 9199SOL    HW128496   6.724   3.035   5.569
 9199SOL    HW228497   6.709   2.903   5.664
 9200SOL     OW28498   3.088   6.038   5.824
 9200SOL    HW128499   3.163   6.079   5.874
 9200SOL    HW228500   3.105   6.045   5.726
 9201SOL     OW28501   6.664   3.569   0.196
 9201SOL    HW128502   6.564   3.569   0.201
 9201SOL    HW228503   6.695   3.661   0.169
 9202SOL     OW28504   0.967   6.279   3.608
 9202SOL    HW128505   1.007   6.370   3.612
 9202SOL    HW228506   0.997   6.234   3.524
 9203SOL     OW28507   6.371   3.348   5.835
 9203SOL    HW128508   6.306   3.395   5.775
 9203SOL    HW228509   6.388   3.256   5.800
 9204SOL     OW28510   4.930   3.809   4.449
 9204SOL    HW128511   4.955   3.784   4.543
 9204SOL    HW228512   4.855   3.875   4.451
 9205SOL     OW28513   5.170   5.647   3.539
 9205SOL    HW128514   5.104   5.647   3.464
 9205SOL    HW228515   5.127   5.681   3.622
 9206SOL     OW28516   3.532   5.806   3.070
 9206SOL    HW128517   3.632   5.802   3.070
 9206SOL    HW228518   3.499   5.820   2.977
 9207SOL     OW28519   4.424   4.251   0.366
 9207SOL    HW128520   4.421   4.283   0.271
 9207SOL    HW228521   4.517   4.262   0.402
 9208SOL     OW28522   5.527   4.556   2.604
 9208SOL    HW128523   5.567   4.596   2.522
 9208SOL    HW228524   5.428   4.551   2.594
 9209SOL     OW28525   4.705   0.964   0.666
 9209SOL    HW128526   4.762   0.918   0.733
 9209SOL    HW228527   4.651   0.897   0.616
 9210SOL     OW28528   1.110   1.689   0.990
 9210SOL    HW128529   1.118   1.785   0.961
 9210SOL    HW228530   1.126   1.683   1.089
 9211SOL     OW28531   6.070   2.573   6.105
 9211SOL    HW128532   6.115   2.566   6.016
 9211SOL    HW228533   6.119   2.639   6.162
 9212SOL     OW28534   5.189   4.443   3.896
 9212SOL    HW128535   5.091   4.464   3.890
 9212SOL    HW228536   5.239   4.502   3.832
 9213SOL     OW28537   4.891   5.110   4.468
 9213SOL    HW128538   4.823   5.144   4.403
 9213SOL    HW228539   4.852   5.034   4.521
 9214SOL     OW28540   6.829   2.695   5.021
 9214SOL    HW128541   6.878   2.658   5.100
 9214SOL    HW228542   6.885   2.765   4.976
 9215SOL     OW28543   1.652   4.189   2.043
 9215SOL    HW128544   1.685   4.107   2.090
 9215SOL    HW228545   1.619   4.164   1.952
 9216SOL     OW28546   2.452   0.099   3.314
 9216SOL    HW128547   2.477   0.088   3.218
 9216SOL    HW228548   2.531   0.133   3.365
 9217SOL     OW28549   6.103   3.336   6.769
 9217SOL    HW128550   6.137   3.329   6.862
 9217SOL    HW228551   6.066   3.248   6.740
 9218SOL     OW28552   3.844   0.816   0.031
 9218SOL    HW128553   3.804   0.876   6.982
 9218SOL    HW228554   3.772   0.762   0.074
 9219SOL     OW28555   4.891   3.845   6.249
 9219SOL    HW128556   4.839   3.761   6.268
 9219SOL    HW228557   4.964   3.854   6.317
 9220SOL     OW28558   1.326   5.998   1.931
 9220SOL    HW128559   1.301   5.921   1.872
 9220SOL    HW228560   1.360   6.073   1.875
 9221SOL     OW28561   1.595   0.354   3.252
 9221SOL    HW128562   1.567   0.336   3.346
 9221SOL    HW228563   1.631   0.447   3.245
 9222SOL     OW28564   2.667   5.546   5.463
 9222SOL    HW128565   2.573   5.548   5.497
 9222SOL    HW228566   2.669   5.580   5.369
 9223SOL     OW28567   1.317   2.137   4.314
 9223SOL    HW128568   1.309   2.213   4.379
 9223SOL    HW228569   1.374   2.065   4.355
 9224SOL     OW28570   0.862   5.684   3.967
 9224SOL    HW128571   0.960   5.678   3.990
 9224SOL    HW228572   0.852   5.689   3.868
 9225SOL     OW28573   2.860   5.923   5.907
 9225SOL    HW128574   2.877   5.840   5.959
 9225SOL    HW228575   2.946   5.972   5.893
 9226SOL     OW28576   0.505   6.965   1.484
 9226SOL    HW128577   0.459   6.878   1.466
 9226SOL    HW228578   0.519   6.975   1.582
 9227SOL     OW28579   2.175   5.700   1.013
 9227SOL    HW128580   2.121   5.620   0.985
 9227SOL    HW228581   2.154   5.776   0.952
 9228SOL     OW28582   2.734   1.361   6.863
 9228SOL    HW128583   2.776   1.365   6.953
 9228SOL    HW228584   2.665   1.289   6.860
 9229SOL     OW28585   0.520   5.108   5.333
 9229SOL    HW128586   0.443   5.049   5.354
 9229SOL    HW228587   0.600   5.051   5.311
 9230SOL     OW28588   4.854   3.398   3.511
 9230SOL    HW128589   4.854   3.431   3.417
 9230SOL    HW228590   4.939   3.351   3.531
 9231SOL     OW28591   1.424   3.566   4.947
 9231SOL    HW128592   1.378   3.610   4.870
 9231SOL    HW228593   1.368   3.491   4.982
 9232SOL     OW28594   3.169   5.123   6.616
 9232SOL    HW128595   3.074   5.154   6.607
 9232SOL    HW228596   3.210   5.164   6.697
 9233SOL     OW28597   5.946   6.081   1.332
 9233SOL    HW128598   5.943   6.020   1.411
 9233SOL    HW228599   6.016   6.151   1.346
 9234SOL     OW28600   3.327   5.830   0.468
 9234SOL    HW128601   3.241   5.780   0.470
 9234SOL    HW228602   3.370   5.827   0.558
 9235SOL     OW28603   2.026   2.610   3.237
 9235SOL    HW128604   2.054   2.591   3.331
 9235SOL    HW228605   2.106   2.609   3.178
 9236SOL     OW28606   2.404   4.449   6.811
 9236SOL    HW128607   2.367   4.372   6.863
 9236SOL    HW228608   2.343   4.528   6.820
 9237SOL     OW28609   0.682   5.992   3.032
 9237SOL    HW128610   0.676   5.995   3.131
 9237SOL    HW228611   0.592   5.971   2.993
 9238SOL     OW28612   2.227   2.694   6.117
 9238SOL    HW128613   2.233   2.598   6.092
 9238SOL    HW228614   2.151   2.737   6.068
 9239SOL     OW28615   0.424   3.592   5.950
 9239SOL    HW128616   0.341   3.645   5.967
 9239SOL    HW228617   0.501   3.654   5.937
 9240SOL     OW28618   5.547   2.821   2.264
 9240SOL    HW128619   5.516   2.740   2.214
 9240SOL    HW228620   5.477   2.847   2.331
 9241SOL     OW28621   0.590   4.810   6.582
 9241SOL    HW128622   0.688   4.790   6.579
 9241SOL    HW228623   0.570   4.889   6.523
 9242SOL     OW28624   1.070   4.307   0.393
 9242SOL    HW128625   1.118   4.394   0.395
 9242SOL    HW228626   1.100   4.251   0.471
 9243SOL     OW28627   0.381   0.452   1.438
 9243SOL    HW128628   0.342   0.396   1.512
 9243SOL    HW228629   0.438   0.394   1.380
 9244SOL     OW28630   3.388   5.127   5.995
 9244SOL    HW128631   3.437   5.214   5.992
 9244SOL    HW228632   3.313   5.133   6.061
 9245SOL     OW28633   1.010   6.129   4.148
 9245SOL    HW128634   0.911   6.126   4.131
 9245SOL    HW228635   1.057   6.139   4.060
 9246SOL     OW28636   6.561   6.977   2.727
 9246SOL    HW128637   6.611   0.009   2.658
 9246SOL    HW228638   6.574   6.880   2.710
 9247SOL     OW28639   2.411   5.993   3.320
 9247SOL    HW128640   2.314   6.007   3.337
 9247SOL    HW228641   2.428   5.990   3.222
 9248SOL     OW28642   3.267   2.019   4.213
 9248SOL    HW128643   3.246   1.925   4.187
 9248SOL    HW228644   3.226   2.082   4.147
 9249SOL     OW28645   3.565   4.865   1.497
 9249SOL    HW128646   3.589   4.879   1.593
 9249SOL    HW228647   3.637   4.903   1.439
 9250SOL     OW28648   5.708   2.408   4.267
 9250SOL    HW128649   5.620   2.455   4.270
 9250SOL    HW228650   5.781   2.474   4.250
 9251SOL     OW28651   3.744   1.849   3.104
 9251SOL    HW128652   3.705   1.859   3.195
 9251SOL    HW228653   3.797   1.931   3.081
 9252SOL     OW28654   5.061   0.923   4.324
 9252SOL    HW128655   5.118   0.995   4.365
 9252SOL    HW228656   4.971   0.960   4.303
 9253SOL     OW28657   5.486   5.354   5.347
 9253SOL    HW128658   5.496   5.449   5.378
 9253SOL    HW228659   5.497   5.351   5.248
 9254SOL     OW28660   5.836   5.095   3.321
 9254SOL    HW128661   5.879   5.181   3.351
 9254SOL    HW228662   5.900   5.019   3.338
 9255SOL     OW28663   4.349   4.052   0.660
 9255SOL    HW128664   4.340   3.967   0.608
 9255SOL    HW228665   4.323   4.130   0.602
 9256SOL     OW28666   3.051   0.065   2.901
 9256SOL    HW128667   3.051   0.119   2.816
 9256SOL    HW228668   3.073   6.991   2.880
 9257SOL     OW28669   0.210   4.609   3.620
 9257SOL    HW128670   0.247   4.541   3.557
 9257SOL    HW228671   0.269   4.615   3.701
 9258SOL     OW28672   3.607   4.068   2.614
 9258SOL    HW128673   3.682   4.098   2.674
 9258SOL    HW228674   3.595   3.969   2.624
 9259SOL     OW28675   0.252   1.870   0.274
 9259SOL    HW128676   0.301   1.956   0.293
 9259SOL    HW228677   0.308   1.812   0.216
 9260SOL     OW28678   6.372   1.437   5.489
 9260SOL    HW128679   6.439   1.466   5.421
 9260SOL    HW228680   6.302   1.508   5.499
 9261SOL     OW28681   2.843   1.093   0.553
 9261SOL    HW128682   2.896   1.158   0.606
 9261SOL    HW228683   2.880   1.086   0.461
 9262SOL     OW28684   6.855   4.640   5.005
 9262SOL    HW128685   6.807   4.590   4.933
 9262SOL    HW228686   6.824   4.607   5.094
 9263SOL     OW28687   4.902   0.702   1.906
 9263SOL    HW128688   4.883   0.613   1.865
 9263SOL    HW228689   4.997   0.728   1.887
 9264SOL     OW28690   5.056   4.535   0.436
 9264SOL    HW128691   5.057   4.464   0.507
 9264SOL    HW228692   4.961   4.553   0.410
 9265SOL     OW28693   4.232   2.357   0.226
 9265SOL    HW128694   4.215   2.332   0.321
 9265SOL    HW228695   4.155   2.409   0.190
 9266SOL     OW28696   1.122   6.232   0.530
 9266SOL    HW128697   1.110   6.227   0.629
 9266SOL    HW228698   1.068   6.160   0.487
 9267SOL     OW28699   0.304   2.300   4.675
 9267SOL    HW128700   0.288   2.233   4.603
 9267SOL    HW228701   0.365   2.372   4.641
 9268SOL     OW28702   1.011   5.312   2.725
 9268SOL    HW128703   1.105   5.287   2.701
 9268SOL    HW228704   1.010   5.354   2.815
 9269SOL     OW28705   3.956   0.954   6.311
 9269SOL    HW128706   3.975   1.017   6.386
 9269SOL    HW228707   4.002   0.867   6.328
 9270SOL     OW28708   4.231   6.449   6.113
 9270SOL    HW128709   4.239   6.356   6.151
 9270SOL    HW228710   4.135   6.477   6.113
 9271SOL     OW28711   6.382   0.356   1.382
 9271SOL    HW128712   6.337   0.281   1.431
 9271SOL    HW228713   6.365   0.346   1.284
 9272SOL     OW28714   0.703   6.066   5.578
 9272SOL    HW128715   0.674   6.101   5.489
 9272SOL    HW228716   0.651   5.984   5.600
 9273SOL     OW28717   6.204   6.932   2.474
 9273SOL    HW128718   6.255   6.876   2.409
 9273SOL    HW228719   6.217   0.008   2.452
 9274SOL     OW28720   6.563   1.393   0.342
 9274SOL    HW128721   6.474   1.424   0.376
 9274SOL    HW228722   6.599   1.462   0.280
 9275SOL     OW28723   6.228   1.123   0.495
 9275SOL    HW128724   6.291   1.065   0.444
 9275SOL    HW228725   6.183   1.186   0.433
 9276SOL     OW28726   1.493   3.828   1.481
 9276SOL    HW128727   1.534   3.828   1.390
 9276SOL    HW228728   1.503   3.919   1.522
 9277SOL     OW28729   4.469   4.654   0.315
 9277SOL    HW128730   4.474   4.571   0.260
 9277SOL    HW228731   4.462   4.630   0.412
 9278SOL     OW28732   1.930   0.239   6.121
 9278SOL    HW128733   1.976   0.214   6.206
 9278SOL    HW228734   1.836   0.266   6.141
 9279SOL     OW28735   3.333   0.478   2.173
 9279SOL    HW128736   3.343   0.426   2.089
 9279SOL    HW228737   3.336   0.416   2.252
 9280SOL     OW28738   2.264   1.831   2.825
 9280SOL    HW128739   2.316   1.776   2.760
 9280SOL    HW228740   2.255   1.780   2.911
 9281SOL     OW28741   2.279   3.605   6.540
 9281SOL    HW128742   2.339   3.681   6.563
 9281SOL    HW228743   2.287   3.583   6.443
 9282SOL     OW28744   5.957   0.549   3.504
 9282SOL    HW128745   5.873   0.588   3.542
 9282SOL    HW228746   6.031   0.554   3.572
 9283SOL     OW28747   5.306   0.791   4.004
 9283SOL    HW128748   5.353   0.814   3.919
 9283SOL    HW228749   5.226   0.850   4.015
 9284SOL     OW28750   2.878   3.221   5.865
 9284SOL    HW128751   2.877   3.208   5.766
 9284SOL    HW228752   2.793   3.265   5.894
 9285SOL     OW28753   5.033   2.632   1.129
 9285SOL    HW128754   4.946   2.616   1.084
 9285SOL    HW228755   5.043   2.568   1.205
 9286SOL     OW28756   5.742   5.555   0.922
 9286SOL    HW128757   5.646   5.537   0.901
 9286SOL    HW228758   5.777   5.626   0.862
 9287SOL     OW28759   3.058   5.059   0.194
 9287SOL    HW128760   3.148   5.091   0.223
 9287SOL    HW228761   3.038   5.095   0.103
 9288SOL     OW28762   4.437   1.594   2.885
 9288SOL    HW128763   4.368   1.608   2.814
 9288SOL    HW228764   4.498   1.673   2.888
 9289SOL     OW28765   3.976   0.626   1.860
 9289SOL    HW128766   3.953   0.541   1.814
 9289SOL    HW228767   3.994   0.697   1.792
 9290SOL     OW28768   5.784   1.092   3.030
 9290SOL    HW128769   5.781   1.014   3.092
 9290SOL    HW228770   5.699   1.097   2.977
 9291SOL     OW28771   0.937   5.538   5.412
 9291SOL    HW128772   1.027   5.549   5.370
 9291SOL    HW228773   0.914   5.440   5.418
 9292SOL     OW28774   1.967   3.504   6.576
 9292SOL    HW128775   2.065   3.507   6.559
 9292SOL    HW228776   1.926   3.428   6.524
 9293SOL     OW28777   5.692   3.024   6.243
 9293SOL    HW128778   5.740   2.940   6.269
 9293SOL    HW228779   5.623   3.002   6.174
 9294SOL     OW28780   4.354   6.685   6.213
 9294SOL    HW128781   4.319   6.622   6.145
 9294SOL    HW228782   4.454   6.675   6.221
 9295SOL     OW28783   6.019   1.059   5.062
 9295SOL    HW128784   6.069   1.058   4.976
 9295SOL    HW228785   5.970   0.973   5.073
 9296SOL     OW28786   1.401   5.833   6.537
 9296SOL    HW128787   1.346   5.847   6.455
 9296SOL    HW228788   1.475   5.899   6.540
 9297SOL     OW28789   0.802   6.896   3.125
 9297SOL    HW128790   0.713   6.878   3.167
 9297SOL    HW228791   0.827   6.820   3.066
 9298SOL     OW28792   0.955   6.398   6.485
 9298SOL    HW128793   0.862   6.431   6.465
 9298SOL    HW228794   1.021   6.470   6.462
 9299SOL     OW28795   0.814   2.376   5.006
 9299SOL    HW128796   0.735   2.342   4.955
 9299SOL    HW228797   0.895   2.321   4.983
 9300SOL     OW28798   0.341   4.307   6.134
 9300SOL    HW128799   0.348   4.264   6.224
 9300SOL    HW228800   0.335   4.237   6.063
 9301SOL     OW28801   5.754   5.284   4.724
 9301SOL    HW128802   5.696   5.366   4.714
 9301SOL    HW228803   5.801   5.266   4.638
 9302SOL     OW28804   2.362   2.465   3.992
 9302SOL    HW128805   2.279   2.495   3.946
 9302SOL    HW228806   2.438   2.465   3.926
 9303SOL     OW28807   2.679   3.992   1.147
 9303SOL    HW128808   2.764   4.032   1.180
 9303SOL    HW228809   2.602   4.026   1.200
 9304SOL     OW28810   3.954   4.544   1.631
 9304SOL    HW128811   3.989   4.486   1.557
 9304SOL    HW228812   3.870   4.505   1.668
 9305SOL     OW28813   3.594   0.965   0.442
 9305SOL    HW128814   3.604   1.003   0.350
 9305SOL    HW228815   3.562   1.036   0.504
 9306SOL     OW28816   0.536   4.575   5.487
 9306SOL    HW128817   0.476   4.530   5.553
 9306SOL    HW228818   0.494   4.573   5.396
 9307SOL     OW28819   0.814   3.824   0.978
 9307SOL    HW128820   0.846   3.782   1.063
 9307SOL    HW228821   0.746   3.894   0.998
 9308SOL     OW28822   1.591   3.415   0.516
 9308SOL    HW128823   1.522   3.375   0.575
 9308SOL    HW228824   1.548   3.480   0.452
 9309SOL     OW28825   3.828   5.159   6.146
 9309SOL    HW128826   3.785   5.073   6.173
 9309SOL    HW228827   3.791   5.234   6.202
 9310SOL     OW28828   6.090   5.600   5.727
 9310SOL    HW128829   6.048   5.673   5.673
 9310SOL    HW228830   6.185   5.588   5.699
 9311SOL     OW28831   4.821   4.568   1.719
 9311SOL    HW128832   4.889   4.506   1.756
 9311SOL    HW228833   4.730   4.537   1.744
 9312SOL     OW28834   1.162   3.643   1.163
 9312SOL    HW128835   1.106   3.566   1.193
 9312SOL    HW228836   1.117   3.728   1.189
 9313SOL     OW28837   6.948   0.207   1.166
 9313SOL    HW128838   6.889   0.271   1.117
 9313SOL    HW228839   0.021   0.241   1.167
 9314SOL     OW28840   6.115   4.436   0.002
 9314SOL    HW128841   6.128   4.388   0.089
 9314SOL    HW228842   6.198   4.429   6.968
 9315SOL     OW28843   6.823   6.898   5.582
 9315SOL    HW128844   6.796   6.802   5.577
 9315SOL    HW228845   6.833   6.935   5.490
 9316SOL     OW28846   5.385   6.306   5.860
 9316SOL    HW128847   5.336   6.222   5.880
 9316SOL    HW228848   5.363   6.337   5.768
 9317SOL     OW28849   5.414   5.772   3.990
 9317SOL    HW128850   5.318   5.744   3.984
 9317SOL    HW228851   5.461   5.716   4.058
 9318SOL     OW28852   6.050   1.303   6.253
 9318SOL    HW128853   6.109   1.224   6.238
 9318SOL    HW228854   5.960   1.284   6.214
 9319SOL     OW28855   2.316   2.582   6.785
 9319SOL    HW128856   2.326   2.515   6.859
 9319SOL    HW228857   2.374   2.662   6.804
 9320SOL     OW28858   3.666   0.597   4.975
 9320SOL    HW128859   3.649   0.690   4.942
 9320SOL    HW228860   3.734   0.600   5.048
 9321SOL     OW28861   0.641   0.409   5.155
 9321SOL    HW128862   0.552   0.378   5.121
 9321SOL    HW228863   0.714   0.362   5.106
 9322SOL     OW28864   6.973   3.478   6.010
 9322SOL    HW128865   6.917   3.493   6.092
 9322SOL    HW228866   6.953   3.548   5.942
 9323SOL     OW28867   1.239   1.112   5.556
 9323SOL    HW128868   1.229   1.188   5.620
 9323SOL    HW228869   1.310   1.134   5.489
 9324SOL     OW28870   1.407   4.646   1.983
 9324SOL    HW128871   1.405   4.716   2.055
 9324SOL    HW228872   1.372   4.560   2.020
 9325SOL     OW28873   6.063   1.322   0.432
 9325SOL    HW128874   6.061   1.378   0.349
 9325SOL    HW228875   5.978   1.269   0.439
 9326SOL     OW28876   2.630   4.829   0.249
 9326SOL    HW128877   2.705   4.896   0.251
 9326SOL    HW228878   2.559   4.857   0.314
 9327SOL     OW28879   4.453   0.514   2.509
 9327SOL    HW128880   4.519   0.589   2.513
 9327SOL    HW228881   4.393   0.526   2.430
 9328SOL     OW28882   2.418   1.068   4.824
 9328SOL    HW128883   2.480   1.037   4.751
 9328SOL    HW228884   2.415   1.168   4.826
 9329SOL     OW28885   5.692   3.546   0.969
 9329SOL    HW128886   5.608   3.576   1.013
 9329SOL    HW228887   5.770   3.598   1.006
 9330SOL     OW28888   6.533   0.108   5.539
 9330SOL    HW128889   6.561   0.185   5.596
 9330SOL    HW228890   6.560   0.023   5.584
 9331SOL     OW28891   2.502   0.794   6.594
 9331SOL    HW128892   2.468   0.886   6.574
 9331SOL    HW228893   2.439   0.727   6.556
 9332SOL     OW28894   4.179   4.722   0.218
 9332SOL    HW128895   4.263   4.668   0.207
 9332SOL    HW228896   4.114   4.697   0.145
 9333SOL     OW28897   3.550   4.899   6.812
 9333SOL    HW128898   3.487   4.834   6.855
 9333SOL    HW228899   3.498   4.965   6.758
 9334SOL     OW28900   5.008   6.509   4.241
 9334SOL    HW128901   5.012   6.409   4.246
 9334SOL    HW228902   4.945   6.543   4.312
 9335SOL     OW28903   1.352   1.190   6.667
 9335SOL    HW128904   1.278   1.257   6.677
 9335SOL    HW228905   1.440   1.236   6.682
 9336SOL     OW28906   3.901   6.962   5.168
 9336SOL    HW128907   3.956   6.904   5.108
 9336SOL    HW228908   3.896   0.033   5.130
 9337SOL     OW28909   4.063   1.050   4.935
 9337SOL    HW128910   4.087   1.137   4.977
 9337SOL    HW228911   4.032   0.987   5.005
 9338SOL     OW28912   6.301   6.796   1.077
 9338SOL    HW128913   6.252   6.881   1.096
 9338SOL    HW228914   6.365   6.777   1.151
 9339SOL     OW28915   5.927   6.435   0.476
 9339SOL    HW128916   5.952   6.529   0.454
 9339SOL    HW228917   5.961   6.374   0.404
 9340SOL     OW28918   4.023   4.928   3.758
 9340SOL    HW128919   4.027   5.026   3.774
 9340SOL    HW228920   4.047   4.879   3.842
 9341SOL     OW28921   6.206   5.152   0.966
 9341SOL    HW128922   6.295   5.180   0.930
 9341SOL    HW228923   6.137   5.219   0.941
 9342SOL     OW28924   3.194   6.712   4.034
 9342SOL    HW128925   3.156   6.656   3.960
 9342SOL    HW228926   3.277   6.759   4.001
 9343SOL     OW28927   5.004   4.038   1.722
 9343SOL    HW128928   4.999   4.079   1.631
 9343SOL    HW228929   4.912   4.035   1.762
 9344SOL     OW28930   5.309   6.086   1.660
 9344SOL    HW128931   5.403   6.116   1.646
 9344SOL    HW228932   5.253   6.114   1.582
 9345SOL     OW28933   7.015   5.180   1.549
 9345SOL    HW128934   6.983   5.098   1.501
 9345SOL    HW228935   0.093   5.172   1.567
 9346SOL     OW28936   5.159   1.005   2.045
 9346SOL    HW128937   5.204   1.063   2.112
 9346SOL    HW228938   5.062   1.028   2.040
 9347SOL     OW28939   3.657   4.419   0.540
 9347SOL    HW128940   3.703   4.376   0.463
 9347SOL    HW228941   3.717   4.421   0.619
 9348SOL     OW28942   2.276   5.996   2.266
 9348SOL    HW128943   2.287   5.904   2.229
 9348SOL    HW228944   2.272   5.992   2.366
 9349SOL     OW28945   5.900   5.111   2.016
 9349SOL    HW128946   5.844   5.029   2.005
 9349SOL    HW228947   5.994   5.085   2.035
 9350SOL     OW28948   6.809   2.478   5.726
 9350SOL    HW128949   6.799   2.389   5.681
 9350SOL    HW228950   6.901   2.486   5.764
 9351SOL     OW28951   3.386   0.345   6.194
 9351SOL    HW128952   3.417   0.410   6.263
 9351SOL    HW228953   3.465   0.303   6.149
 9352SOL     OW28954   3.326   1.301   6.374
 9352SOL    HW128955   3.324   1.201   6.376
 9352SOL    HW228956   3.340   1.335   6.467
 9353SOL     OW28957   0.301   4.286   0.610
 9353SOL    HW128958   0.385   4.290   0.556
 9353SOL    HW228959   0.312   4.338   0.695
 9354SOL     OW28960   0.282   1.724   6.282
 9354SOL    HW128961   0.267   1.665   6.361
 9354SOL    HW228962   0.219   1.802   6.286
 9355SOL     OW28963   7.019   1.853   4.582
 9355SOL    HW128964   0.026   1.852   4.486
 9355SOL    HW228965   0.019   1.942   4.622
 9356SOL     OW28966   4.684   6.095   2.071
 9356SOL    HW128967   4.719   6.185   2.096
 9356SOL    HW228968   4.603   6.105   2.015
 9357SOL     OW28969   1.362   3.395   6.551
 9357SOL    HW128970   1.427   3.454   6.503
 9357SOL    HW228971   1.342   3.315   6.493
 9358SOL     OW28972   6.848   3.258   2.518
 9358SOL    HW128973   6.906   3.318   2.573
 9358SOL    HW228974   6.837   3.170   2.565
 9359SOL     OW28975   1.703   3.839   5.282
 9359SOL    HW128976   1.618   3.850   5.334
 9359SOL    HW228977   1.765   3.779   5.332
 9360SOL     OW28978   1.348   5.652   6.741
 9360SOL    HW128979   1.368   5.704   6.658
 9360SOL    HW228980   1.362   5.711   6.821
 9361SOL     OW28981   1.843   5.623   2.489
 9361SOL    HW128982   1.929   5.587   2.454
 9361SOL    HW228983   1.830   5.592   2.584
 9362SOL     OW28984   2.140   3.513   2.844
 9362SOL    HW128985   2.118   3.435   2.902
 9362SOL    HW228986   2.056   3.549   2.803
 9363SOL     OW28987   3.721   6.821   2.174
 9363SOL    HW128988   3.776   6.896   2.210
 9363SOL    HW228989   3.742   6.808   2.077
 9364SOL     OW28990   3.792   3.428   6.335
 9364SOL    HW128991   3.813   3.474   6.249
 9364SOL    HW228992   3.761   3.335   6.317
 9365SOL     OW28993   2.474   1.988   4.237
 9365SOL    HW128994   2.519   2.042   4.166
 9365SOL    HW228995   2.463   2.044   4.319
 9366SOL     OW28996   3.400   6.491   6.523
 9366SOL    HW128997   3.331   6.498   6.451
 9366SOL    HW228998   3.385   6.408   6.576
 9367SOL     OW28999   0.518   6.791   2.919
 9367SOL    HW129000   0.449   6.721   2.939
 9367SOL    HW229001   0.503   6.870   2.979
 9368SOL     OW29002   2.899   1.077   2.871
 9368SOL    HW129003   2.917   1.120   2.959
 9368SOL    HW229004   2.968   1.006   2.855
 9369SOL     OW29005   6.880   6.124   4.710
 9369SOL    HW129006   6.941   6.056   4.752
 9369SOL    HW229007   6.794   6.080   4.684
 9370SOL     OW29008   5.274   0.056   3.799
 9370SOL    HW129009   5.178   0.079   3.785
 9370SOL    HW229010   5.332   0.124   3.755
 9371SOL     OW29011   2.883   5.539   0.733
 9371SOL    HW129012   2.844   5.628   0.754
 9371SOL    HW229013   2.820   5.487   0.675
 9372SOL     OW29014   5.297   0.096   2.663
 9372SOL    HW129015   5.382   0.068   2.618
 9372SOL    HW229016   5.307   0.190   2.697
 9373SOL     OW29017   4.967   1.871   2.567
 9373SOL    HW129018   5.064   1.879   2.590
 9373SOL    HW229019   4.954   1.884   2.469
 9374SOL     OW29020   0.745   3.796   0.218
 9374SOL    HW129021   0.692   3.797   0.303
 9374SOL    HW229022   0.735   3.707   0.174
 9375SOL     OW29023   0.451   1.106   1.612
 9375SOL    HW129024   0.419   1.023   1.566
 9375SOL    HW229025   0.469   1.086   1.708
 9376SOL     OW29026   2.502   4.084   1.305
 9376SOL    HW129027   2.449   4.071   1.389
 9376SOL    HW229028   2.457   4.153   1.248
 9377SOL     OW29029   1.968   5.733   4.110
 9377SOL    HW129030   1.944   5.744   4.207
 9377SOL    HW229031   1.910   5.793   4.055
 9378SOL     OW29032   1.796   1.079   3.866
 9378SOL    HW129033   1.861   1.042   3.800
 9378SOL    HW229034   1.814   1.177   3.879
 9379SOL     OW29035   4.731   6.424   5.883
 9379SOL    HW129036   4.779   6.406   5.797
 9379SOL    HW229037   4.654   6.362   5.892
 9380SOL     OW29038   4.764   5.747   4.896
 9380SOL    HW129039   4.761   5.786   4.988
 9380SOL    HW229040   4.679   5.698   4.878
 9381SOL     OW29041   4.082   2.901   5.928
 9381SOL    HW129042   4.070   2.936   5.835
 9381SOL    HW229043   4.121   2.808   5.923
 9382SOL     OW29044   3.761   0.496   3.634
 9382SOL    HW129045   3.747   0.580   3.581
 9382SOL    HW229046   3.713   0.420   3.590
 9383SOL     OW29047   0.183   5.914   4.491
 9383SOL    HW129048   0.259   5.865   4.534
 9383SOL    HW229049   0.175   5.886   4.395
 9384SOL     OW29050   4.252   0.449   2.080
 9384SOL    HW129051   4.338   0.400   2.096
 9384SOL    HW229052   4.241   0.465   1.982
 9385SOL     OW29053   4.086   0.937   3.438
 9385SOL    HW129054   4.040   0.848   3.439
 9385SOL    HW229055   4.184   0.924   3.452
 9386SOL     OW29056   2.264   5.739   4.677
 9386SOL    HW129057   2.279   5.702   4.769
 9386SOL    HW229058   2.218   5.670   4.621
 9387SOL     OW29059   3.104   1.793   6.882
 9387SOL    HW129060   3.185   1.765   6.831
 9387SOL    HW229061   3.056   1.865   6.831
 9388SOL     OW29062   2.813   6.410   3.118
 9388SOL    HW129063   2.861   6.358   3.047
 9388SOL    HW229064   2.815   6.359   3.204
 9389SOL     OW29065   1.974   0.722   3.420
 9389SOL    HW129066   2.069   0.715   3.453
 9389SOL    HW229067   1.974   0.735   3.321
 9390SOL     OW29068   4.870   4.464   6.437
 9390SOL    HW129069   4.781   4.423   6.414
 9390SOL    HW229070   4.942   4.414   6.389
 9391SOL     OW29071   1.423   1.593   5.158
 9391SOL    HW129072   1.423   1.684   5.116
 9391SOL    HW229073   1.403   1.602   5.255
 9392SOL     OW29074   5.781   5.599   5.701
 9392SOL    HW129075   5.833   5.667   5.649
 9392SOL    HW229076   5.799   5.508   5.664
 9393SOL     OW29077   2.831   6.818   6.944
 9393SOL    HW129078   2.809   6.779   0.013
 9393SOL    HW229079   2.911   6.878   6.952
 9394SOL     OW29080   6.571   0.358   1.719
 9394SOL    HW129081   6.582   0.260   1.705
 9394SOL    HW229082   6.512   0.374   1.798
 9395SOL     OW29083   3.603   1.760   1.193
 9395SOL    HW129084   3.537   1.723   1.128
 9395SOL    HW229085   3.676   1.693   1.207
 9396SOL     OW29086   2.302   4.103   3.906
 9396SOL    HW129087   2.330   4.062   3.992
 9396SOL    HW229088   2.237   4.043   3.859
 9397SOL     OW29089   3.954   6.951   6.215
 9397SOL    HW129090   3.863   6.960   6.254
 9397SOL    HW229091   3.975   0.011   6.160
 9398SOL     OW29092   6.181   1.278   4.814
 9398SOL    HW129093   6.190   1.329   4.728
 9398SOL    HW229094   6.238   1.320   4.884
 9399SOL     OW29095   1.015   2.989   5.251
 9399SOL    HW129096   0.959   3.032   5.322
 9399SOL    HW229097   1.074   2.919   5.293
 9400SOL     OW29098   4.588   1.205   1.538
 9400SOL    HW129099   4.557   1.110   1.534
 9400SOL    HW229100   4.666   1.217   1.477
 9401SOL     OW29101   6.532   0.623   3.030
 9401SOL    HW129102   6.632   0.630   3.026
 9401SOL    HW229103   6.493   0.714   3.040
 9402SOL     OW29104   1.268   5.228   2.630
 9402SOL    HW129105   1.301   5.135   2.645
 9402SOL    HW229106   1.279   5.252   2.533
 9403SOL     OW29107   6.295   1.131   1.859
 9403SOL    HW129108   6.252   1.220   1.874
 9403SOL    HW229109   6.371   1.141   1.795
 9404SOL     OW29110   0.827   2.495   0.492
 9404SOL    HW129111   0.734   2.520   0.520
 9404SOL    HW229112   0.871   2.574   0.451
 9405SOL     OW29113   2.421   4.343   3.888
 9405SOL    HW129114   2.367   4.259   3.879
 9405SOL    HW229115   2.498   4.340   3.824
 9406SOL     OW29116   6.893   2.676   6.273
 9406SOL    HW129117   6.841   2.646   6.354
 9406SOL    HW229118   6.866   2.770   6.250
 9407SOL     OW29119   2.935   4.976   3.662
 9407SOL    HW129120   2.959   4.920   3.742
 9407SOL    HW229121   2.874   5.050   3.690
 9408SOL     OW29122   6.392   2.957   6.241
 9408SOL    HW129123   6.357   2.867   6.216
 9408SOL    HW229124   6.317   3.015   6.274
 9409SOL     OW29125   6.013   5.116   0.493
 9409SOL    HW129126   5.959   5.081   0.417
 9409SOL    HW229127   6.103   5.144   0.460
 9410SOL     OW29128   1.928   0.550   2.227
 9410SOL    HW129129   1.914   0.630   2.286
 9410SOL    HW229130   1.953   0.581   2.135
 9411SOL     OW29131   3.542   3.819   2.670
 9411SOL    HW129132   3.545   3.825   2.770
 9411SOL    HW229133   3.451   3.790   2.641
 9412SOL     OW29134   0.955   1.119   2.716
 9412SOL    HW129135   0.953   1.157   2.623
 9412SOL    HW229136   1.018   1.041   2.719
 9413SOL     OW29137   4.122   5.842   3.417
 9413SOL    HW129138   4.089   5.877   3.505
 9413SOL    HW229139   4.220   5.824   3.423
 9414SOL     OW29140   3.125   1.182   3.187
 9414SOL    HW129141   3.050   1.219   3.132
 9414SOL    HW229142   3.089   1.115   3.252
 9415SOL     OW29143   2.572   6.786   2.414
 9415SOL    HW129144   2.614   6.840   2.341
 9415SOL    HW229145   2.477   6.815   2.425
 9416SOL     OW29146   6.795   1.790   6.568
 9416SOL    HW129147   6.877   1.846   6.568
 9416SOL    HW229148   6.725   1.833   6.511
 9417SOL     OW29149   4.251   0.553   0.961
 9417SOL    HW129150   4.346   0.523   0.956
 9417SOL    HW229151   4.248   0.649   0.989
 9418SOL     OW29152   3.134   0.609   1.534
 9418SOL    HW129153   3.206   0.545   1.508
 9418SOL    HW229154   3.134   0.687   1.472
 9419SOL     OW29155   2.356   4.093   5.849
 9419SOL    HW129156   2.383   4.002   5.878
 9419SOL    HW229157   2.325   4.145   5.929
 9420SOL     OW29158   5.379   4.682   6.616
 9420SOL    HW129159   5.372   4.730   6.704
 9420SOL    HW229160   5.372   4.748   6.542
 9421SOL     OW29161   2.652   6.459   4.781
 9421SOL    HW129162   2.689   6.548   4.754
 9421SOL    HW229163   2.656   6.397   4.703
 9422SOL     OW29164   3.051   5.532   2.837
 9422SOL    HW129165   3.077   5.598   2.766
 9422SOL    HW229166   2.959   5.498   2.817
 9423SOL     OW29167   2.771   6.786   3.681
 9423SOL    HW129168   2.759   6.847   3.603
 9423SOL    HW229169   2.774   6.692   3.649
 9424SOL     OW29170   4.852   1.961   4.869
 9424SOL    HW129171   4.904   2.044   4.888
 9424SOL    HW229172   4.916   1.886   4.848
 9425SOL     OW29173   5.269   3.760   1.253
 9425SOL    HW129174   5.341   3.758   1.323
 9425SOL    HW229175   5.193   3.815   1.285
 9426SOL     OW29176   3.443   1.805   6.019
 9426SOL    HW129177   3.356   1.798   5.971
 9426SOL    HW229178   3.508   1.858   5.964
 9427SOL     OW29179   2.769   5.581   3.281
 9427SOL    HW129180   2.729   5.655   3.335
 9427SOL    HW229181   2.837   5.532   3.336
 9428SOL     OW29182   6.297   1.200   1.500
 9428SOL    HW129183   6.218   1.214   1.441
 9428SOL    HW229184   6.357   1.130   1.461
 9429SOL     OW29185   2.216   3.923   3.485
 9429SOL    HW129186   2.243   4.019   3.487
 9429SOL    HW229187   2.259   3.878   3.406
 9430SOL     OW29188   0.411   2.851   5.016
 9430SOL    HW129189   0.415   2.933   5.073
 9430SOL    HW229190   0.457   2.776   5.063
 9431SOL     OW29191   6.709   4.179   0.706
 9431SOL    HW129192   6.739   4.105   0.646
 9431SOL    HW229193   6.688   4.260   0.651
 9432SOL     OW29194   5.580   0.170   3.302
 9432SOL    HW129195   5.537   0.133   3.384
 9432SOL    HW229196   5.677   0.186   3.319
 9433SOL     OW29197   3.024   5.859   3.678
 9433SOL    HW129198   3.116   5.897   3.669
 9433SOL    HW229199   3.017   5.777   3.621
 9434SOL     OW29200   5.544   5.750   1.824
 9434SOL    HW129201   5.523   5.714   1.914
 9434SOL    HW229202   5.463   5.794   1.786
 9435SOL     OW29203   0.729   2.775   3.613
 9435SOL    HW129204   0.719   2.676   3.627
 9435SOL    HW229205   0.730   2.821   3.702
 9436SOL     OW29206   1.542   2.821   1.320
 9436SOL    HW129207   1.614   2.753   1.310
 9436SOL    HW229208   1.521   2.860   1.230
 9437SOL     OW29209   1.393   5.801   2.917
 9437SOL    HW129210   1.297   5.802   2.945
 9437SOL    HW229211   1.449   5.765   2.992
 9438SOL     OW29212   0.566   0.026   1.797
 9438SOL    HW129213   0.522   6.983   1.861
 9438SOL    HW229214   0.523   0.116   1.806
 9439SOL     OW29215   0.664   2.720   6.926
 9439SOL    HW129216   0.640   2.666   7.007
 9439SOL    HW229217   0.698   2.809   6.955
 9440SOL     OW29218   3.922   4.862   3.131
 9440SOL    HW129219   3.961   4.937   3.077
 9440SOL    HW229220   3.964   4.861   3.221
 9441SOL     OW29221   6.146   4.494   6.292
 9441SOL    HW129222   6.074   4.502   6.361
 9441SOL    HW229223   6.114   4.434   6.218
 9442SOL     OW29224   4.890   3.766   1.497
 9442SOL    HW129225   4.820   3.723   1.439
 9442SOL    HW229226   4.934   3.696   1.553
 9443SOL     OW29227   2.400   4.994   0.847
 9443SOL    HW129228   2.497   5.019   0.845
 9443SOL    HW229229   2.359   5.024   0.933
 9444SOL     OW29230   2.025   3.693   0.777
 9444SOL    HW129231   2.001   3.730   0.867
 9444SOL    HW229232   1.982   3.604   0.765
 9445SOL     OW29233   6.060   3.427   3.019
 9445SOL    HW129234   6.019   3.337   3.007
 9445SOL    HW229235   6.159   3.421   3.004
 9446SOL     OW29236   6.134   5.514   4.873
 9446SOL    HW129237   6.216   5.567   4.849
 9446SOL    HW229238   6.061   5.534   4.808
 9447SOL     OW29239   5.743   4.925   3.957
 9447SOL    HW129240   5.797   4.964   4.032
 9447SOL    HW229241   5.805   4.896   3.884
 9448SOL     OW29242   6.938   0.151   5.928
 9448SOL    HW129243   6.969   0.136   5.834
 9448SOL    HW229244   6.956   0.246   5.955
 9449SOL     OW29245   5.412   0.153   0.352
 9449SOL    HW129246   5.426   0.120   0.446
 9449SOL    HW229247   5.314   0.162   0.335
 9450SOL     OW29248   2.550   5.934   3.710
 9450SOL    HW129249   2.575   5.934   3.807
 9450SOL    HW229250   2.456   5.968   3.701
 9451SOL     OW29251   4.353   6.627   5.681
 9451SOL    HW129252   4.358   6.586   5.590
 9451SOL    HW229253   4.308   6.565   5.744
 9452SOL     OW29254   1.629   3.625   0.161
 9452SOL    HW129255   1.547   3.582   0.199
 9452SOL    HW229256   1.702   3.557   0.153
 9453SOL     OW29257   2.826   5.165   3.273
 9453SOL    HW129258   2.835   5.074   3.232
 9453SOL    HW229259   2.915   5.192   3.311
 9454SOL     OW29260   3.394   3.615   6.339
 9454SOL    HW129261   3.366   3.576   6.252
 9454SOL    HW229262   3.425   3.542   6.400
 9455SOL     OW29263   2.235   1.819   3.592
 9455SOL    HW129264   2.200   1.763   3.517
 9455SOL    HW229265   2.245   1.764   3.674
 9456SOL     OW29266   0.113   3.360   0.892
 9456SOL    HW129267   0.116   3.459   0.905
 9456SOL    HW229268   0.021   3.333   0.865
 9457SOL     OW29269   1.676   3.713   3.893
 9457SOL    HW129270   1.764   3.759   3.904
 9457SOL    HW229271   1.689   3.614   3.896
 9458SOL     OW29272   0.661   3.600   6.371
 9458SOL    HW129273   0.683   3.604   6.468
 9458SOL    HW229274   0.590   3.668   6.350
 9459SOL     OW29275   5.287   4.603   3.633
 9459SOL    HW129276   5.319   4.662   3.708
 9459SOL    HW229277   5.346   4.523   3.627
 9460SOL     OW29278   1.852   3.407   3.930
 9460SOL    HW129279   1.885   3.351   3.854
 9460SOL    HW229280   1.928   3.456   3.972
 9461SOL     OW29281   0.366   1.943   1.503
 9461SOL    HW129282   0.304   1.873   1.469
 9461SOL    HW229283   0.322   1.994   1.577
 9462SOL     OW29284   1.817   3.568   3.642
 9462SOL    HW129285   1.748   3.637   3.664
 9462SOL    HW229286   1.892   3.611   3.592
 9463SOL     OW29287   5.954   0.485   1.666
 9463SOL    HW129288   5.890   0.473   1.742
 9463SOL    HW229289   6.039   0.525   1.700
 9464SOL     OW29290   5.837   0.591   1.468
 9464SOL    HW129291   5.846   0.691   1.468
 9464SOL    HW229292   5.886   0.553   1.546
 9465SOL     OW29293   0.441   4.075   1.728
 9465SOL    HW129294   0.374   4.041   1.662
 9465SOL    HW229295   0.522   4.017   1.727
 9466SOL     OW29296   3.687   4.970   4.986
 9466SOL    HW129297   3.769   5.025   4.970
 9466SOL    HW229298   3.606   5.024   4.964
 9467SOL     OW29299   1.486   2.361   1.284
 9467SOL    HW129300   1.487   2.331   1.188
 9467SOL    HW229301   1.397   2.400   1.305
 9468SOL     OW29302   5.633   3.843   6.250
 9468SOL    HW129303   5.569   3.853   6.326
 9468SOL    HW229304   5.705   3.912   6.258
 9469SOL     OW29305   0.205   4.655   1.977
 9469SOL    HW129306   0.237   4.561   1.984
 9469SOL    HW229307   0.106   4.658   1.985
 9470SOL     OW29308   4.988   3.440   6.411
 9470SOL    HW129309   4.888   3.438   6.407
 9470SOL    HW229310   5.022   3.517   6.356
 9471SOL     OW29311   6.370   2.349   4.330
 9471SOL    HW129312   6.461   2.364   4.292
 9471SOL    HW229313   6.305   2.334   4.256
 9472SOL     OW29314   6.142   2.606   5.069
 9472SOL    HW129315   6.236   2.601   5.036
 9472SOL    HW229316   6.117   2.702   5.083
 9473SOL     OW29317   3.156   5.261   0.587
 9473SOL    HW129318   3.211   5.242   0.506
 9473SOL    HW229319   3.210   5.312   0.654
 9474SOL     OW29320   0.003   3.563   0.116
 9474SOL    HW129321   6.943   3.589   0.064
 9474SOL    HW229322   0.065   3.510   0.058
 9475SOL     OW29323   3.757   2.957   0.418
 9475SOL    HW129324   3.754   3.048   0.458
 9475SOL    HW229325   3.715   2.958   0.327
 9476SOL     OW29326   4.015   3.775   4.022
 9476SOL    HW129327   4.057   3.866   4.014
 9476SOL    HW229328   4.034   3.723   3.939
 9477SOL     OW29329   0.890   2.722   0.352
 9477SOL    HW129330   0.952   2.771   0.414
 9477SOL    HW229331   0.830   2.788   0.307
 9478SOL     OW29332   5.184   3.185   1.295
 9478SOL    HW129333   5.121   3.155   1.366
 9478SOL    HW229334   5.160   3.278   1.267
 9479SOL     OW29335   4.441   6.578   0.436
 9479SOL    HW129336   4.421   6.481   0.428
 9479SOL    HW229337   4.505   6.593   0.512
 9480SOL     OW29338   5.275   4.669   0.574
 9480SOL    HW129339   5.216   4.636   0.500
 9480SOL    HW229340   5.220   4.724   0.637
 9481SOL     OW29341   4.920   3.277   2.548
 9481SOL    HW129342   4.980   3.309   2.621
 9481SOL    HW229343   4.968   3.282   2.461
 9482SOL     OW29344   0.397   1.229   2.490
 9482SOL    HW129345   0.452   1.309   2.464
 9482SOL    HW229346   0.449   1.173   2.555
 9483SOL     OW29347   1.376   0.320   1.001
 9483SOL    HW129348   1.456   0.342   1.058
 9483SOL    HW229349   1.314   0.398   1.000
 9484SOL     OW29350   4.201   0.338   4.461
 9484SOL    HW129351   4.258   0.269   4.505
 9484SOL    HW229352   4.108   0.304   4.451
 9485SOL     OW29353   0.363   0.930   0.908
 9485SOL    HW129354   0.397   1.024   0.914
 9485SOL    HW229355   0.423   0.869   0.960
 9486SOL     OW29356   3.784   6.445   0.725
 9486SOL    HW129357   3.843   6.488   0.657
 9486SOL    HW229358   3.706   6.403   0.680
 9487SOL     OW29359   3.197   3.830   3.693
 9487SOL    HW129360   3.238   3.769   3.761
 9487SOL    HW229361   3.252   3.914   3.687
 9488SOL     OW29362   2.709   0.326   1.167
 9488SOL    HW129363   2.645   0.386   1.214
 9488SOL    HW229364   2.802   0.346   1.197
 9489SOL     OW29365   4.659   4.040   1.061
 9489SOL    HW129366   4.602   4.007   0.987
 9489SOL    HW229367   4.627   4.003   1.148
 9490SOL     OW29368   5.802   5.393   2.449
 9490SOL    HW129369   5.848   5.388   2.538
 9490SOL    HW229370   5.824   5.312   2.395
 9491SOL     OW29371   5.583   4.549   3.927
 9491SOL    HW129372   5.510   4.521   3.988
 9491SOL    HW229373   5.546   4.608   3.855
 9492SOL     OW29374   3.711   3.430   4.382
 9492SOL    HW129375   3.743   3.439   4.476
 9492SOL    HW229376   3.790   3.422   4.321
 9493SOL     OW29377   2.741   5.669   4.580
 9493SOL    HW129378   2.687   5.672   4.496
 9493SOL    HW229379   2.703   5.733   4.647
 9494SOL     OW29380   5.334   2.925   2.425
 9494SOL    HW129381   5.236   2.905   2.421
 9494SOL    HW229382   5.349   3.023   2.425
 9495SOL     OW29383   6.877   1.891   2.889
 9495SOL    HW129384   6.974   1.868   2.890
 9495SOL    HW229385   6.863   1.979   2.935
 9496SOL     OW29386   6.390   3.611   1.639
 9496SOL    HW129387   6.295   3.631   1.617
 9496SOL    HW229388   6.439   3.697   1.658
 9497SOL     OW29389   5.915   7.000   6.189
 9497SOL    HW129390   5.913   0.064   6.136
 9497SOL    HW229391   5.986   6.940   6.153
 9498SOL     OW29392   5.392   6.482   3.971
 9498SOL    HW129393   5.414   6.409   4.035
 9498SOL    HW229394   5.333   6.549   4.015
 9499SOL     OW29395   2.210   4.487   6.365
 9499SOL    HW129396   2.166   4.550   6.300
 9499SOL    HW229397   2.309   4.491   6.353
 9500SOL     OW29398   4.849   0.394   0.950
 9500SOL    HW129399   4.776   0.425   0.890
 9500SOL    HW229400   4.925   0.359   0.895
 9501SOL     OW29401   2.926   1.046   5.495
 9501SOL    HW129402   2.842   1.012   5.537
 9501SOL    HW229403   3.003   0.989   5.522
 9502SOL     OW29404   5.922   2.422   5.382
 9502SOL    HW129405   5.918   2.475   5.297
 9502SOL    HW229406   6.016   2.391   5.397
 9503SOL     OW29407   0.833   1.733   1.093
 9503SOL    HW129408   0.847   1.731   1.192
 9503SOL    HW229409   0.908   1.685   1.048
 9504SOL     OW29410   6.861   3.128   0.327
 9504SOL    HW129411   6.929   3.093   0.263
 9504SOL    HW229412   6.873   3.227   0.336
 9505SOL     OW29413   5.365   4.439   4.129
 9505SOL    HW129414   5.280   4.424   4.077
 9505SOL    HW229415   5.349   4.508   4.199
 9506SOL     OW29416   1.680   2.190   6.444
 9506SOL    HW129417   1.701   2.167   6.539
 9506SOL    HW229418   1.581   2.179   6.429
 9507SOL     OW29419   0.207   0.996   2.431
 9507SOL    HW129420   0.219   0.956   2.341
 9507SOL    HW229421   0.256   1.083   2.436
 9508SOL     OW29422   6.127   1.842   1.469
 9508SOL    HW129423   6.056   1.886   1.525
 9508SOL    HW229424   6.214   1.844   1.518
 9509SOL     OW29425   0.334   0.802   3.542
 9509SOL    HW129426   0.238   0.801   3.513
 9509SOL    HW229427   0.368   0.896   3.543
 9510SOL     OW29428   2.035   3.723   3.522
 9510SOL    HW129429   2.080   3.643   3.483
 9510SOL    HW229430   2.094   3.803   3.511
 9511SOL     OW29431   1.805   6.968   1.265
 9511SOL    HW129432   1.815   7.016   1.179
 9511SOL    HW229433   1.711   6.936   1.275
 9512SOL     OW29434   6.398   1.599   1.436
 9512SOL    HW129435   6.433   1.691   1.418
 9512SOL    HW229436   6.304   1.592   1.404
 9513SOL     OW29437   2.329   3.696   6.164
 9513SOL    HW129438   2.400   3.728   6.226
 9513SOL    HW229439   2.331   3.750   6.080
 9514SOL     OW29440   1.896   5.119   5.535
 9514SOL    HW129441   1.919   5.029   5.498
 9514SOL    HW229442   1.895   5.114   5.635
 9515SOL     OW29443   1.422   5.486   0.733
 9515SOL    HW129444   1.376   5.567   0.768
 9515SOL    HW229445   1.482   5.448   0.804
 9516SOL     OW29446   6.385   5.158   6.708
 9516SOL    HW129447   6.342   5.248   6.721
 9516SOL    HW229448   6.412   5.148   6.612
 9517SOL     OW29449   1.422   4.241   1.192
 9517SOL    HW129450   1.438   4.334   1.158
 9517SOL    HW229451   1.422   4.177   1.115
 9518SOL     OW29452   2.210   1.973   0.511
 9518SOL    HW129453   2.139   1.962   0.580
 9518SOL    HW229454   2.226   1.886   0.465
 9519SOL     OW29455   2.928   3.573   4.682
 9519SOL    HW129456   2.836   3.573   4.720
 9519SOL    HW229457   2.929   3.519   4.598
 9520SOL     OW29458   1.745   2.187   3.252
 9520SOL    HW129459   1.755   2.139   3.164
 9520SOL    HW229460   1.761   2.285   3.238
 9521SOL     OW29461   5.121   5.585   2.011
 9521SOL    HW129462   5.183   5.525   2.062
 9521SOL    HW229463   5.123   5.560   1.914
 9522SOL     OW29464   2.446   5.704   0.982
 9522SOL    HW129465   2.472   5.761   0.903
 9522SOL    HW229466   2.347   5.695   0.984
 9523SOL     OW29467   3.071   5.436   4.859
 9523SOL    HW129468   3.047   5.430   4.956
 9523SOL    HW229469   3.159   5.483   4.849
 9524SOL     OW29470   3.714   2.920   1.503
 9524SOL    HW129471   3.659   2.852   1.454
 9524SOL    HW229472   3.658   3.001   1.520
 9525SOL     OW29473   2.518   2.953   5.672
 9525SOL    HW129474   2.511   3.048   5.641
 9525SOL    HW229475   2.612   2.934   5.701
 9526SOL     OW29476   5.189   5.411   1.803
 9526SOL    HW129477   5.141   5.342   1.749
 9526SOL    HW229478   5.281   5.377   1.825
 9527SOL     OW29479   0.929   0.414   3.199
 9527SOL    HW129480   0.939   0.487   3.267
 9527SOL    HW229481   0.916   0.327   3.246
 9528SOL     OW29482   0.373   1.215   6.849
 9528SOL    HW129483   0.385   1.170   6.761
 9528SOL    HW229484   0.281   1.195   6.885
 9529SOL     OW29485   6.090   2.869   5.102
 9529SOL    HW129486   6.029   2.889   5.179
 9529SOL    HW229487   6.074   2.935   5.029
 9530SOL     OW29488   1.970   3.637   2.402
 9530SOL    HW129489   1.921   3.563   2.357
 9530SOL    HW229490   1.951   3.724   2.356
 9531SOL     OW29491   5.003   5.660   3.095
 9531SOL    HW129492   5.055   5.744   3.106
 9531SOL    HW229493   5.007   5.631   2.999
 9532SOL     OW29494   0.385   6.951   2.313
 9532SOL    HW129495   0.413   6.900   2.394
 9532SOL    HW229496   0.456   7.017   2.289
 9533SOL     OW29497   6.681   6.914   5.146
 9533SOL    HW129498   6.587   6.939   5.125
 9533SOL    HW229499   6.710   6.838   5.087
 9534SOL     OW29500   6.555   3.270   5.241
 9534SOL    HW129501   6.621   3.312   5.303
 9534SOL    HW229502   6.575   3.172   5.232
 9535SOL     OW29503   2.671   1.719   5.656
 9535SOL    HW129504   2.721   1.713   5.569
 9535SOL    HW229505   2.583   1.764   5.640
 9536SOL     OW29506   2.838   4.743   5.300
 9536SOL    HW129507   2.918   4.768   5.355
 9536SOL    HW229508   2.862   4.667   5.239
 9537SOL     OW29509   2.597   6.296   2.901
 9537SOL    HW129510   2.623   6.254   2.988
 9537SOL    HW229511   2.677   6.307   2.843
 9538SOL     OW29512   6.513   2.234   3.739
 9538SOL    HW129513   6.524   2.135   3.729
 9538SOL    HW229514   6.531   2.259   3.834
 9539SOL     OW29515   2.121   3.908   5.349
 9539SOL    HW129516   2.214   3.874   5.359
 9539SOL    HW229517   2.087   3.889   5.257
 9540SOL     OW29518   5.538   4.224   4.270
 9540SOL    HW129519   5.470   4.278   4.222
 9540SOL    HW229520   5.571   4.276   4.349
 9541SOL     OW29521   3.172   1.864   5.871
 9541SOL    HW129522   3.143   1.942   5.926
 9541SOL    HW229523   3.091   1.816   5.836
 9542SOL     OW29524   5.391   3.963   4.531
 9542SOL    HW129525   5.371   3.915   4.617
 9542SOL    HW229526   5.452   4.040   4.550
 9543SOL     OW29527   3.390   1.074   4.889
 9543SOL    HW129528   3.490   1.069   4.889
 9543SOL    HW229529   3.359   1.126   4.809
 9544SOL     OW29530   0.237   1.492   3.348
 9544SOL    HW129531   0.161   1.443   3.392
 9544SOL    HW229532   0.317   1.433   3.343
 9545SOL     OW29533   6.213   5.329   3.802
 9545SOL    HW129534   6.161   5.245   3.817
 9545SOL    HW229535   6.197   5.361   3.708
 9546SOL     OW29536   3.050   2.760   5.866
 9546SOL    HW129537   3.042   2.855   5.836
 9546SOL    HW229538   3.146   2.734   5.865
 9547SOL     OW29539   2.249   6.279   4.160
 9547SOL    HW129540   2.205   6.307   4.246
 9547SOL    HW229541   2.199   6.318   4.083
 9548SOL     OW29542   5.620   6.214   5.202
 9548SOL    HW129543   5.586   6.295   5.250
 9548SOL    HW229544   5.642   6.142   5.268
 9549SOL     OW29545   3.005   3.501   1.362
 9549SOL    HW129546   3.084   3.451   1.327
 9549SOL    HW229547   2.944   3.437   1.410
 9550SOL     OW29548   0.598   1.443   0.295
 9550SOL    HW129549   0.513   1.391   0.301
 9550SOL    HW229550   0.664   1.395   0.238
 9551SOL     OW29551   6.344   1.165   3.908
 9551SOL    HW129552   6.342   1.066   3.891
 9551SOL    HW229553   6.361   1.182   4.004
 9552SOL     OW29554   1.143   6.293   2.270
 9552SOL    HW129555   1.168   6.203   2.306
 9552SOL    HW229556   1.104   6.283   2.178
 9553SOL     OW29557   6.082   4.083   0.101
 9553SOL    HW129558   5.997   4.103   0.053
 9553SOL    HW229559   6.123   4.169   0.132
 9554SOL     OW29560   2.394   0.608   1.693
 9554SOL    HW129561   2.471   0.575   1.638
 9554SOL    HW229562   2.399   0.707   1.701
 9555SOL     OW29563   0.953   1.111   1.859
 9555SOL    HW129564   0.936   1.046   1.786
 9555SOL    HW229565   1.016   1.071   1.926
 9556SOL     OW29566   2.492   2.437   1.431
 9556SOL    HW129567   2.484   2.485   1.344
 9556SOL    HW229568   2.581   2.454   1.472
 9557SOL     OW29569   6.965   0.631   2.664
 9557SOL    HW129570   0.030   0.655   2.619
 9557SOL    HW229571   6.960   0.531   2.677
 9558SOL     OW29572   6.501   5.907   4.652
 9558SOL    HW129573   6.472   5.889   4.746
 9558SOL    HW229574   6.593   5.869   4.638
 9559SOL     OW29575   0.240   3.984   1.551
 9559SOL    HW129576   0.221   3.889   1.575
 9559SOL    HW229577   0.156   4.037   1.552
 9560SOL     OW29578   1.486   1.145   2.737
 9560SOL    HW129579   1.405   1.194   2.770
 9560SOL    HW229580   1.461   1.091   2.657
 9561SOL     OW29581   1.153   6.556   0.203
 9561SOL    HW129582   1.120   6.511   0.286
 9561SOL    HW229583   1.114   6.510   0.123
 9562SOL     OW29584   3.419   0.077   5.038
 9562SOL    HW129585   3.411   7.003   5.005
 9562SOL    HW229586   3.469   0.131   4.971
 9563SOL     OW29587   6.237   6.640   0.036
 9563SOL    HW129588   6.320   6.587   0.056
 9563SOL    HW229589   6.181   6.589   6.991
 9564SOL     OW29590   2.623   0.015   6.780
 9564SOL    HW129591   2.680   6.975   6.726
 9564SOL    HW229592   2.556   6.982   6.832
 9565SOL     OW29593   3.717   6.219   5.286
 9565SOL    HW129594   3.688   6.171   5.369
 9565SOL    HW229595   3.810   6.190   5.262
 9566SOL     OW29596   2.931   5.260   6.586
 9566SOL    HW129597   2.857   5.230   6.527
 9566SOL    HW229598   2.921   5.358   6.606
 9567SOL     OW29599   6.490   4.683   6.774
 9567SOL    HW129600   6.418   4.746   6.745
 9567SOL    HW229601   6.575   4.705   6.725
 9568SOL     OW29602   4.785   2.754   0.231
 9568SOL    HW129603   4.774   2.662   0.268
 9568SOL    HW229604   4.830   2.749   0.142
 9569SOL     OW29605   0.171   0.748   2.542
 9569SOL    HW129606   0.249   0.690   2.519
 9569SOL    HW229607   0.190   0.842   2.514
 9570SOL     OW29608   1.233   2.321   2.269
 9570SOL    HW129609   1.279   2.357   2.188
 9570SOL    HW229610   1.173   2.392   2.307
 9571SOL     OW29611   2.678   3.860   7.013
 9571SOL    HW129612   2.695   3.828   0.085
 9571SOL    HW229613   2.585   3.898   7.007
 9572SOL     OW29614   1.394   5.211   0.943
 9572SOL    HW129615   1.455   5.167   1.009
 9572SOL    HW229616   1.337   5.278   0.991
 9573SOL     OW29617   0.712   1.483   6.352
 9573SOL    HW129618   0.659   1.438   6.280
 9573SOL    HW229619   0.802   1.440   6.359
 9574SOL     OW29620   3.813   3.055   4.054
 9574SOL    HW129621   3.849   3.055   3.961
 9574SOL    HW229622   3.889   3.054   4.119
 9575SOL     OW29623   5.822   0.749   0.985
 9575SOL    HW129624   5.873   0.749   0.898
 9575SOL    HW229625   5.878   0.706   1.056
 9576SOL     OW29626   3.138   0.712   2.798
 9576SOL    HW129627   3.089   0.714   2.885
 9576SOL    HW229628   3.200   0.634   2.796
 9577SOL     OW29629   1.083   1.039   3.640
 9577SOL    HW129630   1.139   0.980   3.583
 9577SOL    HW229631   1.141   1.105   3.688
 9578SOL     OW29632   6.847   3.577   3.478
 9578SOL    HW129633   6.917   3.568   3.407
 9578SOL    HW229634   6.860   3.663   3.527
 9579SOL     OW29635   1.850   5.096   3.205
 9579SOL    HW129636   1.801   5.147   3.276
 9579SOL    HW229637   1.920   5.039   3.248
 9580SOL     OW29638   4.554   2.855   1.060
 9580SOL    HW129639   4.500   2.804   0.993
 9580SOL    HW229640   4.603   2.791   1.119
 9581SOL     OW29641   1.148   5.299   6.593
 9581SOL    HW129642   1.125   5.394   6.612
 9581SOL    HW229643   1.069   5.252   6.554
 9582SOL     OW29644   4.357   4.704   4.805
 9582SOL    HW129645   4.358   4.644   4.885
 9582SOL    HW229646   4.378   4.798   4.833
 9583SOL     OW29647   2.947   3.318   1.090
 9583SOL    HW129648   2.950   3.350   1.185
 9583SOL    HW229649   3.022   3.359   1.039
 9584SOL     OW29650   6.305   6.325   0.032
 9584SOL    HW129651   6.274   6.344   6.960
 9584SOL    HW229652   6.243   6.258   0.074
 9585SOL     OW29653   6.795   1.139   2.870
 9585SOL    HW129654   6.886   1.180   2.878
 9585SOL    HW229655   6.744   1.153   2.954
 9586SOL     OW29656   6.389   3.903   2.075
 9586SOL    HW129657   6.475   3.952   2.057
 9586SOL    HW229658   6.335   3.956   2.141
 9587SOL     OW29659   5.983   0.442   2.221
 9587SOL    HW129660   5.899   0.492   2.200
 9587SOL    HW229661   6.059   0.481   2.170
 9588SOL     OW29662   0.706   1.804   2.262
 9588SOL    HW129663   0.735   1.900   2.259
 9588SOL    HW229664   0.779   1.749   2.303
 9589SOL     OW29665   2.848   5.488   6.267
 9589SOL    HW129666   2.802   5.505   6.354
 9589SOL    HW229667   2.947   5.489   6.281
 9590SOL     OW29668   0.413   5.291   2.758
 9590SOL    HW129669   0.418   5.310   2.856
 9590SOL    HW229670   0.442   5.196   2.742
 9591SOL     OW29671   3.205   6.045   6.865
 9591SOL    HW129672   3.154   5.979   6.920
 9591SOL    HW229673   3.151   6.128   6.853
 9592SOL     OW29674   3.782   5.117   1.764
 9592SOL    HW129675   3.728   5.193   1.800
 9592SOL    HW229676   3.723   5.037   1.753
 9593SOL     OW29677   5.842   1.250   4.693
 9593SOL    HW129678   5.890   1.280   4.775
 9593SOL    HW229679   5.750   1.291   4.691
 9594SOL     OW29680   0.639   5.953   3.307
 9594SOL    HW129681   0.712   6.013   3.341
 9594SOL    HW229682   0.590   5.912   3.384
 9595SOL     OW29683   2.010   4.135   4.115
 9595SOL    HW129684   1.953   4.062   4.153
 9595SOL    HW229685   1.952   4.201   4.067
 9596SOL     OW29686   0.193   5.638   0.544
 9596SOL    HW129687   0.259   5.648   0.469
 9596SOL    HW229688   0.128   5.714   0.541
 9597SOL     OW29689   7.000   4.195   0.944
 9597SOL    HW129690   0.068   4.149   0.953
 9597SOL    HW229691   6.930   4.127   0.921
 9598SOL     OW29692   0.320   3.755   4.824
 9598SOL    HW129693   0.224   3.732   4.840
 9598SOL    HW229694   0.378   3.695   4.878
 9599SOL     OW29695   3.216   0.660   4.867
 9599SOL    HW129696   3.148   0.635   4.937
 9599SOL    HW229697   3.182   0.738   4.814
 9600SOL     OW29698   2.336   0.041   5.866
 9600SOL    HW129699   2.310   0.058   5.771
 9600SOL    HW229700   2.281   6.987   5.902
 9601SOL     OW29701   6.435   4.013   6.685
 9601SOL    HW129702   6.430   4.098   6.631
 9601SOL    HW229703   6.482   4.031   6.771
 9602SOL     OW29704   6.400   4.816   6.409
 9602SOL    HW129705   6.440   4.728   6.382
 9602SOL    HW229706   6.328   4.840   6.345
 9603SOL     OW29707   2.615   0.281   4.152
 9603SOL    HW129708   2.696   0.286   4.211
 9603SOL    HW229709   2.601   0.187   4.122
 9604SOL     OW29710   5.067   0.254   0.783
 9604SOL    HW129711   5.029   0.179   0.838
 9604SOL    HW229712   5.093   0.220   0.693
 9605SOL     OW29713   0.166   4.619   5.546
 9605SOL    HW129714   0.207   4.528   5.552
 9605SOL    HW229715   0.173   4.653   5.452
 9606SOL     OW29716   1.319   6.610   4.733
 9606SOL    HW129717   1.347   6.678   4.801
 9606SOL    HW229718   1.392   6.543   4.721
 9607SOL     OW29719   1.196   2.066   1.946
 9607SOL    HW129720   1.288   2.086   1.912
 9607SOL    HW229721   1.128   2.099   1.881
 9608SOL     OW29722   0.209   6.643   2.547
 9608SOL    HW129723   0.250   6.555   2.523
 9608SOL    HW229724   0.151   6.674   2.471
 9609SOL     OW29725   1.432   4.103   4.936
 9609SOL    HW129726   1.404   4.009   4.955
 9609SOL    HW229727   1.521   4.103   4.891
 9610SOL     OW29728   1.304   3.845   4.972
 9610SOL    HW129729   1.307   3.803   4.882
 9610SOL    HW229730   1.326   3.777   5.042
 9611SOL     OW29731   0.526   6.434   1.370
 9611SOL    HW129732   0.575   6.368   1.314
 9611SOL    HW229733   0.442   6.462   1.325
 9612SOL     OW29734   6.163   3.022   1.268
 9612SOL    HW129735   6.133   3.023   1.364
 9612SOL    HW229736   6.087   2.991   1.210
 9613SOL     OW29737   5.151   5.724   3.953
 9613SOL    HW129738   5.089   5.717   4.031
 9613SOL    HW229739   5.101   5.756   3.873
 9614SOL     OW29740   3.952   3.791   1.301
 9614SOL    HW129741   3.938   3.770   1.204
 9614SOL    HW229742   3.955   3.890   1.313
 9615SOL     OW29743   1.448   6.497   2.286
 9615SOL    HW129744   1.460   6.486   2.385
 9615SOL    HW229745   1.383   6.429   2.252
 9616SOL     OW29746   4.100   3.803   0.514
 9616SOL    HW129747   4.196   3.779   0.530
 9616SOL    HW229748   4.088   3.836   0.421
 9617SOL     OW29749   0.889   4.181   4.331
 9617SOL    HW129750   0.955   4.187   4.406
 9617SOL    HW229751   0.862   4.085   4.318
 9618SOL     OW29752   3.556   6.791   6.221
 9618SOL    HW129753   3.527   6.787   6.317
 9618SOL    HW229754   3.619   6.868   6.209
 9619SOL     OW29755   1.361   7.003   0.797
 9619SOL    HW129756   1.351   6.970   0.703
 9619SOL    HW229757   1.278   6.982   0.848
 9620SOL     OW29758   5.063   1.795   6.758
 9620SOL    HW129759   5.151   1.839   6.742
 9620SOL    HW229760   5.030   1.753   6.673
 9621SOL     OW29761   1.623   1.130   2.368
 9621SOL    HW129762   1.547   1.124   2.433
 9621SOL    HW229763   1.648   1.225   2.354
 9622SOL     OW29764   5.776   1.575   6.862
 9622SOL    HW129765   5.714   1.575   6.784
 9622SOL    HW229766   5.752   1.501   6.925
 9623SOL     OW29767   4.561   5.552   5.920
 9623SOL    HW129768   4.629   5.623   5.901
 9623SOL    HW229769   4.509   5.577   6.002
 9624SOL     OW29770   5.375   4.076   5.073
 9624SOL    HW129771   5.475   4.076   5.071
 9624SOL    HW229772   5.341   3.982   5.061
 9625SOL     OW29773   4.919   4.289   6.939
 9625SOL    HW129774   4.864   4.371   6.955
 9625SOL    HW229775   5.000   4.314   6.886
 9626SOL     OW29776   2.517   5.802   5.344
 9626SOL    HW129777   2.579   5.845   5.410
 9626SOL    HW229778   2.507   5.861   5.264
 9627SOL     OW29779   0.384   4.229   4.644
 9627SOL    HW129780   0.467   4.184   4.675
 9627SOL    HW229781   0.400   4.328   4.638
 9628SOL     OW29782   6.163   3.657   1.053
 9628SOL    HW129783   6.236   3.608   1.004
 9628SOL    HW229784   6.155   3.750   1.015
 9629SOL     OW29785   6.737   5.773   3.063
 9629SOL    HW129786   6.638   5.785   3.058
 9629SOL    HW229787   6.782   5.861   3.051
 9630SOL     OW29788   6.377   6.277   5.767
 9630SOL    HW129789   6.451   6.214   5.744
 9630SOL    HW229790   6.410   6.371   5.763
 9631SOL     OW29791   4.372   1.947   0.862
 9631SOL    HW129792   4.297   1.881   0.865
 9631SOL    HW229793   4.451   1.907   0.815
 9632SOL     OW29794   1.932   5.262   2.255
 9632SOL    HW129795   1.949   5.358   2.277
 9632SOL    HW229796   1.841   5.237   2.286
 9633SOL     OW29797   3.709   4.082   0.264
 9633SOL    HW129798   3.780   4.131   0.314
 9633SOL    HW229799   3.751   4.011   0.207
 9634SOL     OW29800   6.590   5.653   3.305
 9634SOL    HW129801   6.678   5.696   3.325
 9634SOL    HW229802   6.604   5.582   3.235
 9635SOL     OW29803   1.028   4.290   5.633
 9635SOL    HW129804   1.044   4.227   5.709
 9635SOL    HW229805   1.004   4.238   5.551
 9636SOL     OW29806   3.683   1.669   6.069
 9636SOL    HW129807   3.678   1.576   6.031
 9636SOL    HW229808   3.591   1.704   6.083
 9637SOL     OW29809   3.937   3.177   1.081
 9637SOL    HW129810   3.911   3.131   1.166
 9637SOL    HW229811   4.020   3.231   1.096
 9638SOL     OW29812   6.704   3.314   6.021
 9638SOL    HW129813   6.766   3.355   6.088
 9638SOL    HW229814   6.622   3.370   6.011
 9639SOL     OW29815   4.241   2.322   1.807
 9639SOL    HW129816   4.262   2.371   1.892
 9639SOL    HW229817   4.146   2.292   1.809
 9640SOL     OW29818   3.136   0.624   2.301
 9640SOL    HW129819   3.214   0.582   2.254
 9640SOL    HW229820   3.069   0.655   2.234
 9641SOL     OW29821   5.805   6.080   2.125
 9641SOL    HW129822   5.730   6.140   2.096
 9641SOL    HW229823   5.805   5.998   2.068
 9642SOL     OW29824   1.475   6.160   4.185
 9642SOL    HW129825   1.449   6.079   4.132
 9642SOL    HW229826   1.418   6.165   4.267
 9643SOL     OW29827   5.124   3.915   3.663
 9643SOL    HW129828   5.170   3.881   3.745
 9643SOL    HW229829   5.145   3.855   3.585
 9644SOL     OW29830   1.884   5.667   5.695
 9644SOL    HW129831   1.890   5.672   5.595
 9644SOL    HW229832   1.849   5.577   5.722
 9645SOL     OW29833   2.415   4.430   4.853
 9645SOL    HW129834   2.499   4.435   4.907
 9645SOL    HW229835   2.346   4.492   4.893
 9646SOL     OW29836   2.620   5.289   2.053
 9646SOL    HW129837   2.526   5.256   2.040
 9646SOL    HW229838   2.671   5.225   2.109
 9647SOL     OW29839   0.188   0.040   3.497
 9647SOL    HW129840   0.278   0.066   3.463
 9647SOL    HW229841   0.144   6.999   3.432
 9648SOL     OW29842   4.474   2.427   0.929
 9648SOL    HW129843   4.455   2.387   1.019
 9648SOL    HW229844   4.462   2.526   0.933
 9649SOL     OW29845   2.461   4.239   0.043
 9649SOL    HW129846   2.484   4.172   6.993
 9649SOL    HW229847   2.545   4.270   0.088
 9650SOL     OW29848   4.579   4.548   2.769
 9650SOL    HW129849   4.490   4.576   2.733
 9650SOL    HW229850   4.575   4.452   2.798
 9651SOL     OW29851   4.543   1.187   1.187
 9651SOL    HW129852   4.554   1.097   1.230
 9651SOL    HW229853   4.624   1.208   1.132
 9652SOL     OW29854   1.158   4.751   1.497
 9652SOL    HW129855   1.146   4.661   1.538
 9652SOL    HW229856   1.253   4.762   1.467
 9653SOL     OW29857   4.643   4.737   5.009
 9653SOL    HW129858   4.603   4.657   4.965
 9653SOL    HW229859   4.742   4.724   5.018
 9654SOL     OW29860   3.026   3.377   2.992
 9654SOL    HW129861   2.973   3.365   2.908
 9654SOL    HW229862   3.007   3.303   3.055
 9655SOL     OW29863   0.061   1.931   0.454
 9655SOL    HW129864   0.139   1.904   0.396
 9655SOL    HW229865   7.018   1.985   0.401
 9656SOL     OW29866   4.607   2.598   1.182
 9656SOL    HW129867   4.508   2.602   1.173
 9656SOL    HW229868   4.632   2.534   1.255
 9657SOL     OW29869   5.841   4.132   2.599
 9657SOL    HW129870   5.764   4.098   2.545
 9657SOL    HW229871   5.813   4.142   2.695
 9658SOL     OW29872   5.545   1.559   2.036
 9658SOL    HW129873   5.491   1.481   2.066
 9658SOL    HW229874   5.519   1.640   2.089
 9659SOL     OW29875   1.033   2.805   0.109
 9659SOL    HW129876   1.099   2.878   0.123
 9659SOL    HW229877   1.058   2.726   0.164
 9660SOL     OW29878   0.837   7.018   2.692
 9660SOL    HW129879   0.833   6.918   2.700
 9660SOL    HW229880   0.929   0.025   2.665
 9661SOL     OW29881   3.908   6.231   1.313
 9661SOL    HW129882   3.820   6.187   1.295
 9661SOL    HW229883   3.914   6.255   1.410
 9662SOL     OW29884   5.385   3.815   0.082
 9662SOL    HW129885   5.302   3.851   0.039
 9662SOL    HW229886   5.412   3.731   0.036
 9663SOL     OW29887   0.282   6.053   2.637
 9663SOL    HW129888   0.292   6.101   2.550
 9663SOL    HW229889   0.296   5.955   2.623
 9664SOL     OW29890   5.490   4.810   4.079
 9664SOL    HW129891   5.454   4.896   4.116
 9664SOL    HW229892   5.582   4.826   4.042
 9665SOL     OW29893   5.784   6.692   6.050
 9665SOL    HW129894   5.746   6.674   6.141
 9665SOL    HW229895   5.851   6.766   6.055
 9666SOL     OW29896   6.404   3.628   2.151
 9666SOL    HW129897   6.391   3.724   2.128
 9666SOL    HW229898   6.315   3.582   2.153
 9667SOL     OW29899   3.824   3.631   0.159
 9667SOL    HW129900   3.902   3.599   0.105
 9667SOL    HW229901   3.741   3.587   0.126
 9668SOL     OW29902   0.796   0.534   6.381
 9668SOL    HW129903   0.847   0.491   6.306
 9668SOL    HW229904   0.728   0.470   6.416
 9669SOL     OW29905   2.187   0.052   2.005
 9669SOL    HW129906   2.111   0.018   2.060
 9669SOL    HW229907   2.270   0.004   2.030
 9670SOL     OW29908   0.263   5.161   5.660
 9670SOL    HW129909   0.290   5.094   5.590
 9670SOL    HW229910   0.289   5.127   5.750
 9671SOL     OW29911   6.873   4.108   0.173
 9671SOL    HW129912   6.864   4.160   0.088
 9671SOL    HW229913   6.842   4.014   0.158
 9672SOL     OW29914   2.047   4.836   3.556
 9672SOL    HW129915   1.994   4.754   3.533
 9672SOL    HW229916   2.145   4.813   3.555
 9673SOL     OW29917   3.304   3.365   0.626
 9673SOL    HW129918   3.377   3.346   0.692
 9673SOL    HW229919   3.250   3.443   0.659
 9674SOL     OW29920   4.137   6.441   3.259
 9674SOL    HW129921   4.197   6.361   3.255
 9674SOL    HW229922   4.155   6.500   3.181
 9675SOL     OW29923   5.075   2.386   6.723
 9675SOL    HW129924   5.153   2.383   6.660
 9675SOL    HW229925   5.107   2.412   6.814
 9676SOL     OW29926   1.535   3.200   5.980
 9676SOL    HW129927   1.570   3.142   5.907
 9676SOL    HW229928   1.589   3.284   5.985
 9677SOL     OW29929   6.435   4.810   4.831
 9677SOL    HW129930   6.428   4.903   4.794
 9677SOL    HW229931   6.384   4.805   4.917
 9678SOL     OW29932   2.883   3.472   4.146
 9678SOL    HW129933   2.841   3.490   4.057
 9678SOL    HW229934   2.939   3.550   4.173
 9679SOL     OW29935   2.199   0.435   3.703
 9679SOL    HW129936   2.122   0.387   3.663
 9679SOL    HW229937   2.275   0.372   3.716
 9680SOL     OW29938   4.542   0.165   4.404
 9680SOL    HW129939   4.463   0.156   4.465
 9680SOL    HW229940   4.534   0.099   4.330
 9681SOL     OW29941   2.589   2.498   0.666
 9681SOL    HW129942   2.682   2.463   0.663
 9681SOL    HW229943   2.575   2.562   0.590
 9682SOL     OW29944   4.737   4.235   3.859
 9682SOL    HW129945   4.787   4.152   3.836
 9682SOL    HW229946   4.714   4.285   3.775
 9683SOL     OW29947   3.202   6.613   1.525
 9683SOL    HW129948   3.247   6.684   1.471
 9683SOL    HW229949   3.161   6.546   1.464
 9684SOL     OW29950   1.029   3.470   5.551
 9684SOL    HW129951   0.953   3.447   5.489
 9684SOL    HW229952   1.088   3.538   5.507
 9685SOL     OW29953   4.902   3.861   1.021
 9685SOL    HW129954   4.959   3.871   1.103
 9685SOL    HW229955   4.816   3.910   1.034
 9686SOL     OW29956   0.498   2.961   6.026
 9686SOL    HW129957   0.419   2.910   6.062
 9686SOL    HW229958   0.476   2.995   5.935
 9687SOL     OW29959   0.357   1.077   3.601
 9687SOL    HW129960   0.266   1.069   3.642
 9687SOL    HW229961   0.420   1.118   3.667
 9688SOL     OW29962   0.977   2.774   0.873
 9688SOL    HW129963   1.004   2.767   0.777
 9688SOL    HW229964   0.910   2.847   0.884
 9689SOL     OW29965   1.435   4.765   6.597
 9689SOL    HW129966   1.391   4.689   6.645
 9689SOL    HW229967   1.388   4.850   6.622
 9690SOL     OW29968   5.909   6.318   6.280
 9690SOL    HW129969   5.864   6.385   6.222
 9690SOL    HW229970   5.940   6.362   6.364
 9691SOL     OW29971   2.822   4.141   1.383
 9691SOL    HW129972   2.818   4.080   1.463
 9691SOL    HW229973   2.786   4.231   1.409
 9692SOL     OW29974   4.161   6.099   1.382
 9692SOL    HW129975   4.064   6.092   1.358
 9692SOL    HW229976   4.217   6.088   1.299
 9693SOL     OW29977   6.100   4.327   2.662
 9693SOL    HW129978   6.160   4.344   2.584
 9693SOL    HW229979   6.020   4.274   2.633
 9694SOL     OW29980   3.130   1.458   1.496
 9694SOL    HW129981   3.203   1.402   1.458
 9694SOL    HW229982   3.089   1.411   1.575
 9695SOL     OW29983   0.097   2.765   3.074
 9695SOL    HW129984   0.109   2.798   3.168
 9695SOL    HW229985   0.050   2.835   3.020
 9696SOL     OW29986   5.369   2.682   1.336
 9696SOL    HW129987   5.424   2.745   1.281
 9696SOL    HW229988   5.273   2.688   1.307
 9697SOL     OW29989   0.534   5.383   0.001
 9697SOL    HW129990   0.584   5.417   0.080
 9697SOL    HW229991   0.479   5.304   0.028
 9698SOL     OW29992   5.504   2.248   6.151
 9698SOL    HW129993   5.549   2.278   6.067
 9698SOL    HW229994   5.551   2.167   6.187
 9699SOL     OW29995   6.637   5.681   6.754
 9699SOL    HW129996   6.632   5.586   6.784
 9699SOL    HW229997   6.547   5.712   6.725
 9700SOL     OW29998   5.833   5.073   5.278
 9700SOL    HW129999   5.744   5.109   5.307
 9700SOL    HW230000   5.820   5.011   5.201
 9701SOL     OW30001   4.780   4.455   5.726
 9701SOL    HW130002   4.866   4.469   5.676
 9701SOL    HW230003   4.713   4.411   5.666
 9702SOL     OW30004   3.449   2.252   0.082
 9702SOL    HW130005   3.373   2.297   0.129
 9702SOL    HW230006   3.527   2.248   0.144
 9703SOL     OW30007   4.827   3.809   3.621
 9703SOL    HW130008   4.854   3.852   3.535
 9703SOL    HW230009   4.869   3.718   3.627
 9704SOL     OW30010   3.149   6.411   1.345
 9704SOL    HW130011   3.230   6.353   1.333
 9704SOL    HW230012   3.076   6.379   1.285
 9705SOL     OW30013   5.269   4.191   6.188
 9705SOL    HW130014   5.295   4.267   6.130
 9705SOL    HW230015   5.238   4.115   6.132
 9706SOL     OW30016   2.095   2.566   1.138
 9706SOL    HW130017   2.155   2.545   1.061
 9706SOL    HW230018   2.055   2.481   1.173
 9707SOL     OW30019   6.632   4.613   2.592
 9707SOL    HW130020   6.593   4.543   2.652
 9707SOL    HW230021   6.560   4.674   2.559
 9708SOL     OW30022   0.540   1.505   3.663
 9708SOL    HW130023   0.462   1.555   3.625
 9708SOL    HW230024   0.520   1.407   3.664
 9709SOL     OW30025   5.453   6.154   2.658
 9709SOL    HW130026   5.510   6.073   2.673
 9709SOL    HW230027   5.491   6.231   2.709
 9710SOL     OW30028   6.597   1.324   1.267
 9710SOL    HW130029   6.586   1.321   1.366
 9710SOL    HW230030   6.509   1.342   1.224
 9711SOL     OW30031   3.554   5.354   5.733
 9711SOL    HW130032   3.600   5.434   5.694
 9711SOL    HW230033   3.593   5.270   5.695
 9712SOL     OW30034   5.542   3.843   6.565
 9712SOL    HW130035   5.616   3.792   6.607
 9712SOL    HW230036   5.525   3.927   6.617
 9713SOL     OW30037   2.106   4.521   3.442
 9713SOL    HW130038   2.196   4.491   3.473
 9713SOL    HW230039   2.037   4.494   3.510
 9714SOL     OW30040   4.414   6.542   6.608
 9714SOL    HW130041   4.477   6.620   6.607
 9714SOL    HW230042   4.401   6.508   6.515
 9715SOL     OW30043   5.947   4.206   0.428
 9715SOL    HW130044   6.029   4.209   0.371
 9715SOL    HW230045   5.873   4.163   0.376
 9716SOL     OW30046   3.410   4.621   6.945
 9716SOL    HW130047   3.428   4.602   0.021
 9716SOL    HW230048   3.361   4.708   6.936
 9717SOL     OW30049   5.185   6.703   5.938
 9717SOL    HW130050   5.161   6.800   5.944
 9717SOL    HW230051   5.280   6.694   5.909
 9718SOL     OW30052   5.273   3.466   0.648
 9718SOL    HW130053   5.256   3.558   0.613
 9718SOL    HW230054   5.248   3.462   0.745
 9719SOL     OW30055   6.049   1.176   5.889
 9719SOL    HW130056   6.028   1.261   5.936
 9719SOL    HW230057   5.999   1.172   5.802
 9720SOL     OW30058   0.955   4.285   2.332
 9720SOL    HW130059   0.945   4.192   2.296
 9720SOL    HW230060   0.917   4.288   2.424
 9721SOL     OW30061   0.441   1.594   0.479
 9721SOL    HW130062   0.504   1.524   0.447
 9721SOL    HW230063   0.492   1.672   0.515
 9722SOL     OW30064   3.912   1.759   5.056
 9722SOL    HW130065   3.819   1.789   5.079
 9722SOL    HW230066   3.912   1.660   5.039
 9723SOL     OW30067   3.926   6.508   3.469
 9723SOL    HW130068   3.837   6.541   3.437
 9723SOL    HW230069   3.992   6.512   3.393
 9724SOL     OW30070   1.888   5.181   6.983
 9724SOL    HW130071   1.852   5.236   6.908
 9724SOL    HW230072   1.826   5.105   7.001
 9725SOL     OW30073   4.679   5.980   6.244
 9725SOL    HW130074   4.586   5.942   6.240
 9725SOL    HW230075   4.705   6.015   6.154
 9726SOL     OW30076   4.693   1.303   3.547
 9726SOL    HW130077   4.665   1.339   3.636
 9726SOL    HW230078   4.705   1.378   3.482
 9727SOL     OW30079   1.082   2.345   6.817
 9727SOL    HW130080   1.015   2.289   6.866
 9727SOL    HW230081   1.134   2.399   6.883
 9728SOL     OW30082   0.744   0.825   5.553
 9728SOL    HW130083   0.693   0.899   5.596
 9728SOL    HW230084   0.728   0.826   5.454
 9729SOL     OW30085   1.173   4.202   3.473
 9729SOL    HW130086   1.095   4.192   3.535
 9729SOL    HW230087   1.258   4.189   3.524
 9730SOL     OW30088   1.927   4.788   2.933
 9730SOL    HW130089   1.966   4.696   2.930
 9730SOL    HW230090   2.001   4.855   2.942
 9731SOL     OW30091   5.290   5.349   1.308
 9731SOL    HW130092   5.259   5.444   1.311
 9731SOL    HW230093   5.377   5.341   1.356
 9732SOL     OW30094   0.550   4.606   2.318
 9732SOL    HW130095   0.505   4.694   2.333
 9732SOL    HW230096   0.632   4.601   2.375
 9733SOL     OW30097   5.112   5.097   0.442
 9733SOL    HW130098   5.050   5.153   0.386
 9733SOL    HW230099   5.181   5.157   0.484
 9734SOL     OW30100   7.010   0.888   0.605
 9734SOL    HW130101   0.060   0.946   0.646
 9734SOL    HW230102   7.005   0.801   0.654
 9735SOL     OW30103   2.069   3.519   3.330
 9735SOL    HW130104   1.986   3.570   3.307
 9735SOL    HW230105   2.080   3.442   3.268
 9736SOL     OW30106   5.798   1.235   5.747
 9736SOL    HW130107   5.754   1.278   5.668
 9736SOL    HW230108   5.764   1.278   5.831
 9737SOL     OW30109   4.995   2.127   3.065
 9737SOL    HW130110   4.975   2.129   2.967
 9737SOL    HW230111   4.953   2.046   3.106
 9738SOL     OW30112   2.481   0.138   0.411
 9738SOL    HW130113   2.543   0.099   0.343
 9738SOL    HW230114   2.443   0.065   0.467
 9739SOL     OW30115   4.904   5.958   0.748
 9739SOL    HW130116   4.928   6.048   0.784
 9739SOL    HW230117   4.987   5.902   0.743
 9740SOL     OW30118   0.288   1.620   3.590
 9740SOL    HW130119   0.281   1.604   3.492
 9740SOL    HW230120   0.212   1.678   3.620
 9741SOL     OW30121   2.786   1.588   2.458
 9741SOL    HW130122   2.754   1.676   2.422
 9741SOL    HW230123   2.830   1.536   2.384
 9742SOL     OW30124   3.644   1.093   0.190
 9742SOL    HW130125   3.730   1.144   0.182
 9742SOL    HW230126   3.577   1.131   0.126
 9743SOL     OW30127   6.877   3.637   4.079
 9743SOL    HW130128   6.976   3.625   4.085
 9743SOL    HW230129   6.855   3.734   4.069
 9744SOL     OW30130   1.163   6.708   1.764
 9744SOL    HW130131   1.180   6.772   1.839
 9744SOL    HW230132   1.065   6.701   1.747
 9745SOL     OW30133   4.853   2.579   6.668
 9745SOL    HW130134   4.773   2.569   6.728
 9745SOL    HW230135   4.932   2.533   6.709
 9746SOL     OW30136   5.923   0.568   5.985
 9746SOL    HW130137   5.941   0.665   6.001
 9746SOL    HW230138   5.928   0.518   6.071
 9747SOL     OW30139   2.549   2.073   1.848
 9747SOL    HW130140   2.595   2.124   1.776
 9747SOL    HW230141   2.597   2.087   1.935
 9748SOL     OW30142   6.610   6.646   3.514
 9748SOL    HW130143   6.545   6.578   3.479
 9748SOL    HW230144   6.598   6.655   3.613
 9749SOL     OW30145   1.754   0.411   4.319
 9749SOL    HW130146   1.813   0.441   4.244
 9749SOL    HW230147   1.717   0.491   4.367
 9750SOL     OW30148   5.644   5.258   3.116
 9750SOL    HW130149   5.558   5.225   3.078
 9750SOL    HW230150   5.684   5.187   3.174
 9751SOL     OW30151   2.446   0.274   1.055
 9751SOL    HW130152   2.542   0.262   1.078
 9751SOL    HW230153   2.415   0.197   0.999
 9752SOL     OW30154   3.991   2.163   5.154
 9752SOL    HW130155   3.898   2.175   5.118
 9752SOL    HW230156   4.006   2.068   5.178
 9753SOL     OW30157   0.109   5.603   6.541
 9753SOL    HW130158   0.062   5.519   6.568
 9753SOL    HW230159   0.201   5.582   6.508
 9754SOL     OW30160   1.776   0.103   1.057
 9754SOL    HW130161   1.854   0.048   1.028
 9754SOL    HW230162   1.698   0.086   0.997
 9755SOL     OW30163   3.555   3.755   4.301
 9755SOL    HW130164   3.653   3.761   4.285
 9755SOL    HW230165   3.537   3.691   4.376
 9756SOL     OW30166   5.501   2.656   6.173
 9756SOL    HW130167   5.431   2.614   6.231
 9756SOL    HW230168   5.505   2.607   6.085
 9757SOL     OW30169   5.730   4.537   4.266
 9757SOL    HW130170   5.638   4.562   4.298
 9757SOL    HW230171   5.745   4.575   4.175
 9758SOL     OW30172   2.362   0.415   6.735
 9758SOL    HW130173   2.280   0.367   6.764
 9758SOL    HW230174   2.378   0.492   6.796
 9759SOL     OW30175   1.284   0.647   0.568
 9759SOL    HW130176   1.207   0.624   0.628
 9759SOL    HW230177   1.275   0.742   0.538
 9760SOL     OW30178   4.819   2.962   5.529
 9760SOL    HW130179   4.720   2.963   5.514
 9760SOL    HW230180   4.849   2.870   5.552
 9761SOL     OW30181   0.548   1.528   2.021
 9761SOL    HW130182   0.462   1.521   2.071
 9761SOL    HW230183   0.530   1.524   1.923
 9762SOL     OW30184   3.148   1.886   4.692
 9762SOL    HW130185   3.128   1.916   4.599
 9762SOL    HW230186   3.158   1.966   4.752
 9763SOL     OW30187   4.657   1.822   2.570
 9763SOL    HW130188   4.754   1.843   2.565
 9763SOL    HW230189   4.645   1.724   2.586
 9764SOL     OW30190   6.568   3.004   3.180
 9764SOL    HW130191   6.529   2.929   3.127
 9764SOL    HW230192   6.627   3.059   3.121
 9765SOL     OW30193   6.624   6.608   3.793
 9765SOL    HW130194   6.687   6.584   3.866
 9765SOL    HW230195   6.552   6.538   3.786
 9766SOL     OW30196   2.686   7.020   2.299
 9766SOL    HW130197   2.762   6.981   2.248
 9766SOL    HW230198   2.714   0.086   2.340
 9767SOL     OW30199   3.604   1.569   5.788
 9767SOL    HW130200   3.686   1.518   5.765
 9767SOL    HW230201   3.578   1.627   5.711
 9768SOL     OW30202   5.220   0.989   1.517
 9768SOL    HW130203   5.204   1.026   1.608
 9768SOL    HW230204   5.190   0.893   1.514
 9769SOL     OW30205   4.341   0.660   4.838
 9769SOL    HW130206   4.312   0.732   4.901
 9769SOL    HW230207   4.430   0.684   4.798
 9770SOL     OW30208   3.735   1.169   5.974
 9770SOL    HW130209   3.723   1.139   6.069
 9770SOL    HW230210   3.745   1.089   5.915
 9771SOL     OW30211   2.705   5.756   0.589
 9771SOL    HW130212   2.754   5.835   0.624
 9771SOL    HW230213   2.610   5.782   0.569
 9772SOL     OW30214   1.427   5.964   1.469
 9772SOL    HW130215   1.459   6.058   1.468
 9772SOL    HW230216   1.473   5.914   1.543
 9773SOL     OW30217   5.223   5.328   4.695
 9773SOL    HW130218   5.292   5.400   4.685
 9773SOL    HW230219   5.192   5.299   4.604
 9774SOL     OW30220   6.830   5.681   1.911
 9774SOL    HW130221   6.752   5.619   1.897
 9774SOL    HW230222   6.896   5.668   1.836
 9775SOL     OW30223   3.135   0.681   3.280
 9775SOL    HW130224   3.169   0.601   3.229
 9775SOL    HW230225   3.088   0.651   3.362
 9776SOL     OW30226   0.422   4.788   5.235
 9776SOL    HW130227   0.520   4.804   5.244
 9776SOL    HW230228   0.389   4.829   5.150
 9777SOL     OW30229   6.106   5.828   0.137
 9777SOL    HW130230   6.042   5.802   0.065
 9777SOL    HW230231   6.200   5.817   0.104
 9778SOL     OW30232   0.151   1.756   4.342
 9778SOL    HW130233   0.190   1.841   4.307
 9778SOL    HW230234   0.130   1.695   4.265
 9779SOL     OW30235   0.836   1.811   4.058
 9779SOL    HW130236   0.772   1.846   3.990
 9779SOL    HW230237   0.881   1.729   4.023
 9780SOL     OW30238   2.104   2.528   0.528
 9780SOL    HW130239   2.100   2.541   0.627
 9780SOL    HW230240   2.188   2.569   0.492
 9781SOL     OW30241   2.135   2.234   4.784
 9781SOL    HW130242   2.170   2.233   4.691
 9781SOL    HW230243   2.173   2.313   4.833
 9782SOL     OW30244   0.257   1.205   1.091
 9782SOL    HW130245   0.261   1.268   1.013
 9782SOL    HW230246   0.227   1.255   1.172
 9783SOL     OW30247   4.686   2.695   3.261
 9783SOL    HW130248   4.773   2.699   3.213
 9783SOL    HW230249   4.693   2.744   3.348
 9784SOL     OW30250   3.333   2.270   6.257
 9784SOL    HW130251   3.380   2.187   6.288
 9784SOL    HW230252   3.234   2.256   6.264
 9785SOL     OW30253   1.080   2.128   5.937
 9785SOL    HW130254   1.163   2.075   5.919
 9785SOL    HW230255   1.050   2.171   5.852
 9786SOL     OW30256   2.590   4.203   0.557
 9786SOL    HW130257   2.625   4.199   0.463
 9786SOL    HW230258   2.665   4.228   0.619
 9787SOL     OW30259   3.190   3.552   2.556
 9787SOL    HW130260   3.131   3.550   2.475
 9787SOL    HW230261   3.237   3.640   2.560
 9788SOL     OW30262   0.568   0.271   3.692
 9788SOL    HW130263   0.595   0.206   3.763
 9788SOL    HW230264   0.644   0.286   3.629
 9789SOL     OW30265   1.640   5.188   0.581
 9789SOL    HW130266   1.693   5.225   0.658
 9789SOL    HW230267   1.614   5.262   0.519
 9790SOL     OW30268   6.742   4.840   6.717
 9790SOL    HW130269   6.704   4.920   6.765
 9790SOL    HW230270   6.825   4.810   6.764
 9791SOL     OW30271   0.682   0.564   0.259
 9791SOL    HW130272   0.770   0.538   0.220
 9791SOL    HW230273   0.619   0.587   0.184
 9792SOL     OW30274   3.415   4.298   0.521
 9792SOL    HW130275   3.496   4.356   0.532
 9792SOL    HW230276   3.444   4.204   0.501
 9793SOL     OW30277   3.888   6.883   2.572
 9793SOL    HW130278   3.836   6.831   2.639
 9793SOL    HW230279   3.917   6.970   2.611
 9794SOL     OW30280   0.021   4.075   6.725
 9794SOL    HW130281   7.010   4.168   6.707
 9794SOL    HW230282   0.105   4.079   6.781
 9795SOL     OW30283   1.652   1.588   4.383
 9795SOL    HW130284   1.658   1.682   4.348
 9795SOL    HW230285   1.640   1.590   4.482
 9796SOL     OW30286   3.099   2.993   2.407
 9796SOL    HW130287   3.113   3.044   2.322
 9796SOL    HW230288   3.083   2.897   2.387
 9797SOL     OW30289   1.958   5.690   0.237
 9797SOL    HW130290   1.882   5.750   0.263
 9797SOL    HW230291   1.960   5.679   0.138
 9798SOL     OW30292   3.409   0.267   2.356
 9798SOL    HW130293   3.507   0.285   2.356
 9798SOL    HW230294   3.385   0.213   2.437
 9799SOL     OW30295   3.103   3.981   5.416
 9799SOL    HW130296   3.088   4.040   5.496
 9799SOL    HW230297   3.081   4.031   5.333
 9800SOL     OW30298   4.373   4.958   4.895
 9800SOL    HW130299   4.346   5.040   4.845
 9800SOL    HW230300   4.307   4.941   4.969
 9801SOL     OW30301   5.129   3.870   0.268
 9801SOL    HW130302   5.081   3.951   0.301
 9801SOL    HW230303   5.166   3.887   0.177
 9802SOL     OW30304   6.998   4.255   2.206
 9802SOL    HW130305   6.995   4.255   2.106
 9802SOL    HW230306   6.980   4.162   2.239
 9803SOL     OW30307   1.910   1.928   6.457
 9803SOL    HW130308   1.852   1.904   6.379
 9803SOL    HW230309   1.877   2.014   6.498
 9804SOL     OW30310   1.351   5.896   3.253
 9804SOL    HW130311   1.301   5.810   3.245
 9804SOL    HW230312   1.446   5.881   3.224
 9805SOL     OW30313   0.900   6.870   3.435
 9805SOL    HW130314   0.946   6.897   3.520
 9805SOL    HW230315   0.941   6.920   3.358
 9806SOL     OW30316   1.400   1.220   6.380
 9806SOL    HW130317   1.399   1.216   6.480
 9806SOL    HW230318   1.320   1.172   6.344
 9807SOL     OW30319   3.599   4.696   0.588
 9807SOL    HW130320   3.505   4.705   0.618
 9807SOL    HW230321   3.623   4.600   0.579
 9808SOL     OW30322   3.581   0.203   5.215
 9808SOL    HW130323   3.524   0.135   5.171
 9808SOL    HW230324   3.595   0.281   5.154
 9809SOL     OW30325   1.048   3.226   6.710
 9809SOL    HW130326   1.114   3.242   6.637
 9809SOL    HW230327   1.062   3.135   6.750
 9810SOL     OW30328   2.051   2.728   3.748
 9810SOL    HW130329   2.118   2.779   3.801
 9810SOL    HW230330   1.975   2.788   3.723
 9811SOL     OW30331   5.639   4.938   3.174
 9811SOL    HW130332   5.661   4.960   3.079
 9811SOL    HW230333   5.685   5.002   3.235
 9812SOL     OW30334   3.986   2.042   5.808
 9812SOL    HW130335   3.927   1.970   5.844
 9812SOL    HW230336   3.988   2.037   5.708
 9813SOL     OW30337   4.755   1.298   1.044
 9813SOL    HW130338   4.810   1.257   0.971
 9813SOL    HW230339   4.747   1.397   1.028
 9814SOL     OW30340   6.495   0.172   6.968
 9814SOL    HW130341   6.471   0.110   0.022
 9814SOL    HW230342   6.453   0.140   6.883
 9815SOL     OW30343   5.709   3.899   4.565
 9815SOL    HW130344   5.788   3.870   4.618
 9815SOL    HW230345   5.626   3.860   4.604
 9816SOL     OW30346   0.590   0.808   6.093
 9816SOL    HW130347   0.674   0.829   6.043
 9816SOL    HW230348   0.610   0.797   6.190
 9817SOL     OW30349   3.047   6.584   3.135
 9817SOL    HW130350   2.955   6.610   3.166
 9817SOL    HW230351   3.051   6.591   3.035
 9818SOL     OW30352   0.803   0.443   3.924
 9818SOL    HW130353   0.797   0.352   3.965
 9818SOL    HW230354   0.715   0.491   3.936
 9819SOL     OW30355   4.922   3.533   3.770
 9819SOL    HW130356   4.922   3.526   3.870
 9819SOL    HW230357   4.879   3.452   3.730
 9820SOL     OW30358   4.101   3.154   6.399
 9820SOL    HW130359   4.105   3.066   6.352
 9820SOL    HW230360   4.111   3.228   6.332
 9821SOL     OW30361   5.233   1.044   6.515
 9821SOL    HW130362   5.314   0.987   6.527
 9821SOL    HW230363   5.152   0.996   6.548
 9822SOL     OW30364   2.034   6.913   3.683
 9822SOL    HW130365   2.108   6.934   3.747
 9822SOL    HW230366   1.998   6.998   3.646
 9823SOL     OW30367   2.387   1.028   0.208
 9823SOL    HW130368   2.436   1.110   0.178
 9823SOL    HW230369   2.454   0.957   0.232
 9824SOL     OW30370   1.800   5.109   4.737
 9824SOL    HW130371   1.896   5.135   4.727
 9824SOL    HW230372   1.760   5.160   4.813
 9825SOL     OW30373   4.900   5.691   5.312
 9825SOL    HW130374   4.879   5.596   5.290
 9825SOL    HW230375   4.975   5.694   5.378
 9826SOL     OW30376   4.369   5.221   6.183
 9826SOL    HW130377   4.273   5.214   6.156
 9826SOL    HW230378   4.375   5.230   6.282
 9827SOL     OW30379   2.063   3.238   3.893
 9827SOL    HW130380   2.012   3.166   3.941
 9827SOL    HW230381   2.087   3.310   3.958
 9828SOL     OW30382   2.225   2.668   5.402
 9828SOL    HW130383   2.295   2.734   5.429
 9828SOL    HW230384   2.241   2.638   5.308
 9829SOL     OW30385   3.959   5.427   6.642
 9829SOL    HW130386   3.951   5.506   6.704
 9829SOL    HW230387   3.911   5.447   6.557
 9830SOL     OW30388   6.039   2.252   1.975
 9830SOL    HW130389   6.093   2.227   1.895
 9830SOL    HW230390   5.973   2.323   1.950
 9831SOL     OW30391   2.542   5.148   1.109
 9831SOL    HW130392   2.566   5.100   1.193
 9831SOL    HW230393   2.623   5.193   1.071
 9832SOL     OW30394   5.244   5.773   2.384
 9832SOL    HW130395   5.329   5.746   2.428
 9832SOL    HW230396   5.183   5.693   2.378
 9833SOL     OW30397   3.275   3.418   4.843
 9833SOL    HW130398   3.304   3.513   4.855
 9833SOL    HW230399   3.309   3.363   4.920
 9834SOL     OW30400   2.706   4.165   5.365
 9834SOL    HW130401   2.748   4.084   5.323
 9834SOL    HW230402   2.630   4.137   5.424
 9835SOL     OW30403   4.002   3.187   5.164
 9835SOL    HW130404   4.067   3.243   5.216
 9835SOL    HW230405   3.983   3.102   5.214
 9836SOL     OW30406   6.650   4.573   3.434
 9836SOL    HW130407   6.665   4.476   3.416
 9836SOL    HW230408   6.660   4.625   3.349
 9837SOL     OW30409   3.269   0.480   2.763
 9837SOL    HW130410   3.368   0.491   2.769
 9837SOL    HW230411   3.247   0.386   2.736
 9838SOL     OW30412   1.568   6.759   7.006
 9838SOL    HW130413   1.513   6.816   0.047
 9838SOL    HW230414   1.508   6.707   6.946
 9839SOL     OW30415   5.308   0.325   3.510
 9839SOL    HW130416   5.240   0.289   3.446
 9839SOL    HW230417   5.378   0.256   3.528
 9840SOL     OW30418   5.726   1.395   0.697
 9840SOL    HW130419   5.824   1.377   0.703
 9840SOL    HW230420   5.710   1.472   0.636
 9841SOL     OW30421   1.714   4.812   5.193
 9841SOL    HW130422   1.738   4.780   5.101
 9841SOL    HW230423   1.717   4.912   5.195
 9842SOL     OW30424   3.337   3.404   2.057
 9842SOL    HW130425   3.328   3.335   1.985
 9842SOL    HW230426   3.416   3.462   2.037
 9843SOL     OW30427   6.217   1.038   1.210
 9843SOL    HW130428   6.314   1.064   1.200
 9843SOL    HW230429   6.182   1.010   1.121
 9844SOL     OW30430   6.453   0.725   2.175
 9844SOL    HW130431   6.552   0.738   2.182
 9844SOL    HW230432   6.406   0.787   2.238
 9845SOL     OW30433   1.916   2.999   3.075
 9845SOL    HW130434   2.015   3.005   3.073
 9845SOL    HW230435   1.885   2.984   3.169
 9846SOL     OW30436   3.825   3.425   2.188
 9846SOL    HW130437   3.742   3.381   2.225
 9846SOL    HW230438   3.902   3.409   2.250
 9847SOL     OW30439   3.679   2.939   3.618
 9847SOL    HW130440   3.629   3.021   3.646
 9847SOL    HW230441   3.614   2.872   3.581
 9848SOL     OW30442   3.724   3.110   4.740
 9848SOL    HW130443   3.658   3.161   4.685
 9848SOL    HW230444   3.769   3.172   4.804
 9849SOL     OW30445   1.139   0.005   6.859
 9849SOL    HW130446   1.155   0.023   6.956
 9849SOL    HW230447   1.122   0.091   6.812
 9850SOL     OW30448   6.017   6.823   4.345
 9850SOL    HW130449   6.115   6.801   4.345
 9850SOL    HW230450   5.972   6.772   4.272
 9851SOL     OW30451   6.243   0.407   4.428
 9851SOL    HW130452   6.317   0.340   4.435
 9851SOL    HW230453   6.155   0.361   4.431
 9852SOL     OW30454   3.930   1.614   3.811
 9852SOL    HW130455   3.885   1.562   3.884
 9852SOL    HW230456   3.896   1.582   3.722
 9853SOL     OW30457   5.006   3.730   4.685
 9853SOL    HW130458   5.103   3.707   4.696
 9853SOL    HW230459   4.950   3.655   4.720
 9854SOL     OW30460   6.636   5.717   5.205
 9854SOL    HW130461   6.670   5.686   5.116
 9854SOL    HW230462   6.708   5.768   5.252
 9855SOL     OW30463   2.131   3.620   1.216
 9855SOL    HW130464   2.221   3.594   1.183
 9855SOL    HW230465   2.141   3.672   1.301
 9856SOL     OW30466   4.961   4.000   4.712
 9856SOL    HW130467   4.927   4.033   4.624
 9856SOL    HW230468   4.986   3.904   4.705
 9857SOL     OW30469   4.678   2.741   2.834
 9857SOL    HW130470   4.674   2.746   2.734
 9857SOL    HW230471   4.721   2.823   2.871
 9858SOL     OW30472   0.104   0.763   1.366
 9858SOL    HW130473   0.100   0.666   1.389
 9858SOL    HW230474   0.023   0.809   1.401
 9859SOL     OW30475   6.341   6.706   2.341
 9859SOL    HW130476   6.361   6.612   2.371
 9859SOL    HW230477   6.413   6.737   2.280
 9860SOL     OW30478   1.344   1.737   3.069
 9860SOL    HW130479   1.423   1.799   3.072
 9860SOL    HW230480   1.260   1.790   3.077
 9861SOL     OW30481   3.002   0.510   3.530
 9861SOL    HW130482   2.932   0.559   3.477
 9861SOL    HW230483   3.014   0.556   3.618
 9862SOL     OW30484   3.905   2.920   0.023
 9862SOL    HW130485   3.962   2.939   0.102
 9862SOL    HW230486   3.809   2.928   0.048
 9863SOL     OW30487   3.065   6.831   2.815
 9863SOL    HW130488   3.106   6.741   2.832
 9863SOL    HW230489   3.012   6.828   2.731
 9864SOL     OW30490   3.565   6.417   3.668
 9864SOL    HW130491   3.537   6.374   3.582
 9864SOL    HW230492   3.513   6.502   3.681
 9865SOL     OW30493   1.393   0.313   4.493
 9865SOL    HW130494   1.303   0.357   4.492
 9865SOL    HW230495   1.397   0.243   4.422
 9866SOL     OW30496   4.883   4.294   6.001
 9866SOL    HW130497   4.887   4.223   6.071
 9866SOL    HW230498   4.811   4.360   6.024
 9867SOL     OW30499   6.871   1.390   0.721
 9867SOL    HW130500   6.859   1.471   0.779
 9867SOL    HW230501   6.785   1.372   0.673
 9868SOL     OW30502   0.468   3.756   5.412
 9868SOL    HW130503   0.434   3.723   5.324
 9868SOL    HW230504   0.560   3.719   5.428
 9869SOL     OW30505   1.047   2.739   1.602
 9869SOL    HW130506   1.088   2.811   1.546
 9869SOL    HW230507   1.115   2.702   1.664
 9870SOL     OW30508   3.584   6.217   2.817
 9870SOL    HW130509   3.616   6.153   2.746
 9870SOL    HW230510   3.652   6.221   2.890
 9871SOL     OW30511   0.210   5.914   5.991
 9871SOL    HW130512   0.133   5.874   5.943
 9871SOL    HW230513   0.219   5.872   6.081
 9872SOL     OW30514   2.493   5.499   4.774
 9872SOL    HW130515   2.448   5.410   4.765
 9872SOL    HW230516   2.589   5.485   4.798
 9873SOL     OW30517   2.354   2.608   0.472
 9873SOL    HW130518   2.346   2.694   0.523
 9873SOL    HW230519   2.437   2.610   0.416
 9874SOL     OW30520   5.802   3.190   5.093
 9874SOL    HW130521   5.887   3.177   5.145
 9874SOL    HW230522   5.786   3.288   5.079
 9875SOL     OW30523   5.974   6.115   1.763
 9875SOL    HW130524   6.005   6.205   1.733
 9875SOL    HW230525   6.049   6.067   1.808
 9876SOL     OW30526   6.155   0.525   3.712
 9876SOL    HW130527   6.150   0.425   3.708
 9876SOL    HW230528   6.138   0.556   3.805
 9877SOL     OW30529   6.466   5.127   4.388
 9877SOL    HW130530   6.516   5.119   4.302
 9877SOL    HW230531   6.368   5.135   4.369
 9878SOL     OW30532   2.671   4.021   5.883
 9878SOL    HW130533   2.617   3.984   5.958
 9878SOL    HW230534   2.756   4.060   5.919
 9879SOL     OW30535   5.478   5.650   5.374
 9879SOL    HW130536   5.387   5.613   5.355
 9879SOL    HW230537   5.485   5.742   5.335
 9880SOL     OW30538   4.214   0.681   0.267
 9880SOL    HW130539   4.168   0.637   0.189
 9880SOL    HW230540   4.286   0.741   0.233
 9881SOL     OW30541   1.451   1.298   3.954
 9881SOL    HW130542   1.508   1.225   3.916
 9881SOL    HW230543   1.498   1.386   3.942
 9882SOL     OW30544   1.649   3.446   4.304
 9882SOL    HW130545   1.720   3.383   4.273
 9882SOL    HW230546   1.583   3.397   4.360
 9883SOL     OW30547   1.425   6.002   1.025
 9883SOL    HW130548   1.507   6.046   1.061
 9883SOL    HW230549   1.429   6.000   0.925
 9884SOL     OW30550   4.660   2.328   1.752
 9884SOL    HW130551   4.616   2.258   1.809
 9884SOL    HW230552   4.754   2.342   1.784
 9885SOL     OW30553   0.374   2.209   4.921
 9885SOL    HW130554   0.461   2.256   4.936
 9885SOL    HW230555   0.330   2.245   4.839
 9886SOL     OW30556   1.280   4.761   1.768
 9886SOL    HW130557   1.277   4.740   1.670
 9886SOL    HW230558   1.350   4.705   1.812
 9887SOL     OW30559   4.890   0.227   6.883
 9887SOL    HW130560   4.981   0.191   6.863
 9887SOL    HW230561   4.871   0.218   6.981
 9888SOL     OW30562   5.560   4.837   2.455
 9888SOL    HW130563   5.496   4.826   2.379
 9888SOL    HW230564   5.521   4.898   2.524
 9889SOL     OW30565   6.107   4.953   0.791
 9889SOL    HW130566   6.157   5.017   0.849
 9889SOL    HW230567   6.009   4.972   0.796
 9890SOL     OW30568   0.850   2.890   1.338
 9890SOL    HW130569   0.904   2.817   1.296
 9890SOL    HW230570   0.795   2.935   1.269
 9891SOL     OW30571   5.865   3.287   1.550
 9891SOL    HW130572   5.775   3.246   1.540
 9891SOL    HW230573   5.895   3.324   1.462
 9892SOL     OW30574   1.801   4.808   2.182
 9892SOL    HW130575   1.731   4.879   2.173
 9892SOL    HW230576   1.805   4.777   2.277
 9893SOL     OW30577   0.411   0.315   2.172
 9893SOL    HW130578   0.471   0.241   2.201
 9893SOL    HW230579   0.360   0.286   2.090
 9894SOL     OW30580   3.004   2.673   0.386
 9894SOL    HW130581   3.057   2.702   0.466
 9894SOL    HW230582   3.062   2.679   0.304
 9895SOL     OW30583   5.550   3.718   5.212
 9895SOL    HW130584   5.511   3.722   5.304
 9895SOL    HW230585   5.648   3.698   5.218
 9896SOL     OW30586   6.239   1.230   0.881
 9896SOL    HW130587   6.176   1.306   0.864
 9896SOL    HW230588   6.188   1.152   0.918
 9897SOL     OW30589   5.794   0.189   2.102
 9897SOL    HW130590   5.835   0.162   2.189
 9897SOL    HW230591   5.719   0.126   2.079
 9898SOL     OW30592   0.712   5.000   6.228
 9898SOL    HW130593   0.667   4.989   6.317
 9898SOL    HW230594   0.689   5.089   6.190
 9899SOL     OW30595   0.805   5.208   1.725
 9899SOL    HW130596   0.719   5.162   1.747
 9899SOL    HW230597   0.856   5.227   1.809
 9900SOL     OW30598   1.626   2.948   2.581
 9900SOL    HW130599   1.686   2.919   2.506
 9900SOL    HW230600   1.647   3.042   2.607
 9901SOL     OW30601   3.109   0.573   6.426
 9901SOL    HW130602   3.176   0.642   6.398
 9901SOL    HW230603   3.029   0.579   6.367
 9902SOL     OW30604   3.461   4.381   1.503
 9902SOL    HW130605   3.528   4.352   1.435
 9902SOL    HW230606   3.418   4.301   1.544
 9903SOL     OW30607   5.543   1.361   1.330
 9903SOL    HW130608   5.552   1.391   1.425
 9903SOL    HW230609   5.530   1.441   1.271
 9904SOL     OW30610   0.370   3.660   6.473
 9904SOL    HW130611   0.375   3.567   6.437
 9904SOL    HW230612   0.393   3.726   6.401
 9905SOL     OW30613   2.624   0.235   5.537
 9905SOL    HW130614   2.657   0.217   5.630
 9905SOL    HW230615   2.542   0.292   5.541
 9906SOL     OW30616   1.703   3.015   0.934
 9906SOL    HW130617   1.669   3.109   0.923
 9906SOL    HW230618   1.796   3.018   0.970
 9907SOL     OW30619   1.488   0.483   1.332
 9907SOL    HW130620   1.454   0.560   1.278
 9907SOL    HW230621   1.524   0.413   1.270
 9908SOL     OW30622   6.001   2.536   4.832
 9908SOL    HW130623   5.995   2.436   4.825
 9908SOL    HW230624   6.069   2.561   4.901
 9909SOL     OW30625   3.964   0.814   2.453
 9909SOL    HW130626   4.029   0.889   2.443
 9909SOL    HW230627   3.934   0.783   2.363
 9910SOL     OW30628   1.419   5.128   1.347
 9910SOL    HW130629   1.364   5.184   1.409
 9910SOL    HW230630   1.450   5.185   1.271
 9911SOL     OW30631   2.683   5.774   1.757
 9911SOL    HW130632   2.668   5.677   1.777
 9911SOL    HW230633   2.767   5.805   1.802
 9912SOL     OW30634   3.963   1.398   0.990
 9912SOL    HW130635   3.970   1.493   1.020
 9912SOL    HW230636   3.903   1.392   0.911
 9913SOL     OW30637   6.467   3.378   0.652
 9913SOL    HW130638   6.496   3.369   0.557
 9913SOL    HW230639   6.384   3.434   0.657
 9914SOL     OW30640   6.431   0.051   5.895
 9914SOL    HW130641   6.524   0.089   5.904
 9914SOL    HW230642   6.377   0.109   5.835
 9915SOL     OW30643   5.686   0.665   3.573
 9915SOL    HW130644   5.657   0.745   3.626
 9915SOL    HW230645   5.651   0.582   3.617
 9916SOL     OW30646   2.162   2.377   3.032
 9916SOL    HW130647   2.198   2.337   3.116
 9916SOL    HW230648   2.236   2.422   2.982
 9917SOL     OW30649   3.845   3.890   5.823
 9917SOL    HW130650   3.755   3.871   5.863
 9917SOL    HW230651   3.835   3.957   5.749
 9918SOL     OW30652   1.428   2.749   2.892
 9918SOL    HW130653   1.386   2.757   2.802
 9918SOL    HW230654   1.527   2.737   2.881
 9919SOL     OW30655   2.362   5.306   1.418
 9919SOL    HW130656   2.359   5.210   1.391
 9919SOL    HW230657   2.353   5.365   1.337
 9920SOL     OW30658   4.780   0.593   2.438
 9920SOL    HW130659   4.727   0.656   2.493
 9920SOL    HW230660   4.852   0.643   2.389
 9921SOL     OW30661   4.413   6.372   4.226
 9921SOL    HW130662   4.511   6.387   4.211
 9921SOL    HW230663   4.367   6.367   4.137
 9922SOL     OW30664   4.062   4.248   0.807
 9922SOL    HW130665   4.072   4.327   0.747
 9922SOL    HW230666   3.967   4.236   0.833
 9923SOL     OW30667   6.268   3.890   0.085
 9923SOL    HW130668   6.216   3.975   0.094
 9923SOL    HW230669   6.328   3.896   0.006
 9924SOL     OW30670   5.768   2.063   2.711
 9924SOL    HW130671   5.795   2.060   2.808
 9924SOL    HW230672   5.681   2.015   2.699
 9925SOL     OW30673   0.502   5.135   3.883
 9925SOL    HW130674   0.563   5.175   3.951
 9925SOL    HW230675   0.468   5.047   3.915
 9926SOL     OW30676   4.106   2.393   1.137
 9926SOL    HW130677   4.050   2.318   1.171
 9926SOL    HW230678   4.055   2.445   1.068
 9927SOL     OW30679   1.409   1.433   0.892
 9927SOL    HW130680   1.480   1.448   0.961
 9927SOL    HW230681   1.360   1.348   0.913
 9928SOL     OW30682   5.024   4.640   3.610
 9928SOL    HW130683   5.124   4.636   3.619
 9928SOL    HW230684   4.997   4.603   3.521
 9929SOL     OW30685   3.582   4.166   4.267
 9929SOL    HW130686   3.527   4.169   4.351
 9929SOL    HW230687   3.677   4.150   4.290
 9930SOL     OW30688   0.689   6.893   5.838
 9930SOL    HW130689   0.691   6.807   5.787
 9930SOL    HW230690   0.597   6.931   5.835
 9931SOL     OW30691   6.859   5.262   4.610
 9931SOL    HW130692   6.893   5.229   4.522
 9931SOL    HW230693   6.849   5.184   4.672
 9932SOL     OW30694   2.776   2.893   5.747
 9932SOL    HW130695   2.836   2.929   5.818
 9932SOL    HW230696   2.829   2.870   5.666
 9933SOL     OW30697   2.339   6.583   4.155
 9933SOL    HW130698   2.408   6.565   4.225
 9933SOL    HW230699   2.262   6.633   4.195
 9934SOL     OW30700   0.233   2.008   6.314
 9934SOL    HW130701   0.190   2.026   6.225
 9934SOL    HW230702   0.290   2.086   6.340
 9935SOL     OW30703   2.587   0.148   1.396
 9935SOL    HW130704   2.584   0.116   1.301
 9935SOL    HW230705   2.682   0.166   1.422
 9936SOL     OW30706   6.441   4.685   0.502
 9936SOL    HW130707   6.493   4.661   0.584
 9936SOL    HW230708   6.352   4.723   0.529
 9937SOL     OW30709   0.553   1.731   1.714
 9937SOL    HW130710   0.456   1.726   1.689
 9937SOL    HW230711   0.566   1.806   1.779
 9938SOL     OW30712   5.538   5.099   3.877
 9938SOL    HW130713   5.511   5.058   3.789
 9938SOL    HW230714   5.625   5.058   3.907
 9939SOL     OW30715   3.573   2.379   1.073
 9939SOL    HW130716   3.546   2.338   0.986
 9939SOL    HW230717   3.565   2.311   1.146
 9940SOL     OW30718   1.167   0.288   1.983
 9940SOL    HW130719   1.094   0.254   1.925
 9940SOL    HW230720   1.192   0.218   2.050
 9941SOL     OW30721   3.142   4.245   5.987
 9941SOL    HW130722   3.202   4.325   5.988
 9941SOL    HW230723   3.182   4.172   6.042
 9942SOL     OW30724   3.562   5.475   2.412
 9942SOL    HW130725   3.501   5.409   2.457
 9942SOL    HW230726   3.532   5.488   2.317
 9943SOL     OW30727   1.160   5.009   6.942
 9943SOL    HW130728   1.182   5.104   6.920
 9943SOL    HW230729   1.239   4.951   6.922
 9944SOL     OW30730   0.878   4.541   6.876
 9944SOL    HW130731   0.823   4.614   6.917
 9944SOL    HW230732   0.832   4.453   6.889
 9945SOL     OW30733   4.522   5.747   0.173
 9945SOL    HW130734   4.589   5.719   0.105
 9945SOL    HW230735   4.439   5.779   0.128
 9946SOL     OW30736   6.599   6.892   3.426
 9946SOL    HW130737   6.568   6.879   3.332
 9946SOL    HW230738   6.615   6.803   3.468
 9947SOL     OW30739   2.731   2.293   4.390
 9947SOL    HW130740   2.712   2.327   4.298
 9947SOL    HW230741   2.674   2.342   4.456
 9948SOL     OW30742   6.976   4.882   5.130
 9948SOL    HW130743   6.912   4.817   5.090
 9948SOL    HW230744   6.934   4.973   5.130
 9949SOL     OW30745   6.980   4.967   3.836
 9949SOL    HW130746   6.955   4.989   3.930
 9949SOL    HW230747   6.972   4.868   3.822
 9950SOL     OW30748   5.749   6.117   6.270
 9950SOL    HW130749   5.806   6.199   6.271
 9950SOL    HW230750   5.690   6.118   6.190
 9951SOL     OW30751   1.074   2.427   3.435
 9951SOL    HW130752   1.016   2.345   3.436
 9951SOL    HW230753   1.022   2.503   3.393
 9952SOL     OW30754   1.617   4.450   0.469
 9952SOL    HW130755   1.599   4.432   0.565
 9952SOL    HW230756   1.709   4.418   0.445
 9953SOL     OW30757   6.189   2.010   4.183
 9953SOL    HW130758   6.110   1.959   4.217
 9953SOL    HW230759   6.236   2.053   4.260
 9954SOL     OW30760   1.434   0.451   5.573
 9954SOL    HW130761   1.494   0.530   5.558
 9954SOL    HW230762   1.381   0.433   5.490
 9955SOL     OW30763   4.458   4.108   6.468
 9955SOL    HW130764   4.493   4.201   6.454
 9955SOL    HW230765   4.527   4.053   6.515
 9956SOL     OW30766   0.762   5.436   4.454
 9956SOL    HW130767   0.723   5.452   4.545
 9956SOL    HW230768   0.690   5.447   4.385
 9957SOL     OW30769   5.826   0.050   1.388
 9957SOL    HW130770   5.827   0.033   1.289
 9957SOL    HW230771   5.810   0.147   1.405
 9958SOL     OW30772   2.456   5.932   6.878
 9958SOL    HW130773   2.531   5.988   6.842
 9958SOL    HW230774   2.398   5.901   6.803
 9959SOL     OW30775   4.145   3.645   3.525
 9959SOL    HW130776   4.130   3.658   3.426
 9959SOL    HW230777   4.242   3.653   3.545
 9960SOL     OW30778   0.579   0.109   2.256
 9960SOL    HW130779   0.638   0.147   2.328
 9960SOL    HW230780   0.636   0.065   2.186
 9961SOL     OW30781   1.388   5.078   4.920
 9961SOL    HW130782   1.445   5.064   4.839
 9961SOL    HW230783   1.328   5.157   4.907
 9962SOL     OW30784   4.574   0.464   2.767
 9962SOL    HW130785   4.504   0.484   2.699
 9962SOL    HW230786   4.573   0.367   2.790
 9963SOL     OW30787   2.383   2.191   6.026
 9963SOL    HW130788   2.388   2.145   6.115
 9963SOL    HW230789   2.463   2.250   6.015
 9964SOL     OW30790   4.306   4.341   6.116
 9964SOL    HW130791   4.330   4.404   6.041
 9964SOL    HW230792   4.375   4.268   6.120
 9965SOL     OW30793   3.826   4.591   5.754
 9965SOL    HW130794   3.841   4.542   5.841
 9965SOL    HW230795   3.744   4.647   5.762
 9966SOL     OW30796   2.471   5.842   1.971
 9966SOL    HW130797   2.541   5.792   1.920
 9966SOL    HW230798   2.382   5.829   1.927
 9967SOL     OW30799   6.178   5.709   1.494
 9967SOL    HW130800   6.263   5.722   1.546
 9967SOL    HW230801   6.102   5.694   1.558
 9968SOL     OW30802   3.396   4.522   6.555
 9968SOL    HW130803   3.433   4.610   6.525
 9968SOL    HW230804   3.306   4.535   6.597
 9969SOL     OW30805   1.414   2.295   4.096
 9969SOL    HW130806   1.372   2.240   4.168
 9969SOL    HW230807   1.511   2.271   4.088
 9970SOL     OW30808   5.967   4.549   2.418
 9970SOL    HW130809   5.927   4.529   2.328
 9970SOL    HW230810   5.912   4.618   2.465
 9971SOL     OW30811   2.662   4.016   0.276
 9971SOL    HW130812   2.564   4.010   0.256
 9971SOL    HW230813   2.697   3.926   0.300
 9972SOL     OW30814   3.701   4.876   0.840
 9972SOL    HW130815   3.606   4.864   0.869
 9972SOL    HW230816   3.726   4.803   0.776
 9973SOL     OW30817   4.505   2.292   4.416
 9973SOL    HW130818   4.539   2.352   4.344
 9973SOL    HW230819   4.483   2.346   4.497
 9974SOL     OW30820   5.944   3.267   3.727
 9974SOL    HW130821   5.994   3.236   3.647
 9974SOL    HW230822   5.901   3.356   3.707
 9975SOL     OW30823   6.901   4.470   0.313
 9975SOL    HW130824   6.854   4.508   0.232
 9975SOL    HW230825   6.835   4.458   0.387
 9976SOL     OW30826   0.017   5.585   5.749
 9976SOL    HW130827   0.010   5.529   5.832
 9976SOL    HW230828   0.079   5.540   5.685
 9977SOL     OW30829   0.058   5.373   5.943
 9977SOL    HW130830   0.019   5.347   6.032
 9977SOL    HW230831   0.008   5.326   5.870
 9978SOL     OW30832   6.332   2.589   3.476
 9978SOL    HW130833   6.411   2.635   3.516
 9978SOL    HW230834   6.328   2.494   3.509
 9979SOL     OW30835   6.515   4.785   6.073
 9979SOL    HW130836   6.552   4.875   6.050
 9979SOL    HW230837   6.415   4.787   6.065
 9980SOL     OW30838   1.806   1.331   6.990
 9980SOL    HW130839   1.902   1.325   6.961
 9980SOL    HW230840   1.781   1.428   7.001
 9981SOL     OW30841   2.548   1.765   1.281
 9981SOL    HW130842   2.589   1.741   1.193
 9981SOL    HW230843   2.619   1.771   1.351
 9982SOL     OW30844   0.484   1.370   3.284
 9982SOL    HW130845   0.452   1.284   3.323
 9982SOL    HW230846   0.481   1.364   3.184
 9983SOL     OW30847   1.512   2.233   2.146
 9983SOL    HW130848   1.465   2.150   2.117
 9983SOL    HW230849   1.481   2.310   2.090
 9984SOL     OW30850   1.183   0.264   0.703
 9984SOL    HW130851   1.253   0.249   0.773
 9984SOL    HW230852   1.103   0.307   0.745
 9985SOL     OW30853   2.823   1.093   2.079
 9985SOL    HW130854   2.808   1.000   2.114
 9985SOL    HW230855   2.759   1.111   2.005
 9986SOL     OW30856   5.104   4.152   6.601
 9986SOL    HW130857   5.122   4.084   6.530
 9986SOL    HW230858   5.191   4.188   6.635
 9987SOL     OW30859   5.688   1.598   2.687
 9987SOL    HW130860   5.777   1.638   2.711
 9987SOL    HW230861   5.703   1.511   2.638
 9988SOL     OW30862   0.311   5.235   5.145
 9988SOL    HW130863   0.247   5.173   5.100
 9988SOL    HW230864   0.381   5.181   5.192
 9989SOL     OW30865   5.445   4.117   2.967
 9989SOL    HW130866   5.472   4.037   2.913
 9989SOL    HW230867   5.461   4.200   2.914
 9990SOL     OW30868   2.692   0.054   2.871
 9990SOL    HW130869   2.746   0.137   2.863
 9990SOL    HW230870   2.671   0.019   2.779
 9991SOL     OW30871   1.923   3.419   4.785
 9991SOL    HW130872   1.895   3.446   4.878
 9991SOL    HW230873   1.843   3.386   4.735
 9992SOL     OW30874   4.696   3.807   0.512
 9992SOL    HW130875   4.781   3.781   0.466
 9992SOL    HW230876   4.708   3.798   0.611
 9993SOL     OW30877   4.087   0.221   2.228
 9993SOL    HW130878   4.029   0.203   2.148
 9993SOL    HW230879   4.144   0.302   2.210
 9994SOL     OW30880   6.876   3.929   4.093
 9994SOL    HW130881   6.881   3.970   4.184
 9994SOL    HW230882   6.962   3.946   4.045
 9995SOL     OW30883   2.969   0.311   2.637
 9995SOL    HW130884   3.008   0.397   2.603
 9995SOL    HW230885   2.983   0.239   2.569
 9996SOL     OW30886   2.830   3.362   1.520
 9996SOL    HW130887   2.905   3.353   1.587
 9996SOL    HW230888   2.748   3.318   1.556
 9997SOL     OW30889   4.325   2.206   0.778
 9997SOL    HW130890   4.259   2.268   0.820
 9997SOL    HW230891   4.351   2.135   0.843
 9998SOL     OW30892   6.836   3.795   2.075
 9998SOL    HW130893   6.908   3.865   2.076
 9998SOL    HW230894   6.776   3.812   1.997
 9999SOL     OW30895   6.135   4.510   5.120
 9999SOL    HW130896   6.080   4.454   5.181
 9999SOL    HW230897   6.075   4.569   5.066
10000SOL     OW30898   5.513   3.091   0.045
10000SOL    HW130899   5.437   3.150   0.071
10000SOL    HW230900   5.503   3.064   6.970
10001SOL     OW30901   4.979   1.263   1.980
10001SOL    HW130902   5.013   1.289   1.890
10001SOL    HW230903   4.889   1.221   1.971
10002SOL     OW30904   1.384   0.675   1.200
10002SOL    HW130905   1.316   0.686   1.272
10002SOL    HW230906   1.342   0.631   1.121
10003SOL     OW30907   3.760   1.768   3.382
10003SOL    HW130908   3.784   1.688   3.437
10003SOL    HW230909   3.776   1.851   3.436
10004SOL     OW30910   4.565   2.658   4.420
10004SOL    HW130911   4.479   2.651   4.369
10004SOL    HW230912   4.633   2.598   4.378
10005SOL     OW30913   4.742   6.690   3.590
10005SOL    HW130914   4.750   6.725   3.684
10005SOL    HW230915   4.688   6.754   3.535
10006SOL     OW30916   5.088   0.947   3.987
10006SOL    HW130917   5.056   0.985   3.900
10006SOL    HW230918   5.034   0.985   4.062
10007SOL     OW30919   0.615   4.594   4.955
10007SOL    HW130920   0.684   4.657   4.993
10007SOL    HW230921   0.661   4.527   4.897
10008SOL     OW30922   4.659   1.400   3.796
10008SOL    HW130923   4.738   1.414   3.855
10008SOL    HW230924   4.584   1.458   3.827
10009SOL     OW30925   1.819   4.002   1.826
10009SOL    HW130926   1.854   4.091   1.855
10009SOL    HW230927   1.883   3.960   1.761
10010SOL     OW30928   2.112   6.681   6.714
10010SOL    HW130929   2.146   6.734   6.636
10010SOL    HW230930   2.090   6.743   6.789
10011SOL     OW30931   6.075   2.281   4.985
10011SOL    HW130932   6.076   2.182   4.994
10011SOL    HW230933   5.992   2.317   5.028
10012SOL     OW30934   4.666   0.071   2.662
10012SOL    HW130935   4.680   0.158   2.615
10012SOL    HW230936   4.727   0.002   2.624
10013SOL     OW30937   1.579   1.556   3.873
10013SOL    HW130938   1.629   1.642   3.867
10013SOL    HW230939   1.486   1.569   3.839
10014SOL     OW30940   6.512   3.086   6.934
10014SOL    HW130941   6.575   3.066   6.859
10014SOL    HW230942   6.508   3.185   6.948
10015SOL     OW30943   2.750   4.529   0.867
10015SOL    HW130944   2.746   4.465   0.944
10015SOL    HW230945   2.755   4.478   0.782
10016SOL     OW30946   2.142   0.285   4.891
10016SOL    HW130947   2.202   0.207   4.875
10016SOL    HW230948   2.046   0.255   4.891
10017SOL     OW30949   2.014   2.371   2.316
10017SOL    HW130950   2.062   2.313   2.382
10017SOL    HW230951   2.075   2.442   2.283
10018SOL     OW30952   4.867   6.673   5.798
10018SOL    HW130953   4.956   6.641   5.767
10018SOL    HW230954   4.798   6.655   5.727
10019SOL     OW30955   1.364   2.023   2.937
10019SOL    HW130956   1.290   1.980   2.885
10019SOL    HW230957   1.451   2.007   2.891
10020SOL     OW30958   0.799   3.085   1.692
10020SOL    HW130959   0.870   3.061   1.758
10020SOL    HW230960   0.761   3.001   1.653
10021SOL     OW30961   0.330   3.214   0.912
10021SOL    HW130962   0.369   3.205   0.820
10021SOL    HW230963   0.255   3.280   0.910
10022SOL     OW30964   3.673   0.040   0.684
10022SOL    HW130965   3.586   0.070   0.644
10022SOL    HW230966   3.697   0.101   0.759
10023SOL     OW30967   1.492   5.225   6.101
10023SOL    HW130968   1.501   5.137   6.147
10023SOL    HW230969   1.396   5.252   6.099
10024SOL     OW30970   2.480   6.862   1.795
10024SOL    HW130971   2.453   6.946   1.749
10024SOL    HW230972   2.423   6.848   1.876
10025SOL     OW30973   1.100   1.194   1.493
10025SOL    HW130974   1.199   1.181   1.501
10025SOL    HW230975   1.055   1.105   1.485
10026SOL     OW30976   4.736   6.754   3.868
10026SOL    HW130977   4.768   6.664   3.896
10026SOL    HW230978   4.655   6.779   3.921
10027SOL     OW30979   0.181   4.141   5.146
10027SOL    HW130980   0.158   4.200   5.224
10027SOL    HW230981   0.249   4.074   5.175
10028SOL     OW30982   1.091   2.102   1.538
10028SOL    HW130983   1.087   2.183   1.480
10028SOL    HW230984   1.036   2.029   1.496
10029SOL     OW30985   3.766   2.088   4.054
10029SOL    HW130986   3.752   2.050   3.963
10029SOL    HW230987   3.678   2.096   4.101
10030SOL     OW30988   2.233   6.659   3.551
10030SOL    HW130989   2.315   6.717   3.550
10030SOL    HW230990   2.157   6.710   3.591
10031SOL     OW30991   6.069   4.959   3.944
10031SOL    HW130992   6.019   4.934   4.027
10031SOL    HW230993   6.008   5.010   3.883
10032SOL     OW30994   2.913   1.920   4.910
10032SOL    HW130995   2.984   1.985   4.882
10032SOL    HW230996   2.875   1.948   4.998
10033SOL     OW30997   4.917   2.245   3.695
10033SOL    HW130998   4.827   2.285   3.679
10033SOL    HW230999   4.930   2.230   3.793
10034SOL     OW31000   3.024   0.130   4.013
10034SOL    HW131001   3.016   0.058   3.944
10034SOL    HW231002   3.036   0.219   3.969
10035SOL     OW31003   6.669   4.404   2.060
10035SOL    HW131004   6.645   4.452   2.145
10035SOL    HW231005   6.766   4.378   2.063
10036SOL     OW31006   5.755   1.763   1.428
10036SOL    HW131007   5.733   1.812   1.512
10036SOL    HW231008   5.689   1.786   1.357
10037SOL     OW31009   6.632   1.007   0.665
10037SOL    HW131010   6.675   0.956   0.591
10037SOL    HW231011   6.630   1.104   0.641
10038SOL     OW31012   4.985   0.651   6.949
10038SOL    HW131013   4.922   0.577   6.971
10038SOL    HW231014   4.989   0.715   0.005
10039SOL     OW31015   3.825   0.485   3.142
10039SOL    HW131016   3.785   0.574   3.163
10039SOL    HW231017   3.752   0.417   3.136
10040SOL     OW31018   4.377   5.951   6.210
10040SOL    HW131019   4.390   5.971   6.113
10040SOL    HW231020   4.339   5.858   6.220
10041SOL     OW31021   4.118   6.265   6.800
10041SOL    HW131022   4.196   6.328   6.798
10041SOL    HW231023   4.126   6.200   6.725
10042SOL     OW31024   1.103   1.762   4.267
10042SOL    HW131025   1.176   1.733   4.329
10042SOL    HW231026   1.014   1.742   4.308
10043SOL     OW31027   6.487   1.632   4.959
10043SOL    HW131028   6.446   1.653   4.870
10043SOL    HW231029   6.565   1.692   4.975
10044SOL     OW31030   2.560   1.869   4.847
10044SOL    HW131031   2.556   1.798   4.776
10044SOL    HW231032   2.549   1.959   4.805
10045SOL     OW31033   3.662   0.279   3.162
10045SOL    HW131034   3.586   0.312   3.106
10045SOL    HW231035   3.678   0.183   3.142
10046SOL     OW31036   2.155   3.902   0.647
10046SOL    HW131037   2.189   3.930   0.737
10046SOL    HW231038   2.124   3.807   0.651
10047SOL     OW31039   0.901   3.555   4.544
10047SOL    HW131040   0.826   3.621   4.555
10047SOL    HW231041   0.918   3.539   4.447
10048SOL     OW31042   6.335   0.328   2.411
10048SOL    HW131043   6.397   0.396   2.450
10048SOL    HW231044   6.248   0.330   2.460
10049SOL     OW31045   1.224   1.884   6.129
10049SOL    HW131046   1.311   1.916   6.091
10049SOL    HW231047   1.158   1.872   6.055
10050SOL     OW31048   5.316   3.478   5.202
10050SOL    HW131049   5.334   3.431   5.288
10050SOL    HW231050   5.388   3.545   5.184
10051SOL     OW31051   6.224   4.030   5.520
10051SOL    HW131052   6.181   3.941   5.511
10051SOL    HW231053   6.221   4.059   5.616
10052SOL     OW31054   2.044   1.096   2.976
10052SOL    HW131055   2.075   1.007   2.941
10052SOL    HW231056   2.005   1.149   2.901
10053SOL     OW31057   4.080   5.584   3.308
10053SOL    HW131058   4.164   5.529   3.315
10053SOL    HW231059   4.088   5.665   3.365
10054SOL     OW31060   5.323   5.988   5.927
10054SOL    HW131061   5.334   5.970   6.025
10054SOL    HW231062   5.409   5.970   5.879
10055SOL     OW31063   6.220   1.389   5.184
10055SOL    HW131064   6.312   1.354   5.201
10055SOL    HW231065   6.153   1.333   5.232
10056SOL     OW31066   5.354   4.910   2.872
10056SOL    HW131067   5.373   4.813   2.888
10056SOL    HW231068   5.256   4.922   2.853
10057SOL     OW31069   4.264   2.854   5.391
10057SOL    HW131070   4.348   2.831   5.340
10057SOL    HW231071   4.195   2.784   5.373
10058SOL     OW31072   6.189   3.503   4.929
10058SOL    HW131073   6.265   3.481   4.990
10058SOL    HW231074   6.137   3.420   4.910
10059SOL     OW31075   0.455   1.683   6.656
10059SOL    HW131076   0.417   1.666   6.747
10059SOL    HW231077   0.398   1.748   6.607
10060SOL     OW31078   2.359   2.724   2.641
10060SOL    HW131079   2.368   2.804   2.582
10060SOL    HW231080   2.293   2.744   2.714
10061SOL     OW31081   4.816   1.522   3.991
10061SOL    HW131082   4.908   1.492   3.965
10061SOL    HW231083   4.813   1.541   4.089
10062SOL     OW31084   5.588   0.441   3.678
10062SOL    HW131085   5.496   0.437   3.717
10062SOL    HW231086   5.606   0.359   3.625
10063SOL     OW31087   2.878   1.154   4.730
10063SOL    HW131088   2.889   1.242   4.684
10063SOL    HW231089   2.801   1.159   4.794
10064SOL     OW31090   4.677   6.151   0.464
10064SOL    HW131091   4.627   6.093   0.401
10064SOL    HW231092   4.771   6.117   0.474
10065SOL     OW31093   2.351   0.542   2.512
10065SOL    HW131094   2.368   0.462   2.455
10065SOL    HW231095   2.438   0.579   2.545
10066SOL     OW31096   0.743   2.666   4.812
10066SOL    HW131097   0.755   2.745   4.872
10066SOL    HW231098   0.645   2.647   4.803
10067SOL     OW31099   0.428   3.383   5.385
10067SOL    HW131100   0.415   3.342   5.475
10067SOL    HW231101   0.343   3.424   5.353
10068SOL     OW31102   0.867   3.632   3.859
10068SOL    HW131103   0.922   3.591   3.786
10068SOL    HW231104   0.795   3.688   3.820
10069SOL     OW31105   3.244   5.268   1.705
10069SOL    HW131106   3.171   5.333   1.725
10069SOL    HW231107   3.277   5.283   1.611
10070SOL     OW31108   0.314   6.075   5.424
10070SOL    HW131109   0.265   6.159   5.399
10070SOL    HW231110   0.410   6.085   5.400
10071SOL     OW31111   0.042   6.196   4.518
10071SOL    HW131112   6.976   6.179   4.565
10071SOL    HW231113   0.104   6.118   4.531
10072SOL     OW31114   7.006   0.178   4.426
10072SOL    HW131115   0.022   0.085   4.423
10072SOL    HW231116   7.001   0.214   4.333
10073SOL     OW31117   6.647   3.965   4.424
10073SOL    HW131118   6.570   3.962   4.359
10073SOL    HW231119   6.716   4.029   4.390
10074SOL     OW31120   2.218   6.912   6.567
10074SOL    HW131121   2.289   6.872   6.508
10074SOL    HW231122   2.251   6.999   6.604
10075SOL     OW31123   1.652   2.280   1.908
10075SOL    HW131124   1.677   2.376   1.908
10075SOL    HW231125   1.648   2.246   2.002
10076SOL     OW31126   5.592   6.475   3.149
10076SOL    HW131127   5.663   6.521   3.202
10076SOL    HW231128   5.634   6.420   3.077
10077SOL     OW31129   3.865   3.582   0.682
10077SOL    HW131130   3.917   3.660   0.715
10077SOL    HW231131   3.853   3.589   0.583
10078SOL     OW31132   6.101   6.306   4.482
10078SOL    HW131133   6.199   6.291   4.485
10078SOL    HW231134   6.062   6.287   4.572
10079SOL     OW31135   5.740   3.435   3.113
10079SOL    HW131136   5.802   3.366   3.151
10079SOL    HW231137   5.697   3.400   3.030
10080SOL     OW31138   4.725   1.522   6.328
10080SOL    HW131139   4.692   1.593   6.390
10080SOL    HW231140   4.749   1.564   6.240
10081SOL     OW31141   0.809   1.748   6.784
10081SOL    HW131142   0.793   1.656   6.750
10081SOL    HW231143   0.835   1.744   6.881
10082SOL     OW31144   0.469   5.737   2.124
10082SOL    HW131145   0.410   5.657   2.129
10082SOL    HW231146   0.421   5.817   2.158
10083SOL     OW31147   3.299   0.416   3.886
10083SOL    HW131148   3.365   0.485   3.858
10083SOL    HW231149   3.308   0.336   3.827
10084SOL     OW31150   0.670   0.238   5.383
10084SOL    HW131151   0.741   0.176   5.347
10084SOL    HW231152   0.635   0.294   5.308
10085SOL     OW31153   3.533   0.083   1.026
10085SOL    HW131154   3.462   0.048   0.964
10085SOL    HW231155   3.604   0.129   0.972
10086SOL     OW31156   6.057   5.753   3.004
10086SOL    HW131157   6.080   5.851   3.000
10086SOL    HW231158   5.980   5.740   3.067
10087SOL     OW31159   6.432   5.658   4.238
10087SOL    HW131160   6.363   5.669   4.309
10087SOL    HW231161   6.461   5.562   4.233
10088SOL     OW31162   6.967   0.403   2.050
10088SOL    HW131163   7.000   0.467   1.981
10088SOL    HW231164   6.876   0.370   2.024
10089SOL     OW31165   3.274   2.029   3.307
10089SOL    HW131166   3.338   2.061   3.238
10089SOL    HW231167   3.322   1.969   3.372
10090SOL     OW31168   0.098   4.958   1.950
10090SOL    HW131169   0.071   4.892   1.879
10090SOL    HW231170   0.056   4.933   2.037
10091SOL     OW31171   6.473   5.532   6.389
10091SOL    HW131172   6.398   5.466   6.396
10091SOL    HW231173   6.560   5.486   6.404
10092SOL     OW31174   1.564   2.652   6.135
10092SOL    HW131175   1.467   2.652   6.161
10092SOL    HW231176   1.572   2.640   6.036
10093SOL     OW31177   4.567   3.345   5.315
10093SOL    HW131178   4.552   3.368   5.411
10093SOL    HW231179   4.614   3.420   5.270
10094SOL     OW31180   2.404   6.178   1.185
10094SOL    HW131181   2.304   6.180   1.173
10094SOL    HW231182   2.447   6.225   1.108
10095SOL     OW31183   5.039   1.617   4.602
10095SOL    HW131184   5.071   1.523   4.586
10095SOL    HW231185   5.079   1.652   4.687
10096SOL     OW31186   4.604   6.708   3.173
10096SOL    HW131187   4.520   6.757   3.150
10096SOL    HW231188   4.582   6.613   3.194
10097SOL     OW31189   1.762   2.098   6.700
10097SOL    HW131190   1.678   2.109   6.753
10097SOL    HW231191   1.840   2.119   6.758
10098SOL     OW31192   2.948   6.618   4.847
10098SOL    HW131193   2.924   6.688   4.915
10098SOL    HW231194   2.917   6.528   4.879
10099SOL     OW31195   0.316   4.671   1.725
10099SOL    HW131196   0.288   4.658   1.820
10099SOL    HW231197   0.317   4.583   1.678
10100SOL     OW31198   5.264   6.044   5.621
10100SOL    HW131199   5.290   6.041   5.717
10100SOL    HW231200   5.239   6.138   5.596
10101SOL     OW31201   0.108   3.409   2.053
10101SOL    HW131202   0.145   3.334   1.998
10101SOL    HW231203   0.040   3.373   2.117
10102SOL     OW31204   6.444   0.790   1.169
10102SOL    HW131205   6.491   0.726   1.109
10102SOL    HW231206   6.427   0.876   1.120
10103SOL     OW31207   2.009   0.270   5.473
10103SOL    HW131208   1.942   0.342   5.484
10103SOL    HW231209   2.053   0.279   5.383
10104SOL     OW31210   1.510   1.326   5.279
10104SOL    HW131211   1.421   1.281   5.290
10104SOL    HW231212   1.501   1.405   5.218
10105SOL     OW31213   1.904   0.590   6.074
10105SOL    HW131214   1.853   0.540   6.145
10105SOL    HW231215   1.969   0.528   6.031
10106SOL     OW31216   4.179   6.639   0.831
10106SOL    HW131217   4.229   6.660   0.915
10106SOL    HW231218   4.184   6.541   0.813
10107SOL     OW31219   5.390   1.661   6.342
10107SOL    HW131220   5.422   1.740   6.290
10107SOL    HW231221   5.468   1.608   6.373
10108SOL     OW31222   0.282   1.999   6.985
10108SOL    HW131223   0.338   2.015   6.904
10108SOL    HW231224   0.331   2.033   0.045
10109SOL     OW31225   0.469   1.176   0.877
10109SOL    HW131226   0.532   1.199   0.952
10109SOL    HW231227   0.408   1.253   0.860
10110SOL     OW31228   4.607   4.456   4.230
10110SOL    HW131229   4.656   4.375   4.199
10110SOL    HW231230   4.577   4.443   4.325
10111SOL     OW31231   6.967   3.750   3.222
10111SOL    HW131232   0.043   3.769   3.235
10111SOL    HW231233   6.955   3.682   3.150
10112SOL     OW31234   6.118   3.500   2.735
10112SOL    HW131235   6.143   3.571   2.801
10112SOL    HW231236   6.109   3.413   2.783
10113SOL     OW31237   4.433   0.349   0.850
10113SOL    HW131238   4.502   0.418   0.827
10113SOL    HW231239   4.393   0.313   0.767
10114SOL     OW31240   4.274   2.022   2.652
10114SOL    HW131241   4.362   2.068   2.659
10114SOL    HW231242   4.216   2.070   2.587
10115SOL     OW31243   4.185   1.928   4.815
10115SOL    HW131244   4.145   2.019   4.821
10115SOL    HW231245   4.112   1.862   4.795
10116SOL     OW31246   0.273   6.660   6.958
10116SOL    HW131247   0.342   6.649   6.887
10116SOL    HW231248   0.185   6.683   6.915
10117SOL     OW31249   6.943   6.369   6.022
10117SOL    HW131250   6.897   6.282   6.006
10117SOL    HW231251   6.924   6.432   5.946
10118SOL     OW31252   2.451   4.528   4.059
10118SOL    HW131253   2.428   4.614   4.014
10118SOL    HW231254   2.432   4.452   3.997
10119SOL     OW31255   6.227   4.535   3.822
10119SOL    HW131256   6.210   4.601   3.895
10119SOL    HW231257   6.145   4.525   3.766
10120SOL     OW31258   2.024   3.212   4.246
10120SOL    HW131259   1.939   3.238   4.200
10120SOL    HW231260   2.064   3.293   4.290
10121SOL     OW31261   5.960   3.803   0.425
10121SOL    HW131262   5.884   3.812   0.490
10121SOL    HW231263   6.038   3.856   0.458
10122SOL     OW31264   5.936   2.198   3.788
10122SOL    HW131265   5.975   2.123   3.735
10122SOL    HW231266   5.840   2.179   3.809
10123SOL     OW31267   5.842   6.366   1.007
10123SOL    HW131268   5.793   6.417   0.936
10123SOL    HW231269   5.929   6.412   1.026
10124SOL     OW31270   1.220   5.111   0.582
10124SOL    HW131271   1.298   5.072   0.631
10124SOL    HW231272   1.206   5.062   0.496
10125SOL     OW31273   2.523   1.433   1.002
10125SOL    HW131274   2.465   1.428   0.920
10125SOL    HW231275   2.594   1.363   0.996
10126SOL     OW31276   0.019   6.939   6.041
10126SOL    HW131277   7.004   6.943   6.134
10126SOL    HW231278   7.000   7.014   5.987
10127SOL     OW31279   1.953   3.542   0.392
10127SOL    HW131280   1.927   3.471   0.457
10127SOL    HW231281   1.905   3.627   0.415
10128SOL     OW31282   2.885   0.928   5.889
10128SOL    HW131283   2.820   0.974   5.949
10128SOL    HW231284   2.852   0.932   5.795
10129SOL     OW31285   0.012   1.823   2.170
10129SOL    HW131286   6.990   1.834   2.080
10129SOL    HW231287   6.962   1.805   2.238
10130SOL     OW31288   0.530   3.440   1.577
10130SOL    HW131289   0.601   3.439   1.648
10130SOL    HW231290   0.523   3.532   1.539
10131SOL     OW31291   1.350   0.453   4.004
10131SOL    HW131292   1.429   0.506   4.034
10131SOL    HW231293   1.270   0.482   4.056
10132SOL     OW31294   1.384   0.399   2.845
10132SOL    HW131295   1.455   0.330   2.843
10132SOL    HW231296   1.384   0.445   2.934
10133SOL     OW31297   4.499   6.523   0.965
10133SOL    HW131298   4.441   6.486   1.037
10133SOL    HW231299   4.497   6.623   0.967
10134SOL     OW31300   6.054   1.199   3.145
10134SOL    HW131301   6.068   1.141   3.225
10134SOL    HW231302   5.957   1.195   3.117
10135SOL     OW31303   4.686   2.424   3.712
10135SOL    HW131304   4.698   2.405   3.615
10135SOL    HW231305   4.743   2.501   3.739
10136SOL     OW31306   5.432   1.779   2.182
10136SOL    HW131307   5.336   1.807   2.176
10136SOL    HW231308   5.446   1.727   2.267
10137SOL     OW31309   0.296   4.964   5.409
10137SOL    HW131310   0.293   4.895   5.336
10137SOL    HW231311   0.303   4.918   5.498
10138SOL     OW31312   5.615   2.934   0.844
10138SOL    HW131313   5.642   2.953   0.750
10138SOL    HW231314   5.673   2.986   0.907
10139SOL     OW31315   2.969   3.840   4.713
10139SOL    HW131316   2.924   3.848   4.801
10139SOL    HW231317   2.985   3.743   4.693
10140SOL     OW31318   7.004   6.456   6.523
10140SOL    HW131319   7.009   6.555   6.516
10140SOL    HW231320   0.016   6.414   6.438
10141SOL     OW31321   3.849   1.161   4.669
10141SOL    HW131322   3.813   1.207   4.588
10141SOL    HW231323   3.774   1.120   4.721
10142SOL     OW31324   6.084   6.591   5.718
10142SOL    HW131325   6.074   6.514   5.782
10142SOL    HW231326   6.010   6.657   5.733
10143SOL     OW31327   5.520   2.940   0.265
10143SOL    HW131328   5.460   2.971   0.338
10143SOL    HW231329   5.513   3.002   0.187
10144SOL     OW31330   4.966   6.666   5.002
10144SOL    HW131331   4.998   6.697   5.091
10144SOL    HW231332   4.919   6.578   5.012
10145SOL     OW31333   3.754   5.579   2.938
10145SOL    HW131334   3.699   5.527   3.004
10145SOL    HW231335   3.713   5.572   2.847
10146SOL     OW31336   6.860   3.961   4.590
10146SOL    HW131337   6.838   3.977   4.686
10146SOL    HW231338   6.777   3.966   4.535
10147SOL     OW31339   4.707   4.061   6.220
10147SOL    HW131340   4.748   3.970   6.219
10147SOL    HW231341   4.755   4.119   6.286
10148SOL     OW31342   5.859   3.769   0.823
10148SOL    HW131343   5.905   3.681   0.809
10148SOL    HW231344   5.923   3.833   0.866
10149SOL     OW31345   5.045   4.643   1.488
10149SOL    HW131346   5.127   4.638   1.545
10149SOL    HW231347   4.965   4.620   1.543
10150SOL     OW31348   4.539   3.248   1.364
10150SOL    HW131349   4.537   3.187   1.444
10150SOL    HW231350   4.616   3.223   1.305
10151SOL     OW31351   0.988   0.417   6.177
10151SOL    HW131352   1.018   0.327   6.209
10151SOL    HW231353   1.021   0.432   6.084
10152SOL     OW31354   6.344   5.692   3.952
10152SOL    HW131355   6.251   5.730   3.944
10152SOL    HW231356   6.359   5.662   4.046
10153SOL     OW31357   4.656   5.986   4.278
10153SOL    HW131358   4.719   5.971   4.355
10153SOL    HW231359   4.708   6.012   4.197
10154SOL     OW31360   3.118   6.396   6.034
10154SOL    HW131361   3.111   6.496   6.036
10154SOL    HW231362   3.164   6.365   6.117
10155SOL     OW31363   5.058   2.397   5.712
10155SOL    HW131364   5.042   2.354   5.623
10155SOL    HW231365   4.983   2.459   5.735
10156SOL     OW31366   5.272   0.635   1.279
10156SOL    HW131367   5.348   0.603   1.336
10156SOL    HW231368   5.205   0.561   1.269
10157SOL     OW31369   0.090   2.418   0.197
10157SOL    HW131370   0.058   2.387   0.287
10157SOL    HW231371   0.102   2.339   0.137
10158SOL     OW31372   6.042   6.501   1.844
10158SOL    HW131373   6.082   6.421   1.799
10158SOL    HW231374   5.942   6.491   1.846
10159SOL     OW31375   3.637   3.272   2.583
10159SOL    HW131376   3.637   3.369   2.610
10159SOL    HW231377   3.546   3.234   2.600
10160SOL     OW31378   1.833   3.816   3.264
10160SOL    HW131379   1.898   3.892   3.266
10160SOL    HW231380   1.793   3.803   3.355
10161SOL     OW31381   3.450   5.058   6.605
10161SOL    HW131382   3.358   5.093   6.625
10161SOL    HW231383   3.452   5.022   6.512
10162SOL     OW31384   2.279   4.246   0.721
10162SOL    HW131385   2.359   4.190   0.739
10162SOL    HW231386   2.301   4.343   0.735
10163SOL     OW31387   0.527   5.043   6.432
10163SOL    HW131388   0.581   5.127   6.427
10163SOL    HW231389   0.430   5.066   6.441
10164SOL     OW31390   5.775   3.024   4.409
10164SOL    HW131391   5.845   3.061   4.348
10164SOL    HW231392   5.806   2.937   4.448
10165SOL     OW31393   6.568   2.727   3.626
10165SOL    HW131394   6.555   2.803   3.562
10165SOL    HW231395   6.651   2.677   3.603
10166SOL     OW31396   1.304   2.087   1.312
10166SOL    HW131397   1.320   1.996   1.352
10166SOL    HW231398   1.228   2.131   1.360
10167SOL     OW31399   6.829   5.660   0.113
10167SOL    HW131400   6.850   5.598   0.038
10167SOL    HW231401   6.914   5.698   0.149
10168SOL     OW31402   6.587   1.712   6.323
10168SOL    HW131403   6.607   1.791   6.265
10168SOL    HW231404   6.506   1.730   6.378
10169SOL     OW31405   6.328   3.923   3.259
10169SOL    HW131406   6.231   3.909   3.238
10169SOL    HW231407   6.336   3.971   3.347
10170SOL     OW31408   6.545   5.720   6.184
10170SOL    HW131409   6.541   5.806   6.234
10170SOL    HW231410   6.510   5.646   6.241
10171SOL     OW31411   0.468   2.429   4.498
10171SOL    HW131412   0.436   2.523   4.508
10171SOL    HW231413   0.563   2.423   4.528
10172SOL     OW31414   0.518   0.102   4.557
10172SOL    HW131415   0.491   0.033   4.624
10172SOL    HW231416   0.497   0.069   4.465
10173SOL     OW31417   2.584   3.242   6.788
10173SOL    HW131418   2.633   3.282   6.710
10173SOL    HW231419   2.572   3.312   6.859
10174SOL     OW31420   4.476   4.499   3.665
10174SOL    HW131421   4.445   4.521   3.573
10174SOL    HW231422   4.432   4.561   3.730
10175SOL     OW31423   6.079   1.717   4.019
10175SOL    HW131424   6.041   1.802   3.983
10175SOL    HW231425   6.076   1.719   4.119
10176SOL     OW31426   6.284   3.236   5.366
10176SOL    HW131427   6.294   3.153   5.421
10176SOL    HW231428   6.335   3.226   5.281
10177SOL     OW31429   1.598   6.825   0.911
10177SOL    HW131430   1.554   6.892   0.970
10177SOL    HW231431   1.689   6.857   0.884
10178SOL     OW31432   1.677   1.165   0.837
10178SOL    HW131433   1.766   1.209   0.847
10178SOL    HW231434   1.620   1.219   0.775
10179SOL     OW31435   0.460   3.911   6.574
10179SOL    HW131436   0.496   3.890   6.665
10179SOL    HW231437   0.496   3.846   6.508
10180SOL     OW31438   4.587   0.488   0.445
10180SOL    HW131439   4.563   0.469   0.350
10180SOL    HW231440   4.685   0.508   0.451
10181SOL     OW31441   0.724   3.225   1.115
10181SOL    HW131442   0.816   3.221   1.076
10181SOL    HW231443   0.730   3.250   1.211
10182SOL     OW31444   5.047   1.410   0.073
10182SOL    HW131445   5.048   1.335   0.007
10182SOL    HW231446   4.974   1.394   0.140
10183SOL     OW31447   6.002   2.875   6.064
10183SOL    HW131448   5.940   2.805   6.099
10183SOL    HW231449   6.029   2.936   6.138
10184SOL     OW31450   5.124   3.040   0.040
10184SOL    HW131451   5.042   3.009   0.088
10184SOL    HW231452   5.172   3.107   0.096
10185SOL     OW31453   5.773   5.906   2.415
10185SOL    HW131454   5.734   5.934   2.327
10185SOL    HW231455   5.846   5.840   2.399
10186SOL     OW31456   4.985   3.458   4.820
10186SOL    HW131457   4.910   3.484   4.881
10186SOL    HW231458   4.967   3.368   4.780
10187SOL     OW31459   1.740   4.540   5.675
10187SOL    HW131460   1.818   4.499   5.723
10187SOL    HW231461   1.771   4.624   5.629
10188SOL     OW31462   2.724   5.065   6.714
10188SOL    HW131463   2.772   5.152   6.704
10188SOL    HW231464   2.740   5.028   6.806
10189SOL     OW31465   1.734   0.703   6.403
10189SOL    HW131466   1.670   0.700   6.480
10189SOL    HW231467   1.753   0.610   6.372
10190SOL     OW31468   4.333   3.289   1.661
10190SOL    HW131469   4.371   3.323   1.747
10190SOL    HW231470   4.398   3.227   1.618
10191SOL     OW31471   5.493   5.792   0.582
10191SOL    HW131472   5.500   5.746   0.493
10191SOL    HW231473   5.583   5.821   0.612
10192SOL     OW31474   3.357   1.841   4.996
10192SOL    HW131475   3.303   1.758   4.989
10192SOL    HW231476   3.446   1.828   4.951
10193SOL     OW31477   3.061   3.758   2.213
10193SOL    HW131478   3.040   3.737   2.118
10193SOL    HW231479   3.153   3.796   2.220
10194SOL     OW31480   4.507   0.639   4.534
10194SOL    HW131481   4.414   0.621   4.504
10194SOL    HW231482   4.570   0.579   4.485
10195SOL     OW31483   6.698   0.267   1.996
10195SOL    HW131484   6.763   0.200   1.961
10195SOL    HW231485   6.608   0.223   2.006
10196SOL     OW31486   5.242   1.990   3.396
10196SOL    HW131487   5.321   1.930   3.394
10196SOL    HW231488   5.162   1.941   3.361
10197SOL     OW31489   4.749   1.527   4.292
10197SOL    HW131490   4.747   1.582   4.375
10197SOL    HW231491   4.792   1.439   4.312
10198SOL     OW31492   3.650   6.823   0.898
10198SOL    HW131493   3.687   6.911   0.868
10198SOL    HW231494   3.675   6.752   0.832
10199SOL     OW31495   0.519   1.897   6.313
10199SOL    HW131496   0.424   1.868   6.300
10199SOL    HW231497   0.563   1.835   6.378
10200SOL     OW31498   5.068   3.406   5.403
10200SOL    HW131499   5.141   3.451   5.454
10200SOL    HW231500   5.095   3.313   5.379
10201SOL     OW31501   0.689   5.847   1.219
10201SOL    HW131502   0.620   5.775   1.214
10201SOL    HW231503   0.691   5.896   1.131
10202SOL     OW31504   1.358   3.806   0.549
10202SOL    HW131505   1.340   3.724   0.604
10202SOL    HW231506   1.375   3.780   0.454
10203SOL     OW31507   1.244   2.999   1.702
10203SOL    HW131508   1.344   3.004   1.699
10203SOL    HW231509   1.208   2.981   1.611
10204SOL     OW31510   3.128   5.440   6.316
10204SOL    HW131511   3.149   5.344   6.333
10204SOL    HW231512   3.154   5.464   6.222
10205SOL     OW31513   3.300   1.419   2.471
10205SOL    HW131514   3.241   1.374   2.538
10205SOL    HW231515   3.261   1.406   2.379
10206SOL     OW31516   4.750   6.549   6.703
10206SOL    HW131517   4.771   6.624   6.640
10206SOL    HW231518   4.740   6.464   6.652
10207SOL     OW31519   2.096   1.271   0.521
10207SOL    HW131520   2.034   1.336   0.566
10207SOL    HW231521   2.187   1.279   0.560
10208SOL     OW31522   6.346   4.860   4.013
10208SOL    HW131523   6.280   4.828   4.081
10208SOL    HW231524   6.369   4.956   4.031
10209SOL     OW31525   0.501   0.319   5.592
10209SOL    HW131526   0.517   0.418   5.596
10209SOL    HW231527   0.587   0.272   5.571
10210SOL     OW31528   4.980   0.429   1.759
10210SOL    HW131529   5.067   0.460   1.719
10210SOL    HW231530   4.909   0.430   1.689
10211SOL     OW31531   4.163   6.377   5.369
10211SOL    HW131532   4.258   6.346   5.375
10211SOL    HW231533   4.157   6.460   5.314
10212SOL     OW31534   0.153   1.082   4.522
10212SOL    HW131535   0.174   1.108   4.616
10212SOL    HW231536   0.238   1.061   4.474
10213SOL     OW31537   5.883   2.427   1.842
10213SOL    HW131538   5.812   2.482   1.885
10213SOL    HW231539   5.956   2.487   1.809
10214SOL     OW31540   1.014   2.058   2.601
10214SOL    HW131541   1.059   2.044   2.513
10214SOL    HW231542   0.985   2.153   2.610
10215SOL     OW31543   3.528   2.861   4.105
10215SOL    HW131544   3.557   2.955   4.088
10215SOL    HW231545   3.430   2.859   4.126
10216SOL     OW31546   0.683   0.331   0.862
10216SOL    HW131547   0.688   0.247   0.916
10216SOL    HW231548   0.702   0.310   0.766
10217SOL     OW31549   2.569   1.560   4.065
10217SOL    HW131550   2.479   1.516   4.061
10217SOL    HW231551   2.627   1.524   3.992
10218SOL     OW31552   1.657   0.522   1.770
10218SOL    HW131553   1.729   0.578   1.730
10218SOL    HW231554   1.680   0.425   1.760
10219SOL     OW31555   0.512   3.244   1.922
10219SOL    HW131556   0.487   3.234   2.018
10219SOL    HW231557   0.527   3.154   1.882
10220SOL     OW31558   4.397   1.437   1.959
10220SOL    HW131559   4.445   1.398   1.880
10220SOL    HW231560   4.298   1.430   1.945
10221SOL     OW31561   1.688   2.648   3.827
10221SOL    HW131562   1.617   2.678   3.763
10221SOL    HW231563   1.669   2.684   3.918
10222SOL     OW31564   2.405   2.924   6.197
10222SOL    HW131565   2.369   2.831   6.187
10222SOL    HW231566   2.438   2.937   6.290
10223SOL     OW31567   1.535   6.057   6.876
10223SOL    HW131568   1.511   6.082   6.782
10223SOL    HW231569   1.627   6.017   6.877
10224SOL     OW31570   6.706   1.844   4.936
10224SOL    HW131571   6.691   1.864   4.839
10224SOL    HW231572   6.647   1.903   4.991
10225SOL     OW31573   1.880   6.098   6.047
10225SOL    HW131574   1.966   6.068   6.007
10225SOL    HW231575   1.812   6.025   6.038
10226SOL     OW31576   2.431   6.861   6.930
10226SOL    HW131577   2.336   6.890   6.944
10226SOL    HW231578   2.470   6.833   7.017
10227SOL     OW31579   4.952   4.864   1.004
10227SOL    HW131580   5.000   4.819   0.929
10227SOL    HW231581   4.986   4.828   1.091
10228SOL     OW31582   1.020   5.511   2.342
10228SOL    HW131583   0.982   5.430   2.298
10228SOL    HW231584   0.945   5.572   2.370
10229SOL     OW31585   0.490   1.518   4.400
10229SOL    HW131586   0.448   1.589   4.456
10229SOL    HW231587   0.473   1.428   4.441
10230SOL     OW31588   6.456   6.408   3.374
10230SOL    HW131589   6.398   6.467   3.317
10230SOL    HW231590   6.400   6.335   3.414
10231SOL     OW31591   6.635   5.429   5.774
10231SOL    HW131592   6.568   5.354   5.767
10231SOL    HW231593   6.698   5.425   5.697
10232SOL     OW31594   2.773   0.603   3.809
10232SOL    HW131595   2.715   0.676   3.774
10232SOL    HW231596   2.715   0.531   3.849
10233SOL     OW31597   4.854   3.571   5.345
10233SOL    HW131598   4.774   3.577   5.285
10233SOL    HW231599   4.920   3.508   5.305
10234SOL     OW31600   4.923   1.064   0.846
10234SOL    HW131601   4.978   1.080   0.928
10234SOL    HW231602   4.983   1.064   0.765
10235SOL     OW31603   4.736   2.496   0.340
10235SOL    HW131604   4.779   2.444   0.414
10235SOL    HW231605   4.661   2.550   0.377
10236SOL     OW31606   2.410   6.927   2.059
10236SOL    HW131607   2.453   6.965   2.141
10236SOL    HW231608   2.387   6.831   2.076
10237SOL     OW31609   6.121   3.905   0.863
10237SOL    HW131610   6.213   3.884   0.831
10237SOL    HW231611   6.123   3.988   0.919
10238SOL     OW31612   3.233   4.139   3.584
10238SOL    HW131613   3.155   4.196   3.560
10238SOL    HW231614   3.261   4.157   3.678
10239SOL     OW31615   1.027   4.176   5.157
10239SOL    HW131616   1.027   4.103   5.088
10239SOL    HW231617   1.013   4.264   5.112
10240SOL     OW31618   2.362   5.057   3.064
10240SOL    HW131619   2.414   5.059   3.149
10240SOL    HW231620   2.419   5.092   2.989
10241SOL     OW31621   0.024   0.609   2.336
10241SOL    HW131622   0.084   0.676   2.379
10241SOL    HW231623   0.058   0.517   2.354
10242SOL     OW31624   6.886   1.464   6.654
10242SOL    HW131625   6.960   1.485   6.718
10242SOL    HW231626   6.897   1.371   6.620
10243SOL     OW31627   0.706   4.861   1.308
10243SOL    HW131628   0.686   4.772   1.349
10243SOL    HW231629   0.805   4.873   1.300
10244SOL     OW31630   1.480   4.492   0.087
10244SOL    HW131631   1.575   4.513   0.110
10244SOL    HW231632   1.438   4.443   0.163
10245SOL     OW31633   3.040   4.984   6.822
10245SOL    HW131634   2.959   4.957   6.875
10245SOL    HW231635   3.024   4.966   6.725
10246SOL     OW31636   2.973   3.902   4.098
10246SOL    HW131637   2.970   3.814   4.146
10246SOL    HW231638   2.925   3.893   4.010
10247SOL     OW31639   0.128   5.391   5.281
10247SOL    HW131640   0.211   5.349   5.243
10247SOL    HW231641   0.081   5.443   5.210
10248SOL     OW31642   3.629   6.778   2.418
10248SOL    HW131643   3.651   6.765   2.322
10248SOL    HW231644   3.711   6.809   2.467
10249SOL     OW31645   3.508   1.454   6.227
10249SOL    HW131646   3.436   1.398   6.268
10249SOL    HW231647   3.524   1.425   6.133
10250SOL     OW31648   6.912   2.648   0.900
10250SOL    HW131649   6.834   2.659   0.838
10250SOL    HW231650   6.879   2.620   0.990
10251SOL     OW31651   2.792   2.331   5.054
10251SOL    HW131652   2.798   2.389   5.135
10251SOL    HW231653   2.801   2.235   5.081
10252SOL     OW31654   5.726   5.743   0.325
10252SOL    HW131655   5.788   5.666   0.311
10252SOL    HW231656   5.735   5.776   0.419
10253SOL     OW31657   5.028   5.794   0.211
10253SOL    HW131658   4.967   5.788   0.132
10253SOL    HW231659   5.026   5.708   0.262
10254SOL     OW31660   4.397   1.845   4.985
10254SOL    HW131661   4.311   1.884   4.952
10254SOL    HW231662   4.445   1.801   4.910
10255SOL     OW31663   2.045   5.973   1.480
10255SOL    HW131664   2.025   5.887   1.434
10255SOL    HW231665   2.137   5.970   1.519
10256SOL     OW31666   6.110   0.609   1.994
10256SOL    HW131667   6.207   0.616   1.969
10256SOL    HW231668   6.060   0.687   1.956
10257SOL     OW31669   1.808   5.317   4.237
10257SOL    HW131670   1.802   5.405   4.285
10257SOL    HW231671   1.717   5.290   4.207
10258SOL     OW31672   4.343   0.676   3.981
10258SOL    HW131673   4.294   0.634   3.905
10258SOL    HW231674   4.277   0.717   4.044
10259SOL     OW31675   0.298   4.707   3.282
10259SOL    HW131676   0.295   4.785   3.219
10259SOL    HW231677   0.266   4.625   3.235
10260SOL     OW31678   0.108   0.176   3.109
10260SOL    HW131679   0.204   0.202   3.109
10260SOL    HW231680   0.091   0.115   3.187
10261SOL     OW31681   6.488   5.204   3.382
10261SOL    HW131682   6.500   5.303   3.387
10261SOL    HW231683   6.567   5.162   3.337
10262SOL     OW31684   2.641   6.731   4.719
10262SOL    HW131685   2.685   6.820   4.708
10262SOL    HW231686   2.567   6.738   4.786
10263SOL     OW31687   4.699   0.716   6.350
10263SOL    HW131688   4.722   0.812   6.366
10263SOL    HW231689   4.714   0.664   6.434
10264SOL     OW31690   5.887   2.279   6.456
10264SOL    HW131691   5.801   2.279   6.508
10264SOL    HW231692   5.875   2.334   6.373
10265SOL     OW31693   3.196   1.966   2.942
10265SOL    HW131694   3.289   1.958   2.978
10265SOL    HW231695   3.163   2.059   2.955
10266SOL     OW31696   3.073   3.070   5.080
10266SOL    HW131697   3.046   3.090   4.986
10266SOL    HW231698   3.170   3.091   5.093
10267SOL     OW31699   5.757   1.522   0.237
10267SOL    HW131700   5.710   1.464   0.305
10267SOL    HW231701   5.856   1.515   0.251
10268SOL     OW31702   4.529   4.974   1.647
10268SOL    HW131703   4.559   4.935   1.560
10268SOL    HW231704   4.530   4.902   1.717
10269SOL     OW31705   1.029   2.703   5.158
10269SOL    HW131706   1.034   2.661   5.067
10269SOL    HW231707   1.087   2.784   5.161
10270SOL     OW31708   2.612   5.425   3.752
10270SOL    HW131709   2.695   5.410   3.699
10270SOL    HW231710   2.628   5.495   3.821
10271SOL     OW31711   4.206   2.664   0.372
10271SOL    HW131712   4.191   2.649   0.470
10271SOL    HW231713   4.278   2.731   0.359
10272SOL     OW31714   0.463   6.960   4.753
10272SOL    HW131715   0.400   7.019   4.803
10272SOL    HW231716   0.505   6.895   4.816
10273SOL     OW31717   4.261   5.016   3.589
10273SOL    HW131718   4.321   4.956   3.642
10273SOL    HW231719   4.194   5.057   3.650
10274SOL     OW31720   0.681   4.402   4.771
10274SOL    HW131721   0.609   4.418   4.704
10274SOL    HW231722   0.693   4.303   4.784
10275SOL     OW31723   0.833   6.350   1.978
10275SOL    HW131724   0.917   6.295   1.970
10275SOL    HW231725   0.766   6.317   1.913
10276SOL     OW31726   6.178   6.016   5.550
10276SOL    HW131727   6.268   5.989   5.582
10276SOL    HW231728   6.184   6.052   5.457
10277SOL     OW31729   2.730   5.584   4.218
10277SOL    HW131730   2.656   5.519   4.235
10277SOL    HW231731   2.745   5.591   4.119
10278SOL     OW31732   6.134   1.534   4.642
10278SOL    HW131733   6.046   1.566   4.607
10278SOL    HW231734   6.173   1.468   4.578
10279SOL     OW31735   2.525   5.818   4.671
10279SOL    HW131736   2.452   5.779   4.615
10279SOL    HW231737   2.506   5.915   4.687
10280SOL     OW31738   1.545   3.632   1.134
10280SOL    HW131739   1.610   3.703   1.108
10280SOL    HW231740   1.587   3.570   1.200
10281SOL     OW31741   6.338   1.546   2.759
10281SOL    HW131742   6.420   1.593   2.792
10281SOL    HW231743   6.265   1.556   2.827
10282SOL     OW31744   6.218   4.131   4.053
10282SOL    HW131745   6.250   4.159   4.143
10282SOL    HW231746   6.129   4.173   4.035
10283SOL     OW31747   0.728   3.464   0.376
10283SOL    HW131748   0.681   3.432   0.458
10283SOL    HW231749   0.827   3.458   0.389
10284SOL     OW31750   5.360   3.766   5.034
10284SOL    HW131751   5.443   3.723   5.071
10284SOL    HW231752   5.283   3.703   5.044
10285SOL     OW31753   4.838   1.179   1.385
10285SOL    HW131754   4.937   1.186   1.369
10285SOL    HW231755   4.794   1.263   1.354
10286SOL     OW31756   3.247   1.913   3.857
10286SOL    HW131757   3.269   1.819   3.831
10286SOL    HW231758   3.149   1.929   3.847
10287SOL     OW31759   2.655   6.001   1.616
10287SOL    HW131760   2.657   5.913   1.664
10287SOL    HW231761   2.707   6.069   1.668
10288SOL     OW31762   5.091   5.996   2.475
10288SOL    HW131763   5.144   5.922   2.434
10288SOL    HW231764   4.999   5.964   2.497
10289SOL     OW31765   3.090   1.078   2.150
10289SOL    HW131766   2.991   1.082   2.133
10289SOL    HW231767   3.106   1.047   2.244
10290SOL     OW31768   3.246   4.014   1.997
10290SOL    HW131769   3.332   4.066   1.989
10290SOL    HW231770   3.204   4.031   2.086
10291SOL     OW31771   4.318   1.313   4.095
10291SOL    HW131772   4.404   1.268   4.121
10291SOL    HW231773   4.292   1.379   4.165
10292SOL     OW31774   1.874   0.641   4.547
10292SOL    HW131775   1.902   0.669   4.456
10292SOL    HW231776   1.775   0.622   4.547
10293SOL     OW31777   2.352   5.720   3.978
10293SOL    HW131778   2.319   5.669   4.057
10293SOL    HW231779   2.275   5.740   3.916
10294SOL     OW31780   4.714   4.159   2.635
10294SOL    HW131781   4.787   4.095   2.660
10294SOL    HW231782   4.690   4.146   2.538
10295SOL     OW31783   6.078   5.272   5.682
10295SOL    HW131784   6.130   5.252   5.764
10295SOL    HW231785   6.075   5.371   5.667
10296SOL     OW31786   4.534   3.397   7.008
10296SOL    HW131787   4.454   3.363   6.958
10296SOL    HW231788   4.516   3.393   0.085
10297SOL     OW31789   1.983   6.415   5.998
10297SOL    HW131790   1.950   6.326   6.032
10297SOL    HW231791   1.933   6.488   6.043
10298SOL     OW31792   3.835   5.207   2.155
10298SOL    HW131793   3.906   5.218   2.085
10298SOL    HW231794   3.801   5.113   2.152
10299SOL     OW31795   4.859   4.923   2.824
10299SOL    HW131796   4.788   4.936   2.893
10299SOL    HW231797   4.819   4.931   2.733
10300SOL     OW31798   1.641   4.910   3.091
10300SOL    HW131799   1.601   4.892   3.181
10300SOL    HW231800   1.717   4.975   3.101
10301SOL     OW31801   6.272   2.147   3.382
10301SOL    HW131802   6.180   2.180   3.367
10301SOL    HW231803   6.320   2.140   3.294
10302SOL     OW31804   0.710   6.010   4.066
10302SOL    HW131805   0.761   6.009   3.981
10302SOL    HW231806   0.753   5.947   4.132
10303SOL     OW31807   2.498   5.296   1.640
10303SOL    HW131808   2.433   5.240   1.691
10303SOL    HW231809   2.468   5.306   1.546
10304SOL     OW31810   5.218   0.934   2.785
10304SOL    HW131811   5.308   0.959   2.751
10304SOL    HW231812   5.171   0.877   2.717
10305SOL     OW31813   0.755   5.006   6.862
10305SOL    HW131814   0.683   4.949   6.900
10305SOL    HW231815   0.802   5.055   6.936
10306SOL     OW31816   4.361   6.449   0.136
10306SOL    HW131817   4.303   6.522   0.171
10306SOL    HW231818   4.396   6.475   0.046
10307SOL     OW31819   1.961   2.113   4.324
10307SOL    HW131820   1.955   2.091   4.227
10307SOL    HW231821   2.057   2.124   4.351
10308SOL     OW31822   2.770   5.095   4.034
10308SOL    HW131823   2.794   5.019   4.095
10308SOL    HW231824   2.853   5.135   3.995
10309SOL     OW31825   6.075   0.985   3.393
10309SOL    HW131826   6.123   0.922   3.332
10309SOL    HW231827   6.035   0.935   3.470
10310SOL     OW31828   4.459   2.778   1.470
10310SOL    HW131829   4.485   2.687   1.438
10310SOL    HW231830   4.533   2.815   1.527
10311SOL     OW31831   0.721   5.283   1.278
10311SOL    HW131832   0.639   5.311   1.327
10311SOL    HW231833   0.754   5.196   1.316
10312SOL     OW31834   2.164   5.975   0.580
10312SOL    HW131835   2.124   6.066   0.588
10312SOL    HW231836   2.172   5.933   0.670
10313SOL     OW31837   3.860   0.144   1.534
10313SOL    HW131838   3.865   0.142   1.434
10313SOL    HW231839   3.800   0.218   1.563
10314SOL     OW31840   0.145   0.408   1.624
10314SOL    HW131841   0.117   0.442   1.713
10314SOL    HW231842   0.079   0.437   1.555
10315SOL     OW31843   6.191   5.394   4.516
10315SOL    HW131844   6.111   5.356   4.564
10315SOL    HW231845   6.160   5.445   4.436
10316SOL     OW31846   5.961   2.533   4.567
10316SOL    HW131847   6.046   2.536   4.514
10316SOL    HW231848   5.982   2.537   4.665
10317SOL     OW31849   3.288   6.303   6.222
10317SOL    HW131850   3.386   6.297   6.204
10317SOL    HW231851   3.246   6.213   6.207
10318SOL     OW31852   4.763   6.083   0.100
10318SOL    HW131853   4.783   6.048   0.191
10318SOL    HW231854   4.668   6.114   0.095
10319SOL     OW31855   1.640   2.821   5.696
10319SOL    HW131856   1.544   2.821   5.667
10319SOL    HW231857   1.681   2.732   5.675
10320SOL     OW31858   0.569   0.790   1.009
10320SOL    HW131859   0.590   0.693   1.022
10320SOL    HW231860   0.623   0.845   1.072
10321SOL     OW31861   4.231   0.589   3.754
10321SOL    HW131862   4.274   0.666   3.706
10321SOL    HW231863   4.139   0.615   3.784
10322SOL     OW31864   6.233   5.528   6.086
10322SOL    HW131865   6.136   5.534   6.061
10322SOL    HW231866   6.265   5.618   6.116
10323SOL     OW31867   6.622   3.752   5.882
10323SOL    HW131868   6.596   3.750   5.785
10323SOL    HW231869   6.625   3.659   5.917
10324SOL     OW31870   2.969   3.187   3.177
10324SOL    HW131871   2.873   3.177   3.200
10324SOL    HW231872   3.025   3.149   3.251
10325SOL     OW31873   6.772   4.448   3.164
10325SOL    HW131874   6.699   4.403   3.217
10325SOL    HW231875   6.843   4.480   3.227
10326SOL     OW31876   4.135   2.935   0.193
10326SOL    HW131877   4.203   2.922   0.266
10326SOL    HW231878   4.140   3.029   0.159
10327SOL     OW31879   2.709   1.423   1.902
10327SOL    HW131880   2.653   1.413   1.985
10327SOL    HW231881   2.800   1.456   1.927
10328SOL     OW31882   6.702   3.190   1.701
10328SOL    HW131883   6.640   3.248   1.649
10328SOL    HW231884   6.727   3.235   1.787
10329SOL     OW31885   3.781   0.167   3.872
10329SOL    HW131886   3.737   0.078   3.864
10329SOL    HW231887   3.877   0.159   3.847
10330SOL     OW31888   3.222   5.339   2.759
10330SOL    HW131889   3.227   5.247   2.800
10330SOL    HW231890   3.154   5.394   2.808
10331SOL     OW31891   6.623   0.484   3.476
10331SOL    HW131892   6.548   0.459   3.414
10331SOL    HW231893   6.685   0.546   3.429
10332SOL     OW31894   6.013   2.030   0.539
10332SOL    HW131895   5.967   2.044   0.627
10332SOL    HW231896   5.945   2.030   0.466
10333SOL     OW31897   6.539   4.232   4.531
10333SOL    HW131898   6.622   4.178   4.519
10333SOL    HW231899   6.499   4.211   4.620
10334SOL     OW31900   2.191   5.608   4.186
10334SOL    HW131901   2.110   5.646   4.141
10334SOL    HW231902   2.174   5.602   4.285
10335SOL     OW31903   2.354   5.126   0.186
10335SOL    HW131904   2.333   5.085   0.274
10335SOL    HW231905   2.382   5.055   0.121
10336SOL     OW31906   5.910   6.312   3.266
10336SOL    HW131907   5.908   6.411   3.280
10336SOL    HW231908   6.004   6.284   3.247
10337SOL     OW31909   6.528   6.741   5.340
10337SOL    HW131910   6.455   6.807   5.357
10337SOL    HW231911   6.603   6.786   5.292
10338SOL     OW31912   3.012   6.596   1.704
10338SOL    HW131913   2.918   6.628   1.690
10338SOL    HW231914   3.063   6.604   1.619
10339SOL     OW31915   3.839   5.314   0.752
10339SOL    HW131916   3.897   5.388   0.718
10339SOL    HW231917   3.896   5.244   0.795
10340SOL     OW31918   1.680   5.179   0.295
10340SOL    HW131919   1.609   5.229   0.244
10340SOL    HW231920   1.640   5.095   0.332
10341SOL     OW31921   2.264   3.267   1.683
10341SOL    HW131922   2.314   3.323   1.749
10341SOL    HW231923   2.322   3.193   1.650
10342SOL     OW31924   2.353   5.611   5.498
10342SOL    HW131925   2.412   5.676   5.450
10342SOL    HW231926   2.258   5.626   5.472
10343SOL     OW31927   2.409   3.981   0.215
10343SOL    HW131928   2.338   3.988   0.284
10343SOL    HW231929   2.372   3.937   0.133
10344SOL     OW31930   4.094   3.782   2.162
10344SOL    HW131931   4.177   3.795   2.109
10344SOL    HW231932   4.016   3.822   2.113
10345SOL     OW31933   1.811   0.819   5.964
10345SOL    HW131934   1.837   0.730   6.000
10345SOL    HW231935   1.856   0.891   6.016
10346SOL     OW31936   6.346   1.333   1.162
10346SOL    HW131937   6.360   1.297   1.070
10346SOL    HW231938   6.248   1.348   1.177
10347SOL     OW31939   5.673   2.551   1.923
10347SOL    HW131940   5.627   2.518   2.006
10347SOL    HW231941   5.619   2.625   1.882
10348SOL     OW31942   6.703   1.162   6.464
10348SOL    HW131943   6.726   1.254   6.434
10348SOL    HW231944   6.779   1.123   6.517
10349SOL     OW31945   6.734   1.606   6.863
10349SOL    HW131946   6.799   1.681   6.862
10349SOL    HW231947   6.767   1.532   6.804
10350SOL     OW31948   3.089   6.156   4.838
10350SOL    HW131949   3.178   6.128   4.801
10350SOL    HW231950   3.088   6.255   4.851
10351SOL     OW31951   6.243   5.000   6.021
10351SOL    HW131952   6.228   5.091   5.982
10351SOL    HW231953   6.246   4.933   5.947
10352SOL     OW31954   5.364   1.855   6.578
10352SOL    HW131955   5.326   1.892   6.493
10352SOL    HW231956   5.464   1.854   6.573
10353SOL     OW31957   6.995   2.770   4.296
10353SOL    HW131958   0.021   2.786   4.210
10353SOL    HW231959   6.898   2.791   4.286
10354SOL     OW31960   0.621   2.865   1.147
10354SOL    HW131961   0.525   2.889   1.135
10354SOL    HW231962   0.631   2.766   1.151
10355SOL     OW31963   1.344   0.925   0.917
10355SOL    HW131964   1.427   0.875   0.941
10355SOL    HW231965   1.341   0.939   0.817
10356SOL     OW31966   6.886   3.670   5.786
10356SOL    HW131967   6.825   3.731   5.735
10356SOL    HW231968   6.973   3.662   5.737
10357SOL     OW31969   3.977   2.500   5.733
10357SOL    HW131970   4.013   2.408   5.748
10357SOL    HW231971   3.936   2.505   5.642
10358SOL     OW31972   0.801   3.217   3.922
10358SOL    HW131973   0.718   3.259   3.883
10358SOL    HW231974   0.858   3.289   3.962
10359SOL     OW31975   5.169   2.342   1.987
10359SOL    HW131976   5.260   2.307   2.007
10359SOL    HW231977   5.150   2.421   2.046
10360SOL     OW31978   5.405   6.020   2.092
10360SOL    HW131979   5.380   5.924   2.076
10360SOL    HW231980   5.417   6.036   2.190
10361SOL     OW31981   2.478   1.163   2.691
10361SOL    HW131982   2.483   1.122   2.600
10361SOL    HW231983   2.396   1.220   2.698
10362SOL     OW31984   0.721   5.549   3.018
10362SOL    HW131985   0.731   5.552   3.117
10362SOL    HW231986   0.624   5.540   2.995
10363SOL     OW31987   5.292   2.178   1.213
10363SOL    HW131988   5.252   2.091   1.183
10363SOL    HW231989   5.335   2.224   1.135
10364SOL     OW31990   4.655   4.185   1.469
10364SOL    HW131991   4.682   4.139   1.553
10364SOL    HW231992   4.635   4.116   1.399
10365SOL     OW31993   6.007   4.664   0.085
10365SOL    HW131994   6.050   4.583   0.045
10365SOL    HW231995   5.934   4.696   0.025
10366SOL     OW31996   3.161   6.620   3.610
10366SOL    HW131997   3.071   6.592   3.643
10366SOL    HW231998   3.178   6.578   3.520
10367SOL     OW31999   0.191   1.864   1.277
10367SOL    HW132000   0.146   1.951   1.258
10367SOL    HW232001   0.131   1.807   1.333
10368SOL     OW32002   2.198   1.158   2.224
10368SOL    HW132003   2.262   1.149   2.300
10368SOL    HW232004   2.106   1.135   2.255
10369SOL     OW32005   2.733   6.647   5.843
10369SOL    HW132006   2.810   6.624   5.785
10369SOL    HW232007   2.756   6.726   5.900
10370SOL     OW32008   6.543   1.551   5.278
10370SOL    HW132009   6.641   1.554   5.300
10370SOL    HW232010   6.529   1.571   5.181
10371SOL     OW32011   2.367   6.513   4.584
10371SOL    HW132012   2.442   6.448   4.567
10371SOL    HW232013   2.395   6.604   4.553
10372SOL     OW32014   2.384   0.706   0.637
10372SOL    HW132015   2.414   0.703   0.542
10372SOL    HW232016   2.441   0.769   0.688
10373SOL     OW32017   1.187   6.842   4.985
10373SOL    HW132018   1.092   6.816   4.999
10373SOL    HW232019   1.194   6.899   4.903
10374SOL     OW32020   3.602   0.514   3.905
10374SOL    HW132021   3.553   0.427   3.904
10374SOL    HW232022   3.643   0.530   3.816
10375SOL     OW32023   2.691   2.277   5.932
10375SOL    HW132024   2.662   2.199   5.876
10375SOL    HW232025   2.762   2.247   5.996
10376SOL     OW32026   1.364   6.144   4.456
10376SOL    HW132027   1.274   6.103   4.467
10376SOL    HW232028   1.422   6.121   4.534
10377SOL     OW32029   0.306   1.164   1.931
10377SOL    HW132030   0.253   1.188   2.013
10377SOL    HW232031   0.243   1.144   1.856
10378SOL     OW32032   6.018   5.779   5.518
10378SOL    HW132033   6.068   5.866   5.522
10378SOL    HW232034   5.986   5.763   5.425
10379SOL     OW32035   3.447   5.716   4.795
10379SOL    HW132036   3.448   5.805   4.751
10379SOL    HW232037   3.420   5.726   4.891
10380SOL     OW32038   1.228   2.723   4.617
10380SOL    HW132039   1.244   2.737   4.520
10380SOL    HW232040   1.148   2.664   4.629
10381SOL     OW32041   4.424   3.755   1.281
10381SOL    HW132042   4.346   3.739   1.342
10381SOL    HW232043   4.397   3.738   1.187
10382SOL     OW32044   2.950   5.645   1.613
10382SOL    HW132045   2.893   5.572   1.576
10382SOL    HW232046   3.044   5.632   1.582
10383SOL     OW32047   0.804   4.249   0.480
10383SOL    HW132048   0.818   4.173   0.543
10383SOL    HW232049   0.891   4.273   0.436
10384SOL     OW32050   6.604   6.765   0.681
10384SOL    HW132051   6.545   6.805   0.751
10384SOL    HW232052   6.688   6.731   0.724
10385SOL     OW32053   3.888   5.876   6.576
10385SOL    HW132054   3.804   5.840   6.534
10385SOL    HW232055   3.919   5.956   6.524
10386SOL     OW32056   0.311   1.196   5.904
10386SOL    HW132057   0.354   1.126   5.962
10386SOL    HW232058   0.215   1.174   5.891
10387SOL     OW32059   4.793   2.983   2.917
10387SOL    HW132060   4.885   2.980   2.955
10387SOL    HW232061   4.744   3.061   2.955
10388SOL     OW32062   1.242   5.624   1.842
10388SOL    HW132063   1.152   5.658   1.871
10388SOL    HW232064   1.241   5.524   1.842
10389SOL     OW32065   6.257   4.101   1.031
10389SOL    HW132066   6.256   4.076   1.128
10389SOL    HW232067   6.350   4.091   0.995
10390SOL     OW32068   2.153   3.333   0.403
10390SOL    HW132069   2.124   3.418   0.359
10390SOL    HW232070   2.077   3.295   0.456
10391SOL     OW32071   0.264   6.111   4.003
10391SOL    HW132072   0.258   6.114   4.103
10391SOL    HW232073   0.342   6.054   3.976
10392SOL     OW32074   5.995   4.775   5.955
10392SOL    HW132075   5.896   4.772   5.970
10392SOL    HW232076   6.033   4.683   5.964
10393SOL     OW32077   2.297   2.876   3.155
10393SOL    HW132078   2.262   2.955   3.104
10393SOL    HW232079   2.296   2.898   3.253
10394SOL     OW32080   2.728   5.173   5.478
10394SOL    HW132081   2.727   5.073   5.477
10394SOL    HW232082   2.651   5.207   5.532
10395SOL     OW32083   0.428   0.761   1.720
10395SOL    HW132084   0.494   0.745   1.793
10395SOL    HW232085   0.344   0.800   1.759
10396SOL     OW32086   3.628   1.208   3.897
10396SOL    HW132087   3.661   1.302   3.906
10396SOL    HW232088   3.706   1.146   3.893
10397SOL     OW32089   3.624   1.052   4.506
10397SOL    HW132090   3.675   1.043   4.420
10397SOL    HW232091   3.629   0.966   4.557
10398SOL     OW32092   5.855   2.376   0.819
10398SOL    HW132093   5.886   2.372   0.914
10398SOL    HW232094   5.772   2.430   0.813
10399SOL     OW32095   4.620   1.945   2.965
10399SOL    HW132096   4.589   1.851   2.981
10399SOL    HW232097   4.610   1.967   2.867
10400SOL     OW32098   4.404   5.755   6.804
10400SOL    HW132099   4.486   5.812   6.812
10400SOL    HW232100   4.361   5.746   6.894
10401SOL     OW32101   0.343   6.337   2.738
10401SOL    HW132102   0.431   6.329   2.785
10401SOL    HW232103   0.358   6.369   2.644
10402SOL     OW32104   0.235   1.548   5.612
10402SOL    HW132105   0.293   1.500   5.677
10402SOL    HW232106   0.201   1.483   5.543
10403SOL     OW32107   4.600   2.576   3.041
10403SOL    HW132108   4.620   2.634   3.119
10403SOL    HW232109   4.613   2.629   2.956
10404SOL     OW32110   5.959   6.316   4.233
10404SOL    HW132111   6.007   6.311   4.321
10404SOL    HW232112   6.025   6.330   4.160
10405SOL     OW32113   1.516   6.424   4.710
10405SOL    HW132114   1.527   6.387   4.803
10405SOL    HW232115   1.551   6.358   4.644
10406SOL     OW32116   2.199   3.111   3.676
10406SOL    HW132117   2.222   3.016   3.696
10406SOL    HW232118   2.176   3.158   3.761
10407SOL     OW32119   2.679   6.574   6.393
10407SOL    HW132120   2.702   6.670   6.376
10407SOL    HW232121   2.589   6.569   6.437
10408SOL     OW32122   4.824   0.566   1.183
10408SOL    HW132123   4.877   0.648   1.162
10408SOL    HW232124   4.839   0.497   1.112
10409SOL     OW32125   6.709   4.816   0.915
10409SOL    HW132126   6.796   4.828   0.962
10409SOL    HW232127   6.637   4.798   0.982
10410SOL     OW32128   5.248   1.977   1.607
10410SOL    HW132129   5.297   2.058   1.574
10410SOL    HW232130   5.285   1.949   1.695
10411SOL     OW32131   2.817   6.511   3.628
10411SOL    HW132132   2.875   6.449   3.680
10411SOL    HW232133   2.726   6.472   3.617
10412SOL     OW32134   0.253   1.615   0.683
10412SOL    HW132135   0.312   1.614   0.603
10412SOL    HW232136   0.158   1.601   0.655
10413SOL     OW32137   6.788   2.992   0.971
10413SOL    HW132138   6.828   2.915   0.921
10413SOL    HW232139   6.788   2.972   1.069
10414SOL     OW32140   3.478   5.168   5.461
10414SOL    HW132141   3.525   5.188   5.374
10414SOL    HW232142   3.452   5.072   5.463
10415SOL     OW32143   1.349   3.846   4.331
10415SOL    HW132144   1.394   3.935   4.322
10415SOL    HW232145   1.378   3.786   4.257
10416SOL     OW32146   5.805   6.921   5.378
10416SOL    HW132147   5.829   6.831   5.415
10416SOL    HW232148   5.885   6.980   5.380
10417SOL     OW32149   3.264   4.911   3.855
10417SOL    HW132150   3.346   4.856   3.838
10417SOL    HW232151   3.253   4.925   3.954
10418SOL     OW32152   6.433   4.218   6.109
10418SOL    HW132153   6.363   4.156   6.073
10418SOL    HW232154   6.522   4.194   6.069
10419SOL     OW32155   3.169   6.495   6.374
10419SOL    HW132156   3.222   6.418   6.339
10419SOL    HW232157   3.072   6.471   6.376
10420SOL     OW32158   0.118   3.674   4.171
10420SOL    HW132159   0.205   3.664   4.122
10420SOL    HW232160   0.126   3.633   4.262
10421SOL     OW32161   1.408   2.550   4.018
10421SOL    HW132162   1.371   2.543   3.925
10421SOL    HW232163   1.434   2.459   4.050
10422SOL     OW32164   6.241   3.021   4.769
10422SOL    HW132165   6.231   3.110   4.725
10422SOL    HW232166   6.164   3.005   4.831
10423SOL     OW32167   5.425   5.111   5.850
10423SOL    HW132168   5.443   5.165   5.768
10423SOL    HW232169   5.327   5.093   5.857
10424SOL     OW32170   4.192   3.236   1.197
10424SOL    HW132171   4.247   3.152   1.189
10424SOL    HW232172   4.243   3.313   1.158
10425SOL     OW32173   1.343   6.914   2.216
10425SOL    HW132174   1.404   6.856   2.270
10425SOL    HW232175   1.249   6.903   2.250
10426SOL     OW32176   5.027   4.727   0.067
10426SOL    HW132177   5.072   4.816   0.077
10426SOL    HW232178   5.096   4.655   0.068
10427SOL     OW32179   4.056   1.028   6.976
10427SOL    HW132180   4.055   1.128   6.970
10427SOL    HW232181   4.010   0.999   0.039
10428SOL     OW32182   3.715   0.731   3.494
10428SOL    HW132183   3.684   0.822   3.521
10428SOL    HW232184   3.686   0.712   3.400
10429SOL     OW32185   6.939   4.079   1.930
10429SOL    HW132186   6.932   4.177   1.950
10429SOL    HW232187   6.854   4.047   1.888
10430SOL     OW32188   5.195   0.032   4.766
10430SOL    HW132189   5.104   0.036   4.725
10430SOL    HW232190   5.205   6.966   4.816
10431SOL     OW32191   2.949   6.198   4.608
10431SOL    HW132192   2.959   6.104   4.576
10431SOL    HW232193   2.992   6.208   4.698
10432SOL     OW32194   5.909   0.485   4.670
10432SOL    HW132195   5.977   0.419   4.703
10432SOL    HW232196   5.878   0.458   4.578
10433SOL     OW32197   1.168   6.046   2.431
10433SOL    HW132198   1.200   5.973   2.492
10433SOL    HW232199   1.150   6.007   2.341
10434SOL     OW32200   3.973   5.801   2.603
10434SOL    HW132201   3.982   5.827   2.507
10434SOL    HW232202   3.969   5.702   2.610
10435SOL     OW32203   0.814   1.101   5.422
10435SOL    HW132204   0.824   1.166   5.347
10435SOL    HW232205   0.769   1.018   5.389
10436SOL     OW32206   6.170   4.562   5.674
10436SOL    HW132207   6.134   4.525   5.760
10436SOL    HW232208   6.194   4.487   5.613
10437SOL     OW32209   4.438   4.043   6.165
10437SOL    HW132210   4.532   4.067   6.138
10437SOL    HW232211   4.437   4.019   6.262
10438SOL     OW32212   6.430   6.643   6.761
10438SOL    HW132213   6.503   6.575   6.771
10438SOL    HW232214   6.368   6.614   6.688
10439SOL     OW32215   3.930   1.517   4.955
10439SOL    HW132216   3.904   1.421   4.948
10439SOL    HW232217   3.973   1.546   4.870
10440SOL     OW32218   1.289   6.345   0.869
10440SOL    HW132219   1.363   6.281   0.887
10440SOL    HW232220   1.201   6.297   0.870
10441SOL     OW32221   4.141   1.588   1.417
10441SOL    HW132222   4.145   1.679   1.459
10441SOL    HW232223   4.202   1.526   1.467
10442SOL     OW32224   4.163   6.617   6.701
10442SOL    HW132225   4.161   6.663   6.790
10442SOL    HW232226   4.258   6.605   6.673
10443SOL     OW32227   4.952   3.827   4.003
10443SOL    HW132228   4.891   3.754   3.972
10443SOL    HW232229   5.044   3.791   4.014
10444SOL     OW32230   4.423   5.475   3.841
10444SOL    HW132231   4.348   5.513   3.788
10444SOL    HW232232   4.437   5.529   3.924
10445SOL     OW32233   0.967   4.614   4.365
10445SOL    HW132234   0.910   4.544   4.410
10445SOL    HW232235   1.052   4.626   4.416
10446SOL     OW32236   1.546   3.143   5.636
10446SOL    HW132237   1.622   3.105   5.689
10446SOL    HW232238   1.465   3.086   5.649
10447SOL     OW32239   0.154   1.304   2.401
10447SOL    HW132240   0.253   1.310   2.395
10447SOL    HW232241   0.115   1.292   2.310
10448SOL     OW32242   4.606   0.788   2.587
10448SOL    HW132243   4.613   0.817   2.683
10448SOL    HW232244   4.538   0.845   2.540
10449SOL     OW32245   1.804   5.685   5.009
10449SOL    HW132246   1.871   5.617   5.039
10449SOL    HW232247   1.724   5.639   4.971
10450SOL     OW32248   0.851   1.331   0.779
10450SOL    HW132249   0.788   1.365   0.849
10450SOL    HW232250   0.931   1.291   0.823
10451SOL     OW32251   2.235   5.754   2.446
10451SOL    HW132252   2.318   5.765   2.501
10451SOL    HW232253   2.161   5.808   2.485
10452SOL     OW32254   6.642   3.210   2.185
10452SOL    HW132255   6.657   3.112   2.179
10452SOL    HW232256   6.609   3.245   2.097
10453SOL     OW32257   3.940   0.100   1.254
10453SOL    HW132258   3.961   0.022   1.314
10453SOL    HW232259   3.995   0.093   1.170
10454SOL     OW32260   4.923   3.506   0.548
10454SOL    HW132261   4.893   3.491   0.454
10454SOL    HW232262   4.844   3.503   0.610
10455SOL     OW32263   6.313   5.913   3.626
10455SOL    HW132264   6.406   5.949   3.628
10455SOL    HW232265   6.266   5.947   3.545
10456SOL     OW32266   2.206   5.794   0.382
10456SOL    HW132267   2.174   5.862   0.448
10456SOL    HW232268   2.154   5.710   0.394
10457SOL     OW32269   3.496   3.240   1.266
10457SOL    HW132270   3.542   3.231   1.354
10457SOL    HW232271   3.556   3.288   1.202
10458SOL     OW32272   6.378   0.721   6.897
10458SOL    HW132273   6.399   0.765   6.810
10458SOL    HW232274   6.455   0.732   6.960
10459SOL     OW32275   5.027   5.790   1.411
10459SOL    HW132276   5.023   5.887   1.435
10459SOL    HW232277   5.103   5.747   1.460
10460SOL     OW32278   0.752   4.310   2.531
10460SOL    HW132279   0.654   4.331   2.534
10460SOL    HW232280   0.790   4.315   2.623
10461SOL     OW32281   0.008   5.169   5.752
10461SOL    HW132282   6.966   5.206   5.684
10461SOL    HW232283   0.101   5.171   5.716
10462SOL     OW32284   5.740   1.430   3.304
10462SOL    HW132285   5.825   1.455   3.258
10462SOL    HW232286   5.760   1.389   3.393
10463SOL     OW32287   4.269   3.112   6.046
10463SOL    HW132288   4.227   3.168   6.118
10463SOL    HW232289   4.203   3.042   6.017
10464SOL     OW32290   6.641   0.170   1.472
10464SOL    HW132291   6.556   0.222   1.483
10464SOL    HW232292   6.629   0.078   1.508
10465SOL     OW32293   6.380   5.354   0.799
10465SOL    HW132294   6.450   5.317   0.738
10465SOL    HW232295   6.290   5.346   0.755
10466SOL     OW32296   4.093   5.165   6.128
10466SOL    HW132297   3.994   5.170   6.137
10466SOL    HW232298   4.125   5.076   6.159
10467SOL     OW32299   2.918   1.298   6.649
10467SOL    HW132300   2.995   1.352   6.683
10467SOL    HW232301   2.837   1.317   6.705
10468SOL     OW32302   4.136   5.360   3.152
10468SOL    HW132303   4.090   5.446   3.176
10468SOL    HW232304   4.076   5.283   3.171
10469SOL     OW32305   4.176   4.406   5.548
10469SOL    HW132306   4.096   4.455   5.580
10469SOL    HW232307   4.155   4.360   5.462
10470SOL     OW32308   2.472   2.572   3.507
10470SOL    HW132309   2.519   2.485   3.519
10470SOL    HW232310   2.452   2.586   3.410
10471SOL     OW32311   2.753   2.078   1.356
10471SOL    HW132312   2.797   1.991   1.336
10471SOL    HW232313   2.678   2.065   1.420
10472SOL     OW32314   3.977   5.404   0.249
10472SOL    HW132315   4.001   5.400   0.346
10472SOL    HW232316   3.900   5.466   0.237
10473SOL     OW32317   6.818   0.291   6.300
10473SOL    HW132318   6.731   0.244   6.287
10473SOL    HW232319   6.884   0.228   6.341
10474SOL     OW32320   3.479   2.048   4.609
10474SOL    HW132321   3.390   2.084   4.581
10474SOL    HW232322   3.496   2.070   4.705
10475SOL     OW32323   4.480   6.823   1.548
10475SOL    HW132324   4.388   6.853   1.522
10475SOL    HW232325   4.489   6.725   1.532
10476SOL     OW32326   0.068   5.824   0.248
10476SOL    HW132327   0.140   5.759   0.269
10476SOL    HW232328   0.015   5.842   0.331
10477SOL     OW32329   6.697   1.942   4.254
10477SOL    HW132330   6.618   1.922   4.195
10477SOL    HW232331   6.773   1.883   4.228
10478SOL     OW32332   0.018   0.503   1.413
10478SOL    HW132333   0.057   0.473   1.326
10478SOL    HW232334   6.967   0.570   1.396
10479SOL     OW32335   0.123   2.397   2.093
10479SOL    HW132336   0.068   2.337   2.035
10479SOL    HW232337   0.064   2.457   2.147
10480SOL     OW32338   6.821   0.072   1.783
10480SOL    HW132339   6.783   7.019   1.727
10480SOL    HW232340   6.909   0.042   1.821
10481SOL     OW32341   2.346   6.795   4.859
10481SOL    HW132342   2.367   6.838   4.771
10481SOL    HW232343   2.382   6.852   4.933
10482SOL     OW32344   6.161   5.023   4.933
10482SOL    HW132345   6.075   4.984   4.898
10482SOL    HW232346   6.215   5.058   4.857
10483SOL     OW32347   6.536   4.717   0.010
10483SOL    HW132348   6.541   4.689   6.935
10483SOL    HW232349   6.574   4.645   0.068
10484SOL     OW32350   5.840   0.989   1.841
10484SOL    HW132351   5.756   1.024   1.799
10484SOL    HW232352   5.857   1.037   1.927
10485SOL     OW32353   3.381   3.967   1.157
10485SOL    HW132354   3.368   4.067   1.156
10485SOL    HW232355   3.457   3.944   1.217
10486SOL     OW32356   6.627   0.722   6.984
10486SOL    HW132357   6.705   0.766   6.939
10486SOL    HW232358   6.660   0.645   0.018
10487SOL     OW32359   4.746   1.605   2.319
10487SOL    HW132360   4.796   1.602   2.406
10487SOL    HW232361   4.695   1.519   2.308
10488SOL     OW32362   2.803   2.124   5.554
10488SOL    HW132363   2.862   2.137   5.633
10488SOL    HW232364   2.818   2.033   5.515
10489SOL     OW32365   6.680   0.031   4.562
10489SOL    HW132366   6.617   7.004   4.623
10489SOL    HW232367   6.688   0.127   4.591
10490SOL     OW32368   6.202   1.894   0.643
10490SOL    HW132369   6.198   1.809   0.591
10490SOL    HW232370   6.127   1.954   0.614
10491SOL     OW32371   2.588   2.071   5.734
10491SOL    HW132372   2.501   2.099   5.695
10491SOL    HW232373   2.662   2.095   5.671
10492SOL     OW32374   5.440   5.580   0.782
10492SOL    HW132375   5.466   5.638   0.705
10492SOL    HW232376   5.359   5.526   0.757
10493SOL     OW32377   3.187   6.678   1.922
10493SOL    HW132378   3.115   6.650   1.860
10493SOL    HW232379   3.153   6.748   1.984
10494SOL     OW32380   5.348   4.433   6.095
10494SOL    HW132381   5.423   4.446   6.032
10494SOL    HW232382   5.310   4.522   6.122
10495SOL     OW32383   0.897   6.727   0.926
10495SOL    HW132384   0.919   6.804   0.866
10495SOL    HW232385   0.957   6.730   1.006
10496SOL     OW32386   5.915   3.880   6.123
10496SOL    HW132387   5.999   3.868   6.070
10496SOL    HW232388   5.882   3.790   6.152
10497SOL     OW32389   1.923   6.965   2.108
10497SOL    HW132390   1.872   6.888   2.070
10497SOL    HW232391   1.858   0.009   2.148
10498SOL     OW32392   5.285   4.967   0.814
10498SOL    HW132393   5.238   4.883   0.840
10498SOL    HW232394   5.251   4.999   0.725
10499SOL     OW32395   4.915   0.293   2.315
10499SOL    HW132396   4.968   0.253   2.390
10499SOL    HW232397   4.817   0.284   2.336
10500SOL     OW32398   6.157   1.466   5.735
10500SOL    HW132399   6.142   1.531   5.661
10500SOL    HW232400   6.126   1.375   5.707
10501SOL     OW32401   2.077   5.542   2.379
10501SOL    HW132402   2.132   5.622   2.405
10501SOL    HW232403   2.107   5.509   2.289
10502SOL     OW32404   2.921   2.317   1.460
10502SOL    HW132405   2.895   2.237   1.406
10502SOL    HW232406   2.909   2.400   1.405
10503SOL     OW32407   5.110   2.848   0.993
10503SOL    HW132408   5.144   2.930   1.040
10503SOL    HW232409   5.073   2.785   1.061
10504SOL     OW32410   1.342   2.796   5.623
10504SOL    HW132411   1.301   2.706   5.640
10504SOL    HW232412   1.323   2.856   5.701
10505SOL     OW32413   5.498   5.120   0.892
10505SOL    HW132414   5.419   5.065   0.866
10505SOL    HW232415   5.468   5.195   0.952
10506SOL     OW32416   0.309   3.756   6.984
10506SOL    HW132417   0.351   3.721   0.047
10506SOL    HW232418   0.373   3.748   6.908
10507SOL     OW32419   1.661   5.932   0.811
10507SOL    HW132420   1.661   5.842   0.854
10507SOL    HW232421   1.671   6.003   0.880
10508SOL     OW32422   6.770   5.866   4.928
10508SOL    HW132423   6.765   5.767   4.937
10508SOL    HW232424   6.814   5.890   4.841
10509SOL     OW32425   6.684   5.313   5.023
10509SOL    HW132426   6.611   5.290   4.959
10509SOL    HW232427   6.772   5.300   4.979
10510SOL     OW32428   4.726   6.451   0.345
10510SOL    HW132429   4.649   6.402   0.387
10510SOL    HW232430   4.806   6.391   0.345
10511SOL     OW32431   2.567   1.406   2.134
10511SOL    HW132432   2.580   1.504   2.151
10511SOL    HW232433   2.611   1.353   2.206
10512SOL     OW32434   4.232   0.556   5.292
10512SOL    HW132435   4.184   0.643   5.282
10512SOL    HW232436   4.225   0.525   5.387
10513SOL     OW32437   6.610   3.113   3.609
10513SOL    HW132438   6.535   3.154   3.662
10513SOL    HW232439   6.573   3.046   3.545
10514SOL     OW32440   0.558   3.342   0.946
10514SOL    HW132441   0.476   3.292   0.975
10514SOL    HW232442   0.638   3.305   0.993
10515SOL     OW32443   1.341   4.032   4.101
10515SOL    HW132444   1.262   4.080   4.062
10515SOL    HW232445   1.315   3.938   4.123
10516SOL     OW32446   3.127   1.921   0.610
10516SOL    HW132447   3.223   1.894   0.613
10516SOL    HW232448   3.109   1.971   0.525
10517SOL     OW32449   0.619   3.134   0.756
10517SOL    HW132450   0.530   3.094   0.737
10517SOL    HW232451   0.607   3.223   0.799
10518SOL     OW32452   0.110   5.807   0.893
10518SOL    HW132453   0.125   5.884   0.831
10518SOL    HW232454   0.178   5.809   0.966
10519SOL     OW32455   3.034   3.646   0.889
10519SOL    HW132456   2.938   3.674   0.886
10519SOL    HW232457   3.084   3.707   0.950
10520SOL     OW32458   0.786   2.186   5.926
10520SOL    HW132459   0.850   2.175   5.850
10520SOL    HW232460   0.822   2.138   6.006
10521SOL     OW32461   6.510   5.102   1.236
10521SOL    HW132462   6.449   5.035   1.194
10521SOL    HW232463   6.575   5.056   1.296
10522SOL     OW32464   0.184   1.396   4.528
10522SOL    HW132465   0.230   1.484   4.522
10522SOL    HW232466   0.248   1.323   4.504
10523SOL     OW32467   0.876   4.946   2.983
10523SOL    HW132468   0.920   4.868   2.939
10523SOL    HW232469   0.851   4.922   3.077
10524SOL     OW32470   0.362   6.525   4.126
10524SOL    HW132471   0.352   6.431   4.095
10524SOL    HW232472   0.284   6.579   4.096
10525SOL     OW32473   3.706   0.573   5.382
10525SOL    HW132474   3.794   0.558   5.427
10525SOL    HW232475   3.640   0.504   5.415
10526SOL     OW32476   1.101   6.918   2.666
10526SOL    HW132477   1.093   6.933   2.567
10526SOL    HW232478   1.046   6.839   2.693
10527SOL     OW32479   1.044   0.726   5.299
10527SOL    HW132480   1.024   0.824   5.309
10527SOL    HW232481   1.137   0.708   5.328
10528SOL     OW32482   1.365   3.806   6.025
10528SOL    HW132483   1.444   3.865   6.043
10528SOL    HW232484   1.371   3.768   5.933
10529SOL     OW32485   2.574   6.466   4.323
10529SOL    HW132486   2.628   6.402   4.378
10529SOL    HW232487   2.561   6.550   4.375
10530SOL     OW32488   1.444   0.330   6.401
10530SOL    HW132489   1.456   0.360   6.306
10530SOL    HW232490   1.434   0.411   6.460
10531SOL     OW32491   1.854   2.450   3.971
10531SOL    HW132492   1.891   2.485   4.057
10531SOL    HW232493   1.828   2.527   3.912
10532SOL     OW32494   0.752   0.094   6.257
10532SOL    HW132495   0.660   0.065   6.229
10532SOL    HW232496   0.817   0.072   6.184
10533SOL     OW32497   3.122   6.949   3.391
10533SOL    HW132498   3.099   6.853   3.376
10533SOL    HW232499   3.074   7.006   3.324
10534SOL     OW32500   6.270   5.512   2.190
10534SOL    HW132501   6.273   5.476   2.284
10534SOL    HW232502   6.193   5.574   2.180
10535SOL     OW32503   1.874   1.787   2.244
10535SOL    HW132504   1.950   1.788   2.180
10535SOL    HW232505   1.908   1.795   2.338
10536SOL     OW32506   4.660   0.615   4.195
10536SOL    HW132507   4.590   0.581   4.132
10536SOL    HW232508   4.692   0.705   4.165
10537SOL     OW32509   4.285   6.472   4.438
10537SOL    HW132510   4.358   6.480   4.505
10537SOL    HW232511   4.324   6.458   4.347
10538SOL     OW32512   6.449   3.715   1.362
10538SOL    HW132513   6.439   3.619   1.386
10538SOL    HW232514   6.473   3.722   1.265
10539SOL     OW32515   6.963   4.757   0.425
10539SOL    HW132516   6.868   4.732   0.402
10539SOL    HW232517   7.015   4.772   0.341
10540SOL     OW32518   1.538   3.104   5.351
10540SOL    HW132519   1.541   3.126   5.449
10540SOL    HW232520   1.565   3.008   5.338
10541SOL     OW32521   3.504   4.092   2.033
10541SOL    HW132522   3.588   4.099   2.087
10541SOL    HW232523   3.510   4.152   1.953
10542SOL     OW32524   0.154   1.374   5.417
10542SOL    HW132525   0.084   1.439   5.388
10542SOL    HW232526   0.155   1.296   5.354
10543SOL     OW32527   0.252   1.825   4.772
10543SOL    HW132528   0.332   1.875   4.804
10543SOL    HW232529   0.186   1.889   4.733
10544SOL     OW32530   2.699   6.707   1.722
10544SOL    HW132531   2.621   6.769   1.711
10544SOL    HW232532   2.665   6.614   1.735
10545SOL     OW32533   0.598   2.039   1.090
10545SOL    HW132534   0.691   2.035   1.125
10545SOL    HW232535   0.563   1.945   1.078
10546SOL     OW32536   1.856   6.905   0.760
10546SOL    HW132537   1.954   6.890   0.747
10546SOL    HW232538   1.806   6.865   0.684
10547SOL     OW32539   5.109   2.907   3.170
10547SOL    HW132540   5.132   2.905   3.072
10547SOL    HW232541   5.057   2.825   3.193
10548SOL     OW32542   6.305   4.216   4.335
10548SOL    HW132543   6.370   4.246   4.405
10548SOL    HW232544   6.214   4.206   4.375
10549SOL     OW32545   0.668   1.038   1.461
10549SOL    HW132546   0.631   1.041   1.368
10549SOL    HW232547   0.610   1.091   1.522
10550SOL     OW32548   4.997   6.768   3.414
10550SOL    HW132549   5.072   6.745   3.352
10550SOL    HW232550   5.031   6.771   3.508
10551SOL     OW32551   2.074   2.337   6.503
10551SOL    HW132552   2.075   2.256   6.444
10551SOL    HW232553   2.162   2.383   6.497
10552SOL     OW32554   2.207   1.046   5.733
10552SOL    HW132555   2.249   1.112   5.795
10552SOL    HW232556   2.266   0.966   5.725
10553SOL     OW32557   0.310   4.420   1.594
10553SOL    HW132558   0.279   4.342   1.648
10553SOL    HW232559   0.371   4.389   1.522
10554SOL     OW32560   5.073   4.738   1.223
10554SOL    HW132561   5.068   4.683   1.307
10554SOL    HW232562   5.169   4.748   1.196
10555SOL     OW32563   2.475   2.627   1.212
10555SOL    HW132564   2.435   2.705   1.163
10555SOL    HW232565   2.543   2.583   1.155
10556SOL     OW32566   0.995   1.346   4.089
10556SOL    HW132567   0.899   1.340   4.062
10556SOL    HW232568   1.043   1.264   4.061
10557SOL     OW32569   2.165   3.049   2.952
10557SOL    HW132570   2.143   3.032   2.856
10557SOL    HW232571   2.156   3.147   2.971
10558SOL     OW32572   3.938   6.712   5.036
10558SOL    HW132573   3.855   6.709   5.092
10558SOL    HW232574   3.968   6.619   5.017
10559SOL     OW32575   4.702   1.209   2.005
10559SOL    HW132576   4.673   1.269   2.079
10559SOL    HW232577   4.663   1.241   1.918
10560SOL     OW32578   4.653   6.786   2.824
10560SOL    HW132579   4.676   6.743   2.911
10560SOL    HW232580   4.665   6.885   2.831
10561SOL     OW32581   3.694   4.464   1.698
10561SOL    HW132582   3.631   4.435   1.626
10561SOL    HW232583   3.662   4.549   1.738
10562SOL     OW32584   4.129   5.447   6.991
10562SOL    HW132585   4.064   5.394   0.026
10562SOL    HW232586   4.215   5.397   6.983
10563SOL     OW32587   0.309   1.075   2.925
10563SOL    HW132588   0.227   1.026   2.896
10563SOL    HW232589   0.378   1.010   2.956
10564SOL     OW32590   5.404   6.197   3.244
10564SOL    HW132591   5.329   6.135   3.265
10564SOL    HW232592   5.389   6.238   3.154
10565SOL     OW32593   0.038   6.737   5.855
10565SOL    HW132594   0.096   6.770   5.781
10565SOL    HW232595   0.009   6.814   5.911
10566SOL     OW32596   4.060   2.201   6.816
10566SOL    HW132597   4.139   2.250   6.854
10566SOL    HW232598   3.993   2.268   6.783
10567SOL     OW32599   2.492   2.641   4.985
10567SOL    HW132600   2.459   2.725   4.942
10567SOL    HW232601   2.520   2.576   4.914
10568SOL     OW32602   7.019   2.910   0.797
10568SOL    HW132603   0.011   2.812   0.814
10568SOL    HW232604   6.930   2.925   0.755
10569SOL     OW32605   5.389   1.333   2.062
10569SOL    HW132606   5.331   1.348   1.981
10569SOL    HW232607   5.335   1.288   2.133
10570SOL     OW32608   1.911   4.166   3.526
10570SOL    HW132609   1.856   4.243   3.494
10570SOL    HW232610   1.966   4.194   3.604
10571SOL     OW32611   0.365   4.647   4.947
10571SOL    HW132612   0.322   4.569   4.993
10571SOL    HW232613   0.463   4.631   4.941
10572SOL     OW32614   6.999   4.635   2.918
10572SOL    HW132615   0.050   4.617   2.850
10572SOL    HW232616   6.926   4.688   2.875
10573SOL     OW32617   5.410   0.745   5.043
10573SOL    HW132618   5.344   0.716   4.974
10573SOL    HW232619   5.378   0.829   5.086
10574SOL     OW32620   0.645   1.598   4.814
10574SOL    HW132621   0.620   1.665   4.884
10574SOL    HW232622   0.703   1.642   4.745
10575SOL     OW32623   6.682   0.966   3.631
10575SOL    HW132624   6.720   0.905   3.701
10575SOL    HW232625   6.629   1.039   3.675
10576SOL     OW32626   0.382   5.587   4.646
10576SOL    HW132627   0.364   5.583   4.547
10576SOL    HW232628   0.466   5.537   4.667
10577SOL     OW32629   1.908   4.742   0.459
10577SOL    HW132630   1.963   4.677   0.406
10577SOL    HW232631   1.827   4.766   0.407
10578SOL     OW32632   4.241   1.389   2.920
10578SOL    HW132633   4.165   1.397   2.984
10578SOL    HW232634   4.303   1.467   2.932
10579SOL     OW32635   4.301   2.997   1.530
10579SOL    HW132636   4.201   3.001   1.537
10579SOL    HW232637   4.329   2.903   1.511
10580SOL     OW32638   6.907   0.533   6.599
10580SOL    HW132639   6.961   0.453   6.622
10580SOL    HW232640   6.922   0.558   6.504
10581SOL     OW32641   5.681   0.209   2.837
10581SOL    HW132642   5.589   0.248   2.842
10581SOL    HW232643   5.680   0.127   2.780
10582SOL     OW32644   4.598   4.273   5.586
10582SOL    HW132645   4.659   4.194   5.581
10582SOL    HW232646   4.550   4.283   5.498
10583SOL     OW32647   3.965   1.258   3.797
10583SOL    HW132648   3.971   1.252   3.896
10583SOL    HW232649   4.053   1.288   3.759
10584SOL     OW32650   6.637   0.615   0.417
10584SOL    HW132651   6.685   0.693   0.377
10584SOL    HW232652   6.585   0.569   0.345
10585SOL     OW32653   2.802   2.063   5.152
10585SOL    HW132654   2.732   2.121   5.193
10585SOL    HW232655   2.777   1.967   5.163
10586SOL     OW32656   5.503   4.597   5.597
10586SOL    HW132657   5.469   4.525   5.658
10586SOL    HW232658   5.577   4.560   5.541
10587SOL     OW32659   6.262   4.812   0.010
10587SOL    HW132660   6.351   4.771   0.028
10587SOL    HW232661   6.213   4.824   0.096
10588SOL     OW32662   1.450   2.381   4.859
10588SOL    HW132663   1.381   2.444   4.894
10588SOL    HW232664   1.535   2.395   4.909
10589SOL     OW32665   5.881   1.023   4.539
10589SOL    HW132666   5.853   1.105   4.589
10589SOL    HW232667   5.916   1.050   4.449
10590SOL     OW32668   0.343   0.201   0.605
10590SOL    HW132669   0.283   0.122   0.617
10590SOL    HW232670   0.301   0.265   0.541
10591SOL     OW32671   1.202   2.279   0.247
10591SOL    HW132672   1.209   2.276   0.148
10591SOL    HW232673   1.106   2.285   0.274
10592SOL     OW32674   5.730   3.991   3.081
10592SOL    HW132675   5.737   3.965   3.177
10592SOL    HW232676   5.659   4.061   3.071
10593SOL     OW32677   2.879   5.788   0.917
10593SOL    HW132678   2.961   5.808   0.863
10593SOL    HW232679   2.820   5.868   0.920
10594SOL     OW32680   5.200   1.643   3.223
10594SOL    HW132681   5.263   1.604   3.291
10594SOL    HW232682   5.220   1.740   3.211
10595SOL     OW32683   5.527   0.352   0.029
10595SOL    HW132684   5.547   0.357   0.127
10595SOL    HW232685   5.613   0.360   6.999
10596SOL     OW32686   4.440   0.851   0.278
10596SOL    HW132687   4.507   0.878   0.209
10596SOL    HW232688   4.485   0.838   0.366
10597SOL     OW32689   3.542   1.371   5.981
10597SOL    HW132690   3.575   1.438   5.914
10597SOL    HW232691   3.596   1.287   5.975
10598SOL     OW32692   3.025   3.076   0.429
10598SOL    HW132693   2.936   3.044   0.460
10598SOL    HW232694   3.026   3.078   0.329
10599SOL     OW32695   5.336   3.664   6.463
10599SOL    HW132696   5.433   3.683   6.481
10599SOL    HW232697   5.314   3.571   6.493
10600SOL     OW32698   3.540   2.660   1.124
10600SOL    HW132699   3.443   2.642   1.138
10600SOL    HW232700   3.581   2.582   1.076
10601SOL     OW32701   1.133   4.822   5.009
10601SOL    HW132702   1.226   4.859   5.009
10601SOL    HW232703   1.118   4.770   4.925
10602SOL     OW32704   1.548   0.556   2.013
10602SOL    HW132705   1.524   0.477   2.069
10602SOL    HW232706   1.606   0.527   1.937
10603SOL     OW32707   3.975   0.079   3.526
10603SOL    HW132708   4.049   0.135   3.489
10603SOL    HW232709   3.893   0.091   3.470
10604SOL     OW32710   6.631   6.061   5.413
10604SOL    HW132711   6.729   6.045   5.403
10604SOL    HW232712   6.611   6.157   5.394
10605SOL     OW32713   2.023   6.444   6.607
10605SOL    HW132714   2.100   6.402   6.559
10605SOL    HW232715   2.051   6.533   6.644
10606SOL     OW32716   0.284   0.042   1.283
10606SOL    HW132717   0.253   0.055   1.377
10606SOL    HW232718   0.383   0.056   1.279
10607SOL     OW32719   3.831   5.644   6.057
10607SOL    HW132720   3.795   5.724   6.009
10607SOL    HW232721   3.775   5.564   6.037
10608SOL     OW32722   6.773   3.303   4.403
10608SOL    HW132723   6.762   3.346   4.492
10608SOL    HW232724   6.683   3.275   4.368
10609SOL     OW32725   2.786   6.758   6.677
10609SOL    HW132726   2.799   6.768   6.775
10609SOL    HW232727   2.809   6.664   6.649
10610SOL     OW32728   0.490   2.605   3.846
10610SOL    HW132729   0.443   2.597   3.758
10610SOL    HW232730   0.437   2.557   3.916
10611SOL     OW32731   2.699   4.300   0.118
10611SOL    HW132732   2.704   4.212   0.167
10611SOL    HW232733   2.756   4.367   0.164
10612SOL     OW32734   3.717   2.073   4.813
10612SOL    HW132735   3.806   2.084   4.767
10612SOL    HW232736   3.690   2.160   4.854
10613SOL     OW32737   5.823   5.848   5.949
10613SOL    HW132738   5.906   5.889   5.911
10613SOL    HW232739   5.847   5.798   6.033
10614SOL     OW32740   4.720   1.833   5.077
10614SOL    HW132741   4.693   1.896   5.150
10614SOL    HW232742   4.778   1.883   5.011
10615SOL     OW32743   3.676   0.667   5.771
10615SOL    HW132744   3.698   0.632   5.861
10615SOL    HW232745   3.756   0.660   5.711
10616SOL     OW32746   2.183   6.891   0.261
10616SOL    HW132747   2.278   6.890   0.292
10616SOL    HW232748   2.169   6.821   0.191
10617SOL     OW32749   3.094   4.071   0.990
10617SOL    HW132750   3.170   4.125   1.024
10617SOL    HW232751   3.122   3.975   0.982
10618SOL     OW32752   1.014   4.138   5.856
10618SOL    HW132753   1.009   4.158   5.954
10618SOL    HW232754   1.015   4.039   5.842
10619SOL     OW32755   0.706   3.375   3.222
10619SOL    HW132756   0.777   3.306   3.238
10619SOL    HW232757   0.741   3.447   3.163
10620SOL     OW32758   1.529   6.637   5.512
10620SOL    HW132759   1.437   6.598   5.508
10620SOL    HW232760   1.596   6.568   5.486
10621SOL     OW32761   0.986   4.935   1.593
10621SOL    HW132762   1.041   4.967   1.671
10621SOL    HW232763   1.033   4.859   1.549
10622SOL     OW32764   5.090   1.655   2.294
10622SOL    HW132765   5.165   1.623   2.352
10622SOL    HW232766   5.041   1.577   2.256
10623SOL     OW32767   0.069   5.131   5.362
10623SOL    HW132768   0.096   5.223   5.333
10623SOL    HW232769   0.151   5.073   5.367
10624SOL     OW32770   1.011   2.209   4.927
10624SOL    HW132771   1.101   2.203   4.969
10624SOL    HW232772   1.018   2.249   4.836
10625SOL     OW32773   0.234   4.556   1.016
10625SOL    HW132774   0.303   4.611   1.065
10625SOL    HW232775   0.230   4.586   0.920
10626SOL     OW32776   3.189   2.782   0.937
10626SOL    HW132777   3.135   2.862   0.910
10626SOL    HW232778   3.254   2.759   0.864
10627SOL     OW32779   5.428   0.871   6.582
10627SOL    HW132780   5.468   0.796   6.530
10627SOL    HW232781   5.471   0.876   6.672
10628SOL     OW32782   5.188   5.989   1.081
10628SOL    HW132783   5.206   5.921   1.009
10628SOL    HW232784   5.092   5.982   1.110
10629SOL     OW32785   2.444   5.234   4.738
10629SOL    HW132786   2.485   5.222   4.828
10629SOL    HW232787   2.508   5.202   4.668
10630SOL     OW32788   6.311   1.432   3.448
10630SOL    HW132789   6.311   1.460   3.544
10630SOL    HW232790   6.350   1.341   3.440
10631SOL     OW32791   3.237   5.380   5.113
10631SOL    HW132792   3.328   5.395   5.151
10631SOL    HW232793   3.169   5.385   5.187
10632SOL     OW32794   5.574   6.688   3.892
10632SOL    HW132795   5.649   6.664   3.954
10632SOL    HW232796   5.503   6.618   3.896
10633SOL     OW32797   2.838   2.418   0.731
10633SOL    HW132798   2.897   2.498   0.740
10633SOL    HW232799   2.842   2.363   0.814
10634SOL     OW32800   2.780   4.297   0.730
10634SOL    HW132801   2.773   4.237   0.811
10634SOL    HW232802   2.874   4.330   0.722
10635SOL     OW32803   1.583   3.613   6.862
10635SOL    HW132804   1.575   3.701   6.909
10635SOL    HW232805   1.585   3.628   6.763
10636SOL     OW32806   0.449   1.994   0.716
10636SOL    HW132807   0.509   1.957   0.645
10636SOL    HW232808   0.412   1.918   0.770
10637SOL     OW32809   1.371   4.806   5.690
10637SOL    HW132810   1.460   4.851   5.678
10637SOL    HW232811   1.370   4.757   5.777
10638SOL     OW32812   5.580   5.963   3.014
10638SOL    HW132813   5.635   6.043   3.037
10638SOL    HW232814   5.483   5.986   3.017
10639SOL     OW32815   1.161   4.099   3.204
10639SOL    HW132816   1.176   4.130   3.298
10639SOL    HW232817   1.070   4.056   3.197
10640SOL     OW32818   4.760   6.951   4.146
10640SOL    HW132819   4.834   6.892   4.115
10640SOL    HW232820   4.673   6.915   4.114
10641SOL     OW32821   1.673   2.202   2.356
10641SOL    HW132822   1.766   2.225   2.327
10641SOL    HW232823   1.609   2.217   2.280
10642SOL     OW32824   6.588   2.466   0.960
10642SOL    HW132825   6.659   2.476   1.029
10642SOL    HW232826   6.629   2.441   0.872
10643SOL     OW32827   1.452   5.682   4.526
10643SOL    HW132828   1.406   5.669   4.439
10643SOL    HW232829   1.437   5.775   4.558
10644SOL     OW32830   6.009   2.700   1.946
10644SOL    HW132831   5.921   2.732   1.981
10644SOL    HW232832   6.065   2.778   1.918
10645SOL     OW32833   1.892   2.640   4.376
10645SOL    HW132834   1.944   2.715   4.335
10645SOL    HW232835   1.947   2.557   4.375
10646SOL     OW32836   0.156   0.087   6.622
10646SOL    HW132837   0.247   0.070   6.661
10646SOL    HW232838   0.094   0.015   6.652
10647SOL     OW32839   3.151   5.748   4.916
10647SOL    HW132840   3.113   5.804   4.843
10647SOL    HW232841   3.080   5.688   4.952
10648SOL     OW32842   5.849   4.000   6.744
10648SOL    HW132843   5.826   4.033   6.653
10648SOL    HW232844   5.833   3.901   6.750
10649SOL     OW32845   6.882   4.278   2.508
10649SOL    HW132846   6.950   4.331   2.458
10649SOL    HW232847   6.802   4.263   2.450
10650SOL     OW32848   0.342   0.350   3.784
10650SOL    HW132849   0.425   0.337   3.731
10650SOL    HW232850   0.288   0.425   3.746
10651SOL     OW32851   5.466   6.356   6.798
10651SOL    HW132852   5.399   6.286   6.823
10651SOL    HW232853   5.429   6.446   6.822
10652SOL     OW32854   3.639   6.630   5.585
10652SOL    HW132855   3.559   6.681   5.616
10652SOL    HW232856   3.610   6.542   5.548
10653SOL     OW32857   4.223   5.611   4.243
10653SOL    HW132858   4.204   5.596   4.146
10653SOL    HW232859   4.301   5.673   4.252
10654SOL     OW32860   5.534   0.678   0.697
10654SOL    HW132861   5.538   0.777   0.715
10654SOL    HW232862   5.517   0.664   0.599
10655SOL     OW32863   2.525   5.472   0.546
10655SOL    HW132864   2.465   5.420   0.486
10655SOL    HW232865   2.608   5.497   0.495
10656SOL     OW32866   0.441   2.042   2.901
10656SOL    HW132867   0.369   2.108   2.921
10656SOL    HW232868   0.461   2.043   2.803
10657SOL     OW32869   5.542   0.314   5.733
10657SOL    HW132870   5.518   0.246   5.663
10657SOL    HW232871   5.476   0.388   5.730
10658SOL     OW32872   6.270   4.663   5.335
10658SOL    HW132873   6.208   4.713   5.395
10658SOL    HW232874   6.217   4.595   5.282
10659SOL     OW32875   0.395   5.158   1.604
10659SOL    HW132876   0.334   5.225   1.646
10659SOL    HW232877   0.482   5.156   1.653
10660SOL     OW32878   5.098   3.326   5.968
10660SOL    HW132879   5.030   3.270   6.014
10660SOL    HW232880   5.054   3.405   5.926
10661SOL     OW32881   1.255   6.840   1.534
10661SOL    HW132882   1.234   6.936   1.553
10661SOL    HW232883   1.230   6.784   1.612
10662SOL     OW32884   5.477   6.799   2.395
10662SOL    HW132885   5.487   6.897   2.413
10662SOL    HW232886   5.464   6.750   2.481
10663SOL     OW32887   0.629   2.210   3.018
10663SOL    HW132888   0.562   2.163   2.960
10663SOL    HW232889   0.581   2.266   3.085
10664SOL     OW32890   6.463   4.098   4.765
10664SOL    HW132891   6.371   4.116   4.800
10664SOL    HW232892   6.480   4.000   4.764
10665SOL     OW32893   0.720   1.765   0.315
10665SOL    HW132894   0.810   1.722   0.307
10665SOL    HW232895   0.687   1.789   0.224
10666SOL     OW32896   3.795   3.589   1.819
10666SOL    HW132897   3.877   3.565   1.871
10666SOL    HW232898   3.714   3.566   1.874
10667SOL     OW32899   4.993   2.734   4.753
10667SOL    HW132900   4.906   2.775   4.780
10667SOL    HW232901   5.038   2.792   4.685
10668SOL     OW32902   2.600   0.466   4.878
10668SOL    HW132903   2.578   0.562   4.896
10668SOL    HW232904   2.557   0.438   4.792
10669SOL     OW32905   5.884   6.884   1.571
10669SOL    HW132906   5.954   6.816   1.551
10669SOL    HW232907   5.886   6.955   1.501
10670SOL     OW32908   5.375   4.164   5.344
10670SOL    HW132909   5.354   4.154   5.246
10670SOL    HW232910   5.290   4.159   5.397
10671SOL     OW32911   2.720   2.433   3.275
10671SOL    HW132912   2.793   2.404   3.213
10671SOL    HW232913   2.715   2.533   3.277
10672SOL     OW32914   6.392   3.350   1.317
10672SOL    HW132915   6.426   3.303   1.236
10672SOL    HW232916   6.314   3.407   1.292
10673SOL     OW32917   1.182   0.781   6.717
10673SOL    HW132918   1.104   0.733   6.758
10673SOL    HW232919   1.165   0.796   6.620
10674SOL     OW32920   3.651   4.060   2.269
10674SOL    HW132921   3.566   4.036   2.315
10674SOL    HW232922   3.705   4.120   2.327
10675SOL     OW32923   1.668   7.006   6.611
10675SOL    HW132924   1.764   7.013   6.583
10675SOL    HW232925   1.656   0.028   6.701
10676SOL     OW32926   6.812   6.141   5.918
10676SOL    HW132927   6.731   6.158   5.861
10676SOL    HW232928   6.798   6.057   5.970
10677SOL     OW32929   1.247   0.533   1.909
10677SOL    HW132930   1.239   0.437   1.934
10677SOL    HW232931   1.343   0.560   1.909
10678SOL     OW32932   4.460   4.914   4.186
10678SOL    HW132933   4.453   4.818   4.158
10678SOL    HW232934   4.456   4.919   4.286
10679SOL     OW32935   4.843   5.488   6.579
10679SOL    HW132936   4.798   5.575   6.563
10679SOL    HW232937   4.789   5.414   6.540
10680SOL     OW32938   4.127   1.597   3.504
10680SOL    HW132939   4.127   1.621   3.407
10680SOL    HW232940   4.153   1.676   3.558
10681SOL     OW32941   0.748   3.739   0.507
10681SOL    HW132942   0.714   3.650   0.478
10681SOL    HW232943   0.825   3.727   0.571
10682SOL     OW32944   0.901   0.953   5.109
10682SOL    HW132945   0.922   0.977   5.014
10682SOL    HW232946   0.986   0.940   5.160
10683SOL     OW32947   3.785   1.994   3.527
10683SOL    HW132948   3.882   2.003   3.551
10683SOL    HW232949   3.730   1.999   3.610
10684SOL     OW32950   5.575   4.511   2.260
10684SOL    HW132951   5.534   4.422   2.281
10684SOL    HW232952   5.502   4.578   2.242
10685SOL     OW32953   0.629   5.461   2.363
10685SOL    HW132954   0.686   5.543   2.362
10685SOL    HW232955   0.679   5.385   2.404
10686SOL     OW32956   0.694   4.676   6.292
10686SOL    HW132957   0.733   4.756   6.337
10686SOL    HW232958   0.598   4.666   6.319
10687SOL     OW32959   6.531   5.758   2.062
10687SOL    HW132960   6.491   5.668   2.046
10687SOL    HW232961   6.612   5.749   2.120
10688SOL     OW32962   6.626   3.909   2.735
10688SOL    HW132963   6.691   3.909   2.811
10688SOL    HW232964   6.622   3.817   2.695
10689SOL     OW32965   0.530   5.880   3.530
10689SOL    HW132966   0.461   5.810   3.547
10689SOL    HW232967   0.503   5.966   3.573
10690SOL     OW32968   6.860   6.144   3.697
10690SOL    HW132969   6.846   6.182   3.606
10690SOL    HW232970   6.957   6.124   3.710
10691SOL     OW32971   0.254   2.177   2.489
10691SOL    HW132972   0.335   2.232   2.511
10691SOL    HW232973   0.232   2.187   2.392
10692SOL     OW32974   3.407   6.049   3.220
10692SOL    HW132975   3.417   5.964   3.167
10692SOL    HW232976   3.313   6.056   3.253
10693SOL     OW32977   2.255   6.513   6.947
10693SOL    HW132978   2.313   6.440   6.984
10693SOL    HW232979   2.302   6.558   6.871
10694SOL     OW32980   5.302   6.491   1.930
10694SOL    HW132981   5.283   6.582   1.893
10694SOL    HW232982   5.219   6.455   1.973
10695SOL     OW32983   5.951   2.124   2.933
10695SOL    HW132984   5.976   2.135   2.837
10695SOL    HW232985   6.017   2.174   2.990
10696SOL     OW32986   0.434   3.601   3.713
10696SOL    HW132987   0.465   3.695   3.700
10696SOL    HW232988   0.399   3.565   3.627
10697SOL     OW32989   0.039   5.896   4.732
10697SOL    HW132990   0.092   5.953   4.795
10697SOL    HW232991   0.080   5.900   4.641
10698SOL     OW32992   4.518   5.276   5.817
10698SOL    HW132993   4.559   5.203   5.874
10698SOL    HW232994   4.543   5.365   5.855
10699SOL     OW32995   4.177   3.363   1.906
10699SOL    HW132996   4.119   3.444   1.919
10699SOL    HW232997   4.203   3.327   1.996
10700SOL     OW32998   6.824   6.697   1.574
10700SOL    HW132999   6.885   6.636   1.625
10700SOL    HW233000   6.751   6.644   1.532
10701SOL     OW33001   3.503   6.353   0.283
10701SOL    HW133002   3.511   6.273   0.223
10701SOL    HW233003   3.565   6.342   0.360
10702SOL     OW33004   6.005   2.702   1.668
10702SOL    HW133005   6.053   2.765   1.608
10702SOL    HW233006   6.060   2.685   1.750
10703SOL     OW33007   3.103   4.080   5.131
10703SOL    HW133008   3.020   4.032   5.102
10703SOL    HW233009   3.078   4.169   5.169
10704SOL     OW33010   6.684   5.473   1.591
10704SOL    HW133011   6.626   5.546   1.555
10704SOL    HW233012   6.758   5.453   1.527
10705SOL     OW33013   6.463   4.602   1.561
10705SOL    HW133014   6.502   4.564   1.477
10705SOL    HW233015   6.518   4.572   1.640
10706SOL     OW33016   5.190   6.732   1.878
10706SOL    HW133017   5.217   6.808   1.937
10706SOL    HW233018   5.235   6.741   1.790
10707SOL     OW33019   0.164   6.358   3.907
10707SOL    HW133020   0.079   6.342   3.957
10707SOL    HW233021   0.220   6.275   3.909
10708SOL     OW33022   4.154   0.514   2.307
10708SOL    HW133023   4.175   0.494   2.212
10708SOL    HW233024   4.182   0.608   2.328
10709SOL     OW33025   6.355   6.147   4.927
10709SOL    HW133026   6.422   6.195   4.871
10709SOL    HW233027   6.354   6.186   5.019
10710SOL     OW33028   0.693   6.241   4.696
10710SOL    HW133029   0.749   6.317   4.661
10710SOL    HW233030   0.637   6.204   4.622
10711SOL     OW33031   1.824   6.544   3.812
10711SOL    HW133032   1.827   6.630   3.863
10711SOL    HW233033   1.795   6.470   3.872
10712SOL     OW33034   2.680   1.511   1.441
10712SOL    HW133035   2.705   1.429   1.391
10712SOL    HW233036   2.603   1.491   1.502
10713SOL     OW33037   1.234   3.931   1.539
10713SOL    HW133038   1.300   3.859   1.515
10713SOL    HW233039   1.256   4.014   1.487
10714SOL     OW33040   5.916   3.789   4.395
10714SOL    HW133041   5.827   3.821   4.427
10714SOL    HW233042   5.904   3.708   4.338
10715SOL     OW33043   5.281   6.795   2.806
10715SOL    HW133044   5.293   6.882   2.757
10715SOL    HW233045   5.196   6.798   2.859
10716SOL     OW33046   5.577   1.996   4.485
10716SOL    HW133047   5.487   2.038   4.484
10716SOL    HW233048   5.646   2.066   4.465
10717SOL     OW33049   1.026   2.806   0.569
10717SOL    HW133050   1.080   2.889   0.554
10717SOL    HW233051   1.085   2.735   0.607
10718SOL     OW33052   1.472   2.513   6.526
10718SOL    HW133053   1.492   2.417   6.507
10718SOL    HW233054   1.424   2.554   6.448
10719SOL     OW33055   5.535   5.524   1.149
10719SOL    HW133056   5.582   5.471   1.220
10719SOL    HW233057   5.597   5.592   1.111
10720SOL     OW33058   6.909   3.632   4.854
10720SOL    HW133059   6.831   3.596   4.803
10720SOL    HW233060   6.992   3.586   4.826
10721SOL     OW33061   5.992   4.106   5.070
10721SOL    HW133062   6.074   4.151   5.106
10721SOL    HW233063   5.928   4.089   5.144
10722SOL     OW33064   0.068   3.749   0.963
10722SOL    HW133065   0.101   3.695   0.886
10722SOL    HW233066   0.104   3.710   1.049
10723SOL     OW33067   0.707   3.903   6.153
10723SOL    HW133068   0.756   3.816   6.156
10723SOL    HW233069   0.760   3.972   6.203
10724SOL     OW33070   4.559   0.925   6.883
10724SOL    HW133071   4.550   0.989   6.959
10724SOL    HW233072   4.656   0.917   6.858
10725SOL     OW33073   0.477   4.470   4.607
10725SOL    HW133074   0.491   4.482   4.509
10725SOL    HW233075   0.394   4.517   4.635
10726SOL     OW33076   5.132   0.014   5.470
10726SOL    HW133077   5.157   6.982   5.551
10726SOL    HW233078   5.129   0.111   5.493
10727SOL     OW33079   0.143   4.947   4.319
10727SOL    HW133080   0.110   5.023   4.262
10727SOL    HW233081   0.239   4.963   4.343
10728SOL     OW33082   6.338   6.285   0.777
10728SOL    HW133083   6.272   6.210   0.780
10728SOL    HW233084   6.430   6.249   0.768
10729SOL     OW33085   5.467   0.975   2.684
10729SOL    HW133086   5.556   0.931   2.676
10729SOL    HW233087   5.431   0.993   2.592
10730SOL     OW33088   2.435   0.150   2.243
10730SOL    HW133089   2.393   0.240   2.233
10730SOL    HW233090   2.530   0.161   2.273
10731SOL     OW33091   3.000   5.758   0.314
10731SOL    HW133092   3.017   5.856   0.325
10731SOL    HW233093   2.969   5.719   0.401
10732SOL     OW33094   4.782   5.167   2.271
10732SOL    HW133095   4.719   5.090   2.284
10732SOL    HW233096   4.846   5.144   2.198
10733SOL     OW33097   5.372   2.129   0.201
10733SOL    HW133098   5.452   2.169   0.246
10733SOL    HW233099   5.353   2.039   0.240
10734SOL     OW33100   1.324   0.213   0.269
10734SOL    HW133101   1.389   0.203   0.344
10734SOL    HW233102   1.233   0.232   0.306
10735SOL     OW33103   1.740   4.552   2.704
10735SOL    HW133104   1.714   4.583   2.795
10735SOL    HW233105   1.657   4.538   2.649
10736SOL     OW33106   6.828   0.610   3.324
10736SOL    HW133107   6.913   0.595   3.374
10736SOL    HW233108   6.848   0.615   3.226
10737SOL     OW33109   1.473   1.723   0.148
10737SOL    HW133110   1.455   1.672   0.064
10737SOL    HW233111   1.472   1.821   0.129
10738SOL     OW33112   2.610   0.799   3.675
10738SOL    HW133113   2.577   0.775   3.584
10738SOL    HW233114   2.537   0.845   3.726
10739SOL     OW33115   0.085   1.000   1.103
10739SOL    HW133116   0.161   1.061   1.082
10739SOL    HW233117   0.043   1.027   1.189
10740SOL     OW33118   0.561   4.718   5.763
10740SOL    HW133119   0.652   4.705   5.723
10740SOL    HW233120   0.505   4.637   5.747
10741SOL     OW33121   0.476   0.806   3.308
10741SOL    HW133122   0.415   0.791   3.386
10741SOL    HW233123   0.561   0.755   3.321
10742SOL     OW33124   5.650   0.266   1.734
10742SOL    HW133125   5.735   0.216   1.752
10742SOL    HW233126   5.577   0.229   1.792
10743SOL     OW33127   1.987   1.868   5.281
10743SOL    HW133128   2.031   1.942   5.330
10743SOL    HW233129   1.888   1.885   5.276
10744SOL     OW33130   2.611   1.660   2.217
10744SOL    HW133131   2.599   1.710   2.303
10744SOL    HW233132   2.658   1.719   2.151
10745SOL     OW33133   1.049   4.364   0.731
10745SOL    HW133134   1.139   4.383   0.769
10745SOL    HW233135   0.991   4.323   0.801
10746SOL     OW33136   1.980   4.123   1.327
10746SOL    HW133137   1.913   4.151   1.395
10746SOL    HW233138   2.039   4.051   1.365
10747SOL     OW33139   4.235   0.398   3.191
10747SOL    HW133140   4.286   0.360   3.114
10747SOL    HW233141   4.298   0.423   3.264
10748SOL     OW33142   3.483   0.831   1.661
10748SOL    HW133143   3.516   0.888   1.737
10748SOL    HW233144   3.385   0.845   1.650
10749SOL     OW33145   6.824   5.176   3.438
10749SOL    HW133146   6.803   5.124   3.521
10749SOL    HW233147   6.904   5.137   3.393
10750SOL     OW33148   3.911   6.210   4.251
10750SOL    HW133149   3.834   6.273   4.253
10750SOL    HW233150   3.878   6.116   4.257
10751SOL     OW33151   1.304   4.374   4.433
10751SOL    HW133152   1.265   4.311   4.500
10751SOL    HW233153   1.360   4.324   4.368
10752SOL     OW33154   6.332   3.802   6.021
10752SOL    HW133155   6.412   3.794   5.962
10752SOL    HW233156   6.333   3.728   6.088
10753SOL     OW33157   4.093   6.965   4.540
10753SOL    HW133158   4.076   6.900   4.614
10753SOL    HW233159   4.146   6.920   4.468
10754SOL     OW33160   1.327   1.686   3.522
10754SOL    HW133161   1.256   1.757   3.518
10754SOL    HW233162   1.414   1.725   3.492
10755SOL     OW33163   0.402   2.039   6.750
10755SOL    HW133164   0.340   1.995   6.684
10755SOL    HW233165   0.487   2.065   6.704
10756SOL     OW33166   6.476   4.393   0.226
10756SOL    HW133167   6.527   4.330   0.284
10756SOL    HW233168   6.422   4.455   0.282
10757SOL     OW33169   1.134   2.748   6.819
10757SOL    HW133170   1.089   2.747   6.908
10757SOL    HW233171   1.213   2.687   6.821
10758SOL     OW33172   1.058   6.610   5.478
10758SOL    HW133173   1.070   6.708   5.485
10758SOL    HW233174   1.144   6.567   5.449
10759SOL     OW33175   1.886   2.922   6.644
10759SOL    HW133176   1.813   2.930   6.711
10759SOL    HW233177   1.955   2.857   6.676
10760SOL     OW33178   6.255   1.213   0.187
10760SOL    HW133179   6.334   1.268   0.159
10760SOL    HW233180   6.240   1.139   0.120
10761SOL     OW33181   1.476   1.902   6.444
10761SOL    HW133182   1.550   1.864   6.390
10761SOL    HW233183   1.498   1.894   6.541
10762SOL     OW33184   3.652   1.844   5.130
10762SOL    HW133185   3.652   1.943   5.140
10762SOL    HW233186   3.592   1.803   5.198
10763SOL     OW33187   4.496   6.391   1.343
10763SOL    HW133188   4.490   6.459   1.416
10763SOL    HW233189   4.413   6.395   1.287
10764SOL     OW33190   5.657   2.036   5.815
10764SOL    HW133191   5.690   2.116   5.765
10764SOL    HW233192   5.611   2.066   5.899
10765SOL     OW33193   5.744   2.691   1.069
10765SOL    HW133194   5.689   2.610   1.087
10765SOL    HW233195   5.841   2.669   1.078
10766SOL     OW33196   3.634   2.710   1.383
10766SOL    HW133197   3.593   2.704   1.292
10766SOL    HW233198   3.659   2.619   1.415
10767SOL     OW33199   1.343   0.592   0.136
10767SOL    HW133200   1.366   0.528   0.209
10767SOL    HW233201   1.422   0.606   0.077
10768SOL     OW33202   4.341   5.237   0.512
10768SOL    HW133203   4.412   5.270   0.574
10768SOL    HW233204   4.300   5.154   0.549
10769SOL     OW33205   2.101   5.072   4.798
10769SOL    HW133206   2.197   5.047   4.783
10769SOL    HW233207   2.095   5.166   4.831
10770SOL     OW33208   5.486   0.192   5.032
10770SOL    HW133209   5.553   0.216   4.961
10770SOL    HW233210   5.534   0.161   5.114
10771SOL     OW33211   5.180   1.041   4.579
10771SOL    HW133212   5.088   1.005   4.591
10771SOL    HW233213   5.247   0.967   4.587
10772SOL     OW33214   0.233   6.374   4.477
10772SOL    HW133215   0.311   6.323   4.440
10772SOL    HW233216   0.154   6.313   4.486
10773SOL     OW33217   0.206   5.394   6.847
10773SOL    HW133218   0.262   5.345   6.780
10773SOL    HW233219   0.229   5.360   6.939
10774SOL     OW33220   1.635   1.616   6.627
10774SOL    HW133221   1.674   1.620   6.535
10774SOL    HW233222   1.630   1.708   6.665
10775SOL     OW33223   0.173   2.677   0.537
10775SOL    HW133224   0.228   2.598   0.562
10775SOL    HW233225   0.232   2.753   0.512
10776SOL     OW33226   1.377   6.605   6.856
10776SOL    HW133227   1.419   6.582   6.768
10776SOL    HW233228   1.287   6.646   6.839
10777SOL     OW33229   3.753   5.928   4.148
10777SOL    HW133230   3.688   5.885   4.086
10777SOL    HW233231   3.706   5.955   4.232
10778SOL     OW33232   5.481   6.451   5.253
10778SOL    HW133233   5.402   6.402   5.215
10778SOL    HW233234   5.516   6.515   5.185
10779SOL     OW33235   6.044   4.912   3.278
10779SOL    HW133236   6.125   4.965   3.252
10779SOL    HW233237   6.060   4.815   3.259
10780SOL     OW33238   1.572   0.152   4.111
10780SOL    HW133239   1.658   0.196   4.138
10780SOL    HW233240   1.591   0.058   4.083
10781SOL     OW33241   3.982   1.149   3.060
10781SOL    HW133242   4.067   1.160   3.113
10781SOL    HW233243   3.923   1.082   3.106
10782SOL     OW33244   7.013   2.083   3.506
10782SOL    HW133245   6.936   2.031   3.469
10782SOL    HW233246   6.979   2.169   3.546
10783SOL     OW33247   0.936   3.738   3.240
10783SOL    HW133248   1.033   3.714   3.253
10783SOL    HW233249   0.893   3.671   3.180
10784SOL     OW33250   3.247   0.996   3.858
10784SOL    HW133251   3.284   1.027   3.770
10784SOL    HW233252   3.321   0.960   3.915
10785SOL     OW33253   0.101   4.941   1.254
10785SOL    HW133254   0.018   4.954   1.309
10785SOL    HW233255   0.175   4.909   1.314
10786SOL     OW33256   4.832   5.005   1.964
10786SOL    HW133257   4.771   4.953   2.023
10786SOL    HW233258   4.882   4.942   1.904
10787SOL     OW33259   2.985   1.373   4.602
10787SOL    HW133260   3.057   1.344   4.538
10787SOL    HW233261   3.014   1.456   4.650
10788SOL     OW33262   2.330   4.767   6.541
10788SOL    HW133263   2.359   4.763   6.637
10788SOL    HW233264   2.392   4.713   6.484
10789SOL     OW33265   5.903   2.899   0.070
10789SOL    HW133266   5.869   2.842   0.144
10789SOL    HW233267   5.839   2.895   7.014
10790SOL     OW33268   0.740   0.766   2.432
10790SOL    HW133269   0.804   0.768   2.355
10790SOL    HW233270   0.684   0.849   2.432
10791SOL     OW33271   0.073   0.066   0.616
10791SOL    HW133272   0.033   0.148   0.574
10791SOL    HW233273   0.088   7.018   0.546
10792SOL     OW33274   3.705   3.907   2.885
10792SOL    HW133275   3.728   3.835   2.951
10792SOL    HW233276   3.763   3.897   2.804
10793SOL     OW33277   5.095   2.785   4.150
10793SOL    HW133278   4.996   2.788   4.135
10793SOL    HW233279   5.135   2.872   4.121
10794SOL     OW33280   2.923   3.488   3.848
10794SOL    HW133281   2.930   3.421   3.774
10794SOL    HW233282   2.928   3.580   3.809
10795SOL     OW33283   0.200   4.188   3.388
10795SOL    HW133284   0.180   4.128   3.466
10795SOL    HW233285   0.114   4.211   3.342
10796SOL     OW33286   5.753   6.923   0.673
10796SOL    HW133287   5.829   6.860   0.690
10796SOL    HW233288   5.723   6.913   0.578
10797SOL     OW33289   3.639   1.763   1.482
10797SOL    HW133290   3.595   1.778   1.571
10797SOL    HW233291   3.571   1.769   1.409
10798SOL     OW33292   2.482   6.319   0.960
10798SOL    HW133293   2.498   6.310   0.862
10798SOL    HW233294   2.531   6.399   0.994
10799SOL     OW33295   3.503   0.656   2.321
10799SOL    HW133296   3.452   0.739   2.344
10799SOL    HW233297   3.441   0.591   2.275
10800SOL     OW33298   0.109   0.275   0.247
10800SOL    HW133299   0.123   0.188   0.201
10800SOL    HW233300   0.198   0.317   0.268
10801SOL     OW33301   0.949   6.837   5.939
10801SOL    HW133302   0.991   6.749   5.916
10801SOL    HW233303   0.849   6.826   5.943
10802SOL     OW33304   0.998   2.661   3.340
10802SOL    HW133305   0.908   2.661   3.296
10802SOL    HW233306   1.067   2.694   3.275
10803SOL     OW33307   3.311   3.529   5.770
10803SOL    HW133308   3.326   3.625   5.744
10803SOL    HW233309   3.225   3.497   5.731
10804SOL     OW33310   5.881   3.774   1.780
10804SOL    HW133311   5.926   3.820   1.857
10804SOL    HW233312   5.883   3.676   1.795
10805SOL     OW33313   4.165   6.988   0.085
10805SOL    HW133314   4.108   6.975   0.005
10805SOL    HW233315   4.120   6.949   0.165
10806SOL     OW33316   4.821   3.787   5.842
10806SOL    HW133317   4.815   3.774   5.743
10806SOL    HW233318   4.730   3.781   5.883
10807SOL     OW33319   1.624   6.677   3.027
10807SOL    HW133320   1.705   6.694   3.083
10807SOL    HW233321   1.612   6.752   2.962
10808SOL     OW33322   6.458   3.087   6.531
10808SOL    HW133323   6.422   3.005   6.576
10808SOL    HW233324   6.531   3.127   6.587
10809SOL     OW33325   3.333   5.862   3.803
10809SOL    HW133326   3.305   5.852   3.708
10809SOL    HW233327   3.370   5.954   3.818
10810SOL     OW33328   2.138   0.515   4.732
10810SOL    HW133329   2.141   0.455   4.812
10810SOL    HW233330   2.146   0.461   4.649
10811SOL     OW33331   3.928   4.552   5.506
10811SOL    HW133332   3.858   4.509   5.450
10811SOL    HW233333   3.901   4.549   5.603
10812SOL     OW33334   0.887   3.471   1.436
10812SOL    HW133335   0.871   3.376   1.461
10812SOL    HW233336   0.972   3.503   1.476
10813SOL     OW33337   2.353   4.927   7.016
10813SOL    HW133338   2.403   4.845   6.987
10813SOL    HW233339   2.308   4.969   6.937
10814SOL     OW33340   1.260   6.754   6.519
10814SOL    HW133341   1.288   6.836   6.470
10814SOL    HW233342   1.205   6.781   6.598
10815SOL     OW33343   4.776   4.534   3.889
10815SOL    HW133344   4.687   4.541   3.936
10815SOL    HW233345   4.791   4.439   3.862
10816SOL     OW33346   2.047   2.339   1.282
10816SOL    HW133347   2.141   2.344   1.317
10816SOL    HW233348   1.985   2.318   1.358
10817SOL     OW33349   5.260   6.752   3.252
10817SOL    HW133350   5.305   6.663   3.257
10817SOL    HW233351   5.313   6.819   3.304
10818SOL     OW33352   4.386   4.570   5.425
10818SOL    HW133353   4.455   4.512   5.382
10818SOL    HW233354   4.313   4.512   5.462
10819SOL     OW33355   6.751   4.463   6.662
10819SOL    HW133356   6.656   4.436   6.675
10819SOL    HW233357   6.762   4.505   6.572
10820SOL     OW33358   6.126   5.804   4.247
10820SOL    HW133359   6.154   5.901   4.251
10820SOL    HW233360   6.119   5.775   4.152
10821SOL     OW33361   5.603   6.681   1.882
10821SOL    HW133362   5.618   6.589   1.847
10821SOL    HW233363   5.626   6.684   1.979
10822SOL     OW33364   0.701   2.877   2.888
10822SOL    HW133365   0.781   2.935   2.900
10822SOL    HW233366   0.620   2.933   2.869
10823SOL     OW33367   1.527   5.340   1.190
10823SOL    HW133368   1.615   5.385   1.207
10823SOL    HW233369   1.453   5.398   1.223
10824SOL     OW33370   6.318   1.104   3.454
10824SOL    HW133371   6.365   1.018   3.476
10824SOL    HW233372   6.224   1.084   3.427
10825SOL     OW33373   2.790   0.691   6.055
10825SOL    HW133374   2.825   0.775   6.013
10825SOL    HW233375   2.710   0.713   6.110
10826SOL     OW33376   1.027   3.240   3.734
10826SOL    HW133377   0.934   3.206   3.750
10826SOL    HW233378   1.023   3.337   3.713
10827SOL     OW33379   5.950   4.133   4.300
10827SOL    HW133380   5.998   4.120   4.387
10827SOL    HW233381   5.870   4.073   4.297
10828SOL     OW33382   0.703   5.200   2.065
10828SOL    HW133383   0.796   5.207   2.028
10828SOL    HW233384   0.656   5.287   2.052
10829SOL     OW33385   3.766   1.997   1.187
10829SOL    HW133386   3.697   1.924   1.183
10829SOL    HW233387   3.777   2.036   1.096
10830SOL     OW33388   5.068   1.916   3.672
10830SOL    HW133389   5.162   1.931   3.703
10830SOL    HW233390   5.062   1.931   3.573
10831SOL     OW33391   3.739   5.759   2.262
10831SOL    HW133392   3.832   5.784   2.234
10831SOL    HW233393   3.724   5.662   2.244
10832SOL     OW33394   1.179   2.496   0.000
10832SOL    HW133395   1.253   2.563   0.003
10832SOL    HW233396   1.111   2.519   0.070
10833SOL     OW33397   1.521   1.021   1.843
10833SOL    HW133398   1.542   1.001   1.748
10833SOL    HW233399   1.595   1.074   1.884
10834SOL     OW33400   1.058   2.186   6.388
10834SOL    HW133401   1.036   2.136   6.472
10834SOL    HW233402   1.138   2.145   6.345
10835SOL     OW33403   6.493   2.270   0.080
10835SOL    HW133404   6.591   2.291   0.075
10835SOL    HW233405   6.460   2.249   7.009
10836SOL     OW33406   6.946   2.196   4.544
10836SOL    HW133407   6.958   2.264   4.471
10836SOL    HW233408   6.871   2.224   4.603
10837SOL     OW33409   0.023   4.793   0.127
10837SOL    HW133410   0.105   4.829   0.083
10837SOL    HW233411   6.963   4.841   0.091
10838SOL     OW33412   5.689   6.271   4.951
10838SOL    HW133413   5.673   6.230   5.041
10838SOL    HW233414   5.637   6.356   4.943
10839SOL     OW33415   3.979   2.741   1.216
10839SOL    HW133416   3.896   2.704   1.175
10839SOL    HW233417   4.009   2.680   1.290
10840SOL     OW33418   3.526   5.571   2.122
10840SOL    HW133419   3.598   5.605   2.061
10840SOL    HW233420   3.498   5.479   2.093
10841SOL     OW33421   5.226   5.382   0.125
10841SOL    HW133422   5.198   5.391   0.029
10841SOL    HW233423   5.324   5.403   0.132
10842SOL     OW33424   5.157   2.446   1.322
10842SOL    HW133425   5.234   2.384   1.306
10842SOL    HW233426   5.124   2.435   1.416
10843SOL     OW33427   1.236   2.428   1.128
10843SOL    HW133428   1.178   2.506   1.149
10843SOL    HW233429   1.246   2.420   1.029
10844SOL     OW33430   0.286   6.685   3.614
10844SOL    HW133431   0.359   6.692   3.682
10844SOL    HW233432   0.223   6.611   3.641
10845SOL     OW33433   3.046   0.209   5.650
10845SOL    HW133434   2.992   0.286   5.615
10845SOL    HW233435   3.131   0.201   5.598
10846SOL     OW33436   4.866   2.360   0.869
10846SOL    HW133437   4.947   2.397   0.824
10846SOL    HW233438   4.883   2.351   0.967
10847SOL     OW33439   4.068   3.651   6.324
10847SOL    HW133440   4.033   3.613   6.238
10847SOL    HW233441   4.162   3.621   6.339
10848SOL     OW33442   3.148   3.228   6.909
10848SOL    HW133443   3.210   3.159   6.871
10848SOL    HW233444   3.070   3.239   6.847
10849SOL     OW33445   2.929   5.871   3.359
10849SOL    HW133446   2.936   5.783   3.313
10849SOL    HW233447   2.834   5.890   3.382
10850SOL     OW33448   3.672   5.509   6.780
10850SOL    HW133449   3.685   5.420   6.824
10850SOL    HW233450   3.757   5.562   6.784
10851SOL     OW33451   2.479   2.884   6.469
10851SOL    HW133452   2.571   2.915   6.443
10851SOL    HW233453   2.433   2.957   6.520
10852SOL     OW33454   1.167   0.263   6.770
10852SOL    HW133455   1.251   0.290   6.722
10852SOL    HW233456   1.093   0.323   6.742
10853SOL     OW33457   3.164   2.195   5.647
10853SOL    HW133458   3.087   2.173   5.706
10853SOL    HW233459   3.141   2.171   5.552
10854SOL     OW33460   4.712   6.791   5.043
10854SOL    HW133461   4.711   6.891   5.043
10854SOL    HW233462   4.807   6.758   5.041
10855SOL     OW33463   2.522   6.506   1.445
10855SOL    HW133464   2.438   6.551   1.416
10855SOL    HW233465   2.600   6.563   1.421
10856SOL     OW33466   6.147   1.597   1.707
10856SOL    HW133467   6.098   1.660   1.768
10856SOL    HW233468   6.087   1.573   1.630
10857SOL     OW33469   6.038   2.521   3.132
10857SOL    HW133470   6.019   2.526   3.034
10857SOL    HW233471   5.998   2.437   3.169
10858SOL     OW33472   0.726   1.837   6.149
10858SOL    HW133473   0.799   1.904   6.149
10858SOL    HW233474   0.660   1.859   6.221
10859SOL     OW33475   2.132   2.957   4.059
10859SOL    HW133476   2.155   3.031   4.122
10859SOL    HW233477   2.036   2.964   4.034
10860SOL     OW33478   6.566   1.506   6.102
10860SOL    HW133479   6.478   1.503   6.054
10860SOL    HW233480   6.566   1.582   6.167
10861SOL     OW33481   3.788   3.332   3.033
10861SOL    HW133482   3.860   3.321   2.964
10861SOL    HW233483   3.699   3.309   2.993
10862SOL     OW33484   2.558   1.715   6.491
10862SOL    HW133485   2.641   1.677   6.450
10862SOL    HW233486   2.551   1.812   6.469
10863SOL     OW33487   4.020   0.301   3.037
10863SOL    HW133488   3.958   0.374   3.063
10863SOL    HW233489   4.102   0.305   3.093
10864SOL     OW33490   3.593   5.398   0.711
10864SOL    HW133491   3.674   5.354   0.750
10864SOL    HW233492   3.610   5.496   0.701
10865SOL     OW33493   6.064   1.528   2.920
10865SOL    HW133494   6.019   1.594   2.860
10865SOL    HW233495   6.064   1.438   2.876
10866SOL     OW33496   4.745   4.501   0.304
10866SOL    HW133497   4.763   4.524   0.208
10866SOL    HW233498   4.740   4.586   0.357
10867SOL     OW33499   3.317   4.258   0.149
10867SOL    HW133500   3.315   4.198   0.229
10867SOL    HW233501   3.409   4.293   0.136
10868SOL     OW33502   2.461   2.217   3.618
10868SOL    HW133503   2.549   2.263   3.629
10868SOL    HW233504   2.470   2.122   3.648
10869NA      NA33505   0.595   2.339   5.895
10870NA      NA33506   4.284   4.646   5.219
10871NA      NA33507   1.857   4.213   2.537
10872NA      NA33508   5.042   4.143   3.698
10873NA      NA33509   4.231   2.249   5.195
10874NA      NA33510   3.169   4.812   1.671
10875NA      NA33511   0.112   4.402   0.249
10876NA      NA33512   3.243   3.443   2.997
10877NA      NA33513   4.801   5.062   1.011
10878NA      NA33514   3.906   6.910   5.394
10879NA      NA33515   6.092   5.389   1.182
10880NA      NA33516   2.028   0.730   4.698
10881NA      NA33517   3.976   5.006   1.780
10882NA      NA33518   4.103   3.269   1.691
   7.02083   7.02083   7.02083
